/*--------------------------------*- C++ -*----------------------------------*\
| =========                 |                                                 |
| \\      /  F ield         | OpenFOAM: The Open Source CFD Toolbox           |
|  \\    /   O peration     | Version:  3.0.1                                 |
|   \\  /    A nd           | Web:      www.OpenFOAM.org                      |
|    \\/     M anipulation  |                                                 |
\*---------------------------------------------------------------------------*/
FoamFile
{
    version     2.0;
    format      ascii;
    class       volScalarField;
    location    "3.2";
    object      k;
}
// * * * * * * * * * * * * * * * * * * * * * * * * * * * * * * * * * * * * * //

dimensions      [0 2 -2 0 0 0 0];

internalField   nonuniform List<scalar> 
7968
(
0.0012343867844
0.00134833121038
0.00143492454449
0.00148557937454
0.00151212545845
0.00152392046139
0.00152729861919
0.00152645261335
0.00152452840547
0.00152322024376
0.00152350233267
0.00152508255607
0.00152710131992
0.00152749669299
0.00152348091521
0.00151110421902
0.0014842263767
0.00143356613781
0.00134732229047
0.00123400272029
0.00134827126456
0.00184889752178
0.00218398939359
0.00238416702331
0.00249897276861
0.00255926150379
0.00258597704826
0.00259400466378
0.00259406428197
0.00259311949354
0.00259462327497
0.00259795097039
0.00259889851833
0.00259033264244
0.00256196989113
0.00249959475085
0.00238296240404
0.00218168165697
0.00184654070573
0.00134724400754
0.00143488254538
0.00218407119525
0.00268310646776
0.00298691615377
0.00316725164002
0.00326722206645
0.0033161992274
0.00333569214931
0.00334129623628
0.00334299616701
0.00334545843932
0.00334792370034
0.00334458175291
0.00332504876318
0.00327400882166
0.00317092987154
0.00298749421058
0.00268137761515
0.00218143537723
0.00143335286818
0.00148576829794
0.00238484001897
0.00298751217128
0.00335922405012
0.00358382233246
0.00371162423508
0.00377763862366
0.00380809755549
0.0038248477331
0.00383180992474
0.0038344345382
0.00383218733917
0.00382084496178
0.00379212877812
0.00372418122528
0.00359227448939
0.00336303444132
0.00298740886616
0.00238257920163
0.00148388268511
0.00151269953703
0.00250043205934
0.00316849627978
0.00358429717421
0.00383812038972
0.00398569762026
0.0040736532878
0.00412004223926
0.00414094670798
0.00414957367338
0.00415276906478
0.00414988254323
0.00413319041197
0.00408911457243
0.00400479153351
0.00385276812706
0.00359263635325
0.00317100688246
0.00249919633402
0.00151063948753
0.00152491571528
0.0025613466017
0.00326874140412
0.00371195496693
0.0039852022993
0.00415833129524
0.00425893986371
0.00430959887966
0.00433177854036
0.00434089083202
0.00434470025944
0.00434247722812
0.00432539270312
0.00427749772806
0.00417766529828
0.0040062590482
0.0037256634364
0.00327466441279
0.00256175191219
0.00152291713343
0.001528620672
0.00258824202067
0.00331731226992
0.00377681208799
0.00407063606634
0.00425692680007
0.00436153286446
0.00441286116011
0.00443450150118
0.00444328091591
0.0044477171726
0.0044469735209
0.00443135037702
0.00438338723455
0.00427956316368
0.00409207568273
0.00379577291099
0.00332700322601
0.00259069951258
0.00152691441566
0.00152788599027
0.00259583384359
0.00333549877191
0.00380433868111
0.00411455864769
0.0043049852933
0.00441012566177
0.00446024549984
0.00448035875634
0.00448840025104
0.00449348144748
0.0044945917389
0.00448130794144
0.00443502821687
0.00433086934151
0.00413915978348
0.00382776518464
0.00334879215329
0.00260048446403
0.0015266949261
0.00152551616058
0.00259468821226
0.00333893970299
0.00381741181128
0.00413270975159
0.00432412509631
0.00442846679794
0.00447691327755
0.00449547567546
0.00450286515632
0.00450861722189
0.00451142391228
0.00450032355759
0.00445600136742
0.00435271938252
0.00415990507973
0.00384126837294
0.00335536566577
0.0026014784322
0.00152559050862
0.00152363529207
0.00259186094191
0.00333779368397
0.00382187539545
0.00413851889956
0.0043300432301
0.00443375498331
0.004481250515
0.00449902756356
0.00450619862209
0.00451255698713
0.00451640770133
0.00450651084277
0.00446327696287
0.00436060207147
0.00416758490141
0.00384747382044
0.00335664965115
0.00260039582046
0.00152448004624
0.00152305967305
0.00259119785685
0.00333736564636
0.00382228314002
0.00413919319212
0.00433100320408
0.00443510076065
0.00448309349494
0.00450144181768
0.00450911907703
0.00451569754754
0.00451949304336
0.00450932944896
0.00446568310523
0.00436254290848
0.00416909520396
0.0038486497085
0.00335752901279
0.00260076563951
0.00152418007998
0.00152432017213
0.00259286927876
0.00333763380252
0.0038184926926
0.00413460792035
0.0043268433474
0.00443228465164
0.00448212773392
0.00450224021091
0.00451095998581
0.00451737660302
0.00452008534785
0.00450823833442
0.00446272205669
0.00435808053705
0.00416401041884
0.00384440836944
0.00335741750377
0.00260232054575
0.00152522372122
0.00152623453236
0.00259305949573
0.00333324411624
0.00380448154224
0.00411730401198
0.00430907322931
0.00441590081067
0.00446812350755
0.00449049464382
0.00450043101283
0.00450651169063
0.00450750543801
0.00449306448253
0.00444489043907
0.00433855881589
0.00414486668885
0.00383204112989
0.00335058089924
0.00260082252785
0.00152600081561
0.00152671132669
0.00258466924492
0.00331402167764
0.00377550057354
0.00407358775757
0.00426177845848
0.00436848553134
0.00442237259559
0.00444669408056
0.0044576929637
0.00446331344959
0.00446241468477
0.00444531316027
0.00439490048238
0.00428825351189
0.00409813191881
0.00379870146156
0.00332690116919
0.00258943039695
0.00152556282861
0.00152292187651
0.00255725811989
0.00326463079418
0.00370956673205
0.00398616260868
0.00416314172012
0.00426622365568
0.00431966217299
0.00434471053466
0.00435618036698
0.00436124294783
0.00435881159294
0.00434003449281
0.00428934395658
0.00418632826685
0.00401156513569
0.00372583446928
0.00327173138381
0.00255830617009
0.00152083406815
0.00151084110687
0.00249629103063
0.00316398517596
0.00358103726041
0.0038375688925
0.00398910402392
0.00408044570728
0.00412973386127
0.00415349772655
0.00416447244043
0.00416890826414
0.00416578806877
0.00414749058002
0.00410063731713
0.00401355780671
0.00385502665086
0.00358965751133
0.00316533250501
0.00249378573807
0.00150798342899
0.00148423642245
0.00238114296669
0.00298316180875
0.00335555392442
0.00358208220295
0.00371303827893
0.00378305835898
0.00381724720877
0.00383619539993
0.00384540083091
0.00384923510446
0.00384722142826
0.00383701366973
0.00380372560536
0.00372960114424
0.00359147786794
0.00335766417194
0.00298001054546
0.0023760917683
0.00148101287175
0.00143375368543
0.00218109590287
0.00267931905128
0.00298329823489
0.00316478750361
0.00326694635792
0.00331899932543
0.00334206338163
0.00335118455756
0.00335568008436
0.00335970581484
0.00336195062612
0.00335633588809
0.00333254737468
0.00327621237378
0.00316808822524
0.00298111276078
0.00267370092676
0.00217502454248
0.00143070262891
0.00134755692664
0.00184674330086
0.00218101097426
0.00238103436457
0.00249637957867
0.00255795562591
0.00258661286903
0.0025970183279
0.00259949901218
0.00260052617511
0.00260311806414
0.00260628083767
0.00260554528246
0.00259399650139
0.00256199915174
0.00249620947269
0.00237728382179
0.0021753585408
0.00184145485221
0.00134528727338
0.00123412230328
0.0013475285821
0.00143366158324
0.00148404449871
0.00151053782131
0.00152253533067
0.00152634753807
0.00152611315562
0.00152508786759
0.00152427267927
0.00152474096735
0.00152620412385
0.00152758295968
0.00152708182105
0.00152203688128
0.00150876789571
0.00148140316794
0.00143082016763
0.00134529302043
0.00123320527303
0.00134405949098
0.00182636836526
0.00215497035882
0.00235507239399
0.00247337401125
0.0025392217632
0.00257206310523
0.0025856144032
0.00258932751934
0.00258966445389
0.00259105633788
0.0025928693481
0.00259008523942
0.0025765309983
0.00254289625984
0.00247587875684
0.00235641041066
0.00215538687697
0.00182618186033
0.00134344235854
0.00182633696122
0.00365805552582
0.00456308310951
0.00511293356364
0.0054492371881
0.00564666625037
0.00575426011007
0.00580710178167
0.00583017464358
0.00583988436801
0.00584400957851
0.00584165106144
0.00582360697706
0.00577291544893
0.00566471283435
0.00546467436166
0.00512471087794
0.0045710240149
0.00366267532397
0.00182605227512
0.00215479454222
0.0045620712533
0.00575555245315
0.00649789433332
0.00696429545581
0.00724640137543
0.00740584759012
0.00748820007098
0.00752613519723
0.00754231187949
0.00754753729149
0.00754077309634
0.00750944610062
0.00743061003284
0.0072711674595
0.00698648493047
0.00651593093744
0.00576876444508
0.00457046711128
0.00215502185238
0.00235483159109
0.00511082307819
0.00649641370513
0.0073723850236
0.00793215191727
0.00827687695257
0.00847581293583
0.00858252526451
0.00863203667996
0.00865308239741
0.00865922050424
0.00864921848698
0.0086068667342
0.00850638573205
0.00830844642158
0.00796155600478
0.00739739866201
0.00651577869459
0.0051239778753
0.00235588446626
0.00247307414528
0.00544565753552
0.00696060489325
0.00792958036741
0.00855556405524
0.00894549450614
0.00917244944997
0.00929140259208
0.00934723527198
0.00937104310521
0.0093782485312
0.00936764179535
0.00932181668337
0.00920897724985
0.00898360570676
0.00859263455377
0.00796229744883
0.00698696390848
0.00546443572654
0.00247532341669
0.00253875038462
0.00564101751132
0.00723959808325
0.00827054042767
0.00894135179515
0.00936017662954
0.00960113521167
0.0097262101347
0.00978397707563
0.00980843228554
0.00981673423358
0.00980761022122
0.00976187892718
0.00964423536736
0.0094059322597
0.00898590753928
0.00831127291123
0.00727343754287
0.0056659404266
0.00254253304751
0.00257122220094
0.00574592302276
0.00739510831513
0.0084647455295
0.00916352493981
0.00959592944234
0.00984266515918
0.00996816922571
0.0100242653152
0.0100476713636
0.0100570671302
0.0100510642091
0.010008839476
0.00989215508811
0.00964895820964
0.00921567755719
0.00851307791527
0.00743625534063
0.005776932402
0.00257673476905
0.00258415226032
0.00579555086643
0.0074728873388
0.00856589302734
0.00927661736178
0.00971474572016
0.00996167187651
0.0100840243081
0.0101365413292
0.0101581183615
0.0101685886123
0.0101663940009
0.0101293833478
0.0100169165119
0.00977418358033
0.0093353014402
0.00861921947025
0.0075203239074
0.00583198238282
0.00259137874813
0.00258709424993
0.00581506551834
0.00750608221671
0.00861037434511
0.00932626539172
0.00976567170834
0.0100104671209
0.0101289623835
0.0101781033675
0.0101981599282
0.0102096372753
0.0102107707773
0.0101785020069
0.010070591797
0.00983032555776
0.00939041633208
0.00867005889636
0.00755887241903
0.00585585735189
0.00259533683274
0.00258615861824
0.00582112841332
0.00751753879182
0.00862610065113
0.0093440423921
0.00978350880212
0.010026780679
0.0101431155554
0.0101906142825
0.0102101317972
0.0102224053736
0.0102254785439
0.0101958279497
0.010090462615
0.00985177330721
0.00941177902093
0.00868942312939
0.00757375030561
0.00586483152501
0.00259554736866
0.00258582999752
0.00582213893062
0.00751892806421
0.00862785764301
0.00934630828585
0.00978639366469
0.0100304064576
0.0101476003412
0.0101960025733
0.0102162891767
0.0102290130077
0.0102321033311
0.0102020266742
0.0100958858391
0.00985624857191
0.00941533020237
0.00869225734789
0.00757617558538
0.00586690290806
0.00259586284009
0.00258654700971
0.00581788125257
0.00750994232323
0.00861537169924
0.00933267631095
0.00977388365829
0.0100208452113
0.0101418319368
0.0101935713761
0.0102158175357
0.0102285677805
0.0102297195157
0.0101961686046
0.0100859401759
0.00984283963873
0.00940016318756
0.00867767397418
0.00756528412265
0.00586135620161
0.00259624808743
0.00258355400757
0.00579957840509
0.00747851749999
0.00857372776467
0.00928623468424
0.00972716610452
0.00997755249517
0.0101038503999
0.0101604053537
0.0101853263815
0.0101976882966
0.0101954002701
0.0101562103079
0.0100398906561
0.00979245461063
0.00934901852976
0.0086295859814
0.00752862896486
0.00583913054806
0.0025923621439
0.00257045893602
0.00575031360954
0.00740125741029
0.00847338538149
0.00917483820796
0.00961085385128
0.00986206768079
0.00999264860015
0.0100538272948
0.0100813722751
0.010093036372
0.0100867484615
0.0100415209951
0.00991960222341
0.00967003444195
0.00923064900169
0.00852359771298
0.00744406138365
0.00578371395143
0.00257707036289
0.0025378153864
0.00564504609748
0.00724528053082
0.00827889377573
0.00895331903717
0.00937583123748
0.00962177023248
0.00975262583018
0.00981613983158
0.00984522346229
0.0098559910105
0.00984637949508
0.00979697267241
0.00967304749341
0.00942716776158
0.00900003688357
0.00831984990826
0.00727897062065
0.00567094341748
0.00254181429151
0.00247209073214
0.00544891797726
0.00696515591217
0.00793649018965
0.00856596923882
0.00896010214161
0.00919219888002
0.00931713641754
0.00937903150286
0.00940768926231
0.00941743224124
0.00940616776576
0.00935624231581
0.00923660285617
0.00900325507649
0.00860435428651
0.00796802083375
0.00698972623843
0.00546735182131
0.00247370332177
0.00235396178382
0.00511323123898
0.0064996342709
0.00737742058772
0.00794016126589
0.00828904040536
0.00849308813375
0.00860517156482
0.00866101545729
0.0086868763814
0.00869552078695
0.00868459260991
0.00863807179932
0.00853145159006
0.00832538430442
0.00797059179392
0.00740065387741
0.00651651207296
0.00512550183558
0.00235391600476
0.00215411056495
0.00456364114558
0.00575746861363
0.00650103628319
0.00696976289712
0.00725541939441
0.00741955328296
0.00750733171411
0.00755077817716
0.00757140146545
0.00757908562945
0.00757190063866
0.0075369178051
0.00745208654601
0.00728520283425
0.00699345885921
0.00651794108179
0.00576891471085
0.0045717728245
0.00215333749966
0.00182580207686
0.00365884540862
0.00456387057659
0.00511447083411
0.00545246976104
0.00565266775339
0.00576404191208
0.00582134327651
0.00584887714971
0.00586226692666
0.00586851170127
0.00586602733466
0.00584531618619
0.00578991685561
0.00567594584099
0.00547053359806
0.00512694038387
0.00457208702547
0.00366476310395
0.00182493756969
0.00134360479657
0.00182571760515
0.00215399875616
0.00235399583432
0.00247256550602
0.00253916642179
0.00257326032688
0.00258842925786
0.00259361902158
0.00259553823369
0.00259776911706
0.00259936850935
0.00259551643909
0.0025800161122
0.00254412839924
0.00247518177044
0.00235463400449
0.00215356685026
0.00182497850326
0.00134222722462
0.00142735477896
0.00214568775326
0.00263708456764
0.00294448824033
0.00313354488337
0.00324437842354
0.00330396797593
0.00333208815651
0.00334326657237
0.00334735721538
0.00334956398356
0.00334920545073
0.00334039197437
0.00331312571508
0.00325316770483
0.00314119480633
0.00295056953431
0.00264129859392
0.00214767574574
0.00142674545109
0.0021457538363
0.00453999347052
0.00573610040609
0.00648352050668
0.0069551394451
0.00724172883998
0.00740464450209
0.0074893121731
0.00752916609238
0.00754651225885
0.00755201884349
0.00754474245659
0.00751243404813
0.00743199391733
0.00727010832362
0.00698201623361
0.00650712333046
0.00575515371186
0.00455339621422
0.00214750991541
0.00263654355912
0.00573351310497
0.00726876600225
0.00824466095533
0.00887478024582
0.00926710435426
0.00949599599434
0.00961835499989
0.00967700222176
0.00970182843218
0.0097074042177
0.00969296770386
0.00964243837989
0.00952530377338
0.00929883308446
0.00890664459024
0.00827481923653
0.00729544968431
0.00575445214391
0.00264081711628
0.00294302508213
0.00647770428836
0.00824092152952
0.00937425490972
0.0101161428145
0.0105845045347
0.0108612311894
0.0110111100202
0.0110821183334
0.0111110076087
0.0111161553281
0.0110968867525
0.0110337231385
0.0108898463034
0.0106172174064
0.0101512180869
0.00940978567898
0.00827468166555
0.00650635295632
0.00294992556717
0.00313086463117
0.00694526659329
0.00886621952222
0.0101111398597
0.0109328223084
0.0114553888594
0.0117627486485
0.0119256849211
0.0120009517415
0.012030220513
0.0120348897445
0.012014389235
0.0119463321843
0.0117895230676
0.0114868818262
0.0109701539086
0.0101517876412
0.00890723446481
0.00698213789209
0.00314063817907
0.00324019082958
0.00722697758975
0.00925282339986
0.0105736633291
0.0114497540302
0.0120040193066
0.0123266882372
0.0124919116926
0.0125637905762
0.0125897897907
0.012593988411
0.0125757567541
0.0125095998419
0.0123497907676
0.0120349518687
0.0114880343211
0.0106192483039
0.00930130483779
0.00727240939193
0.00325307144444
0.00329805757619
0.0073844835049
0.00947553550113
0.0108442512336
0.011751704784
0.0123220044739
0.0126464581844
0.0128041381801
0.0128667330037
0.0128869932649
0.0128911312092
0.0128782171263
0.0128197130401
0.0126654795333
0.0123501372503
0.011792581288
0.0108945634269
0.00953120803592
0.00743814225944
0.00331407258979
0.00332432573297
0.00746361964458
0.00959184405316
0.0109888234578
0.0119099891086
0.0124837842545
0.0128011135624
0.0129462791735
0.0129973039648
0.0130111708548
0.0130157829185
0.0130097751914
0.0129620549349
0.0128185379581
0.0125099047518
0.0119519542103
0.0110425451094
0.0096536286914
0.00752433740469
0.00334318369021
0.00333355505442
0.00749822448406
0.0096450018467
0.0110550993769
0.0119813557378
0.012552615049
0.0128608398749
0.0129941495522
0.0130351566856
0.0130437667149
0.0130490413458
0.0130492390837
0.013011503625
0.0128788175921
0.0125787160179
0.0120244283614
0.0111118890781
0.00971131604783
0.00756414625523
0.00335464398894
0.00333565689528
0.00751115357028
0.00966550479382
0.0110804517077
0.012007859524
0.0125764627912
0.0128788760677
0.0130052316485
0.0130405990001
0.0130463566808
0.0130521041578
0.0130558435347
0.0130237890464
0.0128974265715
0.0126026799332
0.01205137972
0.0111384828164
0.00973400516869
0.00757992509521
0.00335813878926
0.00333606333102
0.00751373760378
0.0096685989685
0.011083865234
0.0120115963453
0.012580493571
0.0128830419551
0.0130095010351
0.0130450999219
0.0130511357182
0.0130570161304
0.0130606220367
0.0130281171578
0.012901114043
0.012605801114
0.012054141558
0.0111410315086
0.00973663338792
0.00758267996928
0.00335891667135
0.00333479593742
0.00750545094224
0.00965368478737
0.0110647930002
0.0119920413266
0.012564199655
0.0128728225467
0.0130064410917
0.0130481490089
0.0130575968279
0.0130632719809
0.0130630756204
0.0130239968075
0.0128893816311
0.0125875306939
0.0120320624574
0.0111187556228
0.00971832543831
0.00757152883646
0.00335669128539
0.00332619900377
0.00747420244367
0.00960467201851
0.0110034394984
0.011926024322
0.0125010181797
0.0128188139241
0.0129645351024
0.0130168970671
0.0130323034326
0.0130376662261
0.0130310642349
0.0129811874129
0.012834564998
0.0125230311651
0.0119628903466
0.0110517567352
0.00966281301359
0.00753414675481
0.00334555760913
0.0033001389628
0.00739670657183
0.00949050610613
0.0108618323027
0.0117711088984
0.0123427488738
0.0126677884162
0.0128264806266
0.0128912244362
0.0129138124217
0.0129190921474
0.0129054360918
0.0128440902631
0.0126857407842
0.0123662988727
0.0118050903065
0.0109042984487
0.00954003204373
0.00744783181775
0.0033156779213
0.00324209748746
0.00723914955507
0.00926779063436
0.0105916469911
0.0114704849507
0.0120270348302
0.0123514029179
0.0125186577285
0.012593636244
0.0126226360366
0.0126282183878
0.0126089606595
0.0125391959108
0.0123740988106
0.0120533183011
0.0115006169365
0.0106273773511
0.00930779381461
0.00728013437403
0.00325329623027
0.00313244178055
0.00695618225625
0.00887959743444
0.010127475861
0.010952504305
0.0114784863587
0.0117896617073
0.0119565843952
0.0120360491608
0.012068825014
0.012074985575
0.0120530764181
0.0119804565855
0.0118168866158
0.0115061668266
0.0109815565984
0.0101575105627
0.00891082877346
0.00698742059282
0.00313965569893
0.00294424413785
0.0064867143708
0.00825181298386
0.00938764759031
0.0101328085308
0.0106051817569
0.0108864712758
0.0110416674721
0.0111179310584
0.0111509233427
0.0111579276363
0.0111372352808
0.0110684801984
0.01091790175
0.0106361180942
0.0101613145011
0.00941360654122
0.00827627205408
0.00651003069187
0.00294850489661
0.0026373210135
0.00574025649231
0.00727677004265
0.00825453177161
0.00888747444169
0.00928374098616
0.00951766755049
0.00964579567127
0.00971016643633
0.00973951429766
0.0097474666683
0.00973223565605
0.00967714192346
0.00955260145235
0.00931695604937
0.00891606618305
0.00827818951725
0.0072968681524
0.00575809587692
0.00263984709599
0.00214589999189
0.00454417491735
0.00574110346357
0.00648988456362
0.00696380180076
0.00725388286046
0.00742148624188
0.00751164522265
0.00755698226914
0.00757880028926
0.00758685461563
0.00757934497014
0.00754351440316
0.00745675689462
0.00728706119906
0.00699163921346
0.00651178157819
0.00575834839491
0.00455838450179
0.00214719511055
0.00142682822302
0.00214577291713
0.00263733962501
0.0029449260913
0.00313449503575
0.00324641471869
0.00330776583455
0.0033381810662
0.00335179081601
0.00335796455418
0.00336133087536
0.00336078256967
0.00335026627063
0.00332009377251
0.0032567338562
0.00314183387814
0.0029495670366
0.00264022739326
0.00214733409614
0.00142518708432
0.00147876282071
0.00234988136221
0.00295549694004
0.00334332826434
0.00358756927016
0.00373386616155
0.00381408547309
0.00385272916526
0.00386859865201
0.00387461550558
0.00387736124312
0.00387606346102
0.00386338471848
0.0038262475861
0.00374631283818
0.00359962886954
0.00335447765278
0.00296476100228
0.00235544862497
0.00147852673462
0.00235027103461
0.00511900967139
0.00653309673864
0.00743585450118
0.00801565335445
0.00837239364544
0.00857641999995
0.00868205439747
0.00873088060504
0.00875108791419
0.00875634060199
0.00874586213754
0.00870457590975
0.00860363842126
0.00840198512048
0.00804612331506
0.00746623598997
0.00656180771792
0.005142700592
0.00235530552567
0.00295454500759
0.00652857953545
0.00832562395087
0.00948680274672
0.010247903581
0.0107264622589
0.0110061832763
0.0111534869589
0.0112215231022
0.0112478558315
0.011250256117
0.011229182669
0.0111656569352
0.0110220228269
0.0107463117723
0.0102722597351
0.00951612899501
0.00835881332453
0.00656111784525
0.00296424725497
0.00334026530448
0.00742618175541
0.00948145187325
0.0108178726752
0.0117028115656
0.0122655319698
0.0125981513812
0.0127712648931
0.0128473318097
0.0128727822808
0.0128715350306
0.0128438922698
0.0127661170254
0.0125936903154
0.0122692783275
0.0117164076962
0.010842156403
0.0095159626186
0.00746571500969
0.00335382690696
0.00358183221978
0.00800001603076
0.0102368082031
0.0116976833644
0.0126712665132
0.0132938048405
0.0136541832754
0.0138332329451
0.0139042577435
0.0139227544673
0.0139172225397
0.0138879562263
0.0138068361486
0.0136233494413
0.0132714604132
0.0126691508799
0.0117159033241
0.0102722939815
0.00804672283513
0.00359913708518
0.00372503421865
0.00835010052028
0.0107096285623
0.0122565509162
0.0132922850323
0.0139449312751
0.014308796908
0.0144746537026
0.0145284980253
0.0145347546109
0.0145257896755
0.0145011081566
0.0144279126918
0.0142487643468
0.0138910287362
0.0132665345711
0.0122671453848
0.0107468423056
0.00840482723515
0.00374634298276
0.00380201334376
0.00854731779179
0.0109842648526
0.0125881993299
0.0136569057609
0.0143156362412
0.014663177366
0.0148016230282
0.0148299061892
0.0148213483643
0.0148109882578
0.0147968578615
0.0147412740868
0.0145795610023
0.014232403441
0.0136062811196
0.0125874210866
0.0110236112746
0.00861020420243
0.00382740975603
0.00383755171195
0.00864668036852
0.0111278454541
0.0127634699965
0.0138441899798
0.0144933560237
0.0148142968759
0.0149195031299
0.0149206388489
0.014897883493
0.0148880681584
0.0148876286277
0.0148545377015
0.0147172255627
0.014390087622
0.0137745900954
0.0127539224133
0.0111692665067
0.00871664030289
0.00386658730978
0.00385060401376
0.00869042205849
0.0111939941429
0.0128433030547
0.0139245564722
0.0145596832413
0.0148552597573
0.0149320959323
0.0149111952522
0.0148773445813
0.0148685439463
0.0148801194753
0.0148670366367
0.0147524705163
0.0144455785164
0.013843855552
0.0128277120579
0.0112359916691
0.00876508671465
0.00388225824261
0.00385430431577
0.00870746176087
0.0112209120148
0.0128742426144
0.0139534643612
0.0145790379536
0.01485939251
0.0149199451623
0.0148865805707
0.0148463762416
0.014837972541
0.0148561176393
0.014854154207
0.0147525739715
0.0144578420284
0.0138652846451
0.0128537039515
0.0112610354641
0.00878377426085
0.00388721108791
0.00385551953042
0.00871196571861
0.0112263578725
0.0128803738251
0.0139599761645
0.0145851155953
0.0148644837654
0.0149239799916
0.0148898255916
0.0148490688899
0.014840201714
0.0148578101557
0.0148551336679
0.0147528151876
0.0144577750042
0.0138655465188
0.012854801049
0.0112630794629
0.0087867047726
0.003888248144
0.00385397487086
0.00870304222816
0.0112094187905
0.0128608370717
0.0139432249218
0.0145769226641
0.0148693993515
0.0149430918391
0.0149200501622
0.0148848133249
0.014874824445
0.0148849233799
0.01486981021
0.0147531319856
0.0144453189801
0.0138444152408
0.0128304927776
0.0112413728733
0.00877280549006
0.0038847625961
0.00384242872922
0.00866523649916
0.0111508372245
0.0127895122389
0.0138715594744
0.0145180404743
0.0148337941009
0.014934204282
0.0149326555059
0.0149084723553
0.0148972951952
0.0148948019239
0.0148586621677
0.0147181906638
0.0143896145066
0.0137750396616
0.0127571868846
0.0111757561986
0.00872637970905
0.0038690974676
0.00380747080011
0.00856888167183
0.011011427972
0.0126190095484
0.013688738618
0.0143436541641
0.0146845580062
0.0148174200775
0.0148433131021
0.0148340529691
0.0148227523346
0.0148065037666
0.0147474077511
0.0145820549131
0.0142329251221
0.0136070707423
0.012590226528
0.0110284587642
0.00861865207179
0.00382833500062
0.00373023495053
0.00837171301341
0.0107372217547
0.0122891468351
0.0133262792203
0.013975672418
0.0143333946357
0.0144945123486
0.0145471199082
0.0145537692096
0.0145444194876
0.0145176049788
0.0144404305364
0.0142567902538
0.0138955362983
0.0132688407364
0.0122683737358
0.0107479200558
0.00840960346737
0.00374482225249
0.00358636864467
0.00801953030851
0.0102618438405
0.0117283029691
0.0127057685442
0.0133281528256
0.0136854894432
0.013862423151
0.0139341973445
0.0139542289283
0.0139486807688
0.0139169246791
0.013830735274
0.0136408767318
0.0132820380742
0.0126736309446
0.011714721574
0.0102691163473
0.00804732734229
0.00359549533221
0.00334399898255
0.00744247866036
0.00950208308357
0.0108433823523
0.0117333764541
0.0123003868377
0.0126353887305
0.0128107313746
0.0128898701499
0.0129178505533
0.012916907118
0.0128863899711
0.0128021585441
0.012620901334
0.0122856944961
0.0117217408574
0.0108390275864
0.00950991907627
0.00746357487169
0.00334935131871
0.00295722131367
0.00654107723024
0.00834094439815
0.00950563125054
0.0102710798144
0.0107547361399
0.0110401700642
0.0111935003166
0.0112670032852
0.0112968108378
0.0113007596253
0.011277762484
0.0112076753768
0.0110534733595
0.0107648422907
0.0102783145381
0.00951317487999
0.00835277538757
0.00655896169286
0.00296055812775
0.00235138547719
0.00512702134383
0.00654274718733
0.00744768730046
0.00803077396385
0.00839215988305
0.00860214410975
0.00871454091058
0.00876991882882
0.0087952274428
0.00880315098921
0.00879185792728
0.00874536428585
0.00863507688972
0.00842167761117
0.0080544406923
0.00746644288033
0.00655931407173
0.00514350015085
0.0023533194603
0.00147831668575
0.00235119254435
0.0029574783035
0.00334560779264
0.00359039350965
0.00373793694627
0.00382032567549
0.00386188829366
0.00388087737722
0.00388955619586
0.00389380212432
0.00389226917675
0.00387716613725
0.00383568478755
0.00375049778868
0.00359912587404
0.0033511905401
0.0029613099865
0.00235368759515
0.00147620957796
0.00151294478406
0.00250344027501
0.00320542897696
0.00366364838817
0.00395583705523
0.00413087612575
0.00422495352781
0.00426782570461
0.00428330241271
0.00428783703626
0.00428985210186
0.00428851655416
0.00427488459232
0.00423263945889
0.00413903821244
0.00396548290129
0.00367566253853
0.00321882700366
0.00251409455649
0.00151384547134
0.00250460155917
0.00558289888148
0.00719170356082
0.00823672628944
0.00891348906099
0.00932768175794
0.00955837808189
0.00967043780607
0.00971565598678
0.00972941164912
0.00972980299097
0.00971642340316
0.00967115376808
0.00955865392749
0.00932897656574
0.0089194324547
0.00825155008388
0.0072167780443
0.00561324657093
0.00251415066046
0.00320457882545
0.00718611119285
0.00922757690606
0.0105655192631
0.0114480923299
0.0120002962324
0.0123155572913
0.0124699215003
0.0125300607464
0.0125426862594
0.0125333759946
0.0125029941728
0.0124294922001
0.0122671588469
0.0119545067067
0.0114137541607
0.0105507362274
0.00923740440023
0.00721639135459
0.00321855292451
0.00365997849669
0.00822693345223
0.0105627082547
0.0120967431139
0.0131190375556
0.0137654656017
0.0141341391346
0.0143054084591
0.0143599070864
0.0143600662455
0.014338755915
0.0142977799641
0.0142079623931
0.0140154055694
0.0136515281205
0.0130302102639
0.012044592127
0.0105501255652
0.00825157035767
0.00367527530932
0.00394890989441
0.00890026405653
0.0114456950561
0.0131227920705
0.0142468848334
0.0149524955091
0.0153329125801
0.0154871102241
0.0155142980282
0.0154918782694
0.0154589613531
0.0154165088289
0.0153286745083
0.0151319349871
0.0147482550888
0.0140842638134
0.0130253373667
0.0114109505951
0.00891989471189
0.00396502693673
0.00412029863498
0.00931140633135
0.0120017739645
0.0137828890431
0.0149737748898
0.0156932568887
0.0160448104887
0.0161482804517
0.0161287163106
0.0160773729273
0.0160375618942
0.0160072249034
0.0159422357864
0.0157669910413
0.0153935708899
0.0147223552503
0.0136301301311
0.0119464007217
0.00932966626714
0.0041383718403
0.00421074018648
0.0095398398416
0.0123255286141
0.0141770753973
0.0153936501175
0.0160902243024
0.0163789540207
0.0164090379111
0.0163313500907
0.0162503996436
0.016211044494
0.016206267828
0.0161826177208
0.0160504022795
0.0157103006017
0.0150574742921
0.0139633965321
0.0122487273711
0.00955975608395
0.00423198793362
0.00425048024897
0.00965118511131
0.0124927184716
0.0143805931061
0.0155960008287
0.0162489345357
0.0164629873648
0.0164150166477
0.0162802736829
0.0161740437914
0.0161403647794
0.0161670465241
0.0161925687464
0.0161134887151
0.0158187876294
0.0151980247494
0.0141197976752
0.0123975398317