/*--------------------------------*- C++ -*----------------------------------*\
| =========                 |                                                 |
| \\      /  F ield         | OpenFOAM: The Open Source CFD Toolbox           |
|  \\    /   O peration     | Version:  3.0.1                                 |
|   \\  /    A nd           | Web:      www.OpenFOAM.org                      |
|    \\/     M anipulation  |                                                 |
\*---------------------------------------------------------------------------*/
FoamFile
{
    version     2.0;
    format      ascii;
    class       volScalarField;
    location    "0.6";
    object      alpha.water;
}
// * * * * * * * * * * * * * * * * * * * * * * * * * * * * * * * * * * * * * //

dimensions      [0 0 0 0 0 0 0];

internalField   nonuniform List<scalar> 
7968
(
0.999999985587
1.00000001302
0.999999970733
1.00000137533
1.00000000012
1.0000000332
1.00000000236
1.00000001599
1.00000001154
1.00000000611
1.00000002371
1.00000002609
1.00000002939
1.00000001103
1.00000007167
1.00000000005
1.00000143145
0.999999970753
1.00000001342
0.999999982108
1.00000000422
0.999999978225
1.00000076319
1.00000000041
1.00000001297
1.00000000047
1.0000000005
1
0.999999992802
0.999999998691
1.00000000462
0.999999995756
1.00000000142
1.0000000049
1.00000000162
1.00000001355
1.0000000002
1.00000079034
0.999999983595
1.00000000234
0.999999968714
1.00000054741
1.00000000049
1.00000003213
1.00000000184
1.00000000735
1.00000000001
0.999999983681
0.999999983754
0.999999986064
1.00000000991
1.00000000815
1.00000000823
1.0000000039
1.00000001236
1.00000000388
1.00000002584
1.00000000035
1.00000050267
0.999999972434
1.00000044058
1.00000000102
1.00000003949
1.00000000318
1.00000002418
1.00000000146
0.999999993842
0.999999977339
0.999999975404
1.00000000104
1.00000000034
1.00000001382
1.00000000156
1.00000000713
1.00000000369
1.00000001851
1.00000000444
1.00000002586
1.0000000022
1.00000034442
1.00000001141
1.0000000221
1.00000000247
1.00000003107
1.00000000002
1.000000016
1.00000000079
1.00000001999
1.00000000065
1.00000000003
1.00000000014
1.0000000012
1.00000001872
0.999999972104
1.00000000879
1.00000000222
1.00000002065
1.00000000286
1.00000001279
1.00000001707
1.00000001658
1.00000000247
1.00000002296
0.999999991312
1.00000002298
1.00000001547
1.00000007059
1.00000000442
1.00000000013
1
0.999999999871
0.999999999665
1.0000000103
1.00000004945
0.999999955442
1.00000001035
0.999999991675
1.00000001339
1.00000000327
1.00000001141
1.00000000669
1.00000000685
0.999999988404
0.999999981193
1.0000000397
1.00000013909
1.00000003739
1.00000000091
1.00000000012
1.00000000001
1.0000000002
1.00000000087
1.0000000074
1.00000004635
1.00000017148
0.999999947517
0.999999969396
1.00000000181
1.00000000316
1.00000001008
1.00000000405
1.00000000516
0.999999990358
1.0000000104
1.00000012022
1.0000001344
1.0000000489
1.00000000382
1.00000000233
1.00000000253
1.00000000514
1.00000001507
1.00000003551
1.00000016537
1.00000007571
0.999999955583
0.999999972959
0.999999985865
1.00000000344
1.00000000385
1.00000000353
1.00000000383
0.999999991106
1.00000004874
1.00000009159
1.00000010761
1.00000003054
1.00000002067
1.00000002185
1.00000006959
1.00000006972
1.00000006676
1.00000007308
1.00000004571
1.0000000672
1.00000004528
0.999999989201
0.99999998505
1.00000000284
1.00000000215
1.00000000394
0.999999999095
0.999999952219
1.00000002742
1.00000008439
1.00000006285
1.0000000167
1.00000008264
1.00000015751
1.0000001304
1.00000015827
1.00000010384
1.00000000033
1.00000001739
1.00000007317
1.00000008137
1.00000001942
0.999999958165
0.999999993582
1.00000000327
1.00000000167
1.00000000566
0.999999942647
1.000000023
1.0000000787
1.00000002801
1.00000004091
1.00000006685
1.0000001573
1.00000009243
1.00000016114
1.00000008766
1.00000004971
1.00000004032
1.00000003779
1.00000007566
0.999999981515
0.999999949647
1.00000000072
1.00000000256
1.00000000136
1.00000000201
0.999999947067
0.999999942368
0.999999985171
1.00000003261
1.00000005219
1.00000007393
1.00000004817
1.00000009544
1.00000005527
1.00000006797
1.00000012182
1.00000002487
1.00000002806
1.0000000056
0.999999996543
0.999999966068
1.00000000502
1.00000000137
1.00000000047
1.00000000021
0.999999994454
0.999999957731
1.00000003577
1.00000005364
1.00000009255
1.00000001652
1.00000001071
1.0000000026
1.00000002117
1.00000001483
1.00000004213
1.00000012021
1.00000002053
1.00000003225
1.00000002238
1.00000001776
1.0000000067
1.00000000272
1.00000000076
1.000000008
0.999999999487
1.0000000317
1.00000000591
1.00000009402
1.00000001518
1.00000000845
1.00000000275
1.00000000307
1.00000000626
1.00000000965
1.00000000684
1.00000002977
1.0000001264
1.00000002843
1.00000003397
0.999999988706
1.00000000028
1.00000000061
1.00000001687
1.00000000098
1.00000001597
1.00000000012
1.00000000029
0.999999998371
1.00000000992
1.00000000191
0.999999989646
0.999999993415
0.999999977244
0.999999997785
1.0000000021
1.00000001793
0.999999992306
1.00000000842
1.00000000135
1.00000001479
1.00000000092
1.00000000779
1.00000000095
1.00000003809
1.0000000023
1.00000001373
1.0000000009
1.00000000509
1.00000000245
1.00000000388
1.00000000002
1
0.999999999815
1.00000000014
1.00000000242
1.00000000518
1.0000000217
1.00000000568
1.00000002527
1.00000000428
1.00000003704
1.00000000026
1.00000029204
1.00000000072
1.00000005954
1.00000000373
1.0000000159
1.00000000091
1.00000000755
1.00000000298
1.00000000171
1.00000000002
1.00000000041
1.00000000128
1.00000000362
1.00000001508
1.00000000266
1.00000003127
1.00000000597
1.00000007633
1.00000000062
1.00000035298
0.99999998723
1.00000048906
1.00000000112
1.00000006898
1.00000000513
1.00000001987
1.00000000468
1.00000001039
1.00000000603
1.0000000013
1.00000000174
1.00000000668
1.000000017
1.00000000748
1.00000003432
1.00000000832
1.00000009965
1.00000000157
1.00000062359
0.999999993933
1.00000000749
0.999999984449
1.00000083005
1.00000000089
1.00000006619
1.00000000595
1.00000002181
1.0000000086
1.00000001561
1.0000000046
1.00000000529
1.00000002025
1.00000003041
1.00000002788
1.000000009
1.00000008383
1.00000000285
1.00000104709
0.999999971684
1.00000001412
0.999999995596
1.00000001803
0.99999996434
1.00000157096
1.00000001323
1.00000018442
1.00000000898
1.00000003675
1.00000003284
1.0000000156
1.00000001818
1.00000008718
1.00000004808
1.00000003385
1.00000017561
1.00000007222
1.0000018123
0.999999965333
1.00000001193
0.999999997889
1.00000001773
0.9999999907
0.999999923367
0.999999857034
1.0000014017
1.00000006586
1.0000001649
1.00000010226
1.00000003976
1.00000000055
1.00000000903
1.00000007947
1.00000019123
1.0000001794
1.00000010745
1.00000144721
0.999999850533
0.99999992907
0.999999979612
1.00000002179
1.00000000072
0.99999996954
0.999999956537
1.00000059127
1.0000000147
1.00000004582
1.00000000974
1.00000000457
1.00000000006
0.999999999785
1.00000000026
1.00000000035
1.00000000927
1.00000003928
1.00000006284
1.00000002564
1.00000068249
0.999999949791
0.999999996252
1.00000000003
0.999999969672
0.99999996773
1.0000004184
1.00000000951
1.00000001523
1.00000000166
1.0000000006
1.00000000001
0.999999999855
0.999999999748
1
0.999999999848
1.00000000002
1.00000000141
1.0000000081
1.00000001991
1.00000001923
1.00000044093
0.999999968879
0.999999972346
0.99999990973
1.00000036623
1.00000000788
1.00000001424
1.00000000027
1.00000000002
0.99999999998
0.999999999855
0.999999997901
0.999999999757
1
1
1
0.999999999789
1.00000000009
1.00000000132
1.00000001194
1.0000000174
1.00000029431
0.999999922024
1.00000017014
1.00000000883
1.00000002021
1.00000000215
1
1
0.999999975251
0.999999999757
0.99999999989
0.999999896727
0.999999999973
0.999999999973
0.999999999961
0.999999997835
1
1.00000000002
1.0000000041
1.00000001431
1.00000002093
1.00000009214
1.00000002758
1.00000002384
1.00000000668
1.00000000151
1
0.999999963445
1
1
0.999999999888
0.999999999905
1
1
0.999999999877
0.999999998657
1
1
1.0000000021
1.00000001534
1.00000001952
1.00000003176
1.00000003616
1.00000001519
1.00000001424
1
0.999999989771
1
0.999999999864
1
1
1
1
1
1
1
0.999999994027
0.999999999172
1.00000000052
1.00000001166
1.00000002789
1.00000002217
1.00000002217
1.00000002352
1.00000000851
0.999999997174
0.999999999377
1
1
1
1.00000000159
1.00000000041
1.00000000246
1.00000000714
1
1
1
0.999999985964
1.00000000002
1.00000001689
1.00000002508
1.00000003648
1.00000001734
1.00000001201
1.0000000088
1
1
1
1
1.00000000001
1.00000004754
1.0000001609
1.00000025127
1.00000015132
1.00000000001
1
1
0.999999996759
1.00000000001
1.0000000094
1.00000001906
1.00000001712
1.00000000794
1.00000000634
1.0000000013
0.999999998941
1
1
1
1.00000000449
1.00000023203
1.00000062086
1.00000055656
1.00000009685
1.00000000502
1
1
1
1.00000000009
1.00000000392
1.00000000997
1.00000001248
1.00000000099
1.00000000391
1.00000000092
1
0.999999999705
1
1
1.00000000044
1.00000006438
1.00000047743
1.00000046955
1.00000007899
1.00000001126
1
1
1
1
1.00000000092
1.00000000796
1.00000000611
1.00000000336
1.00000000217
1.00000000047
0.999999973678
0.999999963245
1
1
1.0000000001
1.00000005443
1.00000010271
1.00000013721
1.00000006443
1.00000000007
1
1
1
1
1.00000000203
1.00000000317
1.00000000389
1.00000000206
1.00000000528
1.00000000097
0.999999998984
0.999999971968
0.999999999844
1
1.00000000001
1.00000000013
1.00000000062
1.00000000053
1.0000000001
1.00000000001
1
1
0.999999997196
0.999999999143
1.00000000343
1.00000000622
1.00000000281
1.00000001094
1.00000000281
1.00000000285
1
0.999999997823
0.999999999885
0.999999999895
1
1
1.00000000001
1.00000000001
1
1
1
1
0.999999998766
1
1.00000000439
1.0000000049
1.00000000927
1.00000000609
1.00000001963
1.00000000228
1.00000000034
1
0.999999999932
0.999999999921
0.999999999951
0.999999999971
0.999999999914
0.999999999989
0.999999999983
1
1
0.999999999958
1.00000000002
0.999999999939
1.000000004
1.00000002015
1.00000000339
1.00000023583
1.00000000543
1.00000002227
1.00000000092
1.00000000003
1
0.999999999981
1
1
1
1
1
1
1
1
1.00000000003
1.0000000013
1.00000002643
1.00000000714
1.00000041239
0.999999948711
1.00000028351
1.00000000728
1.00000002363
1.00000000097
1.00000000005
1.00000000003
1
0.999999999561
1
1
1
0.999999999228
1.00000000002
0.999999999857
1.00000000128
1.00000002769
1.00000001353
1.0000004431
0.999999954847
0.999999984585
0.999999968301
1.00000049686
1.00000001326
1.00000002907
1.00000000672
1.00000000168
1.00000000001
1.00000000048
1.00000000007
1
1.00000000001
1
0.999999999869
1.00000000831
1.00000003234
1.00000002203
1.00000061653
0.999999975097
1.00000001871
1.00000000087
0.999999987659
0.999999955419
1.00000073656
1.00000003474
1.00000006439
1.00000004221
1.00000001277
1.0000000001
1.00000000008
1.00000000067
1.00000000008
1.00000000494
1.00000006142
1.00000007194
1.00000005038
1.00000088353
0.999999947158
1.00000000262
1.00000000083
1.0000000075
0.999999978003
0.999999945553
0.999999863166
1.00000114488
1.00000012075
1.00000018685
1.00000020087
1.00000007305
1.00000000033
1.0000000045
1.00000004956
1.00000032198
1.00000016172
1.00000020398
1.00000123725
0.999999840709
0.999999922243
0.999999960064
1.00000000814
1.00000000255
1.00000010859
1.00000000836
1.00000007327
1.00000022506
1.00000062352
1.00000026862
1.00000007362
1.00000000148
1.00000000432
1.00000000183
1.0000000142
1.00000013645
1.00000036142
1.00000069746
1.00000014395
1.00000002954
1.00000000727
1.00000012192
1.00000000254
1.00000003465
1.00000001028
1.00000000616
0.99999992738
1.00000017502
1.00000001237
1.00000001257
1.00000000072
1
0.999999999967
1
1
1.00000000282
1.00000001698
1.00000002366
1.00000032558
0.999999932824
1.00000003075
0.999999994937
1.00000003497
1.00000000063
1.00000001694
0.999999979295
1.00000016898
1.00000000537
1.00000000216
0.999999999852
0.999999999855
0.999999998723
0.999999997132
0.999999999239
0.999999997451
0.999999999034
1
1.00000000386
1.00000001143
1.00000022943
0.999999987624
1.00000000629
1.0000000033
1.0000000607
0.999999947748
1.00000025366
1.00000000578
1.00000000064
1
0.999999999257
0.999999998527
0.999999993102
0.999999997341
0.999999999752
0.999999999835
0.999999998809
0.999999999551
1
1.00000000097
1.00000001262
1.0000002256
0.999999955071
1.00000005699
1.00000000602
1.00000032104
1.00000001777
1.00000000196
1
0.999999999848
0.999990458587
0.999969364319
0.99996219796
0.99996368039
0.999963491815
0.999961811013
0.999969129289
0.999991096191
1
1
1.00000000166
1.0000000429
1.00000014056
1.00000001775
1.00000035293
1.00000004397
1.00000001523
1
1.00000000016
0.999967337112
0.999858566606
0.999748026336
0.999708515853
0.999711857526
0.999713031968
0.999708423488
0.999747093135
0.999858487283
0.999967307608
1.00000000117
1.00000000107
1.00000001994
1.00000006133
1.00000021966
1.00000003942
1.00000004768
1.00000000282
0.999999999768
0.999990308168
0.9998585955
0.999580884486
0.999364111705
0.999313853241
0.999317353838
0.999318542885
0.999311341814
0.999367533704
0.999581182464
0.999858680796
0.999990229269
1.00000000141
1.00000000916
1.0000000374
1.00000004111
1.00000006066
1.00000001946
1.00000000219
1
0.999969042662
0.999749094106
0.999372551108
0.999124849045
0.999072519809
0.999085113716
0.999083704979
0.999073575509
0.999126000753
0.999373537753
0.99974646707
0.999969021645
1.00000000008
1.00000000239
1.0000000385
1.00000002956
1.00000003154
1.00000001493
1
0.999999997896
0.999962027148
0.999708957
0.99932708417
0.999071546896
0.999037026452
0.99905717284
0.99905336303
0.999036272356
0.999073012763
0.999331108204
0.999706051764
0.999961014533
1
1.00000000008
1.00000001403
1.00000004061
1.00000001345
1.00000000609
1
0.999999999763
0.999964865377
0.999715332215
0.999333049278
0.999078749205
0.999037497334
0.999037794426
0.999043770356
0.999036070079
0.999078299849
0.999332444704
0.999714304292
0.999963590382
0.999999997377
0.99999999983
0.999999996395
1.00000001331
0.999999995904
1.00000000194
1
0.999999999768
0.999965280494
0.999711920243
0.999331138255
0.999078978111
0.999037671642
0.999034866747
0.999039131938
0.999038302911
0.999078629724
0.999331938436
0.999712651588
0.999963742422
0.999999977379
1
1.00000000046
0.999999998017
1.00000000373
1.00000000567
1.00000000093
0.999999998473
0.999962068944
0.999709289958
0.999325738518
0.999071780053
0.999034657174
0.99904925202
0.999049493212
0.999035046954
0.999073144577
0.999331017618
0.999706901605
0.999960810645
0.999999999387
1.00000000016
1.0000000044
1.00000000579
1.00000001013
1.00000000679
1.00000000053
1
0.99996927132
0.999746343985
0.999372169203
0.999124224955
0.999070280063
0.999082812405
0.999082950651
0.999073727686
0.999127162522
0.999370917634
0.999744284894
0.999968467484
1
1.00000000075
1.00000000945
1.00000001142
1.00000001821
1.00000002839
1.00000000205
0.999999998984
0.999990200114
0.999858175498
0.99957878569
0.999365462613
0.999313101592
0.999316907726
0.999317416959
0.999309856471
0.99936387448
0.999578451505
0.999858009638
0.999990222867
0.999999999143
1.00000000241
1.00000002728
1.0000000098
1.00000019365
1.00000003068
1.000000014
1
0.999999999586
0.999966747712
0.999857922521
0.99974711148
0.999707800502
0.999710101384
0.999710163584
0.99970884041
0.999746729018
0.999857702495
0.999966899791
0.999999999909
1
1.00000001309
1.00000002747
1.00000039151
1.00000000729
1.00000021348
1.00000001446
1.00000000156
1
0.999999999932
0.999990222818
0.999969253989
0.99996241114
0.999965643578
0.999966152641
0.999962197741
0.999968951154
0.999990372107
0.999999999948
1
1.00000000258
1.00000001736
1.00000028404
1.00000000279
1.00000004886
0.999999951865
1.00000022649
1.0000000044
1.00000000136
0.999999999961
0.999999998147
1
0.999999999751
1
1
0.999999999406
0.999999998558
0.999999996946
1
1.00000000133
1.00000000923
1.00000030148
0.999999940025
1.00000004088
1.00000000033
1.00000000137
0.999999963538
1.0000002357
1.0000000074
1.00000000312
1.00000000079
0.999999999776
0.999999999927
0.999999999921
0.999999999922
0.999999998983
0.999999999175
1.00000000097
1.00000000208
1.00000001171
1.00000025191
0.999999988376
1.00000001953
1.00000000059
1.00000004674
0.999999977213
0.999999987971
0.999999927655
1.00000019358
1.00000002855
1.00000001501
1.00000000179
0.999999999788
0.999999999928
0.999999999368
1.00000000003
1.00000000166
1.00000001236
1.00000003802
1.00000024556
0.999999929678
1.0000000202
0.999999976801
1.00000007025
1.00000000012
1.00000013374
1.00000000032
1.00000006783
1.00000026263
1.00000046713
1.00000032679
1.00000010758
1.00000000055
1.00000000166
1.00000000939
1.000000006
1.00000006702
1.00000040638
1.00000043099
1.00000019405
1.00000003715
1.00000000746
1.00000015852
1.00000000296
1.00002245648
1.00001239777
1.00000023911
1.00000050967
1.00000028347
1.00000046177
1.00000007801
1.0000000118
1.00000000868
1.00000000134
1.00000000716
1.00000000317
1.00000000946
1.00000013186
1.00000046789
1.00000030429
1.00000052279
1.00000023828
1.00001164336
1.00002253135
1.00001685149
1.00000005781
0.999999974924
1.0000000388
1.00000001025
1.00000006724
0.999999999385
0.999999990071
0.99999999709
0.99999998721
0.999999989848
1
1.00000000036
0.999999999907
1.00000010897
1.0000000162
1.00000006003
0.999999990745
1.00000008404
1.00001701508
1.00000015001
1.00000000174
1.00000001648
0.999999996693
1.00000008165
1.0000000004
0.999999994341
0.999999996134
0.999999991256
0.999999981905
0.999999996304
0.999999996104
0.999999996552
0.999999996676
1.00000000093
1.0000000985
0.999999991321
1.00000001869
1.00000001228
1.00000012113
1.00000003674
1.00000009198
1.00000000686
1.00000011775
1.00000000027
0.999977437692
0.999897340954
0.999817465359
0.999794616582
0.999796932441
0.999797487492
0.99979423648
0.999817463814
0.999897571982
0.999977513488
1.0000000007
1.00000016229
1.00000001318
1.00000007554
1.00000005338
1.00000013171
1.0000000583
1.00000020461
1.0000000005
0.999942929173
0.999708944948
0.999366156674
0.99914421055
0.999092804465
0.999097461482
0.999097515879
0.999092935707
0.999144476804
0.999366436385
0.999709143203
0.999943100926
1.00000000126
1.00000020832
1.0000001098
1.0000001043
1.00000008009
1.00000033799
1.00000000878
0.999977676366
0.999709042676
0.999138764284
0.998649118579
0.998423357187
0.998364003136
0.998371066302
0.998371600468
0.99836482408
0.998424228253
0.998649778774
0.999139087456
0.999709192562
0.999977665366
1.0000000233
1.00000023216
1.00000009005
1.0000002326
1.00000003732
1.00000000176
0.99989716647
0.999366224998
0.998646103304
0.998133826049
0.997512645599
0.997031085085
0.996940173929
0.996941388278
0.997038198773
0.997512636014
0.998118723585
0.998646900792
0.999366427861
0.999896927561
1.00000000296
1.00000006433
1.00000013637
1.00000007133
1.00000002151
1
0.999817716752
0.999144908807
0.998417879664
0.997210716178
0.996307228704
0.996096141426
0.996152128661
0.996151934924
0.996096741441
0.996306595168
0.997199340002
0.998417364593
0.999145262787
0.999817561732
1
1.0000000192
1.00000005681
1.00000005621
1.00000000416
0.999999998321
0.999794523787
0.999093894191
0.998353698429
0.996819654439
0.996135314277
0.996156495307
0.996269087076
0.996260008446
0.996139440122
0.996143690608
0.996810092986
0.998353375665
0.999094160764
0.999794355367
1
1.00000000559
1.00000006837
1.00000003809
1.00000000088
0.999999999763
0.999797091179
0.999098252075
0.998361207892
0.99684784576
0.996196537267
0.996280149697
0.996264251925
0.996269673668
0.996269518331
0.996205847287
0.996846473135
0.99836197189
0.999098371763
0.99979692992
0.999999998403
1.00000000026
1.00000004022
1.00000002579
1.00000000028
0.999999999974
0.999797252871
0.999098145307
0.998360494357
0.996845063575
0.996195442774
0.996268249148
0.996269867522
0.996270649395
0.996261647159
0.996202193401
0.996845436946
0.998361374915
0.999098206551
0.999796762233
1
1.00000000074
1.00000002904
1.00000001151
1.00000000227
1
0.999794459087
0.999093443128
0.998353179566
0.996820282526
0.99613497171
0.996130402959
0.996256114716
0.996250390668
0.996124756734
0.99613977848
0.996810210124
0.998353225952
0.999093585793
0.999794292078
0.999999999532
1.000000002
1.00000001426
1.00000002449
1.00000001084
1
0.999817506491
0.999144153225
0.998416125259
0.997266346374
0.996313185907
0.996104954156
0.996160734054
0.9961579144
0.996101788747
0.996313574715
0.997261921213
0.998415988463
0.999144297593
0.999817490437
1
1.00000001193
1.00000001388
1.0000001503
1.00000003169
1.00000000141
0.99989689562
0.99936567243
0.998643951471
0.998160008635
0.997474930398
0.997002226521
0.996928535087
0.996928804642
0.997010705371
0.997484972561
0.998159874584
0.99864455046
0.999365705669
0.999897007824
1.00000000055
1.00000002299
1.00000023263
1.00000005914
1.00000014701
1.00000000621
0.999977201776
0.999708627703
0.999137686025
0.998645713224
0.998418734528
0.998358106336
0.998364989324
0.998365317536
0.998359088419
0.99841970322
0.998646050991
0.999137814496
0.999708792445
0.999977613547
1.00000000702
1.00000030734
1.00000003151
1.00000013243
1.00000003697
1.00000009056
1.0000000002
0.999942648701
0.999708543835
0.99936526359
0.999142861984
0.999091505777
0.999096250392
0.999096363305
0.999091569632
0.999143008122
0.999365346519
0.999708691575
0.999942979786
1.00000000054
1.00000015485
1.00000001525
1.0000001461
1.00000001563
1.00000005263
0.999999996532
1.00000007192
1.00000000008
0.999977425479
0.999897215638
0.999817136057
0.999793545978
0.999796770786
0.999797367838
0.999793699065
0.9998173602
0.999897159895
0.99997754552
1.00000000029
1.00000010451
0.999999989729
1.0000000544
1.00000000867
1.00000009289
0.999999992532
1.00000001499
0.999999995295
1.00000005459
1.00000000057
0.999999997388
0.999999996274
0.999999999696
0.999999998184
0.999999993541
0.999999998264
0.999999998159
0.999999996836
1.00000000032
1.00000004383
0.999999991102
1.00000000263
0.99999996933
1.0000000708
1.00001385551
1.00000007906
0.999999986375
1.00000004368
1.00000001832
1.00000005797
1.00000000355
0.999999990624
0.999999996521
0.999999995886
0.999999979188
1.00000000001
0.999999988584
1.00000000327
1.00000006694
1.00000000777
1.00000004455
0.999999978809
1.0000000933
1.00001497439
1.00002023212
1.00000928576
1.0000002793
1.00000043244
1.00000024962
1.00000037737
1.00000006782
1.00000000953
1.00000000602
1.0000000003
1.00000000299
1.00000001228
1.00000001573
1.000000046
1.00000039364
1.00000026218
1.000000456
1.0000002907
1.00000986846
1.00001868439
1.00000030341
1.00001443519
1.00004373686
1.00000956508
1.00000390972
1.00000014957
1.00000087463
1.00000003347
1.00000000301
1.0000053316
1.00000559536
1.00000001206
1.0000000906
1.00000171918
1.00000024754
1.00000420761
1.00000936605
1.00004334437
1.00001587948
1.0000009828
1.00000830479
1.00002930701
1.00000007681
1.00000000844
1.00000002473
0.99999999598
0.999999981918
0.999999941
0.999999997612
1
1
0.99999999247
0.999999922288
1.00000000383
0.999999998276
1.00000004026
1.0000000107
1.00000009483
1.00002998172
1.00000835745
1.00003743181
1.00000006423
1
1.00000000242
0.999999991068
0.999977393384
0.999894672346
0.99981282809
0.999788257235
0.999788799262
0.999788857291
0.999788180257
0.99981295183
0.999894815796
0.999977538003
0.999999992421
0.999999998847
1
1.0000000782
1.00003659932
1.0000129174
1.00000006313
1.00000003425
0.999999313147
0.999888156894
0.999577779684
0.999205635999
0.998965783613
0.998907688259
0.998915763435
0.998915857784
0.998907916789
0.998966148788
0.99920596136
0.999577910582
0.999888174184
0.999999228611
1.0000000425
1.00000012645
1.0000134989
1.00000505555
1.00000016602
1.00000001059
0.999888087488
0.999410938279
0.998647271629
0.99800037476
0.997685462847
0.997585213574
0.997566017376
0.997566904266
0.997586161286
0.997687160035
0.998001989256
0.998647822018
0.999411102866
0.999888223052
1.00000001685
1.00000014554
1.00000548835
1.00000070371
1.0000000667
0.999977732197
0.999578121655
0.998648056843
0.99762610542
0.996079500639
0.995298338749
0.995303308962
0.995214534017
0.995210134626
0.995297906457
0.995294149601
0.996074528518
0.997627139854
0.998648540508
0.99957828371
0.999977988152
1.00000015604
1.00000131705
1.0000034055
1.00000006727
0.999894884135
0.999206619329
0.99799770291
0.996119536013
0.994622381643
0.99462063777
0.994621522819
0.99461918098
0.99461846012
0.994621395319
0.994619949339
0.994621016932
0.996117980424
0.997997321905
0.999206876764
0.999895123388
1.00000005247
1.00000401972
1.00000295068
1.00000000637
0.999812449626
0.998967830554
0.997678366399
0.995357590864
0.994619806585
0.994616385586
0.994616052959
0.994617600198
0.994616657152
0.994615411204
0.99461547466
0.994618991863
0.995379884192
0.997677111735
0.998968062209
0.999812551037
1.0000000096
1.0000037224
1.0000035601
1.0000000015
0.999788196861
0.998909541666
0.99757773888
0.995439576661
0.994617350107
0.994616026104
0.994614944975
0.994615768868
0.994615324398
0.994614648653
0.994615381178
0.994616345659
0.995445176484
0.997573973806
0.998909731131
0.999787965443
1.00000000118
1.00000520286
1.00001373638
1.00000000003
0.999789443919
0.998917629613
0.997559221548
0.995348352926
0.994615969521
0.994614942998
0.994614468241
0.994613942358
0.994613979429
0.994614364151
0.994614648435
0.994615634962
0.995334828034
0.997555542744
0.998917740481
0.999789533769
1
1.00001455536
1.00001394822
1
0.999789513778
0.998917434195
0.997560768289
0.995344837153
0.994615136067
0.994614580587
0.994614100731
0.994613490527
0.994613490527
0.994613954158
0.994614330765
0.994614844462
0.995333347349
0.997555526214
0.9989175702
0.999789150267
1
1.00001436678
1.00000420285
1.00000000056
0.999787948497
0.998909306769
0.997579821025
0.995422203569
0.994615155472
0.994614336183
0.994614522339
0.994613997206
0.994613954158
0.994614330929
0.994614095321
0.994614639962
0.995418512878
0.997573812023
0.998909242235
0.999787872368
1.00000000059
1.0000053921
1.00000189272
1.00000000388
0.999812159363
0.998967590841
0.997680291428
0.995357410064
0.994618852203
0.994614155346
0.994614400136
0.9946146114
0.994614433117
0.994614167428
0.994613765372
0.994618405604
0.995368374026
0.997676388257
0.998967323117
0.999812051667
1.00000000313
1.00000208712
1.00000183744
1.00000003075
0.999894712704
0.999206332758
0.99799837149
0.996136775811
0.994622904181
0.994619509797
0.994616737735
0.994615842887
0.994615699055
0.994617299306
0.994618965408
0.994622739799
0.996134232573
0.997994924591
0.999206183619
0.999894566129
1.00000005136
1.00000198027
1.00000024623
1.00000002606
0.999977237522
0.999577715576
0.998648072482
0.997625171101
0.9961126149
0.995329736735
0.995354674127
0.995272365984
0.995267672609
0.995344966152
0.995321099893
0.996115071342
0.997623734762
0.998647496751
0.999577764687
0.999977647196
1.00000002408
1.0000002826
1.0000029792
1.00000007449
1.0000000043
0.999887798958
0.999410457388
0.998647257202
0.997997251806
0.997682298138
0.997578768878
0.997558253256
0.997558750917
0.997580205978
0.997684157497
0.997997168203
0.998646952996
0.999410420943
0.99988794855
1.00000000393
1.00000008396
1.00000326947
1.00001038309
1.00000002698
1.00000001163
0.999999094075
0.999888013591
0.999577446482
0.999205378642
0.998965413723
0.99890694283
0.998915228105
0.998915246442
0.998907046821
0.998965492432
0.999205349598
0.999577427252
0.999887945981
0.99999914728
1.00000000011
1.00000002366
1.00001094756
1.00003175024
1.00000005559
1
1.00000000219
0.999999978802
0.999977358672
0.999894544402
0.999812133957
0.999787715996
0.999788523712
0.999788456284
0.999787365491
0.999812173652
0.999894538629
0.999977389739
0.999999983347
1
1
1.00000006052
1.00003115963
1.00000946186
1.00002497621
1.0000000913
1.00000000675
1.00000001509
0.999999913634
0.999999725008
0.999999810877
0.999999969571
1
1
0.999999980788
0.999999817997
0.999999690322
0.99999989682
1.00000001865
1.00000000693
1.00000009534
1.00002533074
1.00000755187
1.00000120645
1.00001255237
1.000037303
1.000007417
1.00000095644
1.00000027162
1.00000046743
1.00000004773
1.00000002847
1.00000555988
1.0000071024
1.00000002327
1.00000002863
1.00000049438
1.00000032136
1.0000009448
1.00000731863
1.00003763377
1.00001052471
1.00000002799
1.00000042503
1.00000040758
1.0000116219
1.00006313175
1.00003331668
1.00003295593
1.00001845756
1.00001413929
1.0000116083
1.00000892355
1.00000922235
1.00001125376
1.00001500902
1.0000192162
1.00003372565
1.00003289018
1.00006312996
1.00001208187
1.00000038608
1
1.00000088925
1.00001169144
1.00005102898
1.00001847187
1.00000231963
1.00000000251
1.00000000036
1.00000763273
1.00001254913
1.00001318828
1.00001352984
1.0000135864
1.00000851966
1.00000000055
1.00000000543
1.00000239223
1.00001864011
1.0000511829
1.00001177797
1.00000051809
1.00000754213
1.0000520083
1.00000217164
1
0.99994879686
0.999742854948
0.999506710335
0.999359869128
0.99932240874
0.999329627314
0.99932958694
0.999322564989
0.99936004768
0.999506835954
0.99974299249
0.999946392948
1
1.00000101345
1.00005176482
1.00000798793
1.00004603538
1.0000202129
0.999999982094
0.99988925552
0.999498594439
0.99888012898
0.998258544698
0.9979005515
0.997799807527
0.997809421653
0.99781034484
0.997800226606
0.997901588131
0.998259504521
0.998880359345
0.999498630807
0.999888522188
0.999999556858
1.00002144297
1.00004476684
1.0000299496
1.0000036804
0.999940148935
0.999498748014
0.998563160018
0.99735199147
0.995683583
0.994624414183
0.994624311609
0.99479418531
0.99478722116
0.994623623519
0.994623506173
0.995681410242
0.997350440786
0.998565578622
0.999498775657
0.99993975184
1.00000404518
1.00003070711
1.00002990754
1.0000042401
0.999743014342
0.998881806659
0.997353611671
0.994628819092
0.994622191059
0.994621804988
0.994619798794
0.994619191454
0.994618471829
0.994618935924
0.994620973773
0.994621714028
0.994629874763
0.997351358345
0.998881761527
0.999743069081
1.00000569918
1.00002878159
1.00001722194
1.00000002116
0.999507634283
0.998261898866
0.995774059885
0.994622191059
0.994621068274
0.994617295033
0.994615776073
0.99461462427
0.994614584203
0.994615129522
0.994616295207
0.994620382866
0.994621714028
0.995781283808
0.998260776418
0.999507741538
1.00000009858
1.00001724172
1.00001248376
1.00001065251
0.999362637969
0.997902969302
0.994792849665
0.994621068274
0.994617163144
0.994613799339
0.994614574342