/*--------------------------------*- C++ -*----------------------------------*\
| =========                 |                                                 |
| \\      /  F ield         | OpenFOAM: The Open Source CFD Toolbox           |
|  \\    /   O peration     | Version:  3.0.1                                 |
|   \\  /    A nd           | Web:      www.OpenFOAM.org                      |
|    \\/     M anipulation  |                                                 |
\*---------------------------------------------------------------------------*/
FoamFile
{
    version     2.0;
    format      ascii;
    class       volScalarField;
    location    "0.6";
    object      k_0;
}
// * * * * * * * * * * * * * * * * * * * * * * * * * * * * * * * * * * * * * //

dimensions      [0 2 -2 0 0 0 0];

internalField   nonuniform List<scalar> 
7968
(
0.0159524376221
0.0162304583411
0.0163643531994
0.0164042349119
0.0164129830879
0.016413196733
0.0164107780224
0.0164072858309
0.0164035591511
0.0164007230146
0.0164006561789
0.016403426086
0.0164071453575
0.0164106542045
0.0164130993092
0.0164129152825
0.0164041949323
0.0163643353417
0.0162305014871
0.0159524649721
0.0162305207824
0.018302244733
0.0192796251688
0.0195949869234
0.0196706923771
0.0196778982908
0.0196695564561
0.0196599530857
0.0196528576775
0.019649169024
0.0196490980218
0.0196526773354
0.019659707403
0.01966929542
0.0196776634413
0.019670507702
0.0195948510794
0.0192795239854
0.0183022857087
0.0162305909221
0.0163644534477
0.01927955342
0.0208248522221
0.0213886818404
0.0215473069581
0.0215736804245
0.0215659800769
0.021554251814
0.0215462354817
0.0215425793537
0.0215424890904
0.0215459946229
0.0215539100708
0.0215656028679
0.0215733284588
0.0215470248599
0.0213884857944
0.0208247272436
0.019279547742
0.0163645192205
0.0164043046018
0.0195945953957
0.0213883251524
0.0220824176584
0.0222880967472
0.0223219849269
0.0223094201306
0.0222922448799
0.0222814117161
0.02227695157
0.0222768377605
0.0222811020184
0.0222917998809
0.0223089208906
0.0223214994081
0.0222876981138
0.0220821381877
0.021388149836
0.0195945476024
0.0164043697234
0.0164129572246
0.0196698300321
0.0215464056689
0.022287527354
0.0225044819478
0.0225308268602
0.0225216695659
0.0225095166164
0.0224999217253
0.0224951595983
0.0224950924238
0.0224997368613
0.0225092516174
0.0225213532435
0.0225302157456
0.0225039387016
0.0222871332401
0.0215461529023
0.019669725087
0.0164130092386
0.0164130287053
0.0196765340994
0.0215722029177
0.0223208101047
0.0225302463904
0.0225725661745
0.0225637077577
0.0225444834009
0.0225296499694
0.0225223801447
0.022522308254
0.0225294453907
0.0225441830834
0.0225633653901
0.0225722144836
0.0225295912917
0.0223202912502
0.0215718608372
0.0196763661221
0.0164130589005
0.0164104373613
0.0196677334415
0.0215639963655
0.0223077414482
0.0225211108757
0.0225634673636
0.0225446438881
0.022515604122
0.0224936516039
0.0224827827833
0.022482707749
0.0224934370778
0.0225152835154
0.0225442653102
0.0225630866767
0.0225207482364
0.0223071243861
0.0215635722765
0.0196675071405
0.0164104413593
0.0164067584034
0.0196577645021
0.0215518841919
0.0222901746821
0.0225087675448
0.0225440359615
0.0225153464455
0.0224767231742
0.0224469811683
0.0224317677976
0.0224316873111
0.0224467619962
0.022476402827
0.0225149601864
0.0225436309069
0.022508394366
0.0222894898943
0.0215513994124
0.0196574906545
0.0164067336601
0.016402860998
0.0196504457823
0.0215436422617
0.0222790901452
0.0224990389944
0.0225290959427
0.0224933003082
0.022446885786
0.022409840562
0.0223900122952
0.0223899242835
0.0224096146641
0.0224465796112
0.0224929331432
0.022528699813
0.0224986615152
0.022278384337
0.0215431279022
0.0196501400093
0.0164028072528
0.0163999649558
0.0196467393211
0.0215399742221
0.022274599647
0.0224942637737
0.0225218429345
0.0224824818307
0.0224317257055
0.0223900712371
0.0223668248765
0.0223667400972
0.0223898620123
0.02243145478
0.0224821598078
0.0225214892753
0.0224939171042
0.0222739291842
0.0215394664289
0.0196464235818
0.0163998874721
0.0164001324471
0.0196468991785
0.0215401246958
0.0222747452816
0.0224943338941
0.0225219219839
0.0224825885312
0.0224318637962
0.0223902460142
0.0223670464218
0.0223669805795
0.0223900829825
0.0224316522903
0.0224823376584
0.0225216418945
0.0224940500501
0.0222741642769
0.0215396565342
0.0196465925893
0.0164000596349
0.0164032034792
0.019650886206
0.0215440671543
0.0222795006736
0.0224992332794
0.0225293120063
0.0224935853934
0.0224472461171
0.0224102850049
0.0223905485763
0.0223905089469
0.0224101846683
0.022447109251
0.0224934188884
0.0225291193542
0.022499029896
0.0222790424768
0.0215436685226
0.01965061601
0.0164031532189
0.0164071454075
0.0196584100192
0.0215525237943
0.0222907848844
0.0225090478505
0.0225443324653
0.0225157263237
0.0224771946803
0.0224475589187
0.0224324478761
0.0224324319346
0.0224475176383
0.0224771307401
0.0225156405502
0.0225442249518
0.0225089248304
0.0222904547827
0.0215522051282
0.0196581861779
0.0164071160009
0.0164108140772
0.0196685043064
0.0215647803082
0.0223084834103
0.0225214607047
0.0225637930101
0.0225450259844
0.0225160727971
0.0224942314042
0.0224834720961
0.0224834768259
0.0224942414297
0.0225160750857
0.022545011934
0.0225637575312
0.0225214018139
0.0223082615923
0.0215645378308
0.0196683292145
0.016410801378
0.0164133660661
0.0196773575444
0.0215730597972
0.0223216263353
0.0225309957508
0.0225729188923
0.0225640654966
0.0225449092528
0.0225301790212
0.0225230191429
0.0225230390477
0.0225302307841
0.0225449689605
0.0225641120512
0.022572940628
0.0225309663826
0.0223214930213
0.021572884718
0.0196772288765
0.0164133660961
0.016413237311
0.0196706336457
0.0215472519431
0.0222883178927
0.0225051922619
0.0225314881594
0.0225219952758
0.0225098623541
0.022500353059
0.0224956981883
0.0224957314072
0.022500441084
0.0225099719528
0.0225221007752
0.0225316449505
0.0225052319865
0.0222882511826
0.0215471287228
0.0196705444711
0.0164132456899
0.0164045124337
0.0195952927703
0.0213890656814
0.0220830808951
0.0222886308442
0.0223224114452
0.0223098110154
0.0222927010769
0.0222820139111
0.0222777575329
0.0222778419204
0.0222822445822
0.0222929929077
0.0223100812489
0.0223226017132
0.0222887039364
0.0220830475037
0.0213889644894
0.0195952283275
0.0164045254819
0.0163645790672
0.0192800610611
0.0208254022378
0.0213891428825
0.021547606436
0.0215738111188
0.0215660014764
0.0215542541514
0.021546309926
0.0215427960167
0.0215428714295
0.021546522817
0.0215545295912
0.0215662596468
0.0215739903121
0.0215476755703
0.021389103884
0.0208252850468
0.0192799817149
0.016364584256
0.0162306096191
0.0183026060605
0.019279994405
0.0195952744081
0.019670822295
0.0196778498485
0.0196693678957
0.0196596982754
0.0196526219259
0.0196490265755
0.0196490870001
0.0196527976216
0.0196599290132
0.0196695841036
0.0196779967188
0.0196708701596
0.0195952168169
0.0192798368114
0.0183024833397
0.0162305937375
0.0159524556914
0.0162305261392
0.0163644188206
0.0164042952139
0.0164130124779
0.0164131777902
0.0164107073919
0.0164071721174
0.0164034219737
0.0164005958905
0.0164005892139
0.0164034113426
0.0164071575734
0.0164106771734
0.0164131242441
0.0164129360159
0.0164042065043
0.0163643287856
0.0162304721422
0.0159524319214
0.0162241967518
0.0182441940411
0.0192084420918
0.0195243480594
0.0196045434781
0.0196168655854
0.0196128170822
0.0196059243456
0.0195999260219
0.0195964052222
0.0195963616088
0.0195998178581
0.0196057847087
0.0196126735893
0.0196167375165
0.0196044422383
0.0195242754416
0.0192083961146
0.0182442004118
0.0162242070519
0.0182440647226
0.030583700986
0.0345175974136
0.0358715315727
0.0362678171229
0.0363474769342
0.0363411765977
0.0363199458345
0.0363028440641
0.0362939938471
0.0362938796484
0.0363025339508
0.0363194981889
0.0363406634391
0.0363469632562
0.0362673441114
0.0358711070821
0.0345172172465
0.0305834383371
0.0182440347126
0.0192084370154
0.0345177965748
0.0396731301277
0.0416174038622
0.0422661640978
0.0424349576879
0.0424541623039
0.0424391448581
0.0424239393962
0.0424159737028
0.0424158767891
0.0424236718057
0.0424387601689
0.0424537307053
0.0424345432604
0.0422658030192
0.0416171000748
0.0396728619742
0.0345175590366
0.0192084194017
0.0195243606045
0.0358714157997
0.0416171475024
0.0438935283162
0.0447000097662
0.0449270867976
0.0449604706475
0.0449456835746
0.0449290866675
0.0449205638968
0.0449204556476
0.044928784291
0.0449452487934
0.044959998936
0.0449266700274
0.0446996640403
0.0438932487907
0.0416168952459
0.0358711537823
0.0195243532014
0.0196044362413
0.0362671452943
0.0422654488465
0.0446995983316
0.045580998052
0.045829426352
0.0458568865897
0.0458291845982
0.045803623786
0.045791294712
0.0457911355375
0.0458031691626
0.0458285277002
0.0458561811807
0.0458289350298
0.0455805853907
0.0446992701173
0.0422651531259
0.0362668314287
0.0196044205138
0.0196165714575
0.0363462155776
0.042433775097
0.0449262742505
0.0458290115012
0.0460633904149
0.0460649555834
0.0460160228979
0.0459769536233
0.0459585751195
0.0459584073473
0.0459764493584
0.0460152603543
0.0460640716671
0.0460625650894
0.0458285051635
0.0449258612406
0.0424334127227
0.0363458396019
0.019616532936
0.0196123155727
0.0363394087123
0.0424525934431
0.0449592938227
0.0458558201936
0.0460644371701
0.0460377446894
0.0459654476013
0.045910496616
0.04588449096
0.0458843298487
0.0459100100458
0.045964698501
0.0460368129725
0.046063458981
0.0458549747141
0.0449587686719
0.0424521669024
0.0363389813046
0.019612250811
0.0196052248586
0.0363178202843
0.0424373122868
0.0449442639499
0.0458276937265
0.046015003133
0.045964646425
0.045871516454
0.0458013008273
0.0457673858064
0.0457672218123
0.0458008527358
0.0458708440991
0.0459637705677
0.046014004351
0.045826758402
0.0449436887055
0.0424368501421
0.0363173636164
0.019605134721
0.0195990755084
0.0363005523881
0.0424219812779
0.0449275375435
0.0458019418598
0.0459758289509
0.0459096430089
0.0458011966548
0.0457188397158
0.0456781336047
0.0456779659314
0.0457184073252
0.0458006230372
0.0459088899947
0.0459749094859
0.0458010267682
0.0449269753513
0.0424215200079
0.0363000924798
0.0195989651552
0.019595522084
0.0362917723334
0.042414068415
0.0449190551874
0.0457896756117
0.0459576331207
0.0458839360348
0.0457674929689
0.0456782806502
0.0456334939383
0.0456333675648
0.045677922986
0.0457670369066
0.0458833370683
0.0459568659958
0.0457888658305
0.044918554495
0.0424136427921
0.0362913361508
0.0195954031666
0.019595634957
0.0362919867966
0.0424142259899
0.044919186407
0.0457898558412
0.0459578499696
0.0458842263796
0.0457678306938
0.0456786470405
0.0456338963384
0.0456338096052
0.0456783959803
0.0457675189675
0.0458838206492
0.0459572972229
0.0457892219524
0.0449187877879
0.0424138634875
0.0362915954725
0.0195955265397
0.0195993650191
0.0363011678043
0.0424224338689
0.044927908621
0.0458024440148
0.0459764368171
0.0459104277468
0.0458020966606
0.0457198373722
0.0456792582947
0.045679202406
0.0457197092014
0.0458019520047
0.0459102261701
0.0459761027055
0.0458020129393
0.0449276271815
0.0424221485857
0.0363008423249
0.0195992831964
0.0196056123631
0.0363187721533
0.0424380098201
0.0449448191034
0.0458284137557
0.0460158522779
0.0459657410281
0.0458727747786
0.0458027647076
0.0457690661731
0.0457690580707
0.0458027707902
0.0458727865609
0.0459657032883
0.0460157107235
0.0458281687098
0.0449446422003
0.042437797882
0.0363185171835
0.0196055587753
0.0196127428858
0.0363406206949
0.0424534819753
0.0449599725406
0.0458566294481
0.0460653760496
0.0460388800252
0.0459667899054
0.0459121239063
0.0458864102797
0.0458864537518
0.0459122391702
0.0459669242381
0.0460389763466
0.0460653840337
0.0458565267794
0.044959870852
0.0424533281745
0.0363404318235
0.019612713005
0.0196170001637
0.0363476125911
0.0424348091713
0.0449270204833
0.0458296367235
0.046064294193
0.0460660734682
0.046017377422
0.0459786222073
0.0459605578033
0.0459606303834
0.0459788138223
0.0460176099274
0.0460662726645
0.0460643966215
0.0458296713879
0.0449269643794
0.0424346964691
0.0363474799255
0.0196169868385
0.0196048368908
0.0362686470681
0.042266586463
0.0447004227212
0.0455816521502
0.0458300500764
0.0458578322526
0.0458303550684
0.0458050703504
0.0457930424259
0.0457931304941
0.0458053005106
0.0458306408164
0.045858081906
0.0458301891019
0.0455816888053
0.04470038686
0.0422664967494
0.0362685523411
0.0196048294949
0.0195247021085
0.035872921885
0.0416183367292
0.0438944131913
0.044700685446
0.044927665362
0.0449610894181
0.0449464075554
0.0449299544564
0.0449216199944
0.0449216801105
0.0449301129569
0.0449466067685
0.044961275161
0.0449277880807
0.0447007326854
0.0438943790563
0.0416182361505
0.0358728226132
0.0195246812516
0.0192086991778
0.0345192162605
0.0396743305133
0.0416183360257
0.0422668573444
0.0424354715332
0.0424545876169
0.0424395759793
0.0424244571268
0.0424166383834
0.0424167036341
0.0424246336786
0.0424398040905
0.0424548019856
0.0424356176539
0.0422669013965
0.0416182613939
0.0396741496173
0.034519021075
0.0192086281742
0.0182442571982
0.0305849818448
0.034518767322
0.0358724812986
0.0362685021446
0.036347906707
0.0363414280356
0.0363201346878
0.0363030906747
0.03629439284
0.0362944733682
0.0363033133975
0.0363204191686
0.0363416805536
0.0363480501701
0.036268491327
0.0358722978242
0.0345184095585
0.0305845542712
0.0182441166768
0.0162241785786
0.0182443598058
0.0192086013982
0.0195244680508
0.0196046050417
0.0196168558027
0.0196127445838
0.0196058139072
0.0195998132839
0.0195963301051
0.019596354867
0.0195998779222
0.0196058895963
0.0196128018332
0.0196168751908
0.0196045803732
0.0195244064447
0.0192085132527
0.0182442795449
0.0162241465387
0.0163574930947
0.0191885649289
0.0207042407457
0.0212624786403
0.021424465025
0.0214569090811
0.0214546279998
0.021445790155
0.0214381623076
0.0214339876395
0.0214339493313
0.021438061542
0.0214456512096
0.0214544779287
0.0214567707299
0.0214243531666
0.0212623955309
0.0207041836054
0.0191885535695
0.0163575316627
0.0191883287124
0.0344249344805
0.0395558288787
0.0414834807799
0.0421192195139
0.04227744865
0.042287962295
0.0422658797118
0.0422453548178
0.0422344499307
0.0422343356077
0.0422450438992
0.0422654339316
0.0422874573577
0.0422769510767
0.0421187675701
0.041483071066
0.039555437298
0.0344245939024
0.0191882623813
0.0207041207434
0.0395558037309
0.0461027374049
0.0487461636683
0.049722909102
0.0500211006847
0.0500809358104
0.050074965184
0.0500601198087
0.0500512988116
0.0500512170202
0.0500598942353
0.0500746421767
0.0500805776655
0.0500207606239
0.0497226105164
0.0487458929868
0.0461024592344
0.0395555010882
0.0207040654585
0.0212623625356
0.0414828988741
0.0487457312249
0.0518037793992
0.0530000854236
0.0533965607419
0.0534923401324
0.0534975250569
0.0534861498931
0.05347828439
0.053478214325
0.0534859551379
0.0534972307893
0.053492025871
0.053396279955
0.052999850289
0.0518035588745
0.048745473458
0.0414825656134
0.0212623211571
0.0214241820672
0.0421178501895
0.0497219012522
0.0529996120268
0.0543169463966
0.0547662595828
0.0548769680861
0.0548854876343
0.0548723863083
0.0548623522582
0.0548622568153
0.0548721158593
0.0548851028169
0.0548765609404
0.0547659137048
0.0543166856785
0.0529993677733
0.0497215978801
0.0421174358753
0.0214241300351
0.0214563798215
0.0422752667056
0.0500195482951
0.053395697297
0.0547658830206
0.0552328895368
0.0553606924607
0.0553798414455
0.0553643828454
0.0553494694866
0.0553493659003
0.0553640671964
0.0553793793408
0.0553601925864
0.055232432621
0.054765513768
0.0533953856109
0.0500191691492
0.0422747493437
0.0214562989946
0.0214538398543
0.0422850673685
0.0500789444014
0.0534911902878
0.0548762960775
0.0553604067038
0.0555138342262
0.0555436837621
0.0555221026267
0.0554999056109
0.0554997897815
0.055521747858
0.0555431723952
0.0555132662894
0.0553598766581
0.0548758161336
0.0534908022484
0.0500784891535
0.0422844535041
0.021453726517
0.0214447754933
0.0422624568951
0.0500726683889
0.0534961964443
0.05488462117
0.0553792849518
0.0555431914247
0.0555702874365
0.05553856201
0.0555088684643
0.0555087328555
0.0555381926509
0.0555697685331
0.0555426156933
0.0553787356792
0.054884104806
0.0534957711509
0.0500721643282
0.0422617731342
0.0214446337386
0.0214369970163
0.0422416562899
0.050057666211
0.0534846833196
0.0548714563484
0.0553638505173
0.0555217156593
0.0555386392847
0.0554979059505
0.0554632156667
0.0554630681629
0.055497525257
0.0555381635554
0.0555212103864
0.0553633536448
0.0548709627984
0.053484280637
0.0500571510537
0.0422409390707
0.021436837301
0.0214328016649
0.0422308015399
0.0500488907664
0.0534768652988
0.0548614990643
0.055349132854
0.0554998608026
0.0555092535051
0.0554634803791
0.0554263590033
0.0554262400032
0.0554631385131
0.0555088445605
0.0554994507407
0.0553487414079
0.0548610787984
0.053476499376
0.050048400023
0.0422300928146
0.0214326389856
0.0214329067902
0.0422311005443
0.0500490790378
0.0534769785274
0.0548616030451
0.0553492527821
0.055500052897
0.0555094988396
0.0554637514074
0.0554266498494
0.0554265541661
0.0554634738552
0.0555091749861
0.0554997623513
0.0553489984898
0.0548612965062
0.053476682814
0.0500486447911
0.0422304404643
0.021432756902
0.0214372909026
0.042242520093
0.0500582116155
0.0534850088366
0.0548717460013
0.0553641991165
0.0555222458694
0.0555393010436
0.0554986507267
0.0554640399674
0.0554639600793
0.0554984476334
0.0555390797066
0.0555220794516
0.055364070974
0.0548715640245
0.0534847978158
0.0500578517403
0.0422419436352
0.0214371674053
0.0214452093384
0.0422638066529
0.0500735239511
0.053496711785
0.0548850400062
0.055379745429
0.0555438960528
0.0555711674627
0.0555396029331
0.0555100535977
0.0555100080675
0.0555394978099
0.0555710538112
0.0555438249663
0.0553797257694
0.0548849605862
0.0534965664309
0.0500732391354
0.0422633305319
0.0214451171747
0.0214543623416
0.0422868068203
0.0500800604631
0.0534918668386
0.0548768175157
0.0553608950178
0.0555144681791
0.0555445008599
0.0555231213009
0.0555011124928
0.0555011108466
0.0555231082287
0.0555444939524
0.0555145050023
0.0553609542623
0.054876799787
0.0534917733897
0.0500798413648
0.0422864352536
0.0214543006469
0.0214569487518
0.0422773025435
0.0500208892578
0.0533965334353
0.054766519556
0.0552334579996
0.0553613102689
0.0553805952013
0.055365337193
0.0553506139773
0.0553506434528
0.0553654125321
0.0553806974536
0.0553614321813
0.0552335512027
0.0547665326427
0.0533964717992
0.0500207268555
0.0422770331824
0.0214569119939
0.0214247605143
0.0421200897062
0.0497234436455
0.0530006269221
0.0543176874947
0.0547669604512
0.0548777043769
0.0548863338757
0.0548733958306
0.0548635476604
0.05486359848
0.0548735258937
0.0548865043113
0.054877872774
0.0547670752836
0.0543177371922
0.0530006004691
0.0497233316996
0.0421199089231
0.021424736455
0.0212629113456
0.0414852361144
0.0487474618153
0.0518050187986
0.0530010231409
0.0533973625165
0.0534931225649
0.0534983705087
0.0534870410228
0.0534793206068
0.0534793801273
0.0534872029279
0.0534985738579
0.0534933312723
0.0533975321635
0.0530011265801
0.0518050328386
0.0487473812414
0.0414851020529
0.0212628720321
0.0207046076428
0.0395581429726
0.0461046661587
0.0487476877419
0.0497241141955
0.0500220845014
0.0500818094882
0.0500758377244
0.050061077236
0.0500524102873
0.0500525041653
0.0500613331114
0.0500761839294
0.0500821656276
0.0500223795565
0.0497242972242
0.0487477270867
0.0461045603084
0.039557959349
0.0207045047818
0.01918870149
0.0344271668388
0.0395579328613
0.0414852963813
0.0421206813371
0.0422785699432
0.0422888465617
0.0422666825143
0.0422462372002
0.0422355394259
0.0422356929703
0.0422466582269
0.0422672482582
0.0422894111652
0.0422790110852
0.0421209238343
0.0414853062339
0.0395577041736
0.0344267757575
0.0191885245004
0.0163574558485
0.0191889061519
0.0207046270988
0.0212628163623
0.021424720368
0.0214570678699
0.0214547075509
0.0214458311887
0.0214382164615
0.0214341017654
0.0214341498844
0.0214383453604
0.0214459964795
0.0214548605068
0.0214571729531
0.0214247624952
0.021262798259
0.0207045609816
0.0191888309109
0.0163574482474
0.0164025459752
0.0194982483412
0.0212511747476
0.0219357931074
0.0221472429319
0.0221932211165
0.0221921105309
0.0221816873303
0.0221726873703
0.0221678857648
0.0221678489377
0.0221725897135
0.022181551524
0.022191963713
0.0221930875545
0.0221471385543
0.0219357194818
0.021251136753
0.0194982683116
0.0164026091837
0.0194979555408
0.0357369401178
0.0414334479502
0.0436757685875
0.0444578587391
0.0446682058183
0.0446903460038
0.0446674346521
0.0446442679109
0.0446318097284
0.0446316946152
0.0446439561176
0.0446669910948
0.0446898511605
0.0446677306096
0.0444574424118
0.0436754021576
0.0414331055872
0.0357366623337
0.0194979055771
0.0212509756132
0.0414332302912
0.0486693479087
0.051708583512
0.0528919390404
0.053280751554
0.0533731584076
0.0533763951067
0.0533629171084
0.0533537813144
0.0533537072391
0.0533627144151
0.0533761099133
0.0533728448102
0.0532804585802
0.0528916866342
0.0517083508294
0.0486690983623
0.0414329614421
0.0212509294209
0.0219355482249
0.0436747136851
0.0517079389426
0.055217009256
0.0566646292764
0.0571872139692
0.0573452178057
0.0573795424938
0.0573765161279
0.0573697076676
0.0573696521892
0.0573763628825
0.0573793456595
0.0573450170244
0.057187027808
0.0566644616405
0.0552168241209
0.0517076841341
0.0436743659678
0.0219355087984
0.0221467519711
0.0444556886775
0.0528905169537
0.0566640136047
0.0582751073518
0.0588966672414
0.0591086305018
0.059164725757
0.0591645740118
0.059155671427
0.059155600304
0.0591643741464
0.059164454878
0.0591083747631
0.0588964743774
0.058274953719
0.0566638017294
0.0528901816464
0.0444551876311
0.0221466846685
0.0221923868857
0.0446648677009
0.053278596764
0.0571861132476
0.0588962272615
0.059584548739
0.0598351002406
0.0598995434677
0.0598906874144
0.0598735356636
0.0598734352145
0.0598903933053
0.0598991268627
0.0598346981308
0.0595842606649
0.0588960074743
0.0571858319733
0.0532781427555
0.0446641800661
0.0221922700435
0.0221909226845
0.0446859409059
0.0533703928331
0.0573437168675
0.0591078604707
0.0598348254203
0.0600964939983
0.060145866642
0.0601136701657
0.0600821901891
0.0600820562351
0.0601132753479
0.06014529041
0.0600959195609
0.0598344167398
0.0591075733891
0.0573433709365
0.0533698175371
0.0446850728119
0.0221907535777
0.022180197327
0.0446621882737
0.0533731748096
0.057377747174
0.0591637725261
0.0598991394361
0.0601454816922
0.0601633153609
0.0601036031597
0.0600582050656
0.06005803323
0.0601031212196
0.0601626321119
0.0601448009961
0.0598986555752
0.0591634441956
0.0573773580577
0.0533725091713
0.044661179313
0.0221799849691
0.0221709978499
0.0446385145488
0.0533594335289
0.0573746181634
0.0591636077936
0.0598904517489
0.0601136860856
0.0601040310694
0.0600280875886
0.0599769235311
0.0599767342507
0.0600275643145
0.0601033299271
0.0601129926257
0.0598899672419
0.0591632805944
0.0573742037346
0.053358725122
0.0446374260648
0.0221707608752
0.0221661567162
0.0446260186022
0.0533502950789
0.0573678224355
0.0591548027194
0.0598735787255
0.0600827631454
0.0600592205797
0.0599775359081
0.0599256061841
0.0599254306352
0.0599770302396
0.060058544354
0.0600821099747
0.0598731454574
0.0591545206256
0.0573674387975
0.0533495989363
0.0446249241466
0.0221659179947
0.0221662739596
0.0446264133283
0.0533505283895
0.0573679455517
0.0591548987404
0.0598737290182
0.0600830402741
0.0600596041808
0.059977972995
0.0599260740142
0.0599259113052
0.0599775034861
0.0600589705759
0.0600824514459
0.0598733736812
0.0591546909365
0.0573676213484
0.0533498910913
0.0446253856016
0.0221660541875
0.0221713335438
0.0446396559211
0.0533601103885
0.0573749771658
0.0591638792009
0.0598908726719
0.0601144442621
0.0601050753371
0.0600292945292
0.0599782267316
0.0599780744157
0.0600288708497
0.060104507265
0.0601139361829
0.0598906011469
0.059163755684
0.0573747232357
0.0533595617571
0.0446387500485
0.0221711477924
0.0221807090548
0.0446639712493
0.053374244992
0.0573783018237
0.059164155955
0.0598996943402
0.0601465138677
0.0601647227111
0.06010529399
0.0600600532375
0.0600599276965
0.0601049482805
0.0601642555056
0.0601461145718
0.0598995137432
0.0591641071027
0.0573781253279
0.0533737975355
0.0446632184648
0.02218056366
0.022191559479
0.0446882347746
0.0533718039505
0.0573444561623
0.0591083003472
0.0598353213322
0.0600973317067
0.0601470398969
0.0601151330482
0.0600838281941
0.0600837520691
0.0601149147548
0.0601467391589
0.0600970924739
0.0598352477557
0.0591083043807
0.0573443304148
0.0533714597606
0.0446876498486
0.0221914562218
0.0221931014407
0.0446675426842
0.0532803027459
0.0571870904986
0.0588967831045
0.0595849654174
0.0598356146239
0.0599002450126
0.0598915757646
0.0598745604622
0.0598745324696
0.0598914933371
0.0599001374563
0.0598355614163
0.0595850031106
0.0588968215213
0.0571870050628
0.0532800630925
0.0446671318401
0.0221930381683
0.0221474979744
0.0444586211412
0.0528924926948
0.0566652827881
0.0582759455907
0.0588972752488
0.0591091339313
0.0591652540881
0.0591652140247
0.0591564358976
0.0591564567999
0.0591652655931
0.0591653358279
0.0591092573273
0.0588974174502
0.0582760483986
0.0566652690785
0.0528923596093
0.0444583782934
0.0221474657517
0.0219362774377
0.0436777829298
0.0517101950781
0.0552186381564
0.0566658856899
0.0571882765214
0.0573461638384
0.0573804736706
0.0573775820985
0.0573709083242
0.0573709794033
0.0573777740498
0.057380758848
0.0573464855389
0.0571885560891
0.0566660823149
0.0552187210011
0.0517101584333
0.0436776721864
0.0219362460851
0.0212516500993
0.0414363539958
0.0486719497389
0.0517106942987
0.0528936868563
0.0532822706383
0.0533745891283
0.053377867434
0.0533645351737
0.0533556031227
0.0533557447806
0.0533649237727
0.0533784072129
0.0533751622112
0.0532827745178
0.0528940504167
0.0517108792187
0.0486719608206
0.041436273851
0.0212515642637
0.0194984816145
0.0357400143257
0.0414364189195
0.0436784269202
0.0444601193243
0.0446700910547
0.0446919958251
0.0446690502367
0.0446460450487
0.044633890788
0.044634138374
0.0446467239516
0.0446699784018
0.0446929566506
0.0446709025383
0.0444606699015
0.0436786735668
0.0414363767222
0.0357397802906
0.0194983228933
0.0164024525285
0.019498720683
0.021251761883
0.0219363506597
0.0221477129636
0.0221935822848
0.0221923881693
0.0221819377479
0.0221729750895
0.0221682625528
0.0221683378023
0.0221731783157
0.0221822074879
0.0221926544183
0.0221937906969
0.0221478377118
0.0219363921831
0.0212517481305
0.0194986926012
0.0164024601163
0.0164202581036
0.0195868631067
0.0214196635088
0.0221532163777
0.0223850460465
0.0224357854498
0.0224335142313
0.0224208631234
0.022410328396
0.022404874175
0.0224048389703
0.0224102351809
0.0224207339056
0.0224333765774
0.0224356658866
0.0223849626141
0.0221531722994
0.0214196690999
0.0195869421118
0.016420339888
0.0195865486394
0.0361357433667
0.04206410171
0.0444492827281
0.0452999874045
0.0455328616916
0.0455569611998
0.0455303278488
0.0455037796249
0.0454896345147
0.0454895140216
0.0455034555382
0.0455298676931
0.0455564548206
0.0455323917995
0.0452996031697
0.0444489768595
0.0420638472386
0.0361356008056
0.0195865427746
0.0214194237018
0.0420637616503
0.0496166665554
0.0528585468021
0.0541544038745
0.0545966508009
0.05471349897
0.0547268078643
0.0547147493725
0.0547045788626
0.0547045045004
0.0547145470078
0.0547265275131
0.0547132013592
0.0545963817604
0.0541541816385
0.0528583556471
0.0496164685101
0.0420635665068
0.0214194134186
0.0221528913756
0.0444478806628
0.0528577373232
0.0566145780782
0.0582166764189
0.0588288361802
0.0590275998811
0.0590719339829
0.0590683283154
0.0590595750084
0.0590595192
0.0590681760743
0.0590717350728
0.0590274173855
0.058828703513
0.0582165525023
0.0566144113977
0.0528574885997
0.0444475338225
0.0221528719848
0.0223844062387
0.0452971763052
0.0541526549975
0.0582159339596
0.0600166694425
0.0607370356376
0.0609828417447
0.0610366289144
0.0610252897522
0.0610090210361
0.0610089453005
0.0610250777026
0.0610363473726
0.060982602978
0.0607369058615
0.06001657521
0.0582157293506
0.0541522690614
0.0452965865102
0.0223843369547
0.0224347193823
0.0455285655822
0.0545940150729
0.0588273762926
0.060736312161
0.0615125215509
0.0617637702156
0.0617878697632
0.0617392726133
0.061700474817
0.0617003613481
0.0617389374892
0.0617874019083
0.0617633595187
0.0615123138186
0.0607362186322
0.0588271264419
0.0545934534497
0.0455276947179
0.0224345777943
0.0224320123644
0.0455512849572
0.0547100611805
0.0590254571811
0.0609814654554
0.0617632043556
0.0619696968108
0.0619156139741
0.0617951940772
0.0617179721898
0.0617178267972
0.0617947350417
0.0619149146873
0.0619690602688
0.0617628890465
0.0609813693229
0.0590251838093
0.0547093397634
0.0455501446524
0.0224317984963
0.0224189896508
0.0455235310843
0.0547227101572
0.059069284204
0.0610349031873
0.0617871537846
0.0619155084995
0.0617572693392
0.0615583806929
0.0614445930866
0.0614444130995
0.0615577937324
0.0617563465482
0.061914645367
0.0617867276123
0.0610347972354
0.0590690096742
0.0547218779402
0.0455221801735
0.0224187203984
0.0224082024999
0.0454962556754
0.0547102583981
0.059065473059
0.0610235481047
0.0617388961389
0.0617958667735
0.0615592619926
0.0613209280459
0.0611967699698
0.0611965852367
0.0613203089704
0.061558242504
0.0617948430377
0.0617383781145
0.0610234253592
0.0590651927205
0.0547093733544
0.0454947929971
0.0224079070731
0.0224026815837
0.0454819804774
0.0547000494326
0.0590567506154
0.0610074347491
0.0617005303515
0.0617194301333
0.0614464030469
0.0611977441399
0.0610764714751
0.0610762906513
0.0611971434498
0.0614453717123
0.0617183703699
0.0616999857299
0.0610073269778
0.0590564940093
0.0546991771274
0.0454805165827
0.0224023905771
0.0224028093334
0.0454824636911
0.0547003288391
0.0590569053169
0.061007574942
0.0617007562773
0.0617198189373
0.0614469715527
0.0611984006134
0.0610771692606
0.0610769935485
0.0611978203067
0.0614459720474
0.0617188145411
0.0617002597196
0.0610075173375
0.0590567093645
0.0546995285113
0.0454810942241
0.0224025463734
0.0224085698705
0.0454976431002
0.054711068332
0.0590659167873
0.0610239360846
0.0617395274135
0.0617970014014
0.0615609656262
0.0613229506752
0.0611989123092
0.0611987353564
0.0613223764258
0.0615600286955
0.0617961171889