/*--------------------------------*- C++ -*----------------------------------*\
| =========                 |                                                 |
| \\      /  F ield         | OpenFOAM: The Open Source CFD Toolbox           |
|  \\    /   O peration     | Version:  3.0.1                                 |
|   \\  /    A nd           | Web:      www.OpenFOAM.org                      |
|    \\/     M anipulation  |                                                 |
\*---------------------------------------------------------------------------*/
FoamFile
{
    version     2.0;
    format      ascii;
    class       surfaceScalarField;
    location    "0.6";
    object      phi;
}
// * * * * * * * * * * * * * * * * * * * * * * * * * * * * * * * * * * * * * //

dimensions      [0 3 -1 0 0 0 0];

internalField   nonuniform List<scalar> 
22672
(
1.18761782756e-06
1.2318580878e-06
-2.41922732522e-06
2.62248191854e-06
1.05490339917e-06
-2.48944939252e-06
3.91287188336e-06
1.05779307721e-06
-2.34777323899e-06
4.77583022033e-06
1.26473392117e-06
-2.12716973764e-06
5.07478235136e-06
1.62246670521e-06
-1.92077512002e-06
4.79060460495e-06
2.04583580865e-06
-1.7608983981e-06
4.00416642913e-06
2.44987349918e-06
-1.66257570375e-06
2.85201991851e-06
2.77532587554e-06
-1.62224295309e-06
1.48526594023e-06
2.99011035218e-06
-1.62237038075e-06
2.55997319443e-08
3.09414163465e-06
-1.63346876498e-06
-1.4357463455e-06
3.09626963076e-06
-1.63392540117e-06
-2.80665750662e-06
2.99599985878e-06
-1.62412661667e-06
-3.96474168043e-06
2.7844288878e-06
-1.62544130907e-06
-4.75792582706e-06
2.46132678577e-06
-1.66731070507e-06
-5.04867987976e-06
2.0587157275e-06
-1.76720005745e-06
-4.75589640185e-06
1.63614231944e-06
-1.92821980386e-06
-3.89923707083e-06
1.27893070123e-06
-2.13491832284e-06
-2.61651996652e-06
1.0724635129e-06
-2.35451342895e-06
-1.18510665902e-06
1.06835223549e-06
-2.49906716632e-06
1.24592765134e-06
-2.43057747549e-06
1.01464979883e-06
2.70241184941e-06
-2.48492605766e-06
2.65219134917e-06
2.72107552987e-06
-3.30336777946e-06
4.209162058e-06
2.97310163411e-06
-3.47184054466e-06
5.25583152151e-06
3.55363967993e-06
-3.33502647671e-06
5.62843578587e-06
4.39001193716e-06
-3.13948690997e-06
5.31738441232e-06
5.33421891236e-06
-2.97656372258e-06
4.4264268954e-06
6.22335186916e-06
-2.88166464755e-06
3.1328312138e-06
6.93285066126e-06
-2.86300727135e-06
1.61880280673e-06
7.40086210043e-06
-2.89576140084e-06
1.71547827887e-08
7.62736251031e-06
-2.93059799991e-06
-1.58563051916e-06
7.63052166715e-06
-2.93050690387e-06
-3.10286863189e-06
7.40998285776e-06
-2.89582663228e-06
-4.40114623571e-06
6.94709624083e-06
-2.8635342372e-06
-5.29738911623e-06
6.24144419218e-06
-2.88309201242e-06
-5.61356790199e-06
5.35482847858e-06
-2.97922005339e-06
-5.24522583494e-06
4.41192376955e-06
-3.14346101893e-06
-4.20148994981e-06
3.57586517931e-06
-3.34003801275e-06
-2.64657487421e-06
2.99530044064e-06
-3.47712783903e-06
-1.01036129718e-06
2.74371560318e-06
-3.31094937807e-06
2.73055906312e-06
-2.4946115436e-06
1.02190986789e-06
4.01463961622e-06
-2.33388281909e-06
2.91413232597e-06
4.29294455709e-06
-3.46378347308e-06
4.78732986582e-06
4.8565588606e-06
-3.75627174327e-06
6.07232264453e-06
5.8439132834e-06
-3.57479668721e-06
6.54275877704e-06
7.16269106742e-06
-3.24255890928e-06
6.17699418187e-06
8.61168887525e-06
-2.91107115781e-06
5.11059870745e-06
9.95885949242e-06
-2.66841420345e-06
3.58403846359e-06
1.10225473242e-05
-2.56239163193e-06
1.83563030914e-06
1.17195389682e-05
-2.56949564874e-06
1.47943748019e-08
1.20547351989e-05
-2.60575578238e-06
-1.80709819568e-06
1.20582252155e-05
-2.60504448608e-06
-3.55858411517e-06
1.1729822704e-05
-2.56762423025e-06
-5.089695518e-06
1.10387949879e-05
-2.55991269807e-06
-6.1612899339e-06
9.97976043096e-06
-2.66611075478e-06
-6.5321671584e-06
8.63589332954e-06
-2.90963535344e-06
-6.06599082813e-06
7.18878196776e-06
-3.24252573623e-06
-4.78389598522e-06
5.87064461863e-06
-3.5763918824e-06
-2.91227873672e-06
4.88335626926e-06
-3.7592024458e-06
-1.02087837276e-06
4.32164514927e-06
-3.46887212646e-06
4.05005766495e-06
-2.34012456601e-06
1.23289982059e-06
4.88474728761e-06
-2.10281110271e-06
3.50127187503e-06
5.34216719749e-06
-3.31736800359e-06
5.78236159967e-06
6.14158076933e-06
-3.56583568034e-06
7.37105406421e-06
7.43267941207e-06
-3.17712639694e-06
7.95657189084e-06
9.10124276758e-06
-2.52368333028e-06
7.49099055076e-06
1.09046100049e-05
-1.82690688203e-06
6.15114733754e-06
1.25618717762e-05
-1.26269881122e-06
4.26933935898e-06
1.38574121263e-05
-9.52558880468e-07
2.16685549e-06
1.47013229881e-05
-8.78784794419e-07
1.63544339651e-08
1.51046997716e-05
-8.98943121197e-07
-2.13527760024e-06
1.51079887035e-05
-8.97620456628e-07
-4.24124859609e-06
1.47113376286e-05
-8.75059260439e-07
-6.12834159121e-06
1.38733829547e-05
-9.47051549382e-07
-7.47428194483e-06
1.25827287431e-05
-1.25663300156e-06
-7.94600614752e-06
1.09292511892e-05
-1.82128505167e-06
-7.36583028148e-06
9.12838202936e-06
-2.51946354528e-06
-5.78089034812e-06
7.46101475296e-06
-3.17502440704e-06
-3.50194843411e-06
6.17065671547e-06
-3.56597830223e-06
-1.23356578879e-06
5.37376735636e-06
-3.32027164496e-06
4.92375039658e-06
-2.10716295218e-06
1.59466125278e-06
5.17635914527e-06
-1.88616369971e-06
4.34294274439e-06
5.70672053047e-06
-3.11271951915e-06
7.10575210151e-06
6.60406744891e-06
-3.22515584832e-06
9.04321494931e-06
8.0106964249e-06
-2.51530952975e-06
9.74740569041e-06
9.79835543558e-06
-1.40110525677e-06
9.13764945419e-06
1.17084751446e-05
-1.93888219824e-07
7.44537292096e-06
1.3448848235e-05
8.05538046982e-07
5.11882727454e-06
1.48008727793e-05
1.38333603723e-06
2.57748081364e-06
1.56807756444e-05
1.56215438217e-06
1.92305001773e-08
1.60993965573e-05
1.56382073246e-06
-2.54020559266e-06
1.61021573749e-05
1.56553290496e-06
-5.08567239057e-06
1.56893146782e-05
1.56774170853e-06
-7.41839670336e-06
1.48146678381e-05
1.39166634711e-06
-9.117826914e-06
1.34674520185e-05
8.14899847756e-07
-9.7350087486e-06
1.17309857096e-05
-1.84394594986e-07
-9.03759440695e-06
9.82389835578e-06
-1.39280542592e-06
-7.10514007797e-06
8.03807865913e-06
-2.50942743279e-06
-4.34492469877e-06
6.63274951865e-06
-3.22225714582e-06
-1.59637731667e-06
5.73839357686e-06
-3.11317547073e-06
5.21571077269e-06
-1.88839915733e-06
2.02168198462e-06
4.87216260123e-06
-1.71748320129e-06
5.29146326055e-06
5.37896320037e-06
-2.94203593916e-06
8.5578231013e-06
6.22434428383e-06
-2.88663947238e-06
1.0848188428e-05
7.53224403951e-06
-1.8118990807e-06
1.165861473e-05
9.17607071487e-06
-1.88111737306e-07
1.08812217852e-05
1.09191065214e-05
1.56680364705e-06
8.80812592226e-06
1.25027244563e-05
3.01926974578e-06
6.01117249606e-06
1.37316410044e-05
3.86624220345e-06
3.00883491276e-06
1.45359864133e-05
4.14719417363e-06
2.19453098468e-08
1.49199484881e-05
4.16641589485e-06
-2.96606714129e-06
1.49222568627e-05
4.16799809338e-06
-5.97272487332e-06
1.45426588735e-05
4.15339669595e-06
-8.776357924e-06
1.37420154733e-05
3.87635406076e-06
-1.08576003441e-05
1.25172674129e-05
3.03147348652e-06
-1.16435490389e-05
1.09374365792e-05
1.57951636283e-06
-1.08412497502e-05
9.19785823645e-06
-1.76277461554e-07
-8.55732967944e-06
7.55644919291e-06
-1.8023591273e-06
-5.29436620702e-06
6.25034735567e-06
-2.88069531996e-06
-2.02424593496e-06
5.40808945163e-06
-2.94002751538e-06
4.90880441668e-06
-1.71753607362e-06
2.42881589719e-06
4.05485797207e-06
-1.61162465763e-06
6.18392330136e-06
4.4646740429e-06
-2.84095786084e-06
9.90684857393e-06
5.13994596844e-06
-2.6386607805e-06
1.25059145809e-05
6.17650677802e-06
-1.24344387662e-06
1.33990664294e-05
7.46891826018e-06
8.13906330636e-07
1.24630886356e-05
8.83307255846e-06
3.02193407949e-06
1.00418009284e-05
1.00740606856e-05
4.84988605821e-06
6.81987944288e-06
1.10330031762e-05
5.92050681124e-06
3.40112404966e-06
1.16602090501e-05
6.2944958058e-06
2.42396186985e-08
1.19635303819e-05
6.33328268585e-06
-3.35397135154e-06
1.19655520285e-05
6.3349084569e-06
-6.77740142482e-06
1.16651178429e-05
6.30096551886e-06
-1.00057690809e-05
1.10398140258e-05
5.93055548275e-06
-1.24356550941e-05
1.00835527333e-05
4.8635702793e-06
-1.33807770547e-05
8.84604907721e-06
3.03645058801e-06
-1.24969418592e-05
7.48533959175e-06
8.28576957639e-07
-9.90572013302e-06
6.19576188504e-06
-1.23071363053e-06
-6.18714222361e-06
5.16132299203e-06
-2.62982738365e-06
-2.43187460799e-06
4.48906185779e-06
-2.83661464349e-06
4.08613437266e-06
-1.60950249285e-06
2.75635570041e-06
2.86385925327e-06
-1.56558176089e-06
6.89549938679e-06
3.1430038057e-06
-2.81772750918e-06
1.09716515233e-05
3.59243495117e-06
-2.52888183826e-06
1.38027123649e-05
4.27547084302e-06
-9.30232407524e-07
1.47559016727e-05
5.12117754738e-06
1.3943816548e-06
1.37006177241e-05
6.00984087181e-06
3.87837898065e-06
1.10028205637e-05
6.81793959816e-06
5.95380803911e-06
7.44646284827e-06
7.44508804891e-06
7.14418590534e-06
3.70878442651e-06
7.85965694871e-06
7.53816668021e-06
2.62162348527e-08
8.06681708655e-06
7.57923785197e-06
-3.65851048375e-06
8.06794383455e-06
7.58230325098e-06
-7.40149621162e-06
7.86267670026e-06
7.54539718329e-06
-1.09639883092e-05
7.44818827678e-06
7.15408061479e-06
-1.3669831423e-05
6.82223129771e-06
5.96711021028e-06
-1.47345068694e-05
6.01678495627e-06
3.89385144477e-06
-1.37912607433e-05
5.13145884145e-06
1.41048361002e-06
-1.09691916716e-05
4.28864609334e-06
-9.15200368819e-07
-6.89838960238e-06
3.60781452472e-06
-2.51766204725e-06
-2.75951871487e-06
3.16098225718e-06
-2.81127867103e-06
2.88770408472e-06
-1.56145302605e-06
2.9717228026e-06
1.45407588777e-06
-1.56226019797e-06
7.36346391996e-06
1.59871937302e-06
-2.84780293586e-06
1.1667135561e-05
1.82199780393e-06
-2.53355421484e-06
1.46435178141e-05
2.15316782286e-06
-8.54346695072e-07
1.56323955301e-05
2.55913635607e-06
1.57295481061e-06
1.45033078415e-05
2.98392828466e-06
4.15484350814e-06
1.16304744862e-05
3.3701958251e-06
6.32046137239e-06
7.86121148072e-06
3.67734772513e-06
7.53692043964e-06
3.91981938125e-06
3.88799698645e-06
7.91299581995e-06
2.76231705808e-08
3.99818848278e-06
7.96078734445e-06
-3.86758450832e-06
3.99769484397e-06
7.9654280567e-06
-7.8157569695e-06
3.88780703465e-06
7.92301238324e-06
-1.1590523782e-05
3.67679696165e-06
7.5461192943e-06
-1.44699119474e-05
3.36976460897e-06
6.33179696978e-06
-1.5607939983e-05
2.98485141706e-06
4.16986287197e-06
-1.46294133673e-05
2.56283989368e-06
1.58991753494e-06
-1.16629206526e-05
2.15957886237e-06
-8.37714321323e-07
-7.36548052591e-06
1.83047253411e-06
-2.52052613113e-06
-2.97459761168e-06
1.60912327084e-06
-2.83958050008e-06
1.46906099048e-06
-1.55635655403e-06
3.07454725136e-06
-4.82764303544e-08
-1.57258765702e-06
7.58737988023e-06
-3.2384483214e-08
-2.88214004367e-06
1.19982247872e-05
-1.96550359854e-08
-2.56956496738e-06
1.50411567215e-05
-1.52686794196e-08
-8.74801326505e-07
1.60444318638e-05
-1.63098715319e-08
1.57193860457e-06
1.48822492727e-05
-1.98953739742e-08
4.16583789356e-06
1.19338499312e-05
-2.49370988145e-08
6.34341297543e-06
8.06927344305e-06
-2.88776412677e-08
7.57071856769e-06
4.03047887823e-06
-3.18644930054e-08
7.958597863e-06
2.71901675623e-08
-3.41565026345e-08
8.03559055644e-06
-3.97820275123e-06
-3.54929924253e-08
8.03854231782e-06
-8.02374604222e-06
-3.53670442964e-08
7.96867571959e-06
-1.18935688166e-05
-3.33835754146e-08
7.57995247387e-06
-1.48474617765e-05
-3.01431320726e-08
6.35372961845e-06
-1.60175080055e-05
-2.4594235798e-08
4.17937648841e-06
-1.50244154529e-05
-1.91211657233e-08
1.58867051083e-06
-1.19918762192e-05
-1.57892808171e-08
-8.57490458567e-07
-7.58797390489e-06
-1.84406254655e-08
-2.55545333062e-06
-3.07671549429e-06
-3.01183028105e-08
-2.87260920644e-06
-4.28332049909e-08
-1.56523845081e-06
3.07363519521e-06
-1.54750024352e-06
-1.5748458579e-06
7.58557733545e-06
-1.66089980712e-06
-2.88387332779e-06
1.1995785426e-05
-1.85917114336e-06
-2.57109529296e-06
1.50381345644e-05
-2.18156838276e-06
-8.76381904791e-07
1.60407520029e-05
-2.58924915209e-06
1.57006547382e-06
1.48777995438e-05
-3.02080874507e-06
4.16367463425e-06
1.19301923968e-05
-3.41628659744e-06
6.33881356605e-06
8.06662861481e-06
-3.73064121111e-06
7.56521722271e-06
4.02855412812e-06
-3.94742393216e-06
7.95354512918e-06
2.59773592848e-08
-4.06232934026e-06
8.03067166223e-06
-3.97837570951e-06
-4.06424905701e-06
8.03303392998e-06
-8.02236624019e-06
-3.95341421278e-06
7.96195991582e-06
-1.18906336062e-05
-3.73850672489e-06
7.57330508574e-06
-1.48426107512e-05
-3.42521892568e-06
6.34694939926e-06
-1.60120847314e-05
-3.02978938129e-06
4.17452259189e-06
-1.50189964527e-05
-2.59749777094e-06
1.58506106573e-06
-1.1987043277e-05
-2.18828190374e-06
-8.59805227642e-07
-7.58437825064e-06
-1.86480644154e-06
-2.55678182504e-06
-3.07500688069e-06
-1.66655600415e-06
-2.87353496253e-06
-1.55197904885e-06
-1.56627500302e-06
2.96901608099e-06
-2.9480980975e-06
-1.56886027207e-06
7.35828029211e-06
-3.19805072798e-06
-2.85256324002e-06
1.16600694659e-05
-3.62376555308e-06
-2.53760565237e-06
1.4634599874e-05
-4.29796995997e-06
-8.58477079444e-07
1.56213937901e-05
-5.1442778349e-06
1.56795334611e-06
1.44907757143e-05
-6.03792258053e-06
4.14750711891e-06
1.16200395416e-05
-6.85322321396e-06
6.30748945917e-06
7.85305009735e-06
-7.48637294944e-06
7.52256619038e-06
3.91352600355e-06
-7.90723187298e-06
7.89919467455e-06
2.41143085519e-08
-8.11877370251e-06
7.94572855064e-06
-3.8672031856e-06
-8.12155341533e-06
7.94849776322e-06
-7.81122658653e-06
-7.91476504483e-06
7.90524957674e-06
-1.1581611922e-05
-7.49614542981e-06
7.52789515955e-06
-1.44555931221e-05
-6.86423954748e-06
6.31285775038e-06
-1.5591909826e-05
-6.04999368282e-06
4.15633860765e-06
-1.4613638265e-05
-5.15652414677e-06
1.58050008627e-06
-1.16489341901e-05
-4.30963675112e-06
-8.43708286665e-07
-7.35490478792e-06
-3.63525610952e-06
-2.52406035837e-06
-2.96904908921e-06
-3.21077736903e-06
-2.84221720467e-06
-2.96144969969e-06
-1.55997026899e-06
2.75231299028e-06
-4.12532837252e-06
-1.57549622568e-06
6.88777346616e-06
-4.50921505833e-06
-2.82471557736e-06
1.0961159701e-05
-5.16288512487e-06
-2.53465826254e-06
1.37895532999e-05
-6.19066552119e-06
-9.36043687251e-07
1.47394403475e-05
-7.4820999634e-06
1.38763973672e-06
1.3681395145e-05
-8.84858070808e-06
3.86845236733e-06
1.09865503176e-05
-1.00925077356e-05
5.93391275544e-06
7.43248069531e-06
-1.1056068506e-05
7.12357405621e-06
3.69831364647e-06
-1.16879648496e-05
7.51472741668e-06
2.14789117163e-08
-1.19944120518e-05
7.55231155019e-06
-3.65672200241e-06
-1.1997391202e-05
7.55388308012e-06
-7.39329969831e-06
-1.16953617504e-05
7.51702089882e-06
-1.09494695643e-05
-1.10662252598e-05
7.1260928297e-06
-1.36473004189e-05
-1.01048512115e-05
5.93827264733e-06
-1.47100617053e-05
-8.86261085865e-06
3.87517539745e-06
-1.37675149895e-05
-7.49699616879e-06
1.39766133633e-06
-1.09480380948e-05
-6.20594790715e-06
-9.23515531934e-07
-6.882324875e-06
-5.17900836209e-06
-2.52241023941e-06
-2.75099382722e-06
-4.52770404719e-06
-2.81493533712e-06
-4.1458755279e-06
-1.56691481098e-06
2.42401058122e-06
-4.92608043215e-06
-1.62360759601e-06
6.174729408e-06
-5.4110887343e-06
-2.84919852018e-06
9.89445626736e-06
-6.23764088844e-06
-2.64531082223e-06
1.24907029923e-05
-7.53715642522e-06
-1.25006941468e-06
1.33806201253e-05
-9.17877956195e-06
8.06481362107e-07
1.24418863348e-05
-1.09221075765e-05
3.01201217358e-06
1.0021967445e-05
-1.25064102648e-05
4.83360345605e-06
6.8018275732e-06
-1.37379981677e-05
5.90187877642e-06
3.38766699869e-06
-1.45446117001e-05
6.27063749236e-06
1.87623443728e-08
-1.49297084415e-05
6.30404627917e-06
-3.35070362321e-06
-1.49321716837e-05
6.30410002154e-06
-6.76582377604e-06
-1.45514111006e-05
6.27102467023e-06
-9.98732082677e-06
-1.37480584676e-05
5.90318129448e-06
-1.24094983847e-05
-1.25192408878e-05
4.83640414231e-06
-1.3351969156e-05
-1.09371116942e-05
3.0167795908e-06
-1.24683206504e-05
-9.19542483026e-06
8.14540408722e-07
-9.87999990441e-06
-7.55503972707e-06
-1.23953361444e-06
-6.16758983184e-06
-6.25724789763e-06
-2.63455018963e-06
-2.42149636383e-06
-5.43384561675e-06
-2.84039087636e-06
-4.95175417385e-06
-1.61589325226e-06
2.01679062327e-06
-5.21301917435e-06
-1.73010315812e-06
5.28176599423e-06
-5.72582879344e-06
-2.9504876721e-06
8.54477247655e-06
-6.60757834702e-06
-2.89332108525e-06
1.08324155238e-05
-8.00667518038e-06
-1.81836896658e-06
1.16396971723e-05
-9.79136479589e-06
-1.94925305761e-07
1.08594105727e-05
-1.17001165619e-05
1.55809008602e-06
8.78645965416e-06
-1.34391865184e-05
3.00554979321e-06
5.99144139325e-06
-1.47908229487e-05
3.84769364418e-06
2.99458343154e-06
-1.56699859825e-05
4.12210797201e-06
1.63326535553e-08
-1.60879202924e-05
4.13635612007e-06
-2.9619787689e-06
-1.60901142881e-05
4.13615625648e-06
-5.95893393761e-06
-1.56762169022e-05
4.12166368811e-06
-8.75467833173e-06
-1.48006691328e-05
3.84824949235e-06
-1.08292024827e-05
-1.34521794484e-05
3.00734186363e-06
-1.16124567104e-05
-1.17157152111e-05
1.56171365393e-06
-1.08104054381e-05
-9.8091814458e-06
-1.88471815748e-07
-8.52966152451e-06
-8.02648254899e-06
-1.8095210095e-06
-5.27342940212e-06
-6.62968971145e-06
-2.88406010859e-06
-2.01331956299e-06
-5.75132378902e-06
-2.94293840526e-06
-5.24151927771e-06
-1.72373424266e-06
1.58999573862e-06
-4.90503554308e-06
-1.89810542498e-06
4.33347222529e-06
-5.34919075739e-06
-3.12023673243e-06
7.09311256821e-06
-6.13672554384e-06
-3.23062604555e-06
9.02821040096e-06
-7.42169892905e-06
-2.52021658177e-06
9.72959094862e-06
-9.08718583342e-06
-1.40570193161e-06
9.11719177989e-06
-1.08880779931e-05
-1.9976978783e-07
7.42451501617e-06
-1.25424075936e-05
7.95789030861e-07
5.09986188574e-06
-1.38351618193e-05
1.36890973501e-06
2.56372527573e-06
-1.46760069764e-05
1.54209990016e-06
1.41838884636e-08
-1.50768655585e-05
1.53844690577e-06
-2.5351633628e-06
-1.50786993132e-05
1.53790098313e-06
-5.07091404758e-06
-1.46816586383e-05
1.54115898665e-06
-7.39568922618e-06
-1.38445277415e-05
1.36859111136e-06
-9.08938452795e-06
-1.25551949412e-05
7.96655437028e-07
-9.70410332228e-06
-1.09039168385e-05
-1.97148621693e-07
-9.00710650459e-06
-9.10582668899e-06
-1.40043612377e-06
-7.07787195933e-06
-7.44283100719e-06
-2.51299038642e-06
-4.32433518068e-06
-6.16039381381e-06
-3.22296226349e-06
-1.58566451865e-06
-5.37596407939e-06
-3.11417608405e-06
-4.9336891019e-06
-1.89356415274e-06
1.22945057236e-06
-4.02236648132e-06
-2.11210514525e-06
3.49309258836e-06
-4.29025787283e-06
-3.32255219114e-06
5.77151649726e-06
-4.84638435863e-06
-3.56876275837e-06
7.35860540153e-06
-5.82995395874e-06
-3.17885760982e-06
7.94208104994e-06
-7.14671174385e-06
-2.52399189401e-06
7.47433642564e-06
-8.5935847337e-06
-1.82679564087e-06
6.13378913742e-06
-9.93777696547e-06
-1.26412167106e-06
4.25352393415e-06
-1.09980393716e-05
-9.56878297152e-07
2.15531827843e-06
-1.16914273037e-05
-8.86375335465e-07
1.2056040158e-08
-1.20234371064e-05
-9.10151428746e-07
-2.13088428336e-06
-1.20250183207e-05
-9.10717923662e-07
-4.22834470488e-06
-1.16963722778e-05
-8.8780345521e-07
-6.10817371108e-06
-1.10065556885e-05
-9.58125489672e-07
-7.44909245844e-06
-9.94987078789e-06
-1.26439170953e-06
-7.91854499312e-06
-8.60913352298e-06
-1.82531631746e-06
-7.33855340689e-06
-7.16545840237e-06
-2.52034115226e-06
-5.75633641325e-06
-5.85146894491e-06
-3.17355736918e-06
-3.48346561791e-06
-4.87032587186e-06
-3.56291955172e-06
-1.22412497865e-06
-4.31692986293e-06
-3.31835459631e-06
-4.04797548986e-06
-2.10980050668e-06
1.02002885676e-06
-2.70373238797e-06
-2.33850706022e-06
2.90815597191e-06
-2.71287375965e-06
-3.46534925346e-06
4.77973709991e-06
-2.96203293074e-06
-3.75580211511e-06
6.06436848261e-06
-3.54177699565e-06
-3.57272223464e-06
6.53353609875e-06
-4.37767341465e-06
-3.23816035137e-06
6.1657909167e-06
-5.32112424554e-06
-2.90469666098e-06
5.09797786427e-06
-6.20850446665e-06
-2.66145102807e-06
3.57166972213e-06
-6.91547514309e-06
-2.55624348388e-06
1.82580892313e-06
-7.38054481868e-06
-2.56499627277e-06
1.00046159731e-08
-7.60422074883e-06
-2.60337211285e-06
-1.80524523646e-06
-7.60562639013e-06
-2.60409127018e-06
-3.54981674609e-06
-7.38462978157e-06
-2.56711410477e-06
-5.07484083522e-06
-6.92270185126e-06
-2.55876801111e-06
-6.14206718386e-06
-6.21911565111e-06
-2.66345775387e-06
-6.51060711442e-06
-5.33518050277e-06
-2.90532476478e-06
-6.04402577732e-06
-4.39490218415e-06
-3.23702562353e-06
-4.76361714974e-06
-3.56167270869e-06
-3.570069689e-06
-2.89709563801e-06
-2.98425206966e-06
-3.7524439054e-06
-1.01366165066e-06
-2.73679473995e-06
-3.46340489846e-06
-2.72329190279e-06
-2.33821645312e-06
1.01327815684e-06
-1.22906896051e-06
-2.48766541219e-06
2.65075405906e-06
-1.04631724198e-06
-3.30376784691e-06
4.20938544413e-06
-1.05034297937e-06
-3.47010360548e-06
5.25718448945e-06
-1.258013722e-06
-3.33140745427e-06
5.62887186627e-06
-1.61636370245e-06
-3.13290330874e-06
5.31491081402e-06
-2.04006779373e-06
-2.96704777882e-06
4.42041407985e-06
-2.44374274771e-06
-2.87024226031e-06
3.12413991111e-06
-2.76816071873e-06
-2.85102180688e-06
1.6094064434e-06
-2.98139723645e-06
-2.88438523077e-06
9.57771477429e-09
-3.08376505685e-06
-2.92058112753e-06
-1.58921821398e-06
-3.08493399912e-06
-2.92183383788e-06
-3.10140274226e-06
-2.98419705782e-06
-2.88817109531e-06
-4.39465490124e-06
-2.77302711459e-06
-2.85633033283e-06
-5.28682732191e-06
-2.45101482601e-06
-2.87581496975e-06
-5.60019652713e-06
-2.04981334823e-06
-2.97185389361e-06
-5.2303888721e-06
-1.6282908219e-06
-3.13623720152e-06
-4.18718457779e-06
-1.27167631339e-06
-3.33298256873e-06
-2.63536976511e-06
-1.06584015781e-06
-3.46998182501e-06
-1.00494342871e-06
-1.0625825735e-06
-3.30437187997e-06
-1.23949528002e-06
-2.48856956712e-06
1.19036794146e-06
-2.41922731911e-06
2.63419952433e-06
-2.48996174704e-06
3.93016696381e-06
-2.34616348834e-06
4.79593348069e-06
-2.12368069023e-06
5.09357338247e-06
-1.91394703819e-06
4.80421611726e-06
-1.75068390057e-06
4.01031144986e-06
-1.64982476007e-06
2.85057788482e-06
-1.60841206339e-06
1.478142404e-06
-1.60893503636e-06
1.59666960665e-08
-1.62154745299e-06
-1.4452660464e-06
-1.62364518807e-06
-2.81370338046e-06
-1.61569145687e-06
-3.9682489578e-06
-1.6184005651e-06
-4.75795118231e-06
-1.6612147568e-06
-5.04568556395e-06
-1.76195837026e-06
-4.75001532029e-06
-1.92381441221e-06
-3.890343759e-06
-2.13117840249e-06
-2.60591802674e-06
-2.35007790142e-06
-1.17633712523e-06
-2.49197921114e-06
-2.41575671682e-06
1.56860893841e-06
1.61570609418e-06
-5.60328882379e-06
3.13626598831e-06
1.82477496852e-06
-5.88157163958e-06
4.47393655226e-06
2.06422476286e-06
-5.74927479317e-06
5.34184865921e-06
2.46454243947e-06
-5.45912952421e-06
5.60298709339e-06
2.97895750065e-06
-5.16027077256e-06
5.23712485026e-06
3.53431158161e-06
-4.92864755947e-06
4.33557095702e-06
4.04513420488e-06
-4.80536900927e-06
3.05951477484e-06
4.44488964836e-06
-4.79022113037e-06
1.57805378332e-06
4.7027973e-06
-4.84280592192e-06
1.48129759245e-08
4.82573783362e-06
-4.89504580049e-06
-1.54947276199e-06
4.82734927579e-06
-4.89607845678e-06
-3.0338263006e-06
4.70725275735e-06
-4.84615350785e-06
-4.31397431803e-06
4.45158751759e-06
-4.79607030853e-06
-5.21994919641e-06
4.0532166601e-06
-4.81381629566e-06
-5.5898221781e-06
3.54297393862e-06
-4.93963602836e-06
-5.3318047737e-06
2.9876669036e-06
-5.17329310161e-06
-4.465827126e-06
2.47317736989e-06
-5.47349367389e-06
-3.12936212212e-06
2.07344708453e-06
-5.7638529096e-06
-1.56355974435e-06
1.83475991841e-06
-5.89905266375e-06
1.62887039417e-06
-5.62266536966e-06
1.79266238408e-06
3.21380433853e-06
-5.87543557067e-06
3.46849542977e-06
3.5101356536e-06
-6.66426345917e-06
4.85815968027e-06
3.98686243234e-06
-6.78377128682e-06
5.77173239647e-06
4.76338207916e-06
-6.54698040725e-06
6.04257550029e-06
5.7594081734e-06
-6.19023190375e-06
5.63179178546e-06
6.82923374214e-06
-5.86006781503e-06
4.63831623515e-06
7.80694770388e-06
-5.6492931429e-06
3.25145638987e-06
8.56496490857e-06
-5.59545320613e-06
1.66356768084e-06
9.05179775551e-06
-5.65606300392e-06
3.10720016509e-09
9.28306445742e-06
-5.72663708994e-06
-1.65769569513e-06
9.28503356402e-06
-5.72657170527e-06
-3.2467255009e-06
9.05745468301e-06
-5.65622046898e-06
-4.6351336735e-06
8.57346538219e-06
-5.5962866312e-06
-5.63006531187e-06
7.81708675438e-06
-5.6513850045e-06
-6.04181883654e-06
6.83997510656e-06
-5.86388924389e-06
-5.77115271281e-06
5.77004367514e-06
-6.19597482416e-06
-4.85685229575e-06
4.77380092071e-06
-6.55446142184e-06
-3.46542454904e-06
3.99802826639e-06
-6.79264786961e-06
-1.78927650788e-06
3.52433018249e-06
-6.67619118725e-06
3.2372133071e-06
-5.89196811398e-06
2.04514277288e-06
4.56532545305e-06
-5.73033309855e-06
3.96904638076e-06
4.89770830437e-06
-6.77501453395e-06
5.55768724683e-06
5.56653229461e-06
-6.92428315616e-06
6.59985225023e-06
6.65364103056e-06
-6.50685640176e-06
6.8970295504e-06
8.0417577956e-06
-5.82165419648e-06
6.39675930128e-06
9.5212365545e-06
-5.10230715008e-06
5.22410635449e-06
1.08575941159e-05
-4.54585220911e-06
3.62387314884e-06
1.1879684238e-05
-4.27627262776e-06
1.83691622259e-06
1.25281826669e-05
-4.25828232475e-06
-5.83848097432e-10
1.28337735503e-05
-4.31830599841e-06
-1.83839474549e-06
1.28357370094e-05
-4.3172835849e-06
-3.62608668383e-06
1.25337583381e-05
-4.25561286056e-06
-5.22731336099e-06
1.18881024215e-05
-4.27275135793e-06
-6.40070551188e-06
1.08674841585e-05
-4.54260618141e-06
-6.90119221986e-06
9.53159826826e-06
-5.10032128451e-06
-6.60357205594e-06
8.05198883272e-06
-5.8216865709e-06
-5.56028478144e-06
6.66383225009e-06
-6.5093375349e-06
-3.96993813189e-06
5.57810025228e-06
-6.92927068167e-06
-2.0452777893e-06
4.91439283849e-06
-6.78327349487e-06
4.59525704287e-06
-5.74329362585e-06
2.45501783788e-06
5.43430722674e-06
-5.42666342155e-06
4.76050473064e-06
5.80349399521e-06
-6.5284780163e-06
6.66238833618e-06
6.59762870085e-06
-6.49861832135e-06
7.90061265431e-06
7.87973671726e-06
-5.64120545519e-06
8.22849065174e-06
9.50495344627e-06
-4.31446955096e-06
7.57910565515e-06
1.12191461548e-05
-2.87509772987e-06
6.12572316389e-06
1.27407240093e-05
-1.69206800228e-06
4.19678935452e-06
1.38854772005e-05
-1.0290000057e-06
2.10610379274e-06
1.46040811679e-05
-8.63548120028e-07
-1.17070258495e-09
1.49408952037e-05
-8.98320751334e-07
-2.10879117402e-06
1.49425983271e-05
-8.96390111078e-07
-4.20037607255e-06
1.46090456768e-05
-8.58309666319e-07
-6.1308417525e-06
1.38927595432e-05
-1.02082843609e-06
-7.58524470738e-06
1.27492251885e-05
-1.68360606398e-06
-8.23505735668e-06
1.12279477812e-05
-2.86750725529e-06
-7.90696912701e-06
9.51372760665e-06
-4.3090209738e-06
-6.66788705918e-06
7.88884154356e-06
-5.63888703807e-06
-4.76446340132e-06
6.6087588234e-06
-6.4998728815e-06
-2.4575310784e-06
5.82106377067e-06
-6.53373679824e-06
5.46729426026e-06
-5.43670172798e-06
2.97637505529e-06
5.68609530737e-06
-5.11426866535e-06
5.76586310998e-06
6.06431621703e-06
-6.1629689162e-06
8.06010580885e-06
6.88493097721e-06
-5.80661825782e-06
9.53531685816e-06
8.19792903932e-06
-4.30859963771e-06
9.88505623461e-06
9.84495220402e-06
-2.09069580174e-06
9.03007592131e-06
1.1552447837e-05
3.27973310703e-07
7.21978148995e-06
1.30553139556e-05
2.30145903052e-06
4.88761077788e-06
1.41715077526e-05
3.42972397633e-06
2.43105763826e-06
1.48686310162e-05
3.7544346952e-06
-3.48564438947e-10
1.51944465552e-05
3.74197374624e-06
-2.43236322356e-06
1.51956440676e-05
3.74480851022e-06
-4.89056012157e-06
1.48725420754e-05
3.76274122149e-06
-7.22505017195e-06
1.4177357096e-05
3.44183267857e-06
-9.03709178137e-06
1.30622316421e-05
2.31417351473e-06
-9.89302734143e-06
1.15591827048e-05
3.4050333678e-07
-9.54355576682e-06
9.85167650162e-06
-2.08007544346e-06
-8.06799274264e-06
8.20543580929e-06
-4.30148903325e-06
-5.77243464376e-06
6.89497800667e-06
-5.80400393485e-06
-2.98079332609e-06
6.08137339214e-06
-6.16516815527e-06
5.71934929337e-06
-5.12133193303e-06
3.53723744642e-06
5.30255866464e-06
-4.87122697657e-06
6.84198501979e-06
5.64351510211e-06
-5.82602755283e-06
9.54474553555e-06
6.37873897348e-06
-5.08323371613e-06
1.12537460386e-05
7.54460950368e-06
-2.86757514587e-06
1.15966799947e-05
8.98675460406e-06
3.27191732113e-07
1.05179151758e-05
1.04716155758e-05
3.72647332135e-06
8.32790112231e-06
1.17686046897e-05
6.49609508327e-06
5.58392279444e-06
1.27226678105e-05
8.05919107161e-06
2.75932971566e-06
1.33120289551e-05
8.52854600063e-06
5.9225440488e-10
1.35904156154e-05
8.52936272487e-06
-2.75858151379e-06
1.35916978468e-05
8.53130840622e-06
-5.58550641379e-06
1.33154468198e-05
8.53760451481e-06
-8.33265245582e-06
1.27264894955e-05
8.07454156463e-06
-1.05256544153e-05
1.17733778805e-05
6.5134798584e-06
-1.16057634182e-05
1.04761574828e-05
3.74276715898e-06
-1.12633132315e-05
8.99141020653e-06
3.41604841626e-07
-9.55444119739e-06
7.55034981528e-06
-2.85615117948e-06
-6.85066583619e-06
6.38727356559e-06
-5.07686348128e-06
-3.54325154554e-06
5.65892648022e-06
-5.8251858694e-06
5.33345069037e-06
-4.87506227993e-06
4.05252784579e-06
4.37656790284e-06
-4.73830502785e-06
7.82404960603e-06
4.64151754244e-06
-5.61062355794e-06
1.08837743128e-05
5.20579414404e-06
-4.52555353193e-06
1.27771327233e-05
6.09494441922e-06
-1.68720656989e-06
1.31016077334e-05
7.18239248583e-06
2.29377019158e-06
1.18135649149e-05
8.2907775719e-06
6.49083223532e-06
9.29115640254e-06
9.26280525002e-06
9.87814433532e-06
6.18839376214e-06
9.9583581348e-06
1.17876568051e-05
3.04711354455e-06
1.03676611806e-05
1.23802455821e-05
1.4832771119e-09
1.0564258799e-05
1.24051894524e-05
-3.04463441707e-06
1.05660147684e-05
1.24068369993e-05
-6.18946078312e-06
1.03708216423e-05
1.23905443851e-05
-9.29516353266e-06
9.96147489144e-06
1.18013926279e-05
-1.1821867337e-05
9.26553519963e-06
9.89822194508e-06
-1.311156454e-05
8.29363581263e-06
6.50874555412e-06
-1.27875019161e-05
7.18552019065e-06
2.31042362977e-06
-1.08945996254e-05
6.09925357514e-06
-1.67259011872e-06
-7.83422979597e-06
5.21270239119e-06
-4.51581200496e-06
-4.05977022164e-06
4.65441330435e-06
-5.60685776634e-06
4.40290325531e-06
-4.73895634917e-06
4.45528728905e-06
3.07133386122e-06
-4.71586695516e-06
8.58467204204e-06
3.24806050421e-06
-5.55387477636e-06
1.19072096139e-05
3.61027956095e-06
-4.25607875367e-06