/*--------------------------------*- C++ -*----------------------------------*\
| =========                 |                                                 |
| \\      /  F ield         | OpenFOAM: The Open Source CFD Toolbox           |
|  \\    /   O peration     | Version:  3.0.1                                 |
|   \\  /    A nd           | Web:      www.OpenFOAM.org                      |
|    \\/     M anipulation  |                                                 |
\*---------------------------------------------------------------------------*/
FoamFile
{
    version     2.0;
    format      ascii;
    class       volVectorField;
    location    "0.6";
    object      U_0;
}
// * * * * * * * * * * * * * * * * * * * * * * * * * * * * * * * * * * * * * //

dimensions      [0 1 -1 0 0 0 0];

internalField   nonuniform List<vector> 
7968
(
(0.000255082625176 0.000265592292433 -0.000519483762496)
(0.000725497894971 0.000202208978879 -0.000530772537773)
(0.0013021173078 0.000184198172483 -0.000486343051937)
(0.00173722391128 0.000218089783532 -0.000424080385206)
(0.00197156828393 0.000288480899521 -0.000367558570318)
(0.00197382624181 0.000374729169423 -0.00032248838748)
(0.00175994632904 0.000457377625597 -0.000291741180859)
(0.00137092728592 0.00052509253 -0.00027442451182)
(0.00086649048305 0.000570115448406 -0.000267724201806)
(0.000300895383632 0.000592109870315 -0.000266376737763)
(-0.000283330565774 0.000592695795776 -0.000266412689007)
(-0.000849865592046 0.000571648850565 -0.000268041190745)
(-0.00135620287843 0.000527416653497 -0.00027507409054)
(-0.0017475437014 0.000460251048019 -0.00029277376319)
(-0.00196370613637 0.0003778686343 -0.000323935410297)
(-0.00196356833053 0.000291799353377 -0.000369284827745)
(-0.00173131750425 0.000221671822502 -0.000425715082837)
(-0.00129849090006 0.000188142206539 -0.000487461076495)
(-0.000726572365787 0.000204762538055 -0.000533649172532)
(-0.000251639885974 0.000266093498493 -0.000524440063153)
(0.000191945663624 0.000749197001545 -0.000529363631526)
(0.000673488199227 0.000694667827669 -0.000821785562636)
(0.00136911478087 0.000722213742293 -0.000885349896988)
(0.00189582801656 0.000858934935149 -0.000846736899116)
(0.00217998111423 0.00107754072479 -0.000795029629013)
(0.00219076972713 0.00133024034447 -0.000754509020377)
(0.00194859852163 0.00156920146939 -0.000730596756277)
(0.00150954875189 0.0017597368463 -0.000723586126335)
(0.000947108922648 0.00188473537388 -0.000728039929347)
(0.000324985973451 0.00194495348497 -0.000733959881909)
(-0.000313920871657 0.00194603209612 -0.000733830434536)
(-0.000936814912494 0.00188777753345 -0.000727848269026)
(-0.00150069434014 0.00176444514083 -0.000723459482497)
(-0.00194150694707 0.00157511183426 -0.000730716963987)
(-0.00218540731117 0.00133688501609 -0.00075502379852)
(-0.00217612407284 0.00108453722367 -0.000795978338428)
(-0.00189300395302 0.000866036985522 -0.000847958833891)
(-0.00136676151718 0.000729337188918 -0.000886468914518)
(-0.00067322603329 0.000701978401004 -0.000824161775586)
(-0.000188783751936 0.000758454886502 -0.000533219787754)
(0.000174600866249 0.00133633034637 -0.000482097642136)
(0.000703777468116 0.00139760335268 -0.000882302447049)
(0.00153074407918 0.00155428004427 -0.000997432561361)
(0.00217000729958 0.0018554446362 -0.000953342339387)
(0.00252077325356 0.0022703247579 -0.000871049713124)
(0.00253928589777 0.00273112538053 -0.000793520673205)
(0.00224943965434 0.00316156116452 -0.000737986046252)
(0.0017279038464 0.00350219677386 -0.000713349249381)
(0.00107346400272 0.00372531360851 -0.000713949138646)
(0.000364991159893 0.0038325763458 -0.000721394467714)
(-0.000355876655979 0.00383381805537 -0.000721025306377)
(-0.00106509262837 0.00372893126236 -0.000713045455886)
(-0.00172090975553 0.00350786023808 -0.000712133896236)
(-0.00224415296866 0.00316876116944 -0.000736786911765)
(-0.00253570339174 0.00273933314825 -0.000792636320372)
(-0.00251865171653 0.00227902093356 -0.000870690456657)
(-0.00216891745403 0.00186420996174 -0.000953529209338)
(-0.00153003290456 0.00156287243108 -0.000997926223941)
(-0.000704457789033 0.00140668852838 -0.000883769748035)
(-0.000173235385992 0.00134794563029 -0.000484323829806)
(0.000209483269805 0.00177627097262 -0.000416622019448)
(0.000842877067698 0.00192696941972 -0.000839983900723)
(0.00183484305497 0.00219480690578 -0.000949523747121)
(0.00261805889195 0.00263986710342 -0.000854105661496)
(0.00305301398833 0.0032226623194 -0.000691608828693)
(0.0030741321415 0.00385686889719 -0.000523332376106)
(0.00270781282667 0.00444167830753 -0.000387852218642)
(0.00205933368684 0.00489910908559 -0.000311736230427)
(0.00126537071521 0.00519618733594 -0.000291233260603)
(0.00042699225512 0.00533782380097 -0.000293879530878)
(-0.000416807477327 0.00533907915943 -0.000293279472174)
(-0.00125601708329 0.00519993025248 -0.000289663252012)
(-0.00205158841813 0.00490503923521 -0.000309470847495)
(-0.00270207877656 0.00444934027948 -0.000385351786928)
(-0.00307045513722 0.00386580236167 -0.000521022809005)
(-0.00305119146034 0.00323233547005 -0.000689858208218)
(-0.00261766297282 0.00264978720845 -0.000853114178851)
(-0.00183500530624 0.00220481680566 -0.000949207721147)
(-0.000844186301457 0.00193789875122 -0.000840845721658)
(-0.000208796885763 0.00179012020124 -0.000418309506575)
(0.000281165402553 0.00200987629243 -0.00035686280124)
(0.00106361948806 0.00220932396582 -0.000784631015107)
(0.00225171378728 0.00254325701156 -0.000863328874708)
(0.00320238407053 0.0030726320244 -0.000687486671613)
(0.00373222907663 0.00375065933882 -0.000408514108741)
(0.00374770566209 0.004478358549 -0.000109757544715)
(0.00327955522076 0.00514222074327 0.000136502944873)
(0.00247036141566 0.00565644240368 0.000282040412707)
(0.00150280804375 0.00598860506906 0.000330582081788)
(0.000503769588714 0.00614580443951 0.000333431402591)
(-0.000491505033024 0.00614687054878 0.000334096550654)
(-0.00149148111563 0.00599193297348 0.000332617212518)
(-0.00246094307088 0.00566183016366 0.000285082407905)
(-0.00327249849608 0.00514938143496 0.000140050300534)
(-0.00374312492892 0.00448694427141 -0.000106130686354)
(-0.00373002933194 0.00376024716249 -0.000405418602405)
(-0.00320215103968 0.00308275131666 -0.000685309106994)
(-0.00225244573056 0.00255373636981 -0.000862135152746)
(-0.00106541070912 0.0022208898761 -0.000784782556733)
(-0.000280701536783 0.00202461069679 -0.000357967255926)
(0.000368594532392 0.00200601671648 -0.000308885025382)
(0.00131816130143 0.00221453008685 -0.00074088316591)
(0.00271400657749 0.00255673055989 -0.000782278970378)
(0.00383737866239 0.00308890952777 -0.00051541513636)
(0.00446024647513 0.00376126490406 -0.000106066896914)
(0.0044621630671 0.00447532903816 0.000331875018739)
(0.00388166956627 0.00512160812447 0.000699516391896)
(0.00290164430911 0.00561981215843 0.000919806499098)
(0.00175174144471 0.00594262929333 0.000998821363305)
(0.0005840427499 0.00609492700527 0.00100738850642)
(-0.000569840255175 0.00609575044847 0.00100794515947)
(-0.0017384110435 0.00594521270134 0.00100088847243)
(-0.00289036402359 0.00562400935131 0.000923196687366)
(-0.00387301079481 0.00512747314911 0.000703749459205)
(-0.00445634559204 0.00448264827233 0.000336523159532)
(-0.00445728748826 0.00376985178514 -0.000101726608731)
(-0.00383696027699 0.00309829917368 -0.000512082480002)
(-0.00271501834958 0.00256669209598 -0.000780197984091)
(-0.00132026918955 0.00222569001384 -0.000740334113725)
(-0.00036831892334 0.00202033900211 -0.00030937313179)
(0.000452288268835 0.00178161726221 -0.000275641677596)
(0.00155854429417 0.0019639992197 -0.000714315456184)
(0.00314543768991 0.0022600606049 -0.000723886003446)
(0.00442241821725 0.00271626959111 -0.000376942811265)
(0.00512386981262 0.00328691445283 0.000142803131445)
(0.00510834328701 0.00388917080627 0.00070190860146)
(0.00442437605344 0.00443393036664 0.00117310908607)
(0.00329075411613 0.00485324100125 0.00145550682153)
(0.00197704874273 0.00512655882385 0.00156157761527)
(0.000656505578728 0.00525663483899 0.00157566413919)
(-0.000640721919985 0.00525736925565 0.00157615229183)
(-0.00196225134316 0.00512844831141 0.00156349846193)
(-0.00327798383563 0.00485608709444 0.00145862429807)
(-0.00441421192354 0.00443802966819 0.00117749108678)
(-0.0051011414128 0.00389465815023 0.000706945821644)
(-0.00511984033771 0.00329374946773 0.000148063320842)
(-0.00442150437605 0.00272414717832 -0.000372580849246)
(-0.00314642481365 0.00226870404656 -0.000720968250431)
(-0.00156075309615 0.00197386772972 -0.000713110974637)
(-0.000452113451877 0.00179449710061 -0.000275517682558)
(0.000520657294071 0.00137854212599 -0.000256424216033)
(0.00174992712143 0.00151455306357 -0.000705351539921)
(0.00348656081821 0.00173060778913 -0.000697201021828)
(0.00487990360058 0.00206057940877 -0.000298647762718)
(0.00563846650956 0.00247020652165 0.000290421439048)
(0.00560916858193 0.00290080220092 0.000925543419031)
(0.00484587401087 0.00329130328802 0.00146352242618)
(0.00359209129746 0.00359258558455 0.00178078876561)
(0.00215265584915 0.00379079362224 0.00190193703991)
(0.000713807130648 0.00388761027935 0.00192085796916)
(-0.000696773232234 0.00388820601764 0.00192163415546)
(-0.00213702388426 0.00379214719976 0.00190376250798)
(-0.00357846381187 0.00359410519691 0.00178354610765)
(-0.00483456266002 0.00329347213532 0.00146749581161)
(-0.00560069518903 0.00290412697275 0.000930768011419)
(-0.00563330754643 0.0024748454972 0.000296070894008)
(-0.0048782027068 0.00206636317159 -0.000293577364323)
(-0.00348721274564 0.00173727037126 -0.000693582251724)
(-0.00175201880447 0.0015223614987 -0.000703561569396)
(-0.000520482547234 0.00138906107304 -0.000255739883252)
(0.000565855131495 0.000857825787413 -0.000248614806197)
(0.00187491442208 0.000940565114558 -0.000708715888741)
(0.00370920681379 0.00106770597017 -0.000696647093526)
(0.00517577363519 0.00125888709697 -0.000276747351269)
(0.00596879245228 0.00149419249508 0.000340023551717)
(0.00593038183328 0.00174039735013 0.0010045796399)
(0.00511873740691 0.00196354954947 0.00156847648281)
(0.00379043109002 0.00213903360344 0.00190213216538)
(0.00227210198482 0.00225841416726 0.00203592230615)
(0.000754000836519 0.00231934109812 0.00206446842165)
(-0.000736077210673 0.00231938877914 0.00206554090067)
(-0.0022562130966 0.00225881122697 0.00203825623355)
(-0.00377674144938 0.002139197866 0.00190452168912)
(-0.00510675274363 0.00196387560547 0.00157178113359)
(-0.00592077743031 0.00174144676229 0.00100957190219)
(-0.00596246259319 0.00149644571149 0.000345858462595)
(-0.00517315095674 0.00126224717916 -0.000271265618976)
(-0.0037092791613 0.00107194958954 -0.000692508691779)
(-0.00187669023408 0.00094576288629 -0.000706425191913)
(-0.000565574386368 0.000865303696429 -0.000247440188797)
(0.000587471363564 0.000275481958924 -0.000247067459892)
(0.00193412745474 0.000306810191935 -0.000714523597122)
(0.00381489797211 0.000350934998476 -0.000704058405257)
(0.00531515440861 0.000413128924627 -0.000279309783441)
(0.00612304315639 0.000487708600881 0.000342556264932)
(0.00607968884429 0.000564862662207 0.0010115903386)
(0.00524750783847 0.000634124461957 0.00157961970923)
(0.00388739472364 0.000689893368953 0.00191986846786)
(0.0023331519811 0.000729060930727 0.00206444680792)
(0.000774897114722 0.000749569083191 0.00210280524265)
(-0.000757302966139 0.000749101956793 0.00210341213316)
(-0.00231729768853 0.000728127945958 0.00206659301689)
(-0.00387376632624 0.00068866474481 0.00192198764569)
(-0.00523529561614 0.000632685251913 0.00158243026638)
(-0.00606934232898 0.000563692099497 0.00101602388669)
(-0.006115659123 0.000487442171598 0.000348264141802)
(-0.00531151505754 0.000413869481948 -0.000273744218103)
(-0.00381418404202 0.000352471015772 -0.000699614623543)
(-0.00193538393113 0.000308971183185 -0.000711862105283)
(-0.00058697475752 0.000279251791018 -0.000245493188316)
(0.000587101388481 -0.000324260371242 -0.000247819497876)
(0.00193322018158 -0.000342614494267 -0.00071531350173)
(0.00381358743383 -0.000377150727514 -0.000704950909795)
(0.00531354497317 -0.000436833399289 -0.000280320471662)
(0.0061211818136 -0.000513366408948 0.000341435642169)
(0.00607747206312 -0.000594517934151 0.00101034859004)
(0.00524532503897 -0.000668786959982 0.00157772310578)
(0.00388580627619 -0.000728616200113 0.00191761640142)
(0.00233202070372 -0.00077086979219 0.00206221517102)
(0.000774139018054 -0.000793631507721 0.00210055316469)
(-0.000757578152995 -0.000794275614219 0.00210094826662)
(-0.00231686780158 -0.00077282982112 0.00206382215112)
(-0.00387261313687 -0.00073120781042 0.00191924967515)
(-0.00523329999436 -0.000671805115517 0.00157972139813)
(-0.00606674354214 -0.000597479769623 0.00101380076794)
(-0.00611292802129 -0.000515827411426 0.000346460800973)
(-0.00530887815406 -0.000438501872733 -0.00027505921911)
(-0.00381196675366 -0.000378227626036 -0.000700432426213)
(-0.00193388245522 -0.000343460064515 -0.000712354401948)
(-0.000586458075462 -0.000324182193935 -0.00024581874646)
(0.000564727638893 -0.000903522496749 -0.000250860953256)
(0.00187228556352 -0.000973858869741 -0.000710939670911)
(0.00370542167408 -0.00109167389759 -0.000699124122676)
(0.00517112327443 -0.00128018581873 -0.000279569107661)
(0.00596330860196 -0.00151695931025 0.00033693549814)
(0.00592401010024 -0.00176655699512 0.00100083611736)
(0.0051126235303 -0.00199405725691 0.00156339079159)
(0.00378574542481 -0.00217307623699 0.0018963041335)
(0.00226850791764 -0.00229567517745 0.00202989483955)
(0.000751604270128 -0.00235883684661 0.00205787310914)
(-0.000736646294127 -0.00235975848886 0.00205834050098)
(-0.0022546421566 -0.00229837090551 0.00203079377706)
(-0.00377322565594 -0.00217657778628 0.00189705682011)
(-0.00510084423748 -0.0019979889635 0.00156437561804)
(-0.00591317650245 -0.00177068140189 0.0010034103859)
(-0.00595453030769 -0.00152099274928 0.00034095455002)
(-0.00516554577019 -0.0012837840951 -0.000274928461484)
(-0.00370284088576 -0.00109500681567 -0.000694871883854)
(-0.00187217044459 -0.000977407965851 -0.000707978046408)
(-0.000563718405015 -0.000906789285966 -0.000248764593015)
(0.000518924128007 -0.00141869872084 -0.000259864997571)
(0.00174594708138 -0.00154335255692 -0.000708714511173)
(0.00348084976845 -0.001750614384 -0.000700894107532)
(0.00487295192277 -0.00207765566855 -0.000302801320493)
(0.00563033855665 -0.00248786707362 0.00028603004104)
(0.00559955487221 -0.00292051852491 0.000920431678827)
(0.00483656914103 -0.00331362030132 0.00145606399137)
(0.00358450600873 -0.00361765981313 0.00177258945279)
(0.00214659086573 -0.00381862625082 0.00189256408956)
(0.000710121616485 -0.00391723776148 0.00191027629435)
(-0.000697272641778 -0.00391838968291 0.00191045004543)
(-0.0021341165763 -0.00382149521714 0.00189245482199)
(-0.00357264627671 -0.00362141038256 0.00177243948904)
(-0.00482524868978 -0.00331796214628 0.00145655570586)
(-0.00558902470445 -0.00292538768313 0.000922049637755)
(-0.00562137742141 -0.0024929461611 0.000288952059019)
(-0.00486673028144 -0.00208271214467 -0.000298986401723)
(-0.00347742474162 -0.00175581408807 -0.000697125872162)
(-0.00174508720406 -0.0015492696512 -0.000705939693198)
(-0.000517557578971 -0.0014250328362 -0.000257845549397)
(0.000450141341899 -0.00181438950216 -0.000279910481934)
(0.00155369895823 -0.0019869175332 -0.000718416327728)
(0.00313849935096 -0.00227505912018 -0.000728339859628)
(0.00441410839869 -0.00272821052266 -0.000381894971724)
(0.00511435188736 -0.00329860231349 0.000137575592134)
(0.00509755380415 -0.00390167811455 0.00069636442287)
(0.00441357578801 -0.00444732619095 0.00116601500709)
(0.00328114585595 -0.00486838986773 0.0014473212978)
(0.00196928825182 -0.00514330146956 0.00155165231142)
(0.000651896100227 -0.00527434846764 0.00156394868306)
(-0.000641121361265 -0.00527535787021 0.00156368211456)
(-0.00195817345795 -0.00514587374978 0.00155095376836)
(-0.00327024193665 -0.00487203233191 0.00144666805453)
(-0.00440301473045 -0.00445185443238 0.00116584275997)
(-0.00508753076061 -0.0039069176834 0.000696985148638)
(-0.0051055018901 -0.00330433757967 0.000139521125215)
(-0.00440755012581 -0.00273429183255 -0.00037894588053)
(-0.00313445199916 -0.00228167203667 -0.000725172047015)
(-0.00155220341218 -0.00199463943621 -0.000715987510553)
(-0.000448470591835 -0.00182303032314 -0.000278130227336)
(0.00036634301087 -0.00203044562504 -0.000313536094751)
(0.00131292760976 -0.00223087991956 -0.000745298609704)
(0.00270646848274 -0.00256625661741 -0.000787016977533)
(0.00382848634104 -0.00309543800805 -0.000520601230713)
(0.00445021685215 -0.00376692871771 -0.0001115612271)
(0.00445095534617 -0.00448093113963 0.000326489261173)
(0.00387022344178 -0.00512724635393 0.000692901144972)
(0.00289115653124 -0.00562592377018 0.000911735170819)
(0.00174341001712 -0.00594906316417 0.000988681850452)
(0.000579225515299 -0.00610148242236 0.000995501380221)
(-0.000570137456149 -0.00610230013229 0.000995122244707)
(-0.00173372853543 -0.00595136316933 0.000987579820538)
(-0.00288138930175 -0.00562945408975 0.000910545708002)
(-0.00386057645719 -0.00513183704986 0.000692015428017)
(-0.00444162492528 -0.00448637670271 0.000326216563461)
(-0.00444176631492 -0.00377310296967 -0.000110430995904)
(-0.00382188579039 -0.00310225530611 -0.000518483139136)
(-0.00270204260435 -0.00257388852529 -0.000784493948256)
(-0.00131095864775 -0.00223982011755 -0.000743330286153)
(-0.000364444843644 -0.00204052242718 -0.000312143063606)
(0.000278881312007 -0.00202595968787 -0.000361508920337)
(0.00105837908929 -0.00221908197319 -0.000788915765622)
(0.00224413211997 -0.00254744662175 -0.000867781773712)
(0.00319359788966 -0.00307406685571 -0.000692124102687)
(0.00372248947906 -0.00375082725653 -0.000413036943114)
(0.00373695751732 -0.00447765761339 -0.000114606838107)
(0.00326854753637 -0.00514056962821 0.000131163232436)
(0.00246022614505 -0.00565402190362 0.000275538603813)
(0.0014947717488 -0.00598530445287 0.000322251713965)
(0.000499093208422 -0.00614182795692 0.000323139563905)
(-0.000491543319888 -0.00614252049786 0.000322589503869)
(-0.00148643096309 -0.00598735477245 0.000320779958123)
(-0.00245161380395 -0.00565734923836 0.00027379554364)
(-0.00325985276057 -0.00514504968288 0.000129686623694)
(-0.00372840018293 -0.00448314235774 -0.00011532436749)
(-0.00371459201312 -0.00375723797556 -0.000412632245044)
(-0.00318718847552 -0.003081354145 -0.000690766164779)
(-0.00223953602614 -0.00255571270526 -0.000865898789188)
(-0.00105608038307 -0.00222863245768 -0.00078748743467)
(-0.000276734092059 -0.00203647081571 -0.000360682553576)
(0.000207699612147 -0.00178497779658 -0.000420504526171)
(0.000838121908554 -0.00193082217412 -0.000843551765137)
(0.00182783764841 -0.00219466165366 -0.000953056290926)
(0.00261013590186 -0.00263761529474 -0.000857420871543)
(0.00304449948651 -0.00321920417783 -0.000694224464826)
(0.0030649148269 -0.00385224963643 -0.000525395549788)
(0.0026983623463 -0.00443562883418 -0.000389900264375)
(0.00205061697113 -0.00489157831534 -0.000314464081371)
(0.00125850969427 -0.00518712934047 -0.000295066684071)
(0.000422982546037 -0.00532748095549 -0.000299189777724)
(-0.000416819158976 -0.00532798593894 -0.000299734559862)
(-0.00125155745518 -0.0051887821296 -0.000296679744493)
(-0.00204323390393 -0.00489445391864 -0.000316476653654)
(-0.00269068062397 -0.0044397201013 -0.000391712712968)
(-0.00305719136881 -0.00385751114141 -0.000526514368971)
(-0.00303721313127 -0.00322559762603 -0.000694394164698)
(-0.0026039965349 -0.00264505023915 -0.000856731909159)
(-0.00182316331764 -0.00220312618619 -0.000951771784975)
(-0.000835528298293 -0.00194052000569 -0.000842742305271)
(-0.000205223631625 -0.00179494837535 -0.000420429897595)
(0.000173460493806 -0.00133968374686 -0.00048452627143)
(0.000699857735782 -0.00139687751926 -0.00088452250666)
(0.00152481508498 -0.00155142619085 -0.000999487233452)
(0.0021637299446 -0.00185151563785 -0.000954881137585)
(0.00251432898004 -0.00226585432166 -0.000871477002148)
(0.00253235397434 -0.00272595353439 -0.000792797304928)
(0.00224218196209 -0.00315527449658 -0.000736571443034)
(0.00172095473752 -0.00349451901263 -0.00071186639142)
(0.00106774171521 -0.0037161537387 -0.000712951980793)
(0.000361313294403 -0.00382208270233 -0.000721249093345)
(-0.000356469743576 -0.00382250544617 -0.000721730012846)
(-0.00106202475888 -0.00371745465957 -0.000714457014519)
(-0.00171456797624 -0.00349690006839 -0.000713876148047)
(-0.00223516441099 -0.00315886270132 -0.000738530913599)
(-0.00252497931444 -0.00273080910668 -0.000794250591683)
(-0.0025070952422 -0.0022719420479 -0.000872205190885)
(-0.00215736621301 -0.00185871675319 -0.000954867203733)
(-0.00151988851886 -0.0015596290942 -0.000998873637903)
(-0.000696921982324 -0.00140616178552 -0.000884286588421)
(-0.000170760492949 -0.00134802922073 -0.000484991756707)
(0.000189895127544 -0.000751731006239 -0.00053224484115)
(0.000671106658781 -0.000692948030039 -0.000823991074137)
(0.00136584165649 -0.000719729024838 -0.000886876857647)
(0.00189318419183 -0.000856245663625 -0.000847563827353)
(0.00217747377174 -0.00107490443989 -0.000794571387274)
(0.00218765773695 -0.00132748198761 -0.000752686513539)
(0.00194454982721 -0.00156593765946 -0.000727740397412)
(0.00150477435152 -0.00175563241405 -0.000720231227032)
(0.000942292366904 -0.00187958115356 -0.000724740662177)
(0.000320847993378 -0.00193874901711 -0.000731147402102)
(-0.000316177665586 -0.00193915437073 -0.000731635505097)
(-0.000936327780614 -0.00188061773685 -0.000726328751822)
(-0.00149757930482 -0.00175755661683 -0.000722491335644)
(-0.00193602609822 -0.00156892734042 -0.00073014769992)
(-0.00217816333758 -0.0013316194236 -0.00075481823385)
(-0.00216772295869 -0.00108013675414 -0.00079615741135)
(-0.00188426293577 -0.000862386734916 -0.000848427925457)
(-0.00135891675851 -0.000726621710863 -0.000886825082657)
(-0.000666915690762 -0.000700185184751 -0.000824313155949)
(-0.000187229396622 -0.000756377413718 -0.000532930498577)
(0.000251918441071 -0.000261869687108 -0.00052329206774)
(0.000727727807244 -0.000197828397649 -0.000533981068436)
(0.00130521523323 -0.000181242396566 -0.000488231517437)
(0.00174205612254 -0.000215644486883 -0.000425264052351)
(0.001976796983 -0.000286211809015 -0.000367593850084)
(0.00197788678298 -0.000372580689586 -0.000321235792251)
(0.00176181253215 -0.000455172329164 -0.000289428492973)
(0.00137028482399 -0.000522619637201 -0.000271486351246)
(0.000863791260791 -0.000567195806684 -0.000264693114163)
(0.000296808077901 -0.00058868515238 -0.000263694905582)
(-0.000287218898834 -0.000589019969196 -0.000264157107618)
(-0.000852186901868 -0.000567787654935 -0.000266469813568)
(-0.00135676303711 -0.000523647006795 -0.000274140602801)
(-0.00174617649939 -0.000456809800789 -0.000292399425682)
(-0.00196069054224 -0.000374888379392 -0.000324084032187)
(-0.00195911823523 -0.000289124420245 -0.000369981374716)
(-0.00172567462898 -0.000219119692158 -0.000426889372108)
(-0.00129213806036 -0.000185698348701 -0.000488594632048)
(-0.000719661142215 -0.000202820749045 -0.000534006034882)
(-0.000248907588862 -0.000264893385896 -0.000521664095338)
(0.000342951256064 0.000354642167889 -0.00148929218115)
(0.000916516697153 0.000442333429439 -0.00154536845617)
(0.00151772186439 0.000505457633746 -0.00147900512262)
(0.00196720398457 0.000602406344855 -0.00136150301436)
(0.00219741501395 0.000725050562735 -0.00124480075028)
(0.00217710638849 0.000857386767321 -0.00115117349014)
(0.00192269641644 0.00097962887982 -0.001092213195)
(0.00148382604482 0.00107680520813 -0.00106790185798)
(0.000929146421178 0.00114018696818 -0.0010680154846)
(0.000318147429903 0.00117065323739 -0.00107482713579)
(-0.000308750073495 0.00117121223716 -0.00107504938193)
(-0.000920459096749 0.00114165759778 -0.00106883932683)
(-0.00147641382839 0.00107898070916 -0.00106942137289)
(-0.00191678645703 0.000982215542149 -0.00109452209212)
(-0.00217255464301 0.00086010026585 -0.00115429954272)
(-0.00219394751821 0.000727749607383 -0.00124856863941)
(-0.00196434198799 0.000605095489925 -0.00136559343675)
(-0.00151512453546 0.000508362663934 -0.00148274473419)
(-0.000915459215179 0.000444540281459 -0.00154980739159)
(-0.000338545762611 0.000355110524819 -0.00149310748892)
(0.000432433166349 0.000940970700957 -0.00154273714395)
(0.00103863660805 0.00105354674669 -0.00190845835)
(0.00165598803167 0.00119112562585 -0.00197890247186)
(0.00213483116403 0.00141883429731 -0.00190298974243)
(0.00237953129618 0.00171167760688 -0.00178652212132)
(0.00235140433655 0.00202645287816 -0.00168171277274)
(0.00206463363738 0.0023143248313 -0.0016145670883)
(0.0015804368581 0.0025375207462 -0.00159341487697)
(0.000980610592363 0.00268040131515 -0.00160548593592)
(0.000331473264743 0.00274802607992 -0.00162233853213)
(-0.000329738685294 0.00274874996254 -0.00162225652792)
(-0.000979163290667 0.00268244998142 -0.001605373227)
(-0.00157948721037 0.00254056244195 -0.00159347739502)
(-0.00206419603338 0.00231790243082 -0.00161507873093)
(-0.00235129025324 0.00203017894558 -0.00168288431854)
(-0.00237945102084 0.00171528985158 -0.0017884315277)
(-0.00213437003 0.00142229730754 -0.00190553468555)
(-0.00165481094683 0.00119481829125 -0.00198176001974)
(-0.00103791776938 0.00105829114971 -0.00191196078853)
(-0.000430259495543 0.000948645579639 -0.00154631073682)
(0.000498594596712 0.00154968440414 -0.00147104859252)
(0.00118390524259 0.00167067876906 -0.00197480204288)
(0.00188896522768 0.00189289639237 -0.00209205698236)
(0.00243528072943 0.00225473269688 -0.00198422370354)
(0.00271175651844 0.00271847494097 -0.00178573786253)
(0.00266971447195 0.00321461424508 -0.00157975083838)
(0.00232532818484 0.00366448718308 -0.00142313050182)
(0.0017594510645 0.00400952238938 -0.00134797219422)
(0.00107867944518 0.00422815897014 -0.00134282704618)
(0.000361214433048 0.00433095060737 -0.00135923665865)
(-0.000361727694714 0.00433165886813 -0.00135885982101)
(-0.00107936245423 0.00423018270683 -0.00134182311372)
(-0.00176049034838 0.00401253092662 -0.00134665099618)
(-0.0023266820529 0.00366794046924 -0.0014219562721)
(-0.00267115967309 0.00321811634506 -0.00157909679268)
(-0.00271302959955 0.00272176340159 -0.00178588003125)
(-0.00243607640809 0.00225781068017 -0.00198527460416)
(-0.00188901928703 0.00189627434868 -0.00209385482251)
(-0.00118418188863 0.00167570981325 -0.00197726427168)
(-0.000498296614492 0.00155922458591 -0.00147331157493)
(0.000598127626651 0.00200116299821 -0.00134776439333)
(0.00141698135179 0.00214703805662 -0.00189410794502)
(0.00225723198238 0.00243489659741 -0.00197996810585)
(0.00290795004782 0.00290056579558 -0.0017548134413)
(0.00323116109967 0.00349410363976 -0.00137506744656)
(0.0031636384832 0.00412324750231 -0.000962498237804)
(0.0027280324836 0.00468493948774 -0.000623991286655)
(0.00203600095531 0.00510799749913 -0.000434206057983)
(0.00123118821327 0.00537206302129 -0.000386016874604)
(0.000408796454404 0.00549476339529 -0.000394514363461)
(-0.00040951359644 0.00549542314952 -0.000393880139583)
(-0.00123213000822 0.00537394235761 -0.00038412370169)
(-0.00203748669049 0.00511075692991 -0.000431375470128)
(-0.00273002624094 0.00468809214439 -0.000621140833134)
(-0.00316582114601 0.00412642687527 -0.000959984562052)
(-0.00323327869809 0.00349711116827 -0.00137335381359)
(-0.00290974100481 0.00290348986852 -0.00175422628578)
(-0.00225839787522 0.00243838384005 -0.0019805015935)
(-0.00141817436672 0.00215278058526 -0.00189551570566)
(-0.000598644578928 0.0020126046126 -0.0013490313504)
(0.000723044729707 0.00222906093614 -0.00122536070702)
(0.00171349538799 0.00238774190715 -0.00177314113256)
(0.00272470638742 0.00270687142309 -0.00177764528128)
(0.0035050721563 0.00321920196825 -0.00137145354181)
(0.00388155750337 0.00386610363153 -0.000731705816709)
(0.00377357798012 0.00454124882661 -3.1468823701e-05)
(0.00321777749062 0.00513383125431 0.000550705621994)
(0.00236912050626 0.00557103891361 0.000886385024935)
(0.0014144982498 0.00584043944279 0.000987066878484)
(0.000466142914105 0.00596456942942 0.000985842869482)
(-0.000466256195959 0.00596506448659 0.000986692471162)
(-0.001415011538 0.00584195941028 0.000989713628571)
(-0.00237047649828 0.00557328050285 0.000890307893082)
(-0.00321994340228 0.00513643030188 0.000554887354006)
(-0.00377617775397 0.00454379555252 -2.72873488867e-05)
(-0.00388428785422 0.0038685557457 -0.000728177134438)
(-0.00350769974105 0.00322177474267 -0.00136914504351)
(-0.00272687879484 0.00271025062609 -0.00177675144475)
(-0.00171554908422 0.00239371756909 -0.00177337082279)
(-0.000723979722115 0.00224133605463 -0.00122549152363)
(0.000857333480116 0.00220280893378 -0.00112674922773)
(0.00203102226735 0.0023553125151 -0.00166459539249)
(0.00322310028344 0.00266144881769 -0.00156870488083)
(0.00413586553074 0.00314868242378 -0.00095650707407)
(0.00455814219805 0.00375512049972 -2.96758662459e-05)
(0.00439759441645 0.00437764161959 0.00098010804259)
(0.00371156495123 0.00491562193032 0.00181371359707)
(0.00270174298858 0.0053070303194 0.00229235999672)
(0.00159725054376 0.00554688623614 0.0024412718295)
(0.000523340509064 0.00565725728276 0.00244418954871)
(-0.000522767779307 0.00565762973461 0.00244474691935)
(-0.00159712017532 0.00554805170935 0.0024440589322)
(-0.00270275038623 0.00530862880234 0.00229708932888)
(-0.00371381883753 0.00491755947549 0.00181919625845)
(-0.00440058261976 0.00437944495122 0.000985571473144)
(-0.00456133269384 0.00375690115104 -2.46500582067e-05)
(-0.00413911816983 0.00315078273706 -0.000952570367835)
(-0.00322607943277 0.00266451141237 -0.00156639430892)
(-0.00203377760856 0.00236102687776 -0.0016636389961)
(-0.00085859721586 0.00221472943369 -0.00112570444076)
(0.000981215858618 0.00193964337917 -0.00106361035204)
(0.00232094866639 0.00206471838169 -0.00159461327438)
(0.00367428675812 0.002315777394 -0.00141016976451)
(0.0046981491269 0.00271296006859 -0.000617121076289)
(0.00515124972041 0.00319982018817 0.000552338920275)