/*--------------------------------*- C++ -*----------------------------------*\
| =========                 |                                                 |
| \\      /  F ield         | OpenFOAM: The Open Source CFD Toolbox           |
|  \\    /   O peration     | Version:  3.0.1                                 |
|   \\  /    A nd           | Web:      www.OpenFOAM.org                      |
|    \\/     M anipulation  |                                                 |
\*---------------------------------------------------------------------------*/
FoamFile
{
    version     2.0;
    format      ascii;
    class       volScalarField;
    location    "5.4";
    object      ddt0(epsilon);
}
// * * * * * * * * * * * * * * * * * * * * * * * * * * * * * * * * * * * * * //

dimensions      [0 2 -4 0 0 0 0];

internalField   nonuniform List<scalar> 
7968
(
-8.84976382395e-05
-0.000105107847136
-0.000118574485763
-0.000126881623984
-0.000131522446109
-0.000133477205908
-0.00013399983097
-0.000133617784096
-0.000132964387288
-0.000132378336902
-0.000132382347097
-0.000132971692166
-0.00013362747788
-0.000134011672947
-0.000133489489647
-0.00013153745108
-0.000126894090435
-0.000118584141901
-0.000105115436786
-8.85006775515e-05
-0.000105105510856
-0.000182745649359
-0.00024160903146
-0.000277992818929
-0.000297762037759
-0.000305917097202
-0.00030768184086
-0.000306447721288
-0.000304978709997
-0.000304232497343
-0.000304232866639
-0.000304977061441
-0.000306443371548
-0.000307677099187
-0.000305918647372
-0.000297780256153
-0.000278019695627
-0.000241637875393
-0.000182768206959
-0.000105112669117
-0.000118566904777
-0.000241596572983
-0.000335893935986
-0.000395259852107
-0.000428251204688
-0.000442711057486
-0.000446239895108
-0.000444979382867
-0.000443388612513
-0.000442716900654
-0.000442710904444
-0.000443368924011
-0.0004449444074
-0.000446194908932
-0.000442674105239
-0.000428239798177
-0.000395271139547
-0.000335917117413
-0.000241619372471
-0.000118575361304
-0.000126866258058
-0.000277967341424
-0.000395251719953
-0.000468456076146
-0.000507603918913
-0.000522765123869
-0.000524202846799
-0.000519757360725
-0.000517130388834
-0.000510433878029
-0.000510408519989
-0.000517105941011
-0.000519688055012
-0.000524110400195
-0.000522677783121
-0.000507546582356
-0.000468431598235
-0.000395251480023
-0.000277978469602
-0.000126874391738
-0.000131500417648
-0.000297739907037
-0.000428264147827
-0.000507640894279
-0.000545897275687
-0.000555835968989
-0.000557135216488
-0.000557731806683
-0.000557019980711
-0.000556034653456
-0.000556025421774
-0.000557000329986
-0.000557689932851
-0.00055707434796
-0.000555717785301
-0.000545796564131
-0.000507576377445
-0.000428233746664
-0.000297732640376
-0.00013150621353
-0.000133448996712
-0.000305920708901
-0.000442791499177
-0.000522913869478
-0.000555973961601
-0.000571973387914
-0.00057942260721
-0.000579955575992
-0.000578069450214
-0.000576788352012
-0.000576785516454
-0.000578054242841
-0.000579921894343
-0.000579372958904
-0.000571904164783
-0.000555852822715
-0.000522818016919
-0.000442733894847
-0.000305894514622
-0.00013344978069
-0.000133970086437
-0.00030772867722
-0.000446421956368
-0.000524517510233
-0.000557336522708
-0.000579535253487
-0.000586783535598
-0.000584946985136
-0.000580773954617
-0.000578173973241
-0.000578174496357
-0.000580766269044
-0.000584924141644
-0.000586746681181
-0.000579487225651
-0.000557274204255
-0.00052442065724
-0.000446357836252
-0.000307693757235
-0.000133966762265
-0.000133586096748
-0.000306527112019
-0.000445234963368
-0.000520188929826
-0.00055803165264
-0.000580173229786
-0.000585045705754
-0.000579993757885
-0.000572994668132
-0.000568713596061
-0.000568717043809
-0.000572994863179
-0.000579985860169
-0.000585032699647
-0.000580154074813
-0.000558003474148
-0.000520133039139
-0.000445194127606
-0.000306499197948
-0.000133580517816
-0.00013292814818
-0.000305058510311
-0.000443648228164
-0.000517525367146
-0.000557343155827
-0.00057833034987
-0.000580910275317
-0.000573020014732
-0.000563097286688
-0.000556964264124
-0.000556971705853
-0.000563110084136
-0.000573035450581
-0.000580931270316
-0.000578354413731
-0.000557366726207
-0.000517546878669
-0.000443654969092
-0.000305050684942
-0.000132921998232
-0.000132338458853
-0.000304288996749
-0.000442932331192
-0.000510945043082
-0.000556377496575
-0.000577041426437
-0.000578308270228
-0.000568728102891
-0.000556946618528
-0.000549506919767
-0.000549523287132
-0.000556980863469
-0.000568774236329
-0.000578368385527
-0.000577114020405
-0.000556467106835
-0.000511075794661
-0.000442998252993
-0.00030430808309
-0.000132333286008
-0.000132348823455
-0.000304268013475
-0.000442870694548
-0.000510793661956
-0.000556309284143
-0.000577015080868
-0.000578310667485
-0.000568755086905
-0.000556989848907
-0.000549562559749
-0.000549589585403
-0.000557049886358
-0.00056883636162
-0.000578413910132
-0.000577137567402
-0.00055646526455
-0.000511039820834
-0.000442989098925
-0.000304311969417
-0.000132345829717
-0.000132945902725
-0.000305000416221
-0.000443481013331
-0.000517311274054
-0.000557202467038
-0.000578258748948
-0.000580917386626
-0.000573095304919
-0.000563220963408
-0.000557120816938
-0.000557150284383
-0.000563292693931
-0.000573200573065
-0.000581055904714
-0.000578421985977
-0.00055738060392
-0.000517520081599
-0.00044363628067
-0.000305063543173
-0.000132944843641
-0.000133607764106
-0.00030645443452
-0.000445012308206
-0.000519828881879
-0.000557830205011
-0.000580080955708
-0.000585071511245
-0.000580121403729
-0.00057319490889
-0.000568958944609
-0.00056898615544
-0.00057326637577
-0.000580235251845
-0.000585228598169
-0.000580268542318
-0.000558038279324
-0.000520094745519
-0.000445181577672
-0.000306524269214
-0.000133607953907
-0.000133997336868
-0.000307673785402
-0.000446214267057
-0.000524157330474
-0.000557129687229
-0.000579453637227
-0.0005868360595
-0.000585122621711
-0.00058103610912
-0.000578489894404
-0.000578513224754
-0.000581102167391
-0.000585233928618
-0.000586990279352
-0.000579637798388
-0.000557333228987
-0.00052440136687
-0.000446362214626
-0.000307732905882
-0.000133996681156
-0.000133483124319
-0.000305911110389
-0.000442659864153
-0.000522649232098
-0.000555680772222
-0.000571894710263
-0.000579492871214
-0.000580153008756
-0.000578357564934
-0.000577129483211
-0.000577149029948
-0.000578415185658
-0.000580252269304
-0.000579630408547
-0.000572065218525
-0.000555904913888
-0.000522811650665
-0.00044275172477
-0.000305944217862
-0.000133480363462
-0.000131537343077
-0.000297780706303
-0.00042822693517
-0.000507503740038
-0.000545714578991
-0.000555738563219
-0.000557208955932
-0.000557928158168
-0.000557299296798
-0.000556398932994
-0.000556417389034
-0.000557351483635
-0.000558015862711
-0.000557325935872
-0.000555895046832
-0.00054583480975
-0.000507573985425
-0.000428258556885
-0.000297785238305
-0.000131532227754
-0.000126901193653
-0.000278041950585
-0.000395289178211
-0.000468430927212
-0.00050754043403
-0.000522739114052
-0.000524295949886
-0.000519983809522
-0.000517436913406
-0.000510911850775
-0.000510934976162
-0.000517496229915
-0.000520077085353
-0.000524401342031
-0.000522828449573
-0.000507591349309
-0.000468449271733
-0.000395286866213
-0.000278030976743
-0.000126896135574
-0.000118594973226
-0.000241677341066
-0.000335966454617
-0.000395300928241
-0.00042826875947
-0.000442742426862
-0.000446332507159
-0.000445147648589
-0.000443614812416
-0.000442983034939
-0.00044300321039
-0.000443668704105
-0.000445221786539
-0.000446408859334
-0.000442800949567
-0.000428299385037
-0.000395306740882
-0.000335958087921
-0.000241666253403
-0.00011859130117
-0.000105125120828
-0.000182806252944
-0.000241672061688
-0.000278045187665
-0.000297804627173
-0.000305963536098
-0.000307753587984
-0.000306554189709
-0.000305113054893
-0.000304384781391
-0.000304399806531
-0.000305152148757
-0.000306608287639
-0.0003078087358
-0.000306007798901
-0.000297832042469
-0.000278053355779
-0.00024166898285
-0.000182801219547
-0.000105123515797
-8.85065423772e-05
-0.000105127486945
-0.000118597266872
-0.000126904987486
-0.000131545886953
-0.000133499818002
-0.000134024263762
-0.00013364553338
-0.000132994447109
-0.000132411118583
-0.00013241979548
-0.000133011390979
-0.000133666451038
-0.000134044987134
-0.000133515806719
-0.000131556754591
-0.000126908797973
-0.000118597132952
-0.000105126623635
-8.85057989466e-05
-9.79809091877e-05
-0.000157854980163
-0.000208233196133
-0.000242930192632
-0.000264634297123
-0.000276549496844
-0.000281624899748
-0.000282303155488
-0.000280914858478
-0.000279440609323
-0.000279444930896
-0.000280925903541
-0.000282318212561
-0.000281642531653
-0.000276569239322
-0.000264656708917
-0.000242950845754
-0.000208249102398
-0.000157865999085
-9.79842819354e-05
-0.000157846121647
-0.000191113854157
-0.000235756234596
-0.000269259708782
-0.000291628016128
-0.000305184205557
-0.00031242699796
-0.000315557280415
-0.00031652645426
-0.000316668485927
-0.000316671347875
-0.000316533099227
-0.000315565160551
-0.000312435272193
-0.000305193989202
-0.000291640701558
-0.000269273979363
-0.000235770155007
-0.00019112557011
-0.000157852313294
-0.000208213804947
-0.000235747168227
-0.000285458143477
-0.000324283402092
-0.00035058298232
-0.000366478223946
-0.000374870380577
-0.000378544508583
-0.000379993543966
-0.000380491355253
-0.000380491951409
-0.000379993186297
-0.000378540985164
-0.000374864115923
-0.000366473317243
-0.000350583414697
-0.00032428881961
-0.000285466476987
-0.000235755515584
-0.000208219046377
-0.000242899403625
-0.000269244309324
-0.000324277586204
-0.00036780861518
-0.000397143262643
-0.000414438051011
-0.00042308423413
-0.000425735750043
-0.000426979239521
-0.000427130892347
-0.000427129301286
-0.000426974040004
-0.000425723808585
-0.000423066078439
-0.00041441900322
-0.000397129162795
-0.000367801819552
-0.00032427695018
-0.000269246730014
-0.000242900844891
-0.000264599189667
-0.000291613905769
-0.0003505810367
-0.000397149000947
-0.000428008896677
-0.000445637520882
-0.000456123647546
-0.000461460438278
-0.000463758757562
-0.000464519535717
-0.00046451904081
-0.000463755856912
-0.000461452697126
-0.000456110627641
-0.000445614664161
-0.000427983917197
-0.00039712961295
-0.00035056998197
-0.00029160886681
-0.00026459385998
-0.00027651982332
-0.00030518013441
-0.000366492475999
-0.000414465000255
-0.000445655168398
-0.000466958676043
-0.000480305464305
-0.000487292481429
-0.000490310846402
-0.000491373743584
-0.000491374511741
-0.000490310617689
-0.000487289290457
-0.000480297566832
-0.000466942768609
-0.000445627976046
-0.000414437008918
-0.000366472932815
-0.00030516886997
-0.000276507473894
-0.00028160833059
-0.000312437332115
-0.000374907737275
-0.000423139732004
-0.000456152441519
-0.000480318818951
-0.00049551060857
-0.000503446467908
-0.000506881680961
-0.00050802031206
-0.000508022660383
-0.00050688693534
-0.000503450413946
-0.000495508267825
-0.000480307142761
-0.000456131747064
-0.000423110906294
-0.000374886005064
-0.000312423780471
-0.000281592726723
-0.000282295719887
-0.000315575107684
-0.000378594115518
-0.0004257980237
-0.000461501399881
-0.000487321315849
-0.000503464593246
-0.000511762487356
-0.000515154965445
-0.000516193285813
-0.000516197924788
-0.000515165179037
-0.000511772209277
-0.000503467534977
-0.000487312997319
-0.000461486106862
-0.000425777978546
-0.000378579353574
-0.000315565445091
-0.000282283729341
-0.000280905389705
-0.000316539596414
-0.000380038038427
-0.000427034469622
-0.000463800612981
-0.000490348842721
-0.000506914013254
-0.000515170504716
-0.000518034580068
-0.000518638141939
-0.000518645396811
-0.000518050405964
-0.000515186178652
-0.000506923031237
-0.000490347182743
-0.000463794566203
-0.000427028450661
-0.000380035941257
-0.000316536944302
-0.00028090097874
-0.000279424421199
-0.000316672164392
-0.000380521908275
-0.00042717785543
-0.000464560338959
-0.000491417905585
-0.00050807222679
-0.00051621932911
-0.000518643090105
-0.00051891670181
-0.000518925445733
-0.000518661548245
-0.000516239016695
-0.000508088391359
-0.000491424632281
-0.000464564951477
-0.000427187734306
-0.000380533652879
-0.000316676603581
-0.000279428455964
-0.0002794306975
-0.000316671954982
-0.000380512515683
-0.000427164552901
-0.000464557829264
-0.000491424415152
-0.000508083273374
-0.000516235351454
-0.000518661874753
-0.000518935065941
-0.000518943910721
-0.00051868058798
-0.000516257061463
-0.000508106414581
-0.000491440877301
-0.000464575050685
-0.000427191504344
-0.000380536743681
-0.000316682324163
-0.00027944261197
-0.000280916230122
-0.000316535589965
-0.000380009141062
-0.000427000941958
-0.000463792620531
-0.000490362653817
-0.000506944661664
-0.000515210760237
-0.00051808044638
-0.000518683377528
-0.000518690991722
-0.000518097594414
-0.00051523181294
-0.000506969921148
-0.000490388811103
-0.000463822306889
-0.000427041382662
-0.000380045562412
-0.000316552879778
-0.000280936471839
-0.000282310761604
-0.0003155709281
-0.000378554571648
-0.000425745953231
-0.000461485189563
-0.000487336609718
-0.000503505435562
-0.000511819964554
-0.000515222710965
-0.000516266452456
-0.000516272429047
-0.000515237585418
-0.00051184050016
-0.000503533012449
-0.000487369282485
-0.000461525660679
-0.000425799201214
-0.000378598453666
-0.000315593247163
-0.000282336659108
-0.000281636230393
-0.000312444633598
-0.000374876609307
-0.000423084363267
-0.000456136387721
-0.000480337972028
-0.0004955595879
-0.000503522655044
-0.000506976645078
-0.000508133912215
-0.000508138837469
-0.000506991322211
-0.000503545532312
-0.000495589074052
-0.000480372720901
-0.000456179310224
-0.000423141279364
-0.0003749179336
-0.000312465647561
-0.000281660642466
-0.000276572165271
-0.000305211877741
-0.000366490773792
-0.000414434390474
-0.000445635045331
-0.000466978103708
-0.000480358066443
-0.00048737636204
-0.000490416875486
-0.000491489040177
-0.000491493715228
-0.000490431229463
-0.000487400399707
-0.000480389632315
-0.000467014666238
-0.000445679182546
-0.000414476761996
-0.000366518659991
-0.000305225258039
-0.000276588647217
-0.000264676275249
-0.000291673202426
-0.000350616365604
-0.000397156034783
-0.000428006878167
-0.000445656999069
-0.000456176613279
-0.000461541906527
-0.000463858752422
-0.000464629269748
-0.000464634697986
-0.000463874664572
-0.000461567838795
-0.000456209951587
-0.000445694478485
-0.000428040901338
-0.00039717939276
-0.000350629238976
-0.000291678177483
-0.0002646839405
-0.00024299076976
-0.000269325008905
-0.000324345722224
-0.000367854899715
-0.000397174787217
-0.000414475438477
-0.000423145701485
-0.000425818745309
-0.000427078941089
-0.000427242943336
-0.000427249653341
-0.000427098295744
-0.000425848893656
-0.000423183089093
-0.0004145089435
-0.00039719790859
-0.000367867872314
-0.000324351291591
-0.000269326758687
-0.000242994991421
-0.00020830376078
-0.000235837909875
-0.000285547278605
-0.000324359582683
-0.00035064707615
-0.000366540908471
-0.000374944581178
-0.000378634143475
-0.000380094724634
-0.000380599453799
-0.000380607340099
-0.0003801167419
-0.000378666212326
-0.000374979947051
-0.000366571963096
-0.000350669085357
-0.000324372623172
-0.000285554159712
-0.000235842363172
-0.000208309532432
-0.000157917180906
-0.000191202995161
-0.000235852572143
-0.000269351528157
-0.000291713479823
-0.000305268595619
-0.000312517645905
-0.000315656598347
-0.000316631416606
-0.000316776387676
-0.000316784154023
-0.000316652813077
-0.000315688214203
-0.000312553411582
-0.000305302089287
-0.000291740250063
-0.000269370158719
-0.000235865176971
-0.000191212495977
-0.000157924351977
-9.80133815142e-05
-0.000157938328604
-0.000208330923908
-0.000243024573669
-0.000264722270077
-0.000276637520185
-0.000281723872563
-0.000282418823699
-0.00028104447817
-0.000279579965132
-0.000279593211446
-0.000281078763001
-0.000282468142799
-0.000281779145569
-0.000276689461317
-0.000264764566142
-0.000243053983779
-0.000208350215645
-0.000157950167933
-9.80166725713e-05
-9.62131761991e-05
-0.000175954731934
-0.000248397178572
-0.000301794541288
-0.000337279196221
-0.000358083701823
-0.000366841901702
-0.000365960889954
-0.000359414723705
-0.000353306651815
-0.000353313674533
-0.000359444238763
-0.000366004130496
-0.00036689147482
-0.000358133023502
-0.000337324702776
-0.000301832426525
-0.000248426327377
-0.000175975541705
-9.62184538872e-05
-0.0001759373246
-0.000205817360249
-0.000254640132308
-0.000294781569595
-0.00032448211509
-0.000344995622114
-0.0003576120803
-0.000363677044717
-0.000365116146544
-0.000364664484065
-0.000364672142687
-0.000365140406651
-0.000363710169015
-0.000357646755454
-0.000345025558152
-0.000324505432726
-0.000294797936374
-0.000254652068853
-0.000205827748714
-0.000175945171598
-0.000248363472607
-0.000254628987596
-0.000301459576689
-0.000343057597292
-0.00037470164039
-0.000396812977866
-0.000410787302923
-0.000418952659148
-0.000422835700152
-0.000424195457411
-0.000424200763957
-0.000422849738427
-0.000418970486483
-0.000410803289451
-0.000396823760269
-0.000374710236038
-0.000343063150288
-0.000301462566388
-0.000254630824437
-0.000248365894551
-0.000301745678476
-0.000294764270953
-0.000343051035778
-0.000387325104581
-0.000420710603257
-0.000443358606956
-0.00045538327591
-0.000464002007362
-0.000468122031452
-0.000469673133916
-0.000469675253998
-0.000468127309216
-0.000464006873756
-0.000455385188744
-0.000443355102316
-0.000420705694844
-0.000387320973517
-0.000343046396197
-0.000294758414927
-0.000301738994743
-0.000337227396222
-0.000324465563583
-0.000374694387476
-0.000420708228612
-0.00045460537647
-0.000477041128332
-0.000491436494262
-0.000500154045058
-0.00050441720207
-0.000506010854397
-0.000506010262577
-0.000504414118096
-0.000500150210062
-0.000491431080593
-0.000477030694914
-0.000454592653564
-0.00042069464188
-0.000374683125232
-0.000324454847348
-0.000337212822746
-0.000358038366104
-0.000344981664321
-0.000396807114551
-0.000443353181969
-0.000477033868816
-0.000501676847673
-0.000518830587612
-0.00052931169287
-0.000534158516623
-0.000535875993769
-0.000535872344725
-0.000534146902732
-0.00052930054187
-0.000518823149697
-0.000501664339281
-0.000477016146403
-0.000443334531184
-0.000396791594178
-0.000344970108588
-0.000358020545543
-0.000366803557338
-0.000357595422302
-0.000410777928193
-0.000455361344253
-0.000491418103925
-0.000518832045714
-0.000539338913119
-0.000551867012422
-0.000557460901638
-0.000559405610267
-0.000559403384195
-0.000557454564977
-0.00055186664389
-0.000539341717853
-0.000518824000416
-0.000491397883084
-0.000455342491888
-0.000410764620506
-0.000357587720221
-0.000366790937087
-0.000365920242918
-0.000363647799745
-0.000418932434777
-0.000463973310488
-0.000500134156547
-0.000529333370494
-0.000551903233998
-0.000565616900791
-0.000571513605452
-0.000573367314539
-0.000573369227156
-0.000571520735713
-0.000565634518921
-0.000551917180281
-0.000529328422613
-0.000500113089221
-0.000463956073918
-0.000418924201043
-0.000363644990238
-0.000365917959696
-0.000359373799637
-0.000365075737854
-0.00042280183464
-0.000468081865073
-0.000504395774208
-0.000534195869395
-0.000557524556034
-0.0005715504376
-0.000577100988415
-0.000578573999458
-0.000578580060196
-0.000577117244707
-0.000571572731298
-0.000557542865977
-0.000534195609254
-0.00050437821502
-0.000468066805673
-0.000422795688669
-0.000365069941694
-0.000359373454448
-0.000353270632392
-0.000364619845913
-0.000424151547075
-0.000469625926885
-0.00050598979173
-0.000535926190995
-0.000559479470059
-0.000573404656848
-0.000578576031799
-0.000579794846324
-0.000579799708508
-0.000578586055266
-0.000573419061509
-0.000559497790422
-0.000535931019939
-0.000505975989561
-0.000469610943556
-0.00042414310358
-0.00036460433264
-0.000353265061288
-0.000353297591404
-0.000364639936262
-0.000424158553555
-0.000469627562519
-0.000505991409075
-0.000535927021954
-0.000559479085001
-0.000573404159464
-0.000578578647974
-0.000579795711699
-0.000579797472367
-0.000578580851171
-0.000573409979711
-0.000559494797231
-0.000535936751718
-0.000505982196286
-0.000469614998753
-0.000424147953265
-0.000364615562559
-0.000353290683017
-0.000359437462685
-0.000365123890017
-0.00042281704372
-0.000468085106591
-0.000504396518942
-0.000534194769805
-0.000557517469657
-0.000571540454099
-0.000577091065632
-0.000578555030356
-0.000578555302917
-0.000577090367343
-0.000571541698091
-0.000557526311121
-0.000534203914691
-0.000504392261208
-0.000468077883587
-0.000422808850704
-0.00036509738626
-0.000359434690587
-0.000365999841568
-0.000363712402693
-0.000418953880939
-0.000463976986347
-0.000500135149109
-0.000529339688032
-0.00055191197297
-0.000565632612035
-0.000571527628741
-0.00057337047248
-0.00057337090979
-0.000571529486415
-0.000565637345107
-0.0005519200915
-0.000529346400776
-0.000500132755208
-0.000463973688238
-0.000418949343511
-0.000363691028657
-0.000366010787053
-0.000366888417912
-0.000357670214172
-0.000410809728172
-0.000455374877553
-0.000491425853482
-0.000518860687345
-0.000539392909649
-0.000551945557724
-0.000557556719045
-0.000559506423502
-0.000559508022298
-0.000557563549495
-0.00055195808007
-0.000539406138183
-0.000518864730185
-0.000491420395392
-0.000455367744423
-0.00041080574674
-0.000357654168212
-0.000366908802078
-0.000358144807601
-0.000345073835713
-0.0003968586951
-0.00044337418617
-0.000477045162717
-0.000501698344757
-0.000518893754784
-0.000529420584094
-0.000534300201429
-0.000536030391078
-0.000536032363256
-0.000534309019471
-0.000529435715033
-0.000518906996775
-0.000501698780027
-0.000477037229856
-0.000443370660578
-0.000396852093933
-0.000345059779819
-0.00035816355838
-0.000337364665831
-0.000324580899918
-0.000374780072836
-0.000420759819113
-0.000454637953718
-0.000477064991266
-0.00049146797171
-0.000500207403631
-0.00050448593142
-0.000506083582483
-0.000506086427626
-0.00050449490979
-0.000500219091301
-0.000491476123475
-0.000477064896921
-0.000454632434874
-0.000420751476389
-0.000374768477048
-0.000324567120404
-0.000337377085365
-0.000301906303501
-0.000294898797833
-0.000343170015307
-0.000387418132641
-0.00042077838879
-0.000443411612874
-0.000455428283949
-0.000464048214293
-0.000468166601601
-0.000469714331853
-0.000469718503218
-0.000468178265453
-0.00046406377724
-0.000455441099021
-0.000443420968913
-0.000420777706471
-0.000387411895229
-0.000343160282287
-0.000294889874687
-0.000301918182552
-0.000248528017554
-0.000254772713372
-0.000301602610639
-0.000343187321391
-0.000374813601136
-0.00039690941088
-0.00041087525547
-0.000419032208577
-0.000422906796223
-0.000424259317188
-0.000424265412629
-0.00042292428183
-0.000419057492628
-0.000410901877842
-0.000396930913814
-0.000374825891199
-0.000343191889773
-0.00030160274961
-0.00025477423772
-0.000248545497296
-0.000176075675723
-0.000205960941508
-0.000254796856768
-0.000294938907875
-0.000324634446686
-0.000345142914776
-0.000357755961075
-0.000363814891576
-0.000365247551917
-0.000364788653481
-0.000364796326084
-0.000365269786422
-0.000363849972593
-0.000357797232543
-0.000345182755897
-0.000324666117542
-0.000294960881142
-0.000254812631853
-0.000205975293222
-0.000176095816212
-9.6278928649e-05
-0.000176111163713
-0.000248582556981
-0.000301979522195
-0.00033745968826
-0.000358270486986
-0.000367051584856
-0.000366201667807
-0.000359684781941
-0.000353593704533
-0.00035361243098
-0.000359736742636
-0.000366283106288
-0.000367148749389
-0.000358366952186
-0.000337540801701
-0.000302040159411
-0.000248626123832
-0.000176140051465
-9.62922282268e-05
-8.31149325108e-05
-0.00016749138061
-0.000247550329844
-0.000306528573065
-0.00034290146531
-0.000359189028293
-0.000356554732201
-0.000337376991062
-0.000311192342927
-0.000293035300241
-0.000293032588476
-0.000311229108215
-0.000337439157411
-0.00035663779024
-0.000359272297277
-0.000342966553176
-0.000306577372365
-0.000247585415033
-0.00016751586855
-8.31209089575e-05
-0.000167465839215
-0.000199443709673
-0.000250549103361
-0.000293848654999
-0.000326898848701
-0.000350064846547
-0.00036308140597
-0.00036593369831
-0.000361853063375
-0.000357240848197
-0.00035725148142
-0.000361899964745
-0.000365999596418
-0.000363151498794
-0.000350120371857
-0.000326929060267
-0.000293857010102
-0.000250545332946
-0.000199440167057
-0.000167473038744
-0.000247506839469
-0.000250537424614
-0.000302045814622
-0.000350268881398
-0.000389054932847
-0.000417920878291
-0.000437471994036
-0.000448911472832
-0.0004538465149
-0.000455144303961
-0.000455155911053
-0.000453882753541
-0.000448960166737
-0.000437518385523
-0.000417951495393
-0.000389070335087
-0.000350267943576
-0.000302031086635
-0.000250518580463
-0.000247499423349
-0.000306468448649
-0.000293833007444
-0.00035026342479
-0.000404052396327
-0.000445949942397
-0.000476111783094
-0.000495163196573
-0.000508243530605
-0.00051475757153
-0.000517095049538
-0.000517099430052
-0.000514769682446
-0.000508263174211
-0.000495183332054
-0.000476018052267
-0.000445950437943
-0.000404044883778
-0.000350242355264
-0.00029380020401
-0.000306439237842
-0.000342838235821
-0.000326883573904
-0.000389046978828
-0.000445943780409
-0.000485975516965
-0.0005206792154
-0.000545531764681
-0.000560763235996
-0.000567523338046
-0.000569762725461
-0.000569756187349
-0.00056750149706
-0.000560747799048
-0.000545534881826
-0.000520678973925
-0.000485974484034
-0.000445927783312
-0.000389021631108
-0.000326844116431
-0.000342792481615
-0.000359134803967
-0.00035004539831
-0.00041790183557
-0.000476083911148
-0.000520664084544
-0.00055975976444
-0.000588471262153
-0.000604575867747
-0.000610833464803
-0.000612763607081
-0.000612747623166
-0.000610785508724
-0.000604534297748
-0.00058846727993
-0.000559768124786
-0.000520662209598
-0.000476067577073
-0.000417876439178
-0.000350007801335
-0.00035908103734
-0.000356492537044
-0.000363034496859
-0.000437422652852
-0.00049510136684
-0.000545501305712
-0.00058849005878
-0.000618357622023
-0.000633859554995
-0.000639573023217
-0.000641276064627
-0.000641261327778
-0.000639533972165
-0.000633845054645
-0.000618377428905
-0.000588513188668
-0.000545515264483
-0.00049508769205
-0.000437405593712
-0.000363004533788
-0.000356439097042
-0.000337317989286
-0.00036585298691
-0.000448824674367
-0.00050816054418
-0.000560743914701
-0.000604651953621
-0.000633965827115
-0.000648811342937
-0.000653769404464
-0.00065480928161
-0.000654802654584
-0.000653762866918
-0.00064884335341
-0.000634015874979
-0.000604680027433
-0.000560757310943
-0.000508153370889
-0.000448810957186
-0.000365819973747
-0.000337248184974
-0.000311194882879
-0.000361771871357
-0.000453735957274
-0.000514662724298
-0.000567514304029
-0.000610947205696
-0.000639738182453
-0.000653855394166
-0.000657504996658
-0.000657600769573
-0.000657606249678
-0.000657524534768
-0.000653895984323
-0.000639798496634
-0.000610988742503
-0.000567528203649
-0.000514649887401
-0.000453710795266
-0.00036170790342
-0.000311069636126
-0.000293097402329
-0.000357174570588
-0.000455025949086
-0.000516997139654
-0.000569765555897
-0.000612902818353
-0.000641445583236
-0.000654868459352
-0.000657584855833
-0.000657158872497
-0.000657160124204
-0.000657587013175
-0.000654889175891
-0.000641506495369
-0.00061295409333
-0.00056977685459
-0.000516970362407
-0.000454978371506
-0.000357067712675
-0.000292913117576
-0.000293169017941
-0.000357225866785
-0.000455049760725
-0.000517005354818
-0.000569758113804
-0.000612874352092
-0.000641408082829
-0.000654831358372
-0.000657563363048
-0.000657136578724
-0.000657132459626
-0.000657550560311
-0.000654837185219
-0.000641465643937
-0.000612933993845
-0.000569765013416
-0.000516966935212
-0.000454983336587
-0.000357087729409
-0.000292960399256
-0.000311376310854
-0.000361904504499
-0.000453798246588
-0.000514684699594
-0.000567489624359
-0.00061086945559
-0.000639630014962
-0.000653740353484
-0.000657401116964
-0.000657484655134
-0.000657480373265
-0.000657387596258
-0.000653738159783
-0.000639666416823
-0.000610913972254
-0.000567484355662
-0.000514637891519
-0.000453721769265
-0.000361750607773
-0.000311166810457
-0.000337563947725
-0.000366037202175
-0.000448914018719
-0.00050820602808
-0.00056074240028
-0.000604592015028
-0.000633878707305
-0.000648741257143
-0.000653699261096
-0.000654724646534
-0.000654722133893
-0.000653696881769
-0.000648752042808
-0.00063390815485
-0.000604615729735
-0.000560720419092
-0.000508151651173
-0.000448836909595
-0.000365893211388
-0.00033739920012
-0.000356734379463
-0.000363233218134
-0.000437529806742
-0.000495169890025
-0.000545569944752
-0.000588546302934
-0.00061841014397
-0.000633956106529
-0.000639716225697
-0.000641440035507
-0.00064144238718
-0.000639730283354
-0.00063398935174
-0.000618449289359
-0.000588552280687
-0.000545529642362
-0.000495108131573
-0.000437452533335
-0.000363105340579
-0.000356615826711
-0.000359363624276
-0.000350247838383
-0.000418025637711
-0.000475973624896
-0.000520737007384
-0.000559866922117
-0.000588623835654
-0.000604796414317
-0.000611131906693
-0.000613104059827
-0.000613107997002
-0.000611152391082
-0.000604834522532
-0.000588656346069
-0.000559852286112
-0.000520680898283
-0.00047596369416
-0.000417950249228
-0.000350138297697
-0.000359276353308
-0.000343070836992
-0.000327099053042
-0.000389209980508
-0.000446044311481
-0.000486065090153
-0.000520772936957
-0.000545663897639
-0.000560932731119
-0.000567727057061
-0.00056998739921
-0.000569994057625
-0.000567749267172
-0.000560958635812
-0.000545668263731
-0.000520735674545
-0.000485995757598
-0.000445977590415
-0.000389134542533
-0.000327005334784
-0.000343004395739
-0.000306694189225
-0.00029405385062
-0.00035046673373
-0.000404214183348
-0.000446063299742
-0.000476099295156
-0.000495231087346
-0.000508313049831
-0.000514818362522
-0.000517145757759
-0.00051715101434
-0.000514832470365
-0.000508325178365
-0.000495224390597
-0.000476039888134
-0.000446014125459
-0.00040415695261
-0.0003504006144
-0.000293981963862
-0.000306653352971
-0.000247716586038
-0.000250751681818
-0.000302274192995