/*--------------------------------*- C++ -*----------------------------------*\
| =========                 |                                                 |
| \\      /  F ield         | OpenFOAM: The Open Source CFD Toolbox           |
|  \\    /   O peration     | Version:  3.0.1                                 |
|   \\  /    A nd           | Web:      www.OpenFOAM.org                      |
|    \\/     M anipulation  |                                                 |
\*---------------------------------------------------------------------------*/
FoamFile
{
    version     2.0;
    format      ascii;
    class       volVectorField;
    location    "5.4";
    object      U;
}
// * * * * * * * * * * * * * * * * * * * * * * * * * * * * * * * * * * * * * //

dimensions      [0 1 -1 0 0 0 0];

internalField   nonuniform List<vector> 
7968
(
(0.00183073174633 0.0018337264889 -0.00303381083519)
(0.00574566953572 0.000960021839943 -0.00302038667656)
(0.0104945830585 0.000430786251212 -0.00255792191163)
(0.014062485913 0.000204327616549 -0.0017458271896)
(0.0160645472079 0.000365249439655 -0.000812941443741)
(0.0157574695913 0.000713150754887 -0.000210828987925)
(0.0141070592024 0.00114064336813 0.000184221405225)
(0.0110010456191 0.00164371243321 0.000410778374717)
(0.00690689602478 0.00207758857849 0.000464695372992)
(0.00235252616577 0.00232021954918 0.00044771966377)
(-0.00233920106187 0.00232072127299 0.00044781587084)
(-0.00689512294102 0.00207899777249 0.000464834632648)
(-0.0109919769574 0.00164572923266 0.000410836317236)
(-0.014101406503 0.00114281242165 0.00018422659124)
(-0.0157551784474 0.000714849031343 -0.000211767108145)
(-0.0160645071792 0.000367578712822 -0.000813019772325)
(-0.0140645283481 0.000206044215754 -0.00174736010091)
(-0.0104965888533 0.000432504128014 -0.0025600246234)
(-0.00574691157927 0.000961941583262 -0.00302320602389)
(-0.00183092414009 0.00183584362887 -0.00303687017758)
(0.000957759626406 0.00574974907403 -0.00301958718896)
(0.0052052872535 0.00520682864937 -0.00607253172832)
(0.010888055646 0.00508134360017 -0.00686700761164)
(0.0151234695995 0.00546941551183 -0.0064385911868)
(0.0174330968429 0.00640277317853 -0.00554069047989)
(0.0172646021016 0.00756179778918 -0.00469948270175)
(0.0154011150506 0.00860880601947 -0.00407245813586)
(0.0119662118468 0.00959376369079 -0.00360999530741)
(0.0074906698317 0.0103364412425 -0.00337535592982)
(0.00254702151142 0.0107281996821 -0.00330445946645)
(-0.00252816953448 0.0107284488176 -0.00330395577137)
(-0.00747329288989 0.0103372352287 -0.00337392378888)
(-0.0119517325503 0.00959513990296 -0.00360781064866)
(-0.0153907555081 0.00861067117311 -0.004069997292)
(-0.0172584192919 0.00756375393744 -0.00469749506173)
(-0.0174307584486 0.00640544372596 -0.00553921884142)
(-0.0151236071127 0.00547203229379 -0.00643872768111)
(-0.0108890735718 0.00508444470493 -0.00686837591788)
(-0.00520608813354 0.00521083670736 -0.00607490537717)
(-0.000957865197534 0.00575496352479 -0.00302230203485)
(0.000429187196962 0.0104974707781 -0.00255651411658)
(0.00508158626546 0.010886030435 -0.00686616907987)
(0.0114968058971 0.0114916060175 -0.00791513263197)
(0.0162673616917 0.0126443656412 -0.00734270960591)
(0.0188358817209 0.0143509602213 -0.00621334658618)
(0.0187849765837 0.016236632606 -0.00511579053059)
(0.0167433755957 0.0179023929355 -0.00429191774434)
(0.0130223733302 0.0193847464698 -0.00371750688481)
(0.00816649315574 0.0204788629392 -0.00342283327054)
(0.00277998419244 0.0210484680285 -0.00332585976932)
(-0.00275553904577 0.0210486382094 -0.00332521527409)
(-0.00814380304825 0.0204794407961 -0.00342094789617)
(-0.013003196621 0.0193855669842 -0.00371436473803)
(-0.0167291672403 0.0179034678203 -0.00428801809659)
(-0.0187757767365 0.0162379397886 -0.00511204497712)
(-0.0188315452857 0.0143531639649 -0.00621044056476)
(-0.0162661880864 0.0126468633304 -0.00734154664492)
(-0.0114971206494 0.0114952042105 -0.00791541185226)
(-0.00508217156363 0.0108913284704 -0.00686760372049)
(-0.000429438725456 0.0105054320459 -0.00255881215408)
(0.000203058912666 0.0140626088621 -0.00174362233544)
(0.00547082419918 0.0151163808523 -0.00643730854652)
(0.0126518215441 0.0162561498465 -0.00734272025784)
(0.0180095808605 0.0179952966348 -0.00642564684188)
(0.0208766762774 0.020283872129 -0.00490532088264)
(0.0208578076576 0.0227076981709 -0.00344977480634)
(0.018558430759 0.02481466384 -0.00235175109868)
(0.0144118454175 0.0266367104513 -0.00160855921396)
(0.00902312297022 0.0279621433907 -0.00123377504919)
(0.00306761240252 0.0286447797809 -0.00111392909797)
(-0.00303877782438 0.0286447286438 -0.00111315265713)
(-0.00899619841207 0.027962023054 -0.0012315091275)
(-0.0143888727781 0.026636457172 -0.00160435814425)
(-0.0185411095061 0.0248141328396 -0.00234626623401)
(-0.0208463243995 0.0227072732323 -0.00344436158762)
(-0.0208709129181 0.0202845814643 -0.00490094332872)
(-0.0180075820269 0.0179966437372 -0.00642315372227)
(-0.0126517875863 0.0162591890439 -0.00734182115715)
(-0.00547148158865 0.0151219423825 -0.00643774328254)
(-0.000203610772631 0.014072492673 -0.00174553737115)
(0.00036514655826 0.0160582952631 -0.000808839802351)
(0.00640483922497 0.0174199172033 -0.0055395343097)
(0.0143598776273 0.0188183757394 -0.00621458687239)
(0.0203001421765 0.0208555450495 -0.00490703440083)
(0.0234692085987 0.0234451816157 -0.00292030688426)
(0.0234373302475 0.0261814523677 -0.000976716083352)
(0.0208205419568 0.0285548387446 0.000554632800964)
(0.0161393454701 0.0305537454583 0.00166880684243)
(0.0100870411087 0.0319882762215 0.00230341632443)
(0.00342485695641 0.0327263952755 0.00254760322564)
(-0.00339346084126 0.0327256734507 0.00254884818547)
(-0.0100576283122 0.0319861225927 0.00230719252801)
(-0.0161142878267 0.0305505549616 0.0016749973132)
(-0.0208018634013 0.0285508897115 0.000562114581057)
(-0.0234250714788 0.0261777849522 -0.000969561854798)
(-0.023462874328 0.0234426521049 -0.00291405709165)
(-0.0202980940158 0.0208542080984 -0.00490298980541)
(-0.0143600300068 0.0188193528744 -0.00621218143685)
(-0.00640586236968 0.0174241688252 -0.00553836540616)
(-0.000366574680454 0.0160678493507 -0.000809256164948)
(0.000711964966014 0.0157484274405 -0.000208924505144)
(0.00756327124614 0.0172481151075 -0.00470045949423)
(0.016245359611 0.0187642441058 -0.00511986707374)
(0.0227238475248 0.0208332454868 -0.00345511903843)
(0.0262059453868 0.0234087183672 -0.000981156376355)
(0.0260959254604 0.0260662191854 0.0015176991719)
(0.0231324428887 0.0283004592188 0.0035111869117)
(0.0178878740678 0.0301444495312 0.00497637653173)
(0.0111480739019 0.0314499551765 0.00581398045612)
(0.00377568804007 0.03211539301 0.00613865866549)
(-0.00374424042785 0.0321140176295 0.00613969818602)
(-0.0111182357002 0.0314458843129 0.00581729245645)
(-0.017862032305 0.0301379393957 0.00498219689722)
(-0.023112778421 0.0282920488369 0.00351870351327)
(-0.0260825543008 0.0260574536757 0.00152560574258)
(-0.0261990694612 0.0234015306225 -0.000974008895182)
(-0.0227211585653 0.0208274052534 -0.0034501168779)
(-0.0162449401343 0.018761415218 -0.00511656488409)
(-0.0075636990285 0.0172494538695 -0.00469854799635)
(-0.000713021474313 0.0157565600812 -0.00020950589057)
(0.00114077635029 0.0140953854457 0.000186979950381)
(0.00861107863087 0.0153840599928 -0.00407482900764)
(0.0179117816998 0.016723258956 -0.00429865048208)
(0.0248308534748 0.0185352524995 -0.00236103850802)
(0.0285799107223 0.0207932896966 0.000544365198638)
(0.0283312428988 0.0231038540448 0.00350521969348)
(0.0250485911267 0.0250189543369 0.00584187048475)
(0.0193035630854 0.0265975687346 0.00758004745524)
(0.0119700290171 0.0276711952346 0.00864093308315)
(0.00403841123715 0.0282203191915 0.00900684521036)
(-0.00400890741809 0.0282185752464 0.00900734276478)
(-0.0119419811626 0.0276656517757 0.00864390596668)
(-0.0192794825587 0.0265884569379 0.00758546973471)
(-0.0250304115297 0.025006739423 0.00584881231589)
(-0.0283187693269 0.0230902426802 0.00351273521817)
(-0.0285732960691 0.0207807674022 0.000551797417978)
(-0.0248282801176 0.0185244888968 -0.00235585518489)
(-0.017911207301 0.0167161323443 -0.00429491061972)
(-0.00861134993964 0.015381839658 -0.00407197835907)
(-0.0011423922372 0.014100783728 0.000187532643792)
(0.00164423051312 0.010987964446 0.000413936997948)
(0.00959683838842 0.0119518315132 -0.0036135888452)
(0.0193947475565 0.0130072867899 -0.00372599798631)
(0.0266523930291 0.0143955494149 -0.0016202411448)
(0.0305787126927 0.0161204717652 0.00165302951275)
(0.0301763659767 0.0178682353139 0.00496420967095)
(0.0266291498698 0.0192837268528 0.00757452420463)
(0.0204552766753 0.0204340606356 0.00946323778753)
(0.012671501288 0.021289301286 0.00997025944521)
(0.00426151492555 0.0216993917205 0.0101361907761)
(-0.00423634552539 0.021697394536 0.010136648261)
(-0.0126479605689 0.0212830551312 0.00997194668563)
(-0.0204360040096 0.0204233629744 0.00946593506412)
(-0.0266149050327 0.0192682866888 0.00757986918585)
(-0.0301668129917 0.0178502383061 0.00496968755859)
(-0.0305735455172 0.0161026541268 0.00165881523442)
(-0.0266503699244 0.0143797707213 -0.00161632819175)
(-0.0193940760667 0.0129955065878 -0.00372279942634)
(-0.00959670091279 0.0119455150875 -0.00361058613146)
(-0.00164588897146 0.0109895518668 0.000415091325414)
(0.00207799040752 0.00689245800501 0.000469051404057)
(0.0103401609403 0.00748054978011 -0.00337861740524)
(0.0204889151732 0.00815932319971 -0.00343090710475)
(0.027977066305 0.0090179952208 -0.00124461422002)
(0.0320124286902 0.0100815891194 0.00228583755037)
(0.0314816437749 0.0111423031258 0.00579932107988)
(0.0277040010777 0.0119642626174 0.00863309990741)
(0.0213128375458 0.0126637599434 0.00997238476318)
(0.0131495392348 0.0131393837982 0.0105151083891)
(0.00440291396558 0.013377293374 0.0106910506255)
(-0.00438304992583 0.0133752375278 0.0106916870357)
(-0.0131317997604 0.0131327927687 0.0105169432922)
(-0.0212992890932 0.0126521039252 0.00997488405152)
(-0.0276949914546 0.0119477000052 0.00863589139208)
(-0.0314761328019 0.0111224058783 0.00580153512058)
(-0.0320093521518 0.0100607931784 0.00228813269505)
(-0.0279756174111 0.00899914934833 -0.00124308526194)
(-0.0204883284133 0.00814439158069 -0.00342922729516)
(-0.0103398141521 0.00747107156956 -0.00337640762678)
(-0.00207923675127 0.00689017179483 0.000470498401437)
(0.00232077047436 0.00233469305626 0.00045307804475)
(0.0107318521859 0.00253930433359 -0.00330605634434)
(0.0210582439176 0.0027793550062 -0.0033319294769)
(0.0286584636209 0.00307203356016 -0.00112241896369)
(0.0327475680185 0.0034313672355 0.00253295775918)
(0.0321437936236 0.00378186220618 0.00612626930305)
(0.0282479024466 0.00404273751452 0.00900871930738)
(0.0217208377712 0.00426239501224 0.0101404984253)
(0.0133875432911 0.00440019447706 0.0106931743409)
(0.00447313654495 0.00446857691982 0.0108718963811)
(-0.00445851127235 0.00446651653039 0.0108724283913)
(-0.0133750690689 0.00439376365783 0.0106946767774)
(-0.0217124984065 0.00425141418478 0.0101423266871)
(-0.0282436979939 0.00402740718127 0.00900973207696)
(-0.0321422740265 0.00376337289584 0.00612491474649)
(-0.0327466594804 0.00341149942745 0.00253083849727)
(-0.0286574208504 0.00305362417679 -0.00112387202028)
(-0.0210577144691 0.00276423098298 -0.00333244056723)
(-0.010731470911 0.00252880572971 -0.00330544593478)
(-0.00232127629979 0.0023298611636 0.000454309282636)
(0.00232190758436 -0.00236218550364 0.000452513252613)
(0.0107309405846 -0.00253578176517 -0.00330421999556)
(0.0210565644315 -0.00275269480642 -0.0033293041613)
(0.0286556638592 -0.00302928721242 -0.00111871122937)
(0.0327422142297 -0.00337945720206 0.0025383779584)
(0.0321363958673 -0.00373052086998 0.0061303681535)
(0.028240278689 -0.00399822759876 0.00900978867076)
(0.0217139438696 -0.00423109569649 0.0101406591904)
(0.0133826463131 -0.00438315623614 0.0106929172051)
(0.00447028317217 -0.00446229462425 0.0108713520343)
(-0.0044595453156 -0.00446390659188 0.0108716148785)
(-0.0133740731392 -0.0043882590643 0.0106937749498)
(-0.0217094419758 -0.00423996655819 0.0101417054351)
(-0.028239408708 -0.00401050127376 0.00900961572112)
(-0.0321376510516 -0.00374477760713 0.00612618608833)
(-0.0327427894434 -0.00339454173153 0.00253270346865)
(-0.028654801129 -0.00304363289187 -0.00112268620493)
(-0.0210559436056 -0.00276465908696 -0.00333183419672)
(-0.0107304638719 -0.00254464593069 -0.00330530249487)
(-0.00232178722852 -0.00236735273456 0.000453236654978)
(0.00208075668624 -0.00692196341197 0.000467411921727)
(0.0103378218468 -0.00748055690942 -0.00337383061239)
(0.0204843957154 -0.00813873419487 -0.00342377205167)
(0.027969208828 -0.00898304095763 -0.00123474692437)
(0.031996943142 -0.0100383233359 0.00230072208211)
(0.0314600245371 -0.0110981271203 0.00581063309199)
(0.0276803166496 -0.0119256118354 0.00863938733812)
(0.0212914926323 -0.01263626721 0.0099730239097)
(0.0131337358838 -0.0131246916465 0.0105138325314)
(0.00439362141851 -0.0133719295215 0.010688544885)
(-0.00438579828859 -0.0133729408336 0.0106887374998)
(-0.0131280413078 -0.0131276793686 0.0105143467306)
(-0.0212895562544 -0.0126415129218 0.00997315731832)
(-0.0276818279886 -0.0119330316535 0.00863543085321)
(-0.031462379623 -0.0111058814163 0.00580452716718)
(-0.0319979924751 -0.0100458493119 0.00229310542908)
(-0.0279680380226 -0.00899021218124 -0.00123996052217)
(-0.0204832070317 -0.00814488989815 -0.00342751158146)
(-0.0103369171501 -0.00748547600019 -0.00337601138142)
(-0.0020802957282 -0.00692535580708 0.000467482298152)
(0.00164703722598 -0.0110200264871 0.000411289533732)
(0.00959364151619 -0.0119578706979 -0.0036076257288)
(0.0193875960253 -0.0129966950404 -0.00371622134956)
(0.0266400362937 -0.0143733909128 -0.00160604832372)
(0.0305556960354 -0.0160914945258 0.00167280550961)
(0.0301433943109 -0.0178360284129 0.00497942167899)
(0.0265926724395 -0.0192545289553 0.00758231208915)
(0.0204217444714 -0.0204120705036 0.00946455009866)
(0.0126462374896 -0.0212768324687 0.00996824178801)
(0.00424658608224 -0.0216930083028 0.0101324847225)
(-0.00424085973531 -0.0216932548054 0.0101325559572)
(-0.0126422436471 -0.0212774323713 0.00996841485694)
(-0.0204206061427 -0.0204129177617 0.00946414783678)
(-0.0265941527444 -0.0192554938587 0.00757806049072)
(-0.0301451942402 -0.0178359717156 0.00497317174091)
(-0.0305558147203 -0.0160903002099 0.00166558525845)
(-0.0266383992239 -0.014372188089 -0.00161136473059)
(-0.0193860000439 -0.0129959245054 -0.00371998929365)
(-0.00959223232017 -0.0119574695669 -0.00360986132037)
(-0.00164658503596 -0.0110202638178 0.000410906597341)
(0.00114279522977 -0.0141282254469 0.000183508116119)
(0.00860768721892 -0.0153959940414 -0.00406950746664)
(0.0179030777634 -0.0167227655205 -0.00428868120072)
(0.0248150626963 -0.0185259289377 -0.00234619415505)
(0.0285523088624 -0.0207790482517 0.000563899856769)
(0.028291735129 -0.0230848035593 0.00352075537769)
(0.0250042635887 -0.0250000883684 0.00584990181815)
(0.0192621733061 -0.0265828699511 0.00757931771054)
(0.0119386226359 -0.0276622254811 0.00863249410312)
(0.0040190889641 -0.0282128086063 0.00900391196516)
(-0.00401467820094 -0.0282123965026 0.0090037186484)
(-0.0119353872438 -0.0276608538953 0.0086321233587)
(-0.0192606842279 -0.026580302011 0.00757790041629)
(-0.0250040037158 -0.0249957061148 0.00584700361038)
(-0.0282915037095 -0.0230782969071 0.00351647987246)
(-0.0285508594252 -0.0207710337462 0.000559491361273)
(-0.0248129302007 -0.0185184085178 -0.00234949377088)
(-0.0179010754751 -0.0167163835247 -0.004291058076)
(-0.00860594515863 -0.0153909692746 -0.00407069542745)
(-0.00114243834974 -0.0141254641933 0.000183256661072)
(0.000713669922484 -0.0157795438357 -0.000212207678119)
(0.00755962737711 -0.0172635862361 -0.00469678817813)
(0.0162353813541 -0.0187709014979 -0.00511165509435)
(0.0227059225652 -0.0208337328397 -0.00344272327909)
(0.0261769374521 -0.0234058654068 -0.000965378166863)
(0.0260548296119 -0.0260579797119 0.00153123308659)
(0.0230858913476 -0.0282903127131 0.00351837324102)
(0.0178433322842 -0.0301353225488 0.00497557297199)
(0.011113023358 -0.0314430886161 0.0058062019521)
(0.0037544152697 -0.0321103490137 0.00612675965209)
(-0.003750147191 -0.0321094941581 0.00612671977092)
(-0.0111090990704 -0.0314405355059 0.00580597891519)
(-0.0178398412291 -0.0301308021843 0.00497492741068)
(-0.0230827187014 -0.0282832795295 0.00351723901237)
(-0.0260516233792 -0.0260483074548 0.00152994846091)
(-0.0261735487186 -0.0233947452725 -0.000965945957244)
(-0.022703049102 -0.0208232662179 -0.00344307365998)
(-0.0162330050799 -0.0187617851899 -0.0051118648013)
(-0.00755784863309 -0.0172562310591 -0.00469646590153)
(-0.000713450671699 -0.0157752107703 -0.000211901306962)
(0.000364220610897 -0.0160868042713 -0.000814788109188)
(0.00639965130262 -0.0174363375442 -0.00553806875323)
(0.0143481846677 -0.0188291071534 -0.00620907762018)
(0.0202809400302 -0.020862722414 -0.00489831720511)
(0.0234400340647 -0.0234497940162 -0.00290895116802)
(0.0233985335529 -0.0261822135883 -0.000966970158562)
(0.0207767891232 -0.0285525897654 0.000560302327154)
(0.0160969186587 -0.0305497856127 0.00166848294003)
(0.0100530105654 -0.0319835922116 0.00229727340906)
(0.00340389696205 -0.0327210351478 0.002537663441)
(-0.00339918604881 -0.0327200242182 0.00253754483739)
(-0.0100478581594 -0.0319805442728 0.00229708143415)
(-0.0160911447951 -0.030544565602 0.00166869868718)
(-0.0207708081096 -0.0285450310405 0.000561400848753)
(-0.0233928962578 -0.0261725268699 -0.000964874825689)
(-0.0234354594212 -0.0234392619977 -0.00290601935407)
(-0.0202775983534 -0.0208524139864 -0.0048957603135)
(-0.0143457301669 -0.0188198768053 -0.00620700225173)
(-0.0063980601603 -0.0174287488047 -0.00553622345613)
(-0.000363864754244 -0.0160822226435 -0.000814367233554)
(0.000200823273277 -0.0140822553884 -0.00174808411493)
(0.00546288550113 -0.0151299466413 -0.00643705780946)
(0.0126375175575 -0.0162668624403 -0.00733982452092)
(0.0179884540671 -0.0180043905664 -0.00642084563491)
(0.0208476038203 -0.0202917696636 -0.00489937894446)
(0.0208214298277 -0.0227121994721 -0.00344504990736)
(0.0185187630438 -0.0248166149365 -0.00234984750031)
(0.0143738386239 -0.0266364570753 -0.00160996540799)
(0.00899292169267 -0.0279599456614 -0.0012378446987)
(0.00304910422157 -0.0286411792823 -0.00111995737504)
(-0.00304409284544 -0.0286403858412 -0.00112004478366)
(-0.00898698132133 -0.0279575342888 -0.00123778780362)
(-0.0143666822697 -0.0266324921676 -0.0016091742308)
(-0.0185110796675 -0.0248111169375 -0.00234781182958)
(-0.0208141828733 -0.0227053259879 -0.00344184432034)
(-0.0208416422877 -0.0202843105259 -0.00489528808579)
(-0.0179842706473 -0.0179969761359 -0.00641691437589)
(-0.0126347077428 -0.0162602013382 -0.00733636582214)
(-0.00546135293034 -0.0151246311594 -0.00643423900043)
(-0.000200549296463 -0.0140791780907 -0.00174703659141)
(0.000425546526437 -0.0105097507948 -0.00255963762374)
(0.00507173250923 -0.0108951834258 -0.00686617378118)
(0.0114810454098 -0.0114999005198 -0.00791371802171)
(0.0162459686671 -0.0126523540847 -0.00734039271588)
(0.0188084888112 -0.0143584841478 -0.00621051660792)
(0.0187527516996 -0.0162417727491 -0.00511392285689)
(0.0167091652818 -0.0179057648654 -0.00429173455712)
(0.0129900153601 -0.0193865170165 -0.00371957740341)
(0.0081407885148 -0.0204791929984 -0.00342703166202)
(0.00276434197934 -0.0210479185432 -0.00333157390868)
(-0.00275912905386 -0.021047410867 -0.00333175838185)
(-0.00813438293158 -0.0204776156984 -0.00342729447332)
(-0.0129820317606 -0.0193839130133 -0.00371916847431)
(-0.0167003313664 -0.0179022426215 -0.00429011032851)
(-0.0187441937687 -0.0162374933496 -0.0051110362593)
(-0.0188011356272 -0.0143540004679 -0.00620669873268)
(-0.016240584146 -0.0126480592327 -0.0073363249391)
(-0.0114774730011 -0.0114962821747 -0.00791007104008)
(-0.00506983286626 -0.0108925994119 -0.00686336307618)
(-0.00042501767776 -0.0105086025735 -0.00255855434113)
(0.000953506729249 -0.00575508641005 -0.00302163069785)
(0.00519485982447 -0.00521153922798 -0.00607255035481)
(0.0108723835208 -0.00508651754148 -0.0068666665554)
(0.0151035027354 -0.00547518304297 -0.00643804814019)
(0.017408778367 -0.00640872873154 -0.00553989170638)
(0.0172375886044 -0.00756615314648 -0.00469933866395)
(0.0153731899359 -0.00861217596937 -0.00407300013797)
(0.0119404871128 -0.00959610017415 -0.00361225238365)
(0.00747091281101 -0.0103379076369 -0.00337928182686)
(0.00253556056061 -0.01072901024 -0.00330959804553)
(-0.00252976477671 -0.0107288443835 -0.00331007431095)
(-0.00746376669788 -0.0103373643507 -0.00338004032873)
(-0.0119316139385 -0.00959519715508 -0.00361253534211)
(-0.0153632821855 -0.00861096590435 -0.00407225263411)
(-0.0172277816698 -0.00756476032358 -0.0046974714485)
(-0.0173999608148 -0.0064073734871 -0.00553706159034)
(-0.0150967504954 -0.00547410268331 -0.00643484062904)
(-0.0108677541768 -0.00508592665436 -0.00686388102096)
(-0.00519221130297 -0.00521149220693 -0.00607054151896)
(-0.000952479544088 -0.00575539836314 -0.00302054225416)
(0.00182728300064 -0.00183483181736 -0.00303491527487)
(0.00573739040763 -0.000961819692931 -0.00302146228203)
(0.0104824131683 -0.000433371633189 -0.00255992147215)
(0.0140481741364 -0.000207728281989 -0.00174877591139)
(0.0160476959308 -0.000369672267016 -0.000816090249897)
(0.0157400739467 -0.0007172866311 -0.000214835007332)
(0.0140894747595 -0.00114509895661 0.000180527749182)
(0.0109848756827 -0.00164772951681 0.000406945650121)
(0.0068945148748 -0.00208040426199 0.000460982171303)
(0.00234576641551 -0.00232175560944 0.000444083595235)
(-0.00233874859599 -0.00232164413597 0.000443649750606)
(-0.00688594376953 -0.00208016372337 0.000459892755551)
(-0.0109741390692 -0.00164752652203 0.000405848925766)
(-0.0140773817524 -0.00114513151014 0.000180029223946)
(-0.0157280079399 -0.000717674405224 -0.000214835738956)
(-0.0160362762397 -0.000370155457102 -0.000815695773214)
(-0.0140388433589 -0.000208614118759 -0.00174770918345)
(-0.0104758067771 -0.000434350426702 -0.00255892248705)
(-0.0057333577318 -0.000962828829769 -0.0030206820716)
(-0.00182548448521 -0.00183550504981 -0.00303361242191)
(0.00307194718531 0.00307561685581 -0.0118902274362)
(0.00851317273918 0.00393398379504 -0.012264959827)
(0.0133629974078 0.00457303060741 -0.011273827714)
(0.0166606984302 0.00524477294257 -0.00948685903302)
(0.0181179319623 0.00594397806692 -0.00747215853944)
(0.0174818705039 0.00654349946007 -0.00586814442364)
(0.0153364961955 0.00705249949123 -0.0048018835059)
(0.0118064148894 0.0075272192877 -0.00415404337965)
(0.00734959689294 0.00790926872394 -0.00393662538093)
(0.00249046434851 0.00812287430357 -0.00393920715272)
(-0.00247470120362 0.00812277018744 -0.00393849557042)
(-0.00733517826258 0.00790893555839 -0.00393475395357)
(-0.0117945480257 0.00752665792474 -0.00415143037845)
(-0.0153281839847 0.00705169704519 -0.00479886940031)
(-0.01747721778 0.00654242836932 -0.00586596107009)
(-0.0181159343835 0.00594299482516 -0.00747135863724)
(-0.0166600992872 0.00524386244916 -0.00948808238798)
(-0.0133626839211 0.00457269506619 -0.0112771198057)
(-0.00851270314102 0.00393447701609 -0.0122701782092)
(-0.00307137535141 0.00307683756695 -0.0118959369911)
(0.00393326473138 0.00851585279837 -0.0122620564635)
(0.00967868413953 0.00967603052057 -0.0153541314796)
(0.01426255842 0.0107298663312 -0.0152438283469)
(0.0172764552803 0.0120617465467 -0.0137361136695)
(0.0184746534094 0.013550586236 -0.0117596474396)
(0.0178164766468 0.014980834423 -0.00993833291241)
(0.0155721266895 0.0162456372675 -0.00852841362553)
(0.0119913452461 0.0173388720961 -0.00756442281361)
(0.00750422027017 0.018157279899 -0.00706241834098)
(0.00255620216699 0.0185925521569 -0.00688816576974)
(-0.00253259745023 0.0185920201296 -0.00688693090046)
(-0.00748203903179 0.0181557162703 -0.00705882126274)
(-0.011971947516 0.0173364993023 -0.00755881211084)
(-0.0155567350909 0.0162427409728 -0.00852165651372)
(-0.017805460118 0.0149777350675 -0.00993182902178)
(-0.0184674647312 0.0135478697083 -0.0117546945183)
(-0.0172722009042 0.0120596938091 -0.0137336691067)
(-0.0142602134406 0.0107289347151 -0.0152440766806)
(-0.00967746148348 0.0096766185341 -0.0153568427024)
(-0.00393273209422 0.00851844991908 -0.012266712056)
(0.00457416821559 0.0133620379889 -0.0112692473326)
(0.010735335006 0.0142551097678 -0.0152426248354)
(0.0155404004772 0.015529623663 -0.0151077874828)
(0.0185652894463 0.0172823341338 -0.0132081271417)
(0.0196759283772 0.0193015800874 -0.0107130464035)
(0.0189165986854 0.0213045345578 -0.00831632097643)
(0.0164918106268 0.0230958550217 -0.0063759796314)
(0.0127016056864 0.0245890471918 -0.00499192029595)
(0.00796927445622 0.0256694479545 -0.00418129166414)
(0.0027216969132 0.0262356865436 -0.00383856196138)
(-0.00269284413216 0.0262350292483 -0.00383697465529)
(-0.0079419983974 0.0256674650769 -0.00417657952075)
(-0.0126774396993 0.0245860932077 -0.00498434444841)
(-0.0164721780903 0.023092211668 -0.00636659785743)
(-0.0189020414983 0.0213005433287 -0.00830679552874)
(-0.0196659828126 0.0192978433928 -0.0107051519321)
(-0.0185589859418 0.0172793348148 -0.0132029127475)
(-0.0155367119379 0.0155280054517 -0.015105502234)
(-0.0107332739 0.014255593955 -0.0152430443762)
(-0.00457332915312 0.0133661757415 -0.0112723854182)
(0.00524718556384 0.0166539308985 -0.0094806650537)
(0.0120691782488 0.0172639750687 -0.0137349743934)
(0.0172953932563 0.0185499094183 -0.0132089159174)
(0.0204576484671 0.0204402704428 -0.0106550494337)
(0.0215186236001 0.0226494746803 -0.00741235253948)
(0.0205874559278 0.0248679885068 -0.00429358097384)
(0.0178718992842 0.0268575754336 -0.00173750444174)
(0.0137207121918 0.0284789132957 0.000115458405207)
(0.00859556446302 0.029621337022 0.00123199775962)
(0.00293471457279 0.0302103177366 0.00172399189686)
(-0.00290268579068 0.0302093736095 0.0017259403405)
(-0.00856504987452 0.029618571592 0.00123777988727)
(-0.0136932918039 0.0284746270325 0.000125008979402)
(-0.0178494550358 0.0268521981757 -0.00172553578632)
(-0.0205707289051 0.0248620860026 -0.00428113260715)
(-0.0215070553084 0.0226437760792 -0.00740159882149)
(-0.0204501736002 0.0204355692194 -0.0106471795709)
(-0.0172909378073 0.0185469248869 -0.0132041181155)
(-0.012066576389 0.0172637198391 -0.0137330696441)
(-0.00524622298614 0.0166588685003 -0.00948208088521)
(0.00594772140237 0.0181041604772 -0.0074668074978)
(0.0135596597334 0.0184577969188 -0.0117607860904)
(0.019316394946 0.0196572324437 -0.0107170079009)
(0.0226684145072 0.021498525208 -0.00741595005725)
(0.0236846152359 0.0236632939846 -0.00335312718256)
(0.022538200164 0.025871277273 0.00057769051229)
(0.0194873334583 0.027844358116 0.00381403886919)
(0.0149229119603 0.0294322336498 0.0061355481398)
(0.00933000223152 0.0305360444375 0.00752689185115)
(0.00318050006723 0.0311003652476 0.00813749504531)
(-0.00314704759142 0.0310990612851 0.0081396664657)
(-0.00929820881781 0.0305322805941 0.00753349451531)
(-0.0148945141146 0.0294261826273 0.00614649378662)
(-0.0194640227903 0.0278366126955 0.00382803122337)
(-0.0225206548678 0.0258627941992 0.000592567949113)
(-0.0236725298746 0.0236550437916 -0.0033399094942)
(-0.0226605485988 0.0214912602708 -0.00740551291075)
(-0.0193117813192 0.0196519699651 -0.0107097886879)
(-0.0135568278457 0.0184557694694 -0.011756521363)
(-0.00594695751308 0.0181083424223 -0.0074661050211)
(0.00654780039207 0.0174641011739 -0.00586615885366)
(0.0149912257298 0.0177975704303 -0.00994375401035)
(0.0213206509929 0.0188969129842 -0.00832550095424)
(0.0248880268385 0.0205670523064 -0.00430331112166)
(0.0258934671923 0.0225167923407 0.000570930844581)
(0.0245586595095 0.0245365982361 0.00527951559822)
(0.0211780270304 0.0263481754736 0.00913244749607)
(0.0161759489253 0.0277863223898 0.0118659623086)
(0.0100919247791 0.0287791867753 0.0134823402093)
(0.00343493821129 0.029288917204 0.0141837692306)
(-0.00340229481336 0.0292872047904 0.0141857286633)
(-0.0100608938038 0.028774132873 0.0134884519298)
(-0.0161482484202 0.0277782112134 0.0118764904713)
(-0.0211552589456 0.0263376465297 0.00914653879542)
(-0.0245415714471 0.0245248038176 0.00529527399184)
(-0.0258817502136 0.0225048733286 0.000585829547572)
(-0.0248805762875 0.0205561272922 -0.00429116609924)
(-0.0213162742361 0.0188882981004 -0.0083165701438)
(-0.0149882560556 0.0177927186505 -0.00993768149258)
(-0.00654692455887 0.0174662418267 -0.00586349213286)
(0.00705800776947 0.0153173572057 -0.00480287400508)
(0.0162577243386 0.0155542309957 -0.00853838252041)
(0.0231132427344 0.0164745364905 -0.00639084047543)
(0.0268784450492 0.0178550778301 -0.00175436164629)
(0.0278671855549 0.019469622766 0.00379847129841)
(0.0263708627747 0.0211600292258 0.00912314722975)
(0.02269024292 0.0226720945071 0.013435007577)
(0.0172959702365 0.0238906135351 0.0164676202518)
(0.0107740932025 0.0247584076426 0.018255535552)
(0.00366188685381 0.0251997264652 0.0190528428458)
(-0.00363185079904 0.0251977552953 0.019054588541)
(-0.0107456971691 0.0247526525001 0.0182606633884)
(-0.0172708998246 0.0238810582855 0.0164766611165)
(-0.0226698625878 0.0226590147872 0.0134472110576)
(-0.0263557135791 0.0211447177914 0.0091372744293)
(-0.0278570058748 0.0194535902505 0.00381235679086)
(-0.0268721093153 0.0178397133293 -0.00174280592367)
(-0.0231095181037 0.0164618221214 -0.00638181958394)
(-0.01625499871 0.015545650318 -0.00853143476425)
(-0.00705730107684 0.0153159467379 -0.0047984002954)
(0.00753377843398 0.0117897089464 -0.00415758384319)
(0.0173524238502 0.0119779943561 -0.00757758531396)
(0.024607619281 0.0126903036886 -0.00501061045533)
(0.0285004441622 0.013711319762 9.34396474907e-05)
(0.0294554650571 0.0149132964249 0.00611281846716)
(0.0278099667688 0.0161665182461 0.0118491508886)
(0.0239097253285 0.0172867888016 0.0164611484316)
(0.0182291131366 0.0182194458327 0.0198040225825)
(0.0113427073467 0.018861517732 0.021948611428)
(0.00384988435661 0.0191927892439 0.0228652918595)
(-0.00382352378349 0.0191907804162 0.0228668890744)
(-0.0113181543552 0.0188554217202 0.0219536747596)