/*--------------------------------*- C++ -*----------------------------------*\
| =========                 |                                                 |
| \\      /  F ield         | OpenFOAM: The Open Source CFD Toolbox           |
|  \\    /   O peration     | Version:  3.0.1                                 |
|   \\  /    A nd           | Web:      www.OpenFOAM.org                      |
|    \\/     M anipulation  |                                                 |
\*---------------------------------------------------------------------------*/
FoamFile
{
    version     2.0;
    format      ascii;
    class       volVectorField;
    location    "3.4";
    object      U_0;
}
// * * * * * * * * * * * * * * * * * * * * * * * * * * * * * * * * * * * * * //

dimensions      [0 1 -1 0 0 0 0];

internalField   nonuniform List<vector> 
15984
(
(0.00143823179117 0.000308484114431 -0.00104550866189)
(0.00428994128891 0.000213712209553 -0.000880789895318)
(0.00591444710281 0.0007495341111 -0.000769465383051)
(0.00457479615565 0.00140076617664 -0.000680083860398)
(0.00119387299799 0.00178965061023 -0.000664736687716)
(-0.00290499456183 0.001822107931 -0.000615433186417)
(-0.00680709385267 0.00147031151287 -0.0005384925888)
(-0.0091120940575 0.000838845825674 -0.000459117823673)
(-0.00931710712363 0.000194493756685 -0.000369605825051)
(-0.00787016041462 -0.000212062428483 -0.000278331770408)
(-0.006034943844 -0.000313774869646 -0.000187758723363)
(-0.00436144707366 -0.000282028000629 -0.000124798494412)
(-0.00307925869776 -0.000216175223512 -7.91319692448e-05)
(-0.00219035389488 -0.000149967205592 -5.11897275169e-05)
(-0.00159723521829 -9.93058135969e-05 -3.47079872617e-05)
(-0.00120857742381 -6.46688921225e-05 -2.39695207916e-05)
(-0.000955006497624 -4.26141465589e-05 -1.59173743288e-05)
(-0.000788740695745 -2.83428019706e-05 -1.06036780391e-05)
(-0.000676120220474 -1.94299468226e-05 -7.54751584628e-06)
(-0.000594222184609 -1.40864588428e-05 -6.46205268322e-06)
(-0.000527008360319 -1.09484326683e-05 -6.99912732153e-06)
(-0.000463772841489 -9.07177420513e-06 -8.37636371079e-06)
(-0.000398821716208 -7.98569335342e-06 -9.98893585948e-06)
(-0.000331087171167 -7.29491432004e-06 -1.12451473705e-05)
(-0.000260730238588 -7.23951709823e-06 -1.18686341246e-05)
(-0.000188705801079 -7.23967019898e-06 -1.20604720662e-05)
(-0.00011738456707 -7.4511737657e-06 -1.12069625531e-05)
(-5.102286856e-05 -7.8687174846e-06 -8.98494264195e-06)
(7.93731216396e-06 -8.3917261754e-06 -6.57959707957e-06)
(5.84446852634e-05 -9.00274878696e-06 -4.3015101111e-06)
(0.000101793527588 -9.40738708025e-06 -2.51844053545e-06)
(0.000139796054415 -9.50433698686e-06 -5.22464292832e-07)
(0.000169401451148 -9.15849314119e-06 2.58174838689e-06)
(0.000185496994297 -8.7598768451e-06 5.11262931786e-06)
(0.00018775270372 -8.12188552772e-06 7.96653747605e-06)
(0.000178186284197 -7.62606618597e-06 1.06655610497e-05)
(0.000157760210338 -6.82184794616e-06 1.22385186027e-05)
(0.000128021676669 -6.16354071922e-06 1.44244599619e-05)
(8.8278493251e-05 -6.17904257817e-06 1.72709166331e-05)
(3.77299030831e-05 -7.75123354748e-06 2.35723676161e-05)
(0.00119560125362 0.00160062324593 -0.00175528661662)
(0.00451487548168 0.00209431976194 -0.00248912585109)
(0.00636488851394 0.00401373054458 -0.00280804027484)
(0.00495368732001 0.00594428851401 -0.00289852724427)
(0.00134893824693 0.007005893856 -0.00296637279557)
(-0.00298812755166 0.00705598712824 -0.00288719137007)
(-0.00710367805419 0.0060570202768 -0.00266558672598)
(-0.00957340119339 0.00417451545247 -0.00235223033563)
(-0.00965059409442 0.00205171855719 -0.00188826544662)
(-0.00801515155627 0.00056588309821 -0.00134561940218)
(-0.00602390227612 -0.000130479140279 -0.000858579356787)
(-0.00429785471611 -0.000349757570024 -0.000510186925873)
(-0.00301389399396 -0.000351337986443 -0.00029311866965)
(-0.00213873516127 -0.000279452569293 -0.000163304410688)
(-0.00156237062236 -0.000199499578165 -9.24507572965e-05)
(-0.0011869751595 -0.000135721183571 -5.36443831879e-05)
(-0.000942274840944 -9.14686804204e-05 -3.12917184975e-05)
(-0.000781569312133 -6.21510975063e-05 -1.83757520433e-05)
(-0.000672618900285 -4.35064579848e-05 -1.14863850258e-05)
(-0.000592979725353 -3.19846548101e-05 -8.60432667028e-06)
(-0.0005269544308 -2.50223149581e-05 -8.46977707555e-06)
(-0.000464225720191 -2.08309974406e-05 -9.69035425603e-06)
(-0.000399472775568 -1.85080454508e-05 -1.11252615446e-05)
(-0.00033195115457 -1.72085311273e-05 -1.20723247641e-05)
(-0.000261932899929 -1.6958738986e-05 -1.24537205692e-05)
(-0.000190171973932 -1.71390837541e-05 -1.27035200062e-05)
(-0.000119015273662 -1.78391726414e-05 -1.18764497487e-05)
(-5.27636986657e-05 -1.89587305297e-05 -9.68171698197e-06)
(6.1460942027e-06 -2.00886807283e-05 -7.32369364629e-06)
(5.69001218535e-05 -2.15763996483e-05 -5.46196983944e-06)
(0.000100935288348 -2.24685207376e-05 -4.00731574032e-06)
(0.000139913992339 -2.26433855228e-05 -2.11034148393e-06)
(0.000170285509047 -2.17763901749e-05 1.36267047349e-06)
(0.000186794607016 -2.11329133848e-05 4.69643727275e-06)
(0.000189074675176 -1.96197306129e-05 7.86595227187e-06)
(0.000179352547141 -1.83635239172e-05 1.09153663023e-05)
(0.000158619441996 -1.6685656527e-05 1.28721432742e-05)
(0.000128556317503 -1.52501380665e-05 1.56884137308e-05)
(8.82583529784e-05 -1.49265500226e-05 1.90428298856e-05)
(3.57043043757e-05 -1.67123852744e-05 2.3230388981e-05)
(0.00134985850282 0.00349157128749 -0.00188194474594)
(0.0053426370196 0.00505452346279 -0.00294318073623)
(0.00746546690008 0.00853932390938 -0.00304854304671)
(0.0057620837187 0.0117998300937 -0.00289567713312)
(0.00164865898834 0.0135274199857 -0.00286769812001)
(-0.00321199453041 0.0135742471063 -0.00277804203662)
(-0.00782557897564 0.0118755596121 -0.00262186731441)
(-0.0106098610194 0.00864217785415 -0.00249320886057)
(-0.0105627025865 0.00491423920686 -0.00222204792835)
(-0.00856796937116 0.00212071359973 -0.00172013073942)
(-0.0062400524152 0.000579979777 -0.00114053285908)
(-0.00432224481309 -9.7656439315e-05 -0.000685974706403)
(-0.00296259674059 -0.00030065263023 -0.000391255461366)
(-0.00207171581511 -0.000304963803542 -0.000219345765769)
(-0.00150348609559 -0.000243646152853 -0.000122049288561)
(-0.00114306880573 -0.000176554593716 -7.00348859455e-05)
(-0.000911822252888 -0.00012371151421 -4.14275448727e-05)
(-0.000760924197187 -8.68471313586e-05 -2.54199062862e-05)
(-0.000658513932707 -6.24449786394e-05 -1.67576716268e-05)
(-0.000583112173548 -4.66890103946e-05 -1.31300454244e-05)
(-0.00051972533489 -3.67470489251e-05 -1.25988497468e-05)
(-0.000458656018415 -3.06007929607e-05 -1.36668365743e-05)
(-0.000395002807826 -2.71696252946e-05 -1.49144673084e-05)
(-0.000328270328461 -2.54545142583e-05 -1.57904250141e-05)
(-0.000258938907282 -2.50147038323e-05 -1.62039032721e-05)
(-0.000187770616172 -2.54012297638e-05 -1.63587858991e-05)
(-0.000117125748536 -2.65444023276e-05 -1.55703609518e-05)
(-5.12419881087e-05 -2.82224992053e-05 -1.33346642734e-05)
(7.32160832241e-06 -2.99501840159e-05 -1.1131049731e-05)
(5.79416407683e-05 -3.19260339537e-05 -9.52302940346e-06)
(0.000102246231651 -3.3059880208e-05 -8.27341387083e-06)
(0.000141708869958 -3.31943513154e-05 -6.38303183511e-06)
(0.000172117543776 -3.20253041338e-05 -2.84545057731e-06)
(0.000188527682846 -3.11820971729e-05 1.01936547947e-06)
(0.000190681650104 -2.93535906476e-05 4.46461838673e-06)
(0.000180458560519 -2.74956861005e-05 7.56168053048e-06)
(0.000159171348384 -2.56249427597e-05 9.8591471752e-06)
(0.000128434940043 -2.3851504574e-05 1.28722751805e-05)
(8.70064562975e-05 -2.3496227563e-05 1.60139850446e-05)
(3.46673676652e-05 -2.44503469684e-05 1.81466982928e-05)
(0.00184731571092 0.0049481312473 -0.00187717653934)
(0.00686791660676 0.00739867973723 -0.00276474538738)
(0.00930473229744 0.0120470351527 -0.00220767886037)
(0.00708579812947 0.016222276629 -0.00146426890438)
(0.00211806126817 0.0184030352639 -0.0011903871248)
(-0.00361792455403 0.0184462447601 -0.00109406022841)
(-0.00907100250573 0.0162553756191 -0.00117557817477)
(-0.0123650162065 0.0120639484258 -0.00157271292344)
(-0.0121877425758 0.00715242144696 -0.00187583672988)
(-0.00963576442646 0.00338090001014 -0.00171796081145)
(-0.00676902132785 0.0012098949497 -0.0012325735188)
(-0.00451268091779 0.000173114568183 -0.000770946508846)
(-0.00298605421753 -0.000205007507731 -0.00044959241685)
(-0.00203525656838 -0.000283685409712 -0.000255480400539)
(-0.00145529691627 -0.000250736609144 -0.000144483449787)
(-0.00110156944478 -0.00019053475382 -8.31461063865e-05)
(-0.000881334712008 -0.000136781584984 -5.01157071736e-05)
(-0.000739896832366 -9.71682871943e-05 -3.19162159634e-05)
(-0.000644265613886 -7.00834911149e-05 -2.21842529681e-05)
(-0.000573408618731 -5.20266292819e-05 -1.78478159823e-05)
(-0.000513019892141 -4.02930257287e-05 -1.68997654172e-05)
(-0.000453954810356 -3.29407468279e-05 -1.77091394008e-05)
(-0.000391684510146 -2.87993345771e-05 -1.88378492878e-05)
(-0.000325904171155 -2.6855590112e-05 -1.96548853194e-05)
(-0.000257329337302 -2.63483055864e-05 -2.00663600658e-05)
(-0.000186788499762 -2.70074531293e-05 -2.02557019708e-05)
(-0.000116603831101 -2.85338204549e-05 -1.96144152342e-05)
(-5.10332609893e-05 -3.06252988338e-05 -1.75032493941e-05)
(7.31411622261e-06 -3.28576806852e-05 -1.55079962404e-05)
(5.8018797873e-05 -3.51299876422e-05 -1.41264580944e-05)
(0.000102765890021 -3.63778045834e-05 -1.30449347774e-05)
(0.000142805442981 -3.64430009793e-05 -1.11386327536e-05)
(0.000173448283774 -3.52455504471e-05 -7.50621291889e-06)
(0.000189851456153 -3.39873601087e-05 -3.48411128805e-06)
(0.000191980267188 -3.20442752172e-05 3.71900162314e-07)
(0.000181526293436 -2.9973410765e-05 3.62041048522e-06)
(0.000159915679316 -2.79364155656e-05 6.16311797255e-06)
(0.000128756095941 -2.59036964552e-05 9.25436854106e-06)
(8.68127446109e-05 -2.50381125788e-05 1.22451698972e-05)
(3.47303508022e-05 -2.39285395729e-05 1.45594737794e-05)
(0.00259619323029 0.00584996396739 -0.00189184247618)
(0.00887235842592 0.00879827512998 -0.00236362632576)
(0.0116289544166 0.0140049605431 -0.000918279508551)
(0.00875864799896 0.0185145347544 0.000582312973325)
(0.00271312951359 0.0208619914346 0.00119461181831)
(-0.00416485721578 0.0209015705783 0.00128479555699)
(-0.0106761753307 0.0184952300737 0.000860884345836)
(-0.0145881904999 0.0139152799517 -0.000232131260176)
(-0.0142840425778 0.00844986385692 -0.00129332321225)
(-0.0110674200958 0.00418642281298 -0.0016023463298)
(-0.00753628448483 0.00166690498634 -0.00127174599487)
(-0.00484077195028 0.000409033478193 -0.00083577857042)
(-0.00308131472536 -9.36569726732e-05 -0.000497896004968)
(-0.00203270333266 -0.000234292958477 -0.000284353779851)
(-0.00142239486273 -0.000229811182583 -0.000162832104683)
(-0.00106639052608 -0.000182875626769 -9.36817100577e-05)
(-0.000853306928126 -0.000133820662278 -5.64935873838e-05)
(-0.000719909669171 -9.57513140183e-05 -3.65335105155e-05)
(-0.000630518113687 -6.89766485154e-05 -2.58716877996e-05)
(-0.000564023657159 -5.06737716786e-05 -2.08541327879e-05)
(-0.000506646491302 -3.84864375606e-05 -1.95077283603e-05)
(-0.000449698357667 -3.07664198016e-05 -2.00706907711e-05)
(-0.000388944228496 -2.64070694995e-05 -2.11289944168e-05)
(-0.000324200110728 -2.44567675656e-05 -2.19249141442e-05)
(-0.000256417246871 -2.39853345624e-05 -2.2360246221e-05)
(-0.000186525845797 -2.48071901032e-05 -2.26490313831e-05)
(-0.000116786107128 -2.65318673367e-05 -2.2177810228e-05)
(-5.14941280294e-05 -2.88281350298e-05 -2.02631554555e-05)
(6.72489000851e-06 -3.12742093268e-05 -1.85109836141e-05)
(5.7640547378e-05 -3.36235876536e-05 -1.73605568536e-05)
(0.000102936663973 -3.48709648595e-05 -1.64010290933e-05)
(0.000143586206029 -3.48572618513e-05 -1.44515487893e-05)
(0.000174539329804 -3.36933691659e-05 -1.0718615617e-05)
(0.000191063699514 -3.22969138728e-05 -6.51761514084e-06)
(0.00019322247874 -3.02414604864e-05 -2.50938236867e-06)
(0.000182627670149 -2.81713132159e-05 1.06250404248e-06)
(0.000160907172033 -2.61539473905e-05 3.77276502667e-06)
(0.000129571925907 -2.3992824095e-05 6.90645378612e-06)
(8.76848416903e-05 -2.28222413148e-05 1.00159597882e-05)
(3.54307286906e-05 -2.05092833001e-05 1.35947073786e-05)
(0.00345455808246 0.00604027761333 -0.00192223542758)
(0.0110286557084 0.00902611178715 -0.00190651402248)
(0.0140727408752 0.0141135653679 0.000444175738326)
(0.0104858787846 0.0182754955939 0.00264222900604)
(0.00331120098975 0.0204415370114 0.00351848376601)
(-0.00472228278631 0.0204857508174 0.00360350074885)
(-0.0123422819037 0.0182368409204 0.00289078194256)
(-0.0169081152603 0.0139340240542 0.0011587201216)
(-0.0165357822647 0.00862821875941 -0.000663719073121)
(-0.0126436125619 0.00440932630371 -0.00146246140035)
(-0.00842102769646 0.00186366908336 -0.00129532116015)
(-0.00524843302987 0.000550394070111 -0.000891006096447)
(-0.00322353531622 -1.24908647405e-06 -0.000541033085479)
(-0.0020558026095 -0.000176683283743 -0.000309970022826)
(-0.00140327297438 -0.000193372178215 -0.000175965262592)
(-0.00103881419211 -0.000160275637243 -0.000101892251587)
(-0.000829138201549 -0.000119413724488 -6.05688118149e-05)
(-0.000702047913096 -8.57856534599e-05 -3.90626535764e-05)
(-0.000618002645581 -6.15244290017e-05 -2.786941734e-05)
(-0.000555363113908 -4.47108221396e-05 -2.23185683495e-05)
(-0.000500755936537 -3.32391958195e-05 -2.05761165971e-05)
(-0.000445851376864 -2.58851676287e-05 -2.09183384315e-05)
(-0.000386611235774 -2.17426753762e-05 -2.19167941678e-05)
(-0.00032290099617 -1.99616983471e-05 -2.27175751105e-05)
(-0.000255880982027 -1.95821583569e-05 -2.32057401248e-05)
(-0.000186613330973 -2.04467235022e-05 -2.36009359961e-05)
(-0.000117294314569 -2.21726864127e-05 -2.33147817171e-05)
(-5.22427834142e-05 -2.44267412533e-05 -2.16035168022e-05)
(5.91123968082e-06 -2.68199265826e-05 -2.00963074508e-05)
(5.70938733428e-05 -2.90252723559e-05 -1.91492329388e-05)
(0.000102963378005 -3.01756205026e-05 -1.82850019877e-05)
(0.000144202804624 -3.00990439416e-05 -1.62890025613e-05)
(0.00017547877319 -2.90257662139e-05 -1.24491258779e-05)
(0.000192177507928 -2.76588030111e-05 -8.08506667179e-06)
(0.00019440774994 -2.5698027462e-05 -3.97326838577e-06)
(0.000183721680142 -2.37578225973e-05 -1.98904306711e-07)
(0.000162011580987 -2.18922024996e-05 2.67978668164e-06)
(0.000130642448786 -1.97732658036e-05 5.84904279897e-06)
(8.90368447478e-05 -1.85566829525e-05 9.21136124946e-06)
(3.63227063282e-05 -1.59493639508e-05 1.38493837088e-05)
(0.00426283961871 0.00550872528457 -0.00195642573981)
(0.0130026042058 0.00810867030161 -0.00150003013094)
(0.0162452450367 0.0125184513716 0.00161368838533)
(0.0120405920194 0.0159555988678 0.00428262066825)
(0.00383718704128 0.0177912473311 0.00536150762813)
(-0.00520433313458 0.0178410940437 0.00544848362416)
(-0.0138318881044 0.0159296318953 0.0045129121981)
(-0.0189803160193 0.0123178734543 0.00233157360637)
(-0.0186322278418 0.00774135269837 -0.000107773225929)
(-0.0141402244138 0.00405131187002 -0.00133606562302)
(-0.00929238400986 0.00178112186981 -0.00131255626299)
(-0.0056685516386 0.000579742400741 -0.000937203847238)
(-0.00338345442428 5.68491952798e-05 -0.000577802278357)
(-0.00209378591548 -0.000121529774185 -0.000331365381797)
(-0.00139482450678 -0.000150174574945 -0.000186301861498)
(-0.00101861401381 -0.000128502542721 -0.000107098039112)
(-0.000809824850084 -9.75979082424e-05 -6.30319826523e-05)
(-0.000687105947913 -7.02692922327e-05 -4.02241795819e-05)
(-0.000607371586373 -5.01252445979e-05 -2.83955820336e-05)
(-0.000547944048487 -3.60033291997e-05 -2.27424500103e-05)
(-0.000495652814572 -2.62105379427e-05 -2.06915315253e-05)
(-0.000442552546627 -1.98581931647e-05 -2.08002164304e-05)
(-0.000384693219938 -1.62933969488e-05 -2.17407977446e-05)
(-0.000321923580489 -1.48107117078e-05 -2.25734239621e-05)
(-0.000255581894331 -1.45297904739e-05 -2.31222062263e-05)
(-0.000186865814005 -1.5330482191e-05 -2.36263813058e-05)
(-0.000117912582287 -1.6872311076e-05 -2.34930964543e-05)
(-5.30628082357e-05 -1.88602000496e-05 -2.19569753281e-05)
(5.06713596972e-06 -2.09589624924e-05 -2.06681958863e-05)
(5.65250326876e-05 -2.28439972019e-05 -1.98880748246e-05)
(0.000102929694575 -2.38079472044e-05 -1.91133021657e-05)
(0.000144696362915 -2.36905079498e-05 -1.70599846173e-05)
(0.000176266367863 -2.27636011071e-05 -1.31325820435e-05)
(0.000193146129192 -2.15656305745e-05 -8.61322858254e-06)
(0.00019545579233 -1.9864259209e-05 -4.40440024351e-06)
(0.000184716329469 -1.81853682067e-05 -4.81368807916e-07)
(0.000163078785097 -1.66056819121e-05 2.45940026218e-06)
(0.000131710191328 -1.47686063495e-05 5.6425591296e-06)
(9.03555787357e-05 -1.36311277131e-05 9.30125449332e-06)
(3.71260427216e-05 -1.13182465932e-05 1.44669741314e-05)
(0.00494033414423 0.00435114243468 -0.00199948074597)
(0.014574658696 0.00628362123887 -0.00123588907898)
(0.0179481160925 0.00962587987239 0.00242981815129)
(0.0133496856369 0.0120549204812 0.00536671492582)
(0.00429818015444 0.0134267307158 0.00647585168568)
(-0.00561013817959 0.0134758752946 0.00656312164366)
(-0.0150543090443 0.0120592232001 0.00560537104764)
(-0.020606868447 0.00945662818351 0.00314450175995)
(-0.0203278420262 0.00601186146584 0.000286273394316)
(-0.0153753317551 0.00320947099791 -0.00124539948663)
(-0.0100361343123 0.00145056309688 -0.00132673670457)
(-0.00603906435184 0.000500136288891 -0.000972960202839)
(-0.00353196954575 7.5669215118e-05 -0.000606262647532)
(-0.00213494306849 -7.53951979559e-05 -0.000347641274859)
(-0.00139319819453 -0.000105408217526 -0.000193989329513)
(-0.00100497860702 -9.25532333898e-05 -0.000109538639201)
(-0.000795687334155 -7.13098640181e-05 -6.47505363014e-05)
(-0.000675657119941 -5.14530800215e-05 -4.05539832264e-05)
(-0.000599090188077 -3.65446458587e-05 -2.84115662262e-05)
(-0.000542094105424 -2.59396901836e-05 -2.25291655991e-05)
(-0.00049161943856 -1.85352405554e-05 -2.02760915395e-05)
(-0.000439959199533 -1.36853940434e-05 -2.02199596288e-05)
(-0.00038323102995 -1.09756709024e-05 -2.11223345514e-05)
(-0.000321228665285 -9.88526147467e-06 -2.198743267e-05)
(-0.000255431684824 -9.69680398236e-06 -2.25877392634e-05)
(-0.000187159535582 -1.0336173523e-05 -2.31815027637e-05)
(-0.000118498227876 -1.15413363533e-05 -2.31790042906e-05)
(-5.37984378128e-05 -1.30800321868e-05 -2.17889103434e-05)
(4.33116280963e-06 -1.46911473326e-05 -2.06434905227e-05)
(5.60300842117e-05 -1.61082073825e-05 -2.00298908476e-05)
(0.000102883754475 -1.68115999608e-05 -1.93132424076e-05)
(0.000145077639239 -1.66830995189e-05 -1.72062907719e-05)
(0.000176881742842 -1.59570102766e-05 -1.31961092004e-05)
(0.000193916985866 -1.50408861805e-05 -8.55179013503e-06)
(0.000196311761018 -1.37294899866e-05 -4.27462595728e-06)
(0.000185527830964 -1.24323150779e-05 -3.12665891144e-07)
(0.000163942234426 -1.12517135887e-05 2.70798806865e-06)
(0.000132607757663 -9.88448971828e-06 5.93164148442e-06)
(9.14030744062e-05 -8.89944024129e-06 9.75643824561e-06)
(3.76970855148e-05 -7.05905975388e-06 1.50458392557e-05)
(0.0054162409558 0.00274356472932 -0.00204783022025)
(0.0156311268253 0.00389889639666 -0.00113230650302)
(0.0191048451996 0.00593585987484 0.0028431970417)
(0.0142468578003 0.00732546928767 0.00586596410492)
(0.0046185140748 0.00814949013201 0.00685482049005)
(-0.00587768523355 0.00818605448225 0.00694600831485)
(-0.0158848472065 0.00734730284442 0.00612023838755)
(-0.0216754264862 0.00584305372531 0.00357500136447)
(-0.0214890829062 0.00374958227021 0.000506474746244)
(-0.0162342869244 0.00203121328009 -0.0011959024322)
(-0.0105690653435 0.000934121801165 -0.00133822943516)
(-0.00631092919282 0.000332405209002 -0.000997107977571)
(-0.00364450338987 5.92347281416e-05 -0.000625197487498)
(-0.00216865889657 -4.02866461645e-05 -0.000358291655548)
(-0.00139461755671 -6.19885276877e-05 -0.000198832389386)
(-0.000996670589425 -5.53956033119e-05 -0.000110963210041)
(-0.000786471502153 -4.28069053942e-05 -6.51585239343e-05)
(-0.000668017772524 -3.09430645235e-05 -4.04831515844e-05)
(-0.000593477868278 -2.18577749625e-05 -2.81360822297e-05)
(-0.000538105387923 -1.53789754487e-05 -2.21208803573e-05)
(-0.000488852085792 -1.08250023956e-05 -1.98004597401e-05)
(-0.000438185069185 -7.83056238453e-06 -1.96166229668e-05)
(-0.000382256472493 -6.17467716548e-06 -2.04665793177e-05)
(-0.000320790906874 -5.53788386679e-06 -2.13845720396e-05)
(-0.000255366532611 -5.43733993063e-06 -2.20113175306e-05)
(-0.00018740154 -5.84216012819e-06 -2.26613136462e-05)
(-0.000118939884473 -6.59147074639e-06 -2.27458485861e-05)
(-5.43397383235e-05 -7.54002218474e-06 -2.14556420228e-05)
(3.80316959985e-06 -8.52730627699e-06 -2.04240792352e-05)
(5.56837782538e-05 -9.36905577348e-06 -1.99083304976e-05)
(0.00010285315425 -9.76133876843e-06 -1.92310690813e-05)
(0.000145343470524 -9.64566140703e-06 -1.70828503895e-05)
(0.000177303479439 -9.17523129876e-06 -1.30114327488e-05)
(0.000194448219923 -8.61115654748e-06 -8.2812045872e-06)
(0.000196907487221 -7.79684213015e-06 -3.95882356172e-06)
(0.000186090623901 -7.00215023693e-06 3.03118015375e-08)
(0.000164531957244 -6.29157624004e-06 3.07522298471e-06)
(0.000133221987931 -5.45304816793e-06 6.35118010179e-06)
(9.20807317535e-05 -4.73661596722e-06 1.02695917403e-05)
(3.80235705965e-05 -3.26701268779e-06 1.54684147709e-05)
(0.00565646085026 0.000893550111954 -0.00208192362787)
(0.0161493055676 0.00126724341563 -0.00111872091047)
(0.0196974751167 0.00193311470089 0.00296919740233)
(0.0146838826265 0.00237821815013 0.00598945509332)
(0.00476562752924 0.00263768140267 0.00695268058024)
(-0.00599358165036 0.00265286580898 0.00704894316705)
(-0.0162968631436 0.00239144391701 0.00626132479769)
(-0.0221880700203 0.0019135650529 0.00372971931239)
(-0.0220677758689 0.00122957061878 0.00059497084966)
(-0.016666041561 0.000667215785487 -0.00117756799191)
(-0.010842144026 0.000306866776477 -0.00134513309192)
(-0.00645206529485 0.000108674745077 -0.00100921058362)
(-0.00370380735391 1.87033032803e-05 -0.000634456416821)
(-0.00218693173877 -1.38034048461e-05 -0.00036339443173)
(-0.00139587834371 -2.05713394364e-05 -0.000201016903222)
(-0.000992664306171 -1.8082901936e-05 -0.000111630345079)
(-0.000781904150798 -1.37222164559e-05 -6.49310005207e-05)
(-0.000664238082272 -9.77183812643e-06 -4.03172146546e-05)
(-0.000590680673302 -6.77677168172e-06 -2.79085345085e-05)
(-0.000536118793556 -4.69850589976e-06 -2.18701830525e-05)
(-0.000487475753855 -3.26658344472e-06 -1.9484133192e-05)
(-0.000437313020455 -2.34396926231e-06 -1.92351246661e-05)
(-0.000381792574533 -1.86942417696e-06 -2.00561892595e-05)
(-0.000320592470894 -1.71345133868e-06 -2.1021352671e-05)
(-0.000255345547166 -1.69288872538e-06 -2.1667656958e-05)
(-0.000187528580553 -1.82151957364e-06 -2.23349245731e-05)
(-0.000119162725247 -2.04631457772e-06 -2.24570143291e-05)
(-5.46076843421e-05 -2.32013009727e-06 -2.12177818816e-05)
(3.54913864547e-06 -2.59013189796e-06 -2.02379911874e-05)
(5.55290125732e-05 -2.79699131583e-06 -1.97857971258e-05)
(0.000102858238488 -2.85426313649e-06 -1.9112656562e-05)
(0.000145489869356 -2.76610968032e-06 -1.69417805194e-05)
(0.00017751778401 -2.58988358668e-06 -1.28354932808e-05)
(0.000194711281584 -2.41323607512e-06 -8.06186098517e-06)
(0.000197200108354 -2.17136314893e-06 -3.71891204846e-06)
(0.00018635634925 -1.94959528955e-06 2.77375495422e-07)
(0.000164804326858 -1.75491261335e-06 3.35641777088e-06)
(0.0001335015062 -1.47769494131e-06 6.64948502695e-06)
(9.23762969954e-05 -1.08065000491e-06 1.05841003905e-05)
(3.8150159771e-05 1.84206228594e-07 1.57065044485e-05)
(0.00565360273679 -0.0010284145327 -0.00208294246908)
(0.0161432788649 -0.00142459936299 -0.00112060438085)
(0.0196904134975 -0.00212463285661 0.00296668280669)
(0.0146778215124 -0.0025876918787 0.00598835724627)
(0.00476417665751 -0.00285835362503 0.00694920836167)
(-0.00599031934256 -0.00286852881421 0.00704526033261)
(-0.0162894473861 -0.00259013024159 0.00625789484263)
(-0.0221795103055 -0.0020862559214 0.00372530115793)
(-0.0220566132856 -0.00136093495943 0.000591111416879)
(-0.0166557167471 -0.000752777727033 -0.00117926978039)
(-0.0108344280511 -0.000355545901542 -0.0013454230324)
(-0.00644730663962 -0.000133507511122 -0.00100900450917)
(-0.00370117979775 -3.00702500263e-05 -0.000634206087221)
(-0.00218556662707 9.57123077838e-06 -0.000363209362535)
(-0.00139520732785 1.99535644016e-05 -0.000200875972987)
(-0.000992377781219 1.91895472532e-05 -0.000111548855136)
(-0.000781819718467 1.5398875026e-05 -6.49245572014e-05)
(-0.000664243827378 1.15554384184e-05 -4.03121419844e-05)
(-0.000590740970071 8.39408668737e-06 -2.78933807394e-05)
(-0.000536203646562 5.98864145483e-06 -2.18698367865e-05)
(-0.000487556819602 4.20867213381e-06 -1.9499174948e-05)
(-0.000437384202022 2.98244090676e-06 -1.92325986257e-05)
(-0.00038184839407 2.23517426165e-06 -2.00628321018e-05)
(-0.000320617937921 1.9041845194e-06 -2.10278673706e-05)
(-0.000255345397983 1.84127136814e-06 -2.16587490459e-05)
(-0.000187512873324 2.00378850305e-06 -2.23272345279e-05)
(-0.000119131492398 2.3198615241e-06 -2.24452991295e-05)
(-5.45622189142e-05 2.74783938888e-06 -2.1202176484e-05)
(3.60587325392e-06 3.22351837459e-06 -2.02214399848e-05)
(5.55877326884e-05 3.67348074947e-06 -1.97585340961e-05)
(0.000102903982927 3.94987016699e-06 -1.90779508999e-05)
(0.00014551358507 4.00259218333e-06 -1.69029730263e-05)
(0.00017751816804 3.87072819386e-06 -1.27956492476e-05)
(0.000194691068035 3.64687557005e-06 -8.02144070255e-06)
(0.000197163019269 3.28751608095e-06 -3.67880695605e-06)
(0.00018630770269 2.89954753678e-06 3.1386468953e-07)
(0.000164741134036 2.58556949966e-06 3.40166139817e-06)
(0.000133420650187 2.27672982993e-06 6.69616145837e-06)
(9.23041262647e-05 2.34211488735e-06 1.06180362005e-05)
(3.81109029726e-05 3.48268504891e-06 1.57208972075e-05)
(0.00540780937641 -0.00287015845129 -0.00205064291201)
(0.0156125081384 -0.00404769107169 -0.00113790862916)
(0.0190836408596 -0.00612017789018 0.00283405457683)
(0.0142310590372 -0.00752983436949 0.00585608946601)
(0.00461442624866 -0.00836344902954 0.00684406541318)
(-0.00586742968783 -0.00839376376069 0.00693452247722)
(-0.0158638118083 -0.00753741198618 0.00610796916901)
(-0.0216497046919 -0.00600482531952 0.00356209474892)
(-0.0214562295366 -0.00387081379154 0.000495769270661)
(-0.016203991647 -0.00210969610379 -0.00120063642421)
(-0.0105465710159 -0.000978687870817 -0.00133894278535)
(-0.00629707029361 -0.000355186837017 -0.000996537851043)
(-0.0036368459254 -6.96782893991e-05 -0.000624474839185)
(-0.00216466667914 3.63987245644e-05 -0.000357737392361)
(-0.00139263273171 6.14498182162e-05 -0.000198427041261)
(-0.000995817850673 5.65027050199e-05 -0.0001106543347)
(-0.000786220530069 4.44806933391e-05 -6.50133055508e-05)
(-0.000668042017927 3.27317459747e-05 -4.04310440519e-05)
(-0.000593662739193 2.34678015294e-05 -2.8095500207e-05)
(-0.00053835568176 1.66737757617e-05 -2.21201159999e-05)
(-0.000489094328464 1.17868204184e-05 -1.98342132818e-05)
(-0.000438399821038 8.45921722686e-06 -1.96084949738e-05)
(-0.000382422743622 6.52533247024e-06 -2.04596596366e-05)
(-0.000320872993389 5.70916984702e-06 -2.1388432397e-05)
(-0.00025537036181 5.5522804184e-06 -2.19955924564e-05)
(-0.000187354436784 5.98688541375e-06 -2.26330418601e-05)
(-0.000118848468359 6.81935044457e-06 -2.27097856058e-05)
(-5.42055454182e-05 7.91376945425e-06 -2.14104581532e-05)
(3.97055823215e-06 9.10135792587e-06 -2.03695368785e-05)
(5.5856071855e-05 1.01777190864e-05 -1.98330709804e-05)
(0.000102987848447 1.07731562413e-05 -1.91308994996e-05)
(0.000145413709237 1.07904462908e-05 -1.6969300371e-05)
(0.000177303677708 1.03573108076e-05 -1.28918691657e-05)
(0.000194386449672 9.74070145745e-06 -8.16199403114e-06)
(0.00019679239384 8.80755906586e-06 -3.84177981098e-06)
(0.000185946497441 7.83464631934e-06 1.5384542279e-07)
(0.000164346755753 7.02149644169e-06 3.19695907989e-06)
(0.000132976651618 6.13118277939e-06 6.49066691091e-06)
(9.18635617282e-05 5.86650559379e-06 1.03756891959e-05)
(3.79041492676e-05 6.8257304179e-06 1.55168332448e-05)
(0.00492688681227 -0.00446187110161 -0.00200342125529)
(0.0145423507406 -0.00641521773021 -0.00124501977937)
(0.0179137313237 -0.00979125094639 0.0024110907398)
(0.0133228767523 -0.0122443476442 0.00534590065327)
(0.00429173934487 -0.0136218193346 0.00645825287485)
(-0.00559199475881 -0.0136633860246 0.00654549822434)
(-0.0150196065057 -0.0122305173012 0.00558281713507)
(-0.0205632202371 -0.0095968922057 0.0031234780935)
(-0.0202747195622 -0.00611439064904 0.000270589332996)
(-0.0153269885255 -0.00327480510054 -0.00125210820607)
(-0.0100006954488 -0.00148759495866 -0.00132740321328)
(-0.00601728155869 -0.000519178510604 -0.000971811878524)
(-0.00351990949145 -8.44629810809e-05 -0.000605003428319)
(-0.00212863884575 7.21679098706e-05 -0.000346736666685)
(-0.0013900394492 0.000105063840714 -0.000193405732671)
(-0.00100359185794 9.35903830974e-05 -0.000108977581152)
(-0.000795264234083 7.29047545861e-05 -6.445509397e-05)
(-0.000675694414068 5.32016248632e-05 -4.03881538736e-05)
(-0.000599395109879 3.81347875248e-05 -2.83310815236e-05)
(-0.000542499835699 2.72289097383e-05 -2.25083719001e-05)
(-0.000492030181952 1.94954844233e-05 -2.02576083758e-05)
(-0.000440332915457 1.42861144232e-05 -2.02015963911e-05)
(-0.000383513155609 1.12842271911e-05 -2.11144499149e-05)
(-0.00032137045538 1.00044226511e-05 -2.19877332148e-05)
(-0.000255444019481 9.74051982072e-06 -2.25463075972e-05)
(-0.000187086982053 1.04029761666e-05 -2.31342155937e-05)
(-0.000118352476718 1.16822186723e-05 -2.31233549025e-05)
(-5.35801557879e-05 1.33566510932e-05 -2.172617267e-05)
(4.60504082313e-06 1.51566391692e-05 -2.05625697638e-05)
(5.63076165528e-05 1.67871490235e-05 -1.99051367293e-05)
(0.000103098243399 1.76642206189e-05 -1.91565928476e-05)
(0.000145188470581 1.76497840834e-05 -1.70219424478e-05)
(0.000176877770601 1.69516431539e-05 -1.30070106388e-05)
(0.00019381356096 1.59716435439e-05 -8.36140758692e-06)
(0.00019611895707 1.4542039556e-05 -4.08672782898e-06)