/*--------------------------------*- C++ -*----------------------------------*\
| =========                 |                                                 |
| \\      /  F ield         | OpenFOAM: The Open Source CFD Toolbox           |
|  \\    /   O peration     | Version:  3.0.1                                 |
|   \\  /    A nd           | Web:      www.OpenFOAM.org                      |
|    \\/     M anipulation  |                                                 |
\*---------------------------------------------------------------------------*/
FoamFile
{
    version     2.0;
    format      ascii;
    class       volVectorField;
    location    "7.5";
    object      ddt0(rho,U);
}
// * * * * * * * * * * * * * * * * * * * * * * * * * * * * * * * * * * * * * //

dimensions      [1 -2 -2 0 0 0 0];

internalField   nonuniform List<vector> 
7968
(
(0.0528211245168 0.037018046403 -0.0326424230896)
(0.209097643858 0.0478667672329 -0.0697016568914)
(0.352869151365 0.0485809321232 -0.0743368159913)
(0.444564670804 0.0352353845653 -0.0405476684227)
(0.506031256245 0.0192839515432 0.00811417776188)
(0.473867539236 0.00604796142014 0.0607553335869)
(0.44979461092 -0.0159135043374 0.0838902221666)
(0.412328592202 -0.0305492273478 0.109655141266)
(0.347940132891 -0.0330608609152 0.127674032913)
(0.271710039969 -0.0312594975138 0.134981148205)
(0.190246067915 -0.0281348983498 0.136805328039)
(0.10033438074 -0.0239774128583 0.133082202771)
(0.00522063765071 -0.0165710239491 0.119348835241)
(-0.0781493136893 0.000213954258433 0.0974786469157)
(-0.149959499836 0.0142416501814 0.0707878320294)
(-0.237610531128 0.0415321948038 0.0315516107949)
(-0.246925470315 0.0492847566359 -0.0212341014326)
(-0.217985191066 0.0618439743521 -0.0547114085408)
(-0.135853429955 0.0589020984575 -0.051887414831)
(-0.0296827601798 0.0425790703392 -0.0167925054624)
(0.0662784399354 0.158753399563 -0.0665635833531)
(0.275382762273 0.220626650079 -0.184781346048)
(0.402469282353 0.23686649613 -0.179299124216)
(0.466544388324 0.207951373513 -0.122416705527)
(0.48188466108 0.145480197054 -0.0383109578862)
(0.434971010342 0.0619002350253 0.0466752034104)
(0.400544598438 -0.0439367420329 0.109014918005)
(0.363420139258 -0.124515595817 0.166747552642)
(0.315707813798 -0.17043647457 0.210408086652)
(0.265551246686 -0.187859809455 0.232727572563)
(0.212167024572 -0.183802867972 0.236651121921)
(0.148074146458 -0.159000169339 0.222259932018)
(0.0704612554524 -0.106988532144 0.186235719298)
(-0.011684136678 -0.0232803830769 0.134122494101)
(-0.0953282510994 0.0823773307927 0.074246977284)
(-0.202195817088 0.175576909492 -0.00289465677442)
(-0.255304863308 0.237527291977 -0.0874784497016)
(-0.260237556264 0.26535948154 -0.146229380887)
(-0.199447172802 0.245425452494 -0.158850046834)
(-0.0428096231128 0.176140486843 -0.0528179083162)
(0.0680495550718 0.262471074237 -0.0704331425408)
(0.294041527894 0.305790591118 -0.177300837384)
(0.385056864359 0.285180628151 -0.127778688324)
(0.408963388745 0.196463246759 -0.0399616498758)
(0.383838784224 0.0606395713912 0.0529299162636)
(0.324254970066 -0.109091330683 0.131317326584)
(0.291287288855 -0.294341214144 0.184194079147)
(0.274353224343 -0.440137594439 0.230008279699)
(0.260316047744 -0.532614427429 0.267267887843)
(0.249649976633 -0.57468775691 0.288012229339)
(0.236640438829 -0.568583948613 0.292171565977)
(0.21160288569 -0.515746134739 0.279587789569)
(0.166586218462 -0.412784553318 0.249261545643)
(0.103619031188 -0.262254815453 0.20902865973)
(0.0196806506829 -0.0752480844634 0.161185261708)
(-0.100349279354 0.102659605119 0.0907286266216)
(-0.194147362971 0.236800727432 0.000537815707613)
(-0.240178757755 0.322842251348 -0.089244171976)
(-0.216634227139 0.339358826163 -0.147704619679)
(-0.0446908797936 0.289372332046 -0.0561373979765)
(0.0554505293857 0.315239898404 -0.0382196585898)
(0.266018439157 0.327781682901 -0.120677929713)
(0.297885561936 0.26687692436 -0.0409158677552)
(0.257820346888 0.113586446794 0.0412222642022)
(0.182403249222 -0.101724137763 0.115636234548)
(0.108442538299 -0.353628003666 0.154702856037)
(0.0885294501125 -0.606900700167 0.160536884479)
(0.113860612219 -0.80551623586 0.168379836892)
(0.160168732281 -0.928909236241 0.176515133052)
(0.217282055956 -0.984565034222 0.187450866536)
(0.27560333645 -0.976733954582 0.191887674004)
(0.319879414777 -0.906484366884 0.192027280418)
(0.335211012065 -0.770924619057 0.187728911889)
(0.311313200431 -0.567572174415 0.185577520512)
(0.237785218554 -0.31274883344 0.186611531442)
(0.10323374177 -0.0531577470235 0.156505087098)
(-0.041997570697 0.160839827091 0.0848512460295)
(-0.152366934507 0.310509403923 0.00077049328131)
(-0.18808738276 0.367783896066 -0.0890677635676)
(-0.0316142231877 0.348731387229 -0.0232973286864)
(0.042806553883 0.337855286816 0.0113186080679)
(0.203294556899 0.304403376436 -0.0386452486531)
(0.162126203164 0.202768747939 0.0490929298491)
(0.0423234157529 -0.00224097361599 0.111864191419)
(-0.0811864902622 -0.266789613199 0.138614178108)
(-0.170028632919 -0.571232576148 0.121999732617)
(-0.162211777821 -0.86536697759 0.086191193939)
(-0.0842382293763 -1.09704962358 0.0609012040663)
(0.0398340864715 -1.24208723128 0.0487846716176)
(0.18211709758 -1.30355465249 0.0450888734438)
(0.323650602037 -1.29303489958 0.0494183886194)
(0.449443212314 -1.212047535 0.0625904276814)
(0.538484516093 -1.05525567322 0.0829400822342)
(0.565870310288 -0.81934292452 0.114410565608)
(0.518845525 -0.524467346987 0.157832573268)
(0.367809364695 -0.212862785991 0.182939221429)
(0.172052394347 0.0496883075677 0.159806055578)
(-0.018465894172 0.249303064034 0.0932695678546)
(-0.126878097607 0.347100896719 -0.00445529344553)
(-0.0193568071289 0.373817845205 0.0280265671124)
(0.0241296353001 0.275811978785 0.0579493544341)
(0.114403658721 0.225853058362 0.0425970449773)
(-0.0135797329071 0.110742771689 0.123315022231)
(-0.215536023817 -0.111082911669 0.146042741558)
(-0.388969727874 -0.390420459252 0.116281317139)
(-0.485646608589 -0.702691756303 0.0324840485462)
(-0.442991999259 -0.987527988269 -0.0602631820737)
(-0.297762102244 -1.20399630095 -0.12445248418)
(-0.0875294812049 -1.33483680338 -0.156266504947)
(0.144551917009 -1.38722719321 -0.16666664508)
(0.374027327015 -1.37490532245 -0.161186686217)
(0.587304832274 -1.30176400367 -0.139119343797)
(0.758763517974 -1.155412822 -0.096905813772)
(0.848884272987 -0.932043616716 -0.0268464665331)
(0.833451213127 -0.648156606179 0.0691929086657)
(0.676216327482 -0.332645656222 0.163585591133)
(0.425618581712 -0.0558994545315 0.194521414777)
(0.153373204284 0.156661350056 0.168160247915)
(-0.0399217714249 0.266009465691 0.0774700826132)
(0.000245409921091 0.309491290425 0.0741462811812)
(0.00572660482274 0.227900665953 0.0818305648496)
(0.00734869677533 0.167581961198 0.103327912944)
(-0.203679280701 0.0536124984981 0.173566384202)
(-0.473391666465 -0.155183775158 0.144195643678)
(-0.683581977204 -0.411492359742 0.075749620114)
(-0.771230753196 -0.692792915756 -0.0635597607109)
(-0.688477483069 -0.941158557063 -0.192689472891)
(-0.478269615686 -1.13122445515 -0.27978755513)
(-0.189798903601 -1.24226419851 -0.322998416983)
(0.118365908766 -1.28434429046 -0.333063030217)
(0.417093576883 -1.27054679038 -0.325667835862)
(0.703645289767 -1.20458800178 -0.302240633863)
(0.950755544365 -1.07780994876 -0.246020919217)
(1.09859772925 -0.879245938813 -0.151075250295)
(1.11672821028 -0.632686004392 -0.0211670840859)
(0.967988531907 -0.351855580001 0.125697842044)
(0.67477135885 -0.104726695361 0.197788087126)
(0.335699056027 0.0949986470534 0.218397771059)
(0.0631913726986 0.202995466352 0.137848168809)
(0.0171783624213 0.25776421463 0.0986591906641)
(-0.0104308766794 0.169345161314 0.104596361147)
(-0.0745754007952 0.110306816371 0.157053385965)
(-0.351907435593 0.016683998652 0.216345129744)
(-0.679346656514 -0.14942003416 0.150717051798)
(-0.923815152536 -0.358080801602 0.0434030575701)
(-0.994695000314 -0.577004971278 -0.135247107457)
(-0.881157905002 -0.764832888387 -0.289488106593)
(-0.614125819494 -0.904334882835 -0.397241040159)
(-0.268958334303 -0.997738236193 -0.424753683152)
(0.0945068499997 -1.03984197788 -0.407471014757)
(0.458941212619 -1.0236153098 -0.409648958357)
(0.806961869162 -0.974577458224 -0.368707583437)
(1.09849121534 -0.852758932746 -0.354747457007)
(1.29648435954 -0.705952328781 -0.235876663727)
(1.33580902684 -0.519518677316 -0.0818462580218)
(1.19717951912 -0.303444003463 0.103525361436)
(0.869125259784 -0.109530408189 0.206332018635)
(0.479137575217 0.0499613300109 0.261820431147)
(0.142168162534 0.13818849748 0.192118171987)
(0.0315645928317 0.192699782433 0.121476635089)
(-0.0162851066022 0.0937630238848 0.119960965384)
(-0.124231135755 0.0520417158376 0.195735877675)
(-0.451424076895 -0.00925042107445 0.249339791883)
(-0.813828457275 -0.117072937777 0.153321320788)
(-1.08082039325 -0.247687353074 0.0225397349875)
(-1.1370918517 -0.382673962221 -0.178296917822)
(-1.00107813542 -0.494601533488 -0.345571179111)
(-0.710681096478 -0.58025967838 -0.440246160594)
(-0.334003195708 -0.644404319888 -0.476145187021)
(0.0734327043978 -0.665289976999 -0.515173969803)
(0.4859593059 -0.655905654989 -0.513398038656)
(0.873566591205 -0.622455771104 -0.468306667727)
(1.21389822 -0.549497632412 -0.372219905356)
(1.42004360847 -0.45147524314 -0.27978831257)
(1.4742070025 -0.341092589841 -0.112521247971)
(1.34420122598 -0.208186805621 0.0939698257968)
(0.994004061458 -0.0878904055567 0.217672509166)
(0.571938351053 0.0131469217256 0.296054708626)
(0.188218116469 0.0698451959755 0.231292179789)
(0.0350005298231 0.108252142154 0.136479567046)
(-0.0181944422566 0.0169415421243 0.124950893424)
(-0.146560327293 0.00191340804394 0.213240863615)
(-0.502648375187 -0.0201160247459 0.265294843178)
(-0.879523057578 -0.0589591996313 0.1568167794)
(-1.15497258656 -0.103757999894 0.0100550749399)
(-1.20386457036 -0.14983568392 -0.197731069459)
(-1.05531138491 -0.187127182169 -0.366409018283)
(-0.773791618238 -0.221200851483 -0.407257717217)
(-0.363610658311 -0.241576540711 -0.520821181554)
(0.0642561799767 -0.249224439395 -0.558985555452)
(0.493260008451 -0.246737114713 -0.553846265161)
(0.900717455783 -0.237327587639 -0.511235559813)
(1.2552777357 -0.208756655078 -0.41019306862)
(1.47889076387 -0.173259150749 -0.293671891475)
(1.53750614976 -0.137069567218 -0.125607894005)
(1.41486800091 -0.0914500611993 0.0884436111912)
(1.05470760544 -0.0493320358717 0.222827047301)
(0.616912374973 -0.0136581288155 0.312528274395)
(0.207954193547 0.00661084977765 0.249130095622)
(0.0354120665852 0.0204711136092 0.141510521131)
(-0.0184836215525 -0.0572402300712 0.124610416692)
(-0.147310003659 -0.043165094229 0.212932390254)
(-0.503992449456 -0.0235506880812 0.264834918681)
(-0.881236601793 0.0116014078607 0.156111761439)
(-1.15694301639 0.0514414857236 0.00913715933754)
(-1.20580495484 0.0931406061263 -0.198728490244)
(-1.05721645 0.126551510008 -0.367445638207)
(-0.775931633299 0.157002945057 -0.407714293185)
(-0.365331743184 0.174848127032 -0.521866979299)
(0.0629934566105 0.179486851156 -0.560120076349)
(0.492616210909 0.175109108237 -0.555128115763)
(0.901014238858 0.16523964691 -0.512689402953)
(1.25665079747 0.13747097944 -0.411309182906)
(1.48060198787 0.104132448979 -0.295454955522)
(1.53964927544 0.0717644360967 -0.127032695734)
(1.41719539754 0.0307803254507 0.0873164903885)
(1.05698271587 -0.00548623838743 0.222213779509)
(0.618833887486 -0.0364020705067 0.312279849039)
(0.20912853592 -0.0532130013584 0.249103824428)
(0.0358409839764 -0.0659613094096 0.141259628535)
(-0.0171123519243 -0.131808554647 0.119170610545)
(-0.126471243147 -0.0908242533564 0.195055177263)
(-0.45536142089 -0.0313969913681 0.248259588746)
(-0.81922609415 0.0733363968263 0.151730091401)
(-1.08703244314 0.198820088773 0.0199341385994)
(-1.14304015417 0.329247998354 -0.181380627382)
(-1.00675370057 0.437111132462 -0.34876233064)
(-0.716388943235 0.519228393565 -0.442769933999)
(-0.339204096463 0.581161001115 -0.478541980085)
(0.0695672480704 0.59877280125 -0.518653498087)
(0.484127606718 0.587752783563 -0.517357370461)
(0.874494842548 0.554179597028 -0.472378946302)
(1.21819974139 0.482544842404 -0.374606979299)
(1.42507482557 0.386444379296 -0.284814980909)
(1.48052922318 0.279679871129 -0.116781219233)
(1.35115547494 0.15111224831 0.0905931965057)
(1.00080240213 0.0360804336995 0.215725218167)
(0.577614638942 -0.0605404517898 0.295258299432)
(0.191738098873 -0.114228061776 0.231180707638)
(0.03625993212 -0.151580832432 0.135940037311)
(-0.0116337924109 -0.203885415705 0.103450048533)
(-0.0780488852347 -0.144857539133 0.15608875791)
(-0.357598409689 -0.0520585701399 0.214922832808)
(-0.68833806404 0.112527838228 0.148521504247)
(-0.934808539656 0.315799998287 0.0394652014784)
(-1.00513070032 0.530296560291 -0.140213979673)
(-0.89101778632 0.714086606147 -0.294857514218)
(-0.623123787226 0.849810311219 -0.403541805993)
(-0.277787271131 0.941550673431 -0.428177288419)
(0.0883730025035 0.980841838976 -0.413327802773)
(0.456513801183 0.963679353274 -0.416314139388)
(0.809294570275 0.915457981775 -0.373842744017)
(1.10372604932 0.793670208595 -0.363803604084)
(1.30487286098 0.649397293421 -0.243853910072)
(1.34607034607 0.466088821809 -0.0886841703464)
(1.20852754072 0.253713118699 0.0982238618525)
(0.88023575559 0.0640177727907 0.203189512879)
(0.488035287474 -0.0918731961472 0.260463544155)
(0.147966988188 -0.178155043105 0.191817084586)
(0.0335361316604 -0.232288339625 0.120776780029)
(0.00432590198273 -0.257444560259 0.0799009685035)
(0.00332177565599 -0.196748101048 0.102180960413)
(-0.210131944058 -0.0836418781535 0.172307876874)
(-0.485540668085 0.12307872468 0.146019114056)
(-0.699717552786 0.376667210896 0.0715716031471)
(-0.786048395196 0.655128181297 -0.0695161335033)
(-0.702157915609 0.900488545416 -0.199549578946)
(-0.490710625054 1.08771116561 -0.2876543127)
(-0.199908457682 1.19631581619 -0.33230076792)
(0.111525421096 1.23703885546 -0.343338875989)
(0.414353293901 1.22292986052 -0.336867989049)
(0.705780267601 1.15749643883 -0.313663672146)
(0.957784993564 1.03191877328 -0.256926696653)
(1.10962257185 0.835052082442 -0.160955396572)
(1.13033809664 0.590677373444 -0.0296295006907)
(0.98306352631 0.312469892306 0.119242525097)
(0.689481290997 0.0679639210034 0.193787411362)
(0.347503200553 -0.129621557706 0.216795508231)
(0.0706303548854 -0.236804918735 0.137498842386)
(0.0197323100769 -0.292017471699 0.0976579311413)
(0.0225713289701 -0.299393846999 0.0555183031035)
(0.108997626401 -0.248917810811 0.0418223869542)
(-0.0231826373637 -0.134414151641 0.122168048463)
(-0.230094177479 0.0848918892839 0.143557923286)
(-0.406409861716 0.364171045822 0.112208762541)
(-0.502704569981 0.675001179059 0.0266065473243)
(-0.45918178145 0.95805711762 -0.0674315660031)
(-0.312492705833 1.17241123297 -0.132612042854)
(-0.0993538511616 1.30159530722 -0.165415738626)
(0.13694994368 1.35352597142 -0.177016613656)
(0.371454609854 1.34131117452 -0.172268261716)
(0.590240008675 1.26871361055 -0.15020518743)
(0.76701390141 1.12305732275 -0.107575763705)
(0.861533843462 0.900850221209 -0.0366781931851)
(0.849220967935 0.618545988882 0.0608407456242)
(0.693869629687 0.304620463767 0.157199049372)
(0.442675004815 0.0291307669251 0.190541187673)
(0.166998210136 -0.18282935373 0.166793858813)
(-0.031403741058 -0.292760932134 0.0771545106671)
(0.00293652640125 -0.337535960706 0.072418771248)
(0.04212136881 -0.355285816744 0.0103001817559)
(0.198074051822 -0.321018131267 -0.0382387943495)
(0.151738731425 -0.218942081951 0.0492015549483)
(0.0268414470031 -0.0141660830164 0.110454520975)
(-0.0995653014081 0.25062931105 0.135297264382)
(-0.189014496981 0.554811566677 0.117529321097)
(-0.180794623982 0.848014299048 0.0793866590976)
(-0.101743150637 1.07789018907 0.0527895674908)
(0.0262104413302 1.22016717155 0.0395674093832)
(0.174183595803 1.2828885617 0.0337450101812)
(0.321824485352 1.27281058959 0.0372884979124)
(0.453844921371 1.19246826442 0.0510216412143)
(0.548538204736 1.03615949534 0.0725338626529)
(0.580582691554 0.801152239243 0.105244017243)
(0.536527269312 0.507395723986 0.150521632336)
(0.386702882423 0.196192751621 0.177709888645)
(0.189901546247 -0.0665577976001 0.157366620797)
(-0.00490246610678 -0.267086558857 0.093131793233)
(-0.119117941876 -0.366460893161 -0.00348928870537)
(-0.0180088289832 -0.395161113323 0.0275421807791)
(0.0543333206641 -0.328628769965 -0.0390878928902)
(0.261231471534 -0.339283094924 -0.119964481687)
(0.287701709751 -0.27706256598 -0.0395761381435)
(0.242480661938 -0.122703112971 0.0412716566277)
(0.164188695252 0.0935954990562 0.114322597437)
(0.0894423512159 0.345981711727 0.151138481893)
(0.0693904209713 0.599000220325 0.155604444434)
(0.0943181106336 0.79752607308 0.163355199866)
(0.146528312511 0.92132010259 0.174572014796)
(0.211317365514 0.977064576955 0.180924264836)
(0.274319860026 0.969323855099 0.183944001159)
(0.324343382513 0.899156218436 0.183667000338)
(0.345056973753 0.763448096991 0.180035036761)
(0.325949700639 0.560317735899 0.178745903885)
(0.255564351686 0.30566605813 0.181454264293)
(0.121870801012 0.0456281670138 0.153869740722)
(-0.0248633308133 -0.169772773441 0.0840328039863)
(-0.139811898469 -0.321566648618 0.00177384271799)
(-0.181439282736 -0.381279430138 -0.0879404886582)
(-0.0300883875685 -0.36536784974 -0.024612268437)
(0.0671863681075 -0.271564595301 -0.0711663391913)
(0.28994967508 -0.313429881976 -0.175878563926)
(0.375652743278 -0.291334109138 -0.125487532941)
(0.394517842711 -0.201021530745 -0.0384207166423)
(0.366328164262 -0.0637419096482 0.0533698212609)
(0.305540724943 0.107071151419 0.130425944595)
(0.272788301729 0.292500857096 0.182147497611)
(0.257200235436 0.439225180364 0.227135798122)
(0.247254298125 0.533907645666 0.263990922482)
(0.242129490028 0.574458355867 0.283383833855)
(0.234835715337 0.568194331678 0.286828945578)
(0.215841033408 0.515467570723 0.274123771209)
(0.17649107712 0.41288514591 0.244327506462)
(0.117794572112 0.26244910291 0.205256279098)
(0.0365211093792 0.0750404947496 0.158952611168)
(-0.0830000496833 -0.104401257675 0.0900567220126)
(-0.178775404639 -0.24054723587 0.00131153709402)
(-0.229281662322 -0.329019279568 -0.087253493932)
(-0.211353176121 -0.347871847376 -0.146476031535)
(-0.0436517599012 -0.300082560654 -0.0578456438278)
(0.065260863375 -0.164520482122 -0.0671742474898)
(0.271486327509 -0.226055980195 -0.18365032171)
(0.393738278376 -0.24118349664 -0.177309054141)
(0.453301091242 -0.210757386266 -0.120764388171)
(0.465745412702 -0.146948635045 -0.0370873392832)
(0.417256204603 -0.0623516721151 0.0474315242857)
(0.382885976557 0.0437625652164 0.108756856059)
(0.34741537748 0.125077467853 0.16528141299)
(0.303390928847 0.171855989331 0.208182516955)
(0.258228950292 0.189357983103 0.229810713567)
(0.21049500865 0.185498158439 0.233468875313)
(0.152265540236 0.160963115208 0.219239646805)
(0.0799103820565 0.109146234397 0.183903361404)
(0.00139790920792 0.0252923197573 0.132865199245)
(-0.0803806330835 -0.0806516853801 0.0739881349563)
(-0.187059324459 -0.175334265377 -0.00231130615286)
(-0.242071359556 -0.238987533138 -0.0861352712907)
(-0.250821746766 -0.268765643075 -0.144593205864)
(-0.194770861195 -0.250177568984 -0.158087967213)
(-0.0415801200229 -0.181609465751 -0.0540844502287)
(0.0506675823084 -0.0392024020835 -0.0327327144569)
(0.203917328748 -0.050464757535 -0.0699429676014)
(0.343731310402 -0.0508845519263 -0.0742953467074)
(0.431507190909 -0.0368843900657 -0.0404719731624)
(0.490110494669 -0.0203409788184 0.00796409986015)
(0.456870377092 -0.0064318267542 0.0600136774625)
(0.432950784057 0.0156919425435 0.0826673015261)
(0.397278488824 0.0308794289378 0.107859688227)
(0.336321157783 0.0338386465108 0.125433142601)
(0.26466558191 0.0322152669233 0.132246864938)
(0.188561758178 0.0292147292213 0.133811198937)
(0.104190803629 0.0251602729929 0.130218921823)
(0.0139911439634 0.0177155878683 0.117028236892)
(-0.0659834056909 0.000751835542072 0.09596014281)
(-0.136257140253 -0.0132766478005 0.0696872844547)
(-0.223421478471 -0.0417584205042 0.0315779545991)
(-0.23476845838 -0.0500013928681 -0.0211884166801)
(-0.20857430653 -0.0632104371618 -0.0544324627727)
(-0.130011193153 -0.0603518998416 -0.0513529204121)
(-0.0272128964641 -0.0436500081764 -0.0158367110825)
(0.107164050589 0.0924823540129 -0.403695483257)
(0.338261826896 0.174142856161 -0.486383497725)
(0.430995544539 0.209448915482 -0.437280002225)
(0.444334571858 0.211340085586 -0.33306301384)
(0.406487088519 0.193933661772 -0.189220976058)
(0.343564511246 0.14015389787 -0.0581963274201)
(0.302347814302 0.0846591848714 0.0461705994471)
(0.276148767818 0.0276904950881 0.141947293836)
(0.256129581227 -0.0118007015991 0.208780579252)
(0.243655409758 -0.0302593287409 0.238952557826)
(0.23147868932 -0.0290643554998 0.245671474939)
(0.204077330872 -0.00884263540261 0.229570284494)
(0.152575721262 0.0320266867305 0.178209820841)
(0.0802271905045 0.0892982449306 0.0943887970305)
(-0.0124320808191 0.142908845001 -0.0056725642483)
(-0.128198242794 0.205226636112 -0.124474588562)
(-0.235759547524 0.222386417642 -0.267320320786)
(-0.287677121848 0.221162574157 -0.373175399189)
(-0.260077156373 0.184317118272 -0.42593870363)
(-0.0852870552033 0.096396131533 -0.35076302008)
(0.198596114158 0.2867827328 -0.483276860208)
(0.404568444923 0.33598075212 -0.40635885495)
(0.425378811157 0.349565320672 -0.2482649972)
(0.386091359468 0.302323422784 -0.094862855808)
(0.323577064528 0.229796870879 0.0614324919208)
(0.258539825862 0.125569984664 0.194998434673)
(0.218170411752 0.006451636131 0.298257646515)
(0.205148158149 -0.0982425164043 0.380849401494)
(0.212819739698 -0.169016766094 0.441866255015)
(0.231428055662 -0.200180825776 0.475389657187)
(0.248427164176 -0.195512397317 0.483281772467)
(0.250640561025 -0.156299048509 0.465475555774)
(0.227292743379 -0.0807817704154 0.418909392121)
(0.171424105645 0.025553536319 0.347869390389)
(0.0814733742806 0.144759440094 0.254586558244)
(-0.0374868696507 0.253201686968 0.132044500745)
(-0.159009246698 0.328017319899 -0.0184947046929)
(-0.259517423732 0.375906944514 -0.170978001956)
(-0.3018028281 0.360879985318 -0.332837624682)
(-0.162585862261 0.302072307379 -0.424405901213)
(0.238267659921 0.335046424805 -0.435022744689)
(0.424496715351 0.314418868379 -0.249696228353)
(0.414791265329 0.297928512762 -0.0248554750305)
(0.333631995284 0.219552928174 0.164755937571)
(0.236712841589 0.0851800178531 0.311614027727)
(0.159771163225 -0.0844053345746 0.419027702023)
(0.125062459675 -0.264671454782 0.487605788264)
(0.132630780741 -0.407784704622 0.537810192474)
(0.168648227131 -0.502607769611 0.57928503712)
(0.218283717081 -0.54375286345 0.606063806684)
(0.265849140416 -0.535399586271 0.6158074746)
(0.296921868096 -0.478283941422 0.607727979994)
(0.299680647131 -0.374475858053 0.581546829957)
(0.264129329926 -0.225619442271 0.542524967552)
(0.180136290269 -0.0460520783803 0.484976166273)
(0.0503654256997 0.124799029826 0.38836934117)
(-0.1014137964 0.258967527168 0.248741721987)
(-0.240414249542 0.336801897271 0.0612269281187)
(-0.311383177572 0.351673723278 -0.16811874232)
(-0.194896255231 0.365930867847 -0.369581078105)
(0.241719029285 0.30591521726 -0.335213440251)
(0.38013240791 0.235469478766 -0.100001884571)
(0.338682582665 0.179804227343 0.160543841315)
(0.204268434286 0.0495137871521 0.330661736831)
(0.0642164199468 -0.147037488105 0.419857951536)
(-0.0398909671563 -0.381635852695 0.452797135725)
(-0.0582494622727 -0.609539455323 0.446244287396)
(-0.00537802021681 -0.795891579544 0.427534548562)
(0.085163098589 -0.915999477592 0.426789585482)
(0.193709450711 -0.967755372682 0.434289248895)
(0.296025961459 -0.957738211992 0.444681958742)
(0.382966927045 -0.887168017996 0.457862044412)
(0.439056721212 -0.75379031592 0.476023934583)
(0.446277000206 -0.561590972696 0.506010354657)
(0.375485487692 -0.331949931363 0.526701586821)
(0.221243182468 -0.0976793772993 0.501694709862)
(0.028243939113 0.096805452175 0.419677544569)
(-0.16093335957 0.225484710287 0.251258648706)
(-0.262101628352 0.280688089151 -0.0124870742951)
(-0.195061904024 0.34679019584 -0.261541611885)
(0.226472266544 0.226656787824 -0.196245033652)
(0.306382720877 0.137474899432 0.0491889837915)
(0.204384004571 0.0503131654812 0.301501742152)
(0.00722972663133 -0.122448181843 0.414759959796)
(-0.178194067586 -0.363573926977 0.412346020237)
(-0.277547016056 -0.624642907168 0.328451321753)
(-0.266750367825 -0.864237404378 0.211568886259)
(-0.163786389346 -1.06122905274 0.11756658151)
(-0.00735699292652 -1.18329887282 0.0706343155316)
(0.164979579685 -1.2363396576 0.0581046065923)
(0.331938090307 -1.2245223529 0.0678566595657)
(0.483171061272 -1.15006198135 0.101510005371)
(0.599892589132 -1.00955188801 0.167410782214)
(0.653251874209 -0.806741773032 0.273241662632)
(0.611851380542 -0.565306461345 0.40134950955)
(0.460257484094 -0.307167223095 0.496454813695)
(0.222802560478 -0.0696999625867 0.505733065532)
(-0.0278871985047 0.0999219796721 0.395688621419)
(-0.190081971451 0.186235313127 0.141985668902)
(-0.176665329103 0.272308828344 -0.115859476243)
(0.168555683781 0.133047072184 -0.074457102937)
(0.200059117027 0.0428572877572 0.175477455231)
(0.0320914321403 -0.0559800519266 0.403892222032)
(-0.229816038037 -0.262495809236 0.443639972496)
(-0.44109506914 -0.493455588187 0.324304931445)
(-0.532028367672 -0.746658589592 0.114968818296)
(-0.482688589108 -0.978718487038 -0.105822058859)
(-0.319726208391 -1.157184987 -0.266068169515)
(-0.0964088023386 -1.26683000421 -0.347067472242)
(0.140793048363 -1.31168361411 -0.37222304573)
(0.371459757115 -1.29721705626 -0.36161894832)
(0.586520303127 -1.22597569728 -0.31312038516)
(0.765496984551 -1.09471429763 -0.209512633188)
(0.870043458177 -0.904963611789 -0.0374147870228)
(0.860820372736 -0.674577111717 0.189481898425)
(0.717194306578 -0.428823025728 0.407901057907)
(0.454082388535 -0.196773810907 0.537149410691)
(0.138923105398 -0.00484840952424 0.497873403463)
(-0.0860329619045 0.0914161038285 0.270301817399)
(-0.118954236662 0.179785341638 0.00890665694784)
(0.114428291894 0.0659254064374 0.0254107646734)
(0.0799087251751 -0.0220913820471 0.273376490358)
(-0.158809978093 -0.114316068543 0.469560888947)
(-0.463167004334 -0.299452154384 0.439248061458)
(-0.678861820878 -0.511756100635 0.201322533557)
(-0.766581038625 -0.731574005864 -0.11240144707)
(-0.677396191511 -0.928459088911 -0.409321545897)
(-0.458173516163 -1.07801871091 -0.612751255015)
(-0.1742501213 -1.17000708331 -0.712740769639)
(0.122823563975 -1.20476759399 -0.744083899114)
(0.411368470627 -1.18820273796 -0.730819835743)
(0.684657293951 -1.12491944003 -0.671734924684)
(0.920271540731 -1.00993365917 -0.540899611459)
(1.07013103708 -0.845927018898 -0.319408269161)
(1.08871527665 -0.648789984983 -0.0219494961561)
(0.952321400173 -0.440028024425 0.29086012361)
(0.67678104721 -0.242503746612 0.524186523091)
(0.311931158193 -0.0667540219037 0.560990889942)
(0.0291797499129 0.0228035949869 0.367226506209)
(-0.0660715641473 0.109120297671 0.109511099722)
(0.057567174738 0.0194348268593 0.111307840185)
(-0.0256337526603 -0.0540417205272 0.34845201354)
(-0.301605440818 -0.125854820179 0.512295817489)
(-0.659808085074 -0.261523122716 0.402756464065)
(-0.894546032043 -0.434004450184 0.0946013329728)
(-0.955700969552 -0.60045750078 -0.289475310612)
(-0.83173820735 -0.746625047186 -0.632975188869)
(-0.568341977222 -0.861440354931 -0.864179221595)
(-0.236616778835 -0.930553045474 -0.9766858496)
(0.111001150442 -0.94823634579 -1.02513425684)
(0.446318716493 -0.932430497909 -1.00508685289)
(0.765374041223 -0.880718511138 -0.933631411579)
(1.0483775191 -0.796123625737 -0.772608079677)
(1.23296096016 -0.670053073919 -0.513686596733)
(1.27162832912 -0.520850118698 -0.167484443069)
(1.14263158478 -0.364865668175 0.207189103354)
(0.856187782314 -0.216815856262 0.507599599958)
(0.451368591775 -0.0854197571388 0.607471631221)
(0.129341131343 -0.016779721938 0.44285475594)
(-0.0112858007724 0.0543274778609 0.196184678884)
(0.0165098973351 -0.00961141713291 0.169472961833)
(-0.101480567142 -0.0563802437026 0.400086503678)
(-0.405690469602 -0.102916473657 0.541999781866)
(-0.794052879135 -0.191836558177 0.38581132015)
(-1.03392687231 -0.2935550068 0.0287019244889)
(-1.08154631998 -0.394426346291 -0.395851294334)
(-0.937292870116 -0.483052430999 -0.761036157914)
(-0.644657277515 -0.558890719025 -1.01481049549)
(-0.273929216565 -0.598155423005 -1.15074726728)
(0.107187354534 -0.605345385859 -1.1874936822)
(0.474234788509 -0.593090699352 -1.16210477572)
(0.824157182171 -0.560989304049 -1.07743460592)
(1.13374362005 -0.506635434695 -0.904166553616)
(1.34318266794 -0.429641342039 -0.61702449446)
(1.39284367871 -0.338186299922 -0.243618378505)
(1.26801467149 -0.243515669687 0.164978043828)
(0.974461233182 -0.153547552562 0.503844325248)
(0.544800914195 -0.0741744954439 0.643879993509)
(0.197399208758 -0.0317287533848 0.495507962319)
(0.0267666028775 0.0121543124482 0.252245268383)
(-0.00409811370524 -0.0205558602901 0.191635573465)
(-0.139647492185 -0.0371566971907 0.423835927122)
(-0.458154976616 -0.0541302379028 0.556649883588)
(-0.861195584028 -0.0840150467789 0.379227737012)
(-1.10467576853 -0.12001427681 -0.00228991815463)
(-1.14403938467 -0.154459221597 -0.442239758468)
(-0.99090400753 -0.184837169015 -0.815983711889)
(-0.672842895622 -0.21194129796 -1.10747798634)
(-0.285390941447 -0.225666502559 -1.22706872568)
(0.108476492593 -0.227507281226 -1.25596646178)
(0.487635277649 -0.223581708484 -1.22718770139)
(0.85180054417 -0.21298609607 -1.1385203896)
(1.17750240452 -0.194096970752 -0.95462865363)
(1.39640062501 -0.168159145368 -0.657785239824)
(1.4522779063 -0.136886276103 -0.273889482433)
(1.32948273788 -0.104340590917 0.148257567086)
(1.03302782401 -0.0733510773706 0.50403035428)
(0.592379349871 -0.0459275318794 0.663238671725)
(0.230579767463 -0.0302976619238 0.520609827483)