/*--------------------------------*- C++ -*----------------------------------*\
| =========                 |                                                 |
| \\      /  F ield         | OpenFOAM: The Open Source CFD Toolbox           |
|  \\    /   O peration     | Version:  3.0.1                                 |
|   \\  /    A nd           | Web:      www.OpenFOAM.org                      |
|    \\/     M anipulation  |                                                 |
\*---------------------------------------------------------------------------*/
FoamFile
{
    version     2.0;
    format      ascii;
    class       volVectorField;
    location    "7.5";
    object      ddt0(U);
}
// * * * * * * * * * * * * * * * * * * * * * * * * * * * * * * * * * * * * * //

dimensions      [0 1 -2 0 0 0 0];

internalField   nonuniform List<vector> 
7968
(
(5.29160997333e-05 3.70845769724e-05 -3.27009848622e-05)
(0.000209473536179 4.79529823165e-05 -6.9826825082e-05)
(0.000353503395331 4.86685177909e-05 -7.44704068727e-05)
(0.000445363558097 3.52989172709e-05 -4.06204631856e-05)
(0.00050694069073 1.93186573023e-05 8.1289780118e-06)
(0.000474719122749 6.05869343859e-06 6.08649257713e-05)
(0.000450603109858 -1.59424344698e-05 8.40414681988e-05)
(0.000413070048202 -3.0604620203e-05 0.000109852790668)
(0.000348566144418 -3.31208334505e-05 0.000127904140182)
(0.000272199302797 -3.1316235348e-05 0.000135224414731)
(0.000190589116222 -2.81859848615e-05 0.000137051870762)
(0.000100515906574 -2.40209481909e-05 0.000133322029315)
(5.23109157076e-06 -1.66011250284e-05 0.000119563916767)
(-7.8288981332e-05 2.14191007686e-07 9.76543301113e-05)
(-0.000150228665279 1.42672341395e-05 7.09154299687e-05)
(-0.000238037677525 4.16070109793e-05 3.16085355066e-05)
(-0.000247369402995 4.93735735346e-05 -2.12722401377e-05)
(-0.000218377044039 6.19554132233e-05 -5.4809778271e-05)
(-0.000136097665475 5.9008161997e-05 -5.19806423175e-05)
(-2.97361631262e-05 4.26556843276e-05 -1.68226871315e-05)
(6.63978208926e-05 0.000159038664586 -6.66831206274e-05)
(0.000275878399225 0.00022102365068 -0.00018511346627)
(0.000403192759486 0.00023729259989 -0.000179620923652)
(0.000467382674705 0.000208325225187 -0.000122636077347)
(0.000482751514669 0.000145741726604 -3.83794036895e-05)
(0.000435752367487 6.20104833578e-05 4.67601862215e-05)
(0.000401263918366 -4.4017666991e-05 0.00010921229937)
(0.000364073382566 -0.000124741725619 0.000167048834118)
(0.000316275791606 -0.000170745326445 0.000210787965738)
(0.00026602946574 -0.000188199996354 0.000233147617802)
(0.000212549604004 -0.000184135685582 0.000237078205205)
(0.000148341717124 -0.000159288120185 0.000222661032613)
(7.05893127926e-05 -0.000107182522892 0.000186571850105)
(-1.17038202604e-05 -2.33233585458e-05 0.000134364708017)
(-9.54991352109e-05 8.25252619799e-05 7.43810735644e-05)
(-0.000202560641189 0.000175893475632 -2.90009209525e-06)
(-0.000255763839067 0.00023795487301 -8.76355358245e-05)
(-0.000260705637559 0.000265837200886 -0.000146492254572)
(-0.000199806233807 0.000245867312584 -0.000159135904503)
(-4.28867358116e-05 0.00017645742293 -5.2912874746e-05)
(6.81721476099e-05 0.000262943280581 -7.05598784264e-05)
(0.000294570703905 0.000306340057254 -0.000177619155983)
(0.000385748932797 0.000285692742234 -0.000128007514696)
(0.000409697808764 0.000196815187302 -4.00323358427e-05)
(0.000384527732788 6.07464801372e-05 5.30263792808e-05)
(0.000324836267293 -0.000109291007782 0.000131555000294)
(0.000291809566204 -0.000294875133036 0.000184526930336)
(0.000274845800249 -0.000440934242182 0.000230423559081)
(0.000260784109025 -0.000533577629553 0.00026775023027)
(0.000250099514095 -0.000575726631026 0.00028853189979)
(0.000237067153624 -0.000569611628997 0.000292698686317)
(0.000211985013263 -0.000516678290129 0.000280092187666)
(0.000166887630583 -0.000413530805469 0.000249711258666)
(0.000103807380994 -0.000262729626185 0.000209405904025)
(1.97176770576e-05 -7.53853250385e-05 0.000161476235181)
(-0.000100529544203 0.000102844092181 9.08923128566e-05)
(-0.000194496409457 0.000237226743368 5.39187766803e-07)
(-0.000240610584096 0.000323422975621 -8.94042490569e-05)
(-0.000217024150773 0.000339969392361 -0.00014797016287)
(-4.47713586325e-05 0.000289893763021 -5.6238561368e-05)
(5.55504689507e-05 0.000315805875363 -3.82882656306e-05)
(0.000266497128475 0.000328370481593 -0.000120894428416)
(0.00029842049232 0.0002673555949 -4.09884041044e-05)
(0.000258282318504 0.000113788493519 4.12975763311e-05)
(0.000182728843509 -0.000101910707556 0.00011584543705)
(0.000108634729639 -0.000354269255767 0.000154982264189)
(8.86861993295e-05 -0.000607998830689 0.00016082662838)
(0.000114063784157 -0.000806972448645 0.000168683603258)
(0.000160456185041 -0.000930587817269 0.000176833507783)
(0.000217673228804 -0.000986343763631 0.000187788925835)
(0.000276100324386 -0.000978498212472 0.00019223370491)
(0.000320456785917 -0.000908121573975 0.000192373549104)
(0.000335816512719 -0.000772317167033 0.000188067447952)
(0.000311876152925 -0.000568598106266 0.000185912246796)
(0.000238215917084 -0.000313315162246 0.000186948215017)
(0.000103421410697 -5.32552837255e-05 0.000156787512461)
(-4.20720350265e-05 0.000161128394307 8.50045912845e-05)
(-0.000152640663891 0.000311067851235 7.72367112542e-07)
(-0.000188426038404 0.000368445988941 -8.9228011676e-05)
(-3.16711931035e-05 0.000349358543023 -2.33391726623e-05)
(4.28836587752e-05 0.000338461914894 1.13391852915e-05)
(0.000203660027389 0.000304949830796 -3.87139950666e-05)
(0.000162416510551 0.000203132048641 4.91822901306e-05)
(4.239699765e-05 -2.247593992e-06 0.000112066484176)
(-8.13360475303e-05 -0.000267273682318 0.000138864405906)
(-0.000170338488461 -0.00057226612198 0.000122219730697)
(-0.000162507134832 -0.000866931154401 8.63464125139e-05)
(-8.43923064999e-05 -0.00109903165006 6.1010693044e-05)
(3.99045011366e-05 -0.00124433078978 4.88722551784e-05)
(0.000182444845459 -0.00130590894708 4.51697810551e-05)
(0.000324234276952 -0.00129536993996 4.95071158503e-05)
(0.000450254307583 -0.00121423607631 6.27029487852e-05)
(0.000539456632982 -0.00105716109894 8.30893618723e-05)
(0.000566892371873 -0.000820823000915 0.000114616667889)
(0.000519783374862 -0.000525415875105 0.000158117102759)
(0.000368474983585 -0.000213249234113 0.000183269219263)
(0.000172364709703 4.97755812907e-05 0.000160094567554)
(-1.84978568374e-05 0.000249750675145 9.34381988562e-05)
(-0.000127106228015 0.000347725127969 -4.4629162212e-06)
(-1.93916613529e-05 0.000374489927537 2.80771610861e-05)
(2.4173038349e-05 0.000276307904843 5.80538944984e-05)
(0.000114608847517 0.000226258310317 4.26745606223e-05)
(-1.36062408199e-05 0.000110940471448 0.000123538003468)
(-0.000215927123654 -0.000111285236053 0.000146306394828)
(-0.000389673981089 -0.000391126845355 0.000116491005539)
(-0.000486525603924 -0.000703961947146 3.2542322626e-05)
(-0.000443793793123 -0.000989312170553 -6.0372397322e-05)
(-0.000298301356953 -0.00120617100292 -0.000124677596148)
(-8.76888266825e-05 -0.00133724748623 -0.000156549043238)
(0.000144811903495 -0.00138973224435 -0.000166967928942)
(0.000374701880809 -0.00137738789554 -0.000161478045582)
(0.000588364592859 -0.00130411419127 -0.000139370814242)
(0.000760132902543 -0.00115749865627 -9.70810468128e-05)
(0.000850416717643 -0.000933726661844 -2.68952878903e-05)
(0.000834956584468 -0.000649328050855 6.93173702638e-05)
(0.000677438704903 -0.000333248348212 0.000163880496723)
(0.000426388739867 -5.6002864539e-05 0.000194872412883)
(0.000153651346584 0.000156941801047 0.000168463818118)
(-3.99934358419e-05 0.000266488185337 7.76098096671e-05)
(2.45950828035e-07 0.000310047530464 7.42799504349e-05)
(5.7368482554e-06 0.000228310955741 8.1978140037e-05)
(7.3618374567e-06 0.000167883996678 0.000103514294211)
(-0.000204048041628 5.37080343281e-05 0.000173879729114)
(-0.000474247449052 -0.000155465021744 0.000144455828339)
(-0.00068481740536 -0.000412236223558 7.58860810514e-05)
(-0.000772624842101 -0.000694044742731 -6.36748785342e-05)
(-0.00068972218354 -0.000942858678303 -0.000193037750069)
(-0.000479134638093 -0.00113326758945 -0.000280293099982)
(-0.000190142869426 -0.00124450769453 -0.000323581974551)
(0.000118578599256 -0.00128666356238 -0.000333664719102)
(0.00041784582642 -0.00127284090259 -0.000326256106548)
(0.000704914938313 -0.00120676267304 -0.00030278649312)
(0.000952471234145 -0.00107975553239 -0.000246465215591)
(0.00110058050935 -0.000880833352566 -0.000151348221357)
(0.00111874448664 -0.000633829085714 -2.12057168244e-05)
(0.000969737227995 -0.000352492473562 0.000125924263679)
(0.000675991218075 -0.000104917940025 0.000198144876503)
(0.000336306545205 9.51677945355e-05 0.000218791960615)
(6.33060917464e-05 0.000203359946286 0.000138096980904)
(1.7209461479e-05 0.000258227559791 9.88370221683e-05)
(-1.04496565805e-05 0.000169650669696 0.000104784972449)
(-7.47100200648e-05 0.000110505587692 0.00015733665134)
(-0.000352541775815 1.67142126211e-05 0.000216735204455)
(-0.000680573940251 -0.000149690517978 0.000150988956965)
(-0.000925483625007 -0.00035872774728 4.34811299397e-05)
(-0.000996492019927 -0.000578047254969 -0.000135491592445)
(-0.00088275039382 -0.000766214419015 -0.000290011156021)
(-0.000615236280838 -0.000905968365196 -0.000397958734636)
(-0.000269445399089 -0.000999540349656 -0.000425521198262)
(9.46763606944e-05 -0.00104172000769 -0.000408207317421)
(0.000459768986791 -0.00102546383421 -0.000410389057856)
(0.000808418053283 -0.000976337088203 -0.000369373684453)
(0.00110047362982 -0.000854298451204 -0.000355388068753)
(0.00129882422466 -0.000707226878985 -0.000236302704556)
(0.00133822067022 -0.000520457233376 -8.19944492776e-05)
(0.00119934152485 -0.000303992921453 0.000103711703244)
(0.000870695606759 -0.000109729644265 0.000206704129437)
(0.000480003707555 5.00498803885e-05 0.000262292826604)
(0.000142425462367 0.000138436393818 0.000192464848932)
(3.16216649268e-05 0.000193046204825 0.000121695584166)
(-1.63145148996e-05 9.39319962433e-05 0.000120177284341)
(-0.000124455183122 5.21355436021e-05 0.000196088848121)
(-0.000452238030715 -9.26707846266e-06 0.000249789397843)
(-0.000815294494135 -0.000117283643765 0.000153597725865)
(-0.0010827720045 -0.000248134727211 2.25801618947e-05)
(-0.00113914561409 -0.000383365067381 -0.000178619060395)
(-0.00100288714869 -0.000495494910135 -0.000346195491482)
(-0.000711966166914 -0.000581307910929 -0.000441041742775)
(-0.000334607999745 -0.000645568472743 -0.000477005649201)
(7.35640195818e-05 -0.000666491847635 -0.000516104788605)
(0.000486835892952 -0.000657090431127 -0.000514325511151)
(0.000875143209813 -0.000623579883797 -0.000469152595972)
(0.00121608915513 -0.000550489815652 -0.000372892318923)
(0.00142260677292 -0.000452290480273 -0.000280293731022)
(0.00147686900471 -0.000341708948983 -0.000112724943493)
(0.00134662843606 -0.000208563268879 9.41388858634e-05)
(0.000995799584673 -8.80499130991e-05 0.000218065026755)
(0.00057297165822 1.31697709854e-05 0.000296588748527)
(0.000188558356534 6.99704492506e-05 0.000231709402558)
(3.50638535026e-05 0.000108446650024 0.000136725564256)
(-1.82272262105e-05 1.69721122175e-05 0.000125176210971)
(-0.000146824558961 1.91686860321e-06 0.000213625370291)
(-0.000503554698212 -2.01522905497e-05 0.000265773221635)
(-0.000881108789395 -5.90654937736e-05 0.000157099545779)
(-0.00115705869985 -0.000103945416427 1.00729289025e-05)
(-0.00120603850194 -0.000150106195239 -0.00019808821263)
(-0.00105721825747 -0.000187465115095 -0.000367070934316)
(-0.000775190691402 -0.00022160037801 -0.000407993876295)
(-0.000364269094113 -0.000242012921232 -0.000521762322874)
(6.43708246102e-05 -0.000249674649996 -0.000559995567727)
(0.00049414983503 -0.000247182792148 -0.000554846893736)
(0.000902343291083 -0.000237756172734 -0.000512159081808)
(0.00125754366133 -0.0002091335891 -0.000410934090791)
(0.00148156043285 -0.000173571998248 -0.000294202485775)
(0.0015402825517 -0.000137317187303 -0.000125835247299)
(0.00141742338946 -9.16153834746e-05 8.86026325806e-05)
(0.0010566128508 -4.94213506182e-05 0.000223228859264)
(0.000618026829256 -1.36830418384e-05 0.000313092004164)
(0.000208330007736 6.62255284417e-06 0.000249579453173)
(3.54761583317e-05 2.05077945979e-05 0.000141765599442)
(-1.85169602181e-05 -5.73434424038e-05 0.000124835120076)
(-0.000147575573712 -4.324294345e-05 0.000213316336324)
(-0.000504900738595 -2.35932096388e-05 0.000265312384722)
(-0.000882828395326 1.16225586502e-05 0.000156393390757)
(-0.00115903197087 5.1534484912e-05 9.15341776061e-06)
(-0.0012079813983 9.33087773982e-05 -0.000199087243857)
(-0.00105912663346 0.000126780194832 -0.000368109387701)
(-0.000777334245051 0.000157286659321 -0.000408451123919)
(-0.000365993114619 0.000175164147676 -0.000522809889677)
(6.31058567054e-05 0.00017981131032 -0.000561132094942)
(0.000493504886215 0.00017542564511 -0.00055613105955)
(0.000902640643956 0.000165538268842 -0.000513615570344)
(0.00125891924206 0.000137719390055 -0.000412052234499)
(0.00148327471943 0.000104320648346 -0.000295988751902)
(0.00154242937897 7.18942769055e-05 -0.000127262578189)
(0.0014197544439 3.08361964251e-05 8.74735386254e-05)
(0.00105889214762 -5.49576171885e-06 0.000222614500975)
(0.000619951856272 -3.64674088134e-05 0.000312843151645)
(0.000209506536577 -5.33087055639e-05 0.000249553169179)
(3.59058475363e-05 -6.60800161295e-05 0.000141514253238)
(-1.71431212243e-05 -0.000132046451266 0.000119385504333)
(-0.000126699284214 -9.09880420387e-05 0.00019540690333)
(-0.000456182666783 -3.145357132e-05 0.00024870728423)
(-0.000820702353547 7.34683748586e-05 0.000152003649306)
(-0.00108899426347 0.000199179055026 1.99699566278e-05)
(-0.00114510461673 0.00032984274518 -0.000181708316779)
(-0.00100857207259 0.000437900504162 -0.000349392133844)
(-0.000717683857919 0.00052016635591 -0.000443569860769)
(-0.000339817939978 0.000582210853635 -0.000479406528173)
(6.96916751981e-05 0.00059985462553 -0.000519590493737)
(0.000485000924723 0.00058881471038 -0.000518292005498)
(0.000876073221548 0.000555180676723 -0.000473232273135)
(0.00122039853821 0.00048341635505 -0.000375283735051)
(0.0014276470232 0.000387142326035 -0.000285329434696)
(0.00148320249939 0.00028018542425 -0.000116992549774)
(0.00135359489259 0.0001513856716 9.07562284128e-05)
(0.00100261046522 3.61465689217e-05 0.000216114264562)
(0.000578658313808 -6.06487329924e-05 0.000295790954334)
(0.000192084806782 -0.000114433281541 0.000231597797078)
(3.63255186665e-05 -0.000151853496954 0.000136185069938)
(-1.16548390797e-05 -0.000204252756983 0.000103636596447)
(-7.81896044918e-05 -0.000145118774142 0.000156370215001)
(-0.00035824283328 -5.21526679788e-05 0.000215310306252)
(-0.000689581057368 0.00011273154523 0.000148789426951)
(-0.000936494625767 0.00031636964865 3.95363391994e-05)
(-0.00100694610978 0.000531254379115 -0.000140467332837)
(-0.00089262634488 0.000715375502924 -0.000295389749773)
(-0.000624249807319 0.000851344918756 -0.000404270579865)
(-0.000278289955978 0.000943251135305 -0.000428950782734)
(8.853156946e-05 0.000982613276362 -0.000414074539914)
(0.000457337254033 0.000965419857597 -0.000417066266118)
(0.000810755077281 0.000917111155361 -0.000374518159596)
(0.00110571804399 0.000795103285687 -0.000364460588771)
(0.00130722795851 0.000650569901751 -0.000244294341795)
(0.00134850028453 0.000466930864254 -8.88446222613e-05)
(0.00121071010682 0.000254172336732 9.84006825071e-05)
(0.000881826394238 6.41349836893e-05 0.000203556012607)
(0.000488917572642 -9.20373239517e-05 0.00026093355307)
(0.000148234799224 -0.000178474994144 0.000192163271844)
(3.35967727957e-05 -0.000232706148499 0.000120994493195)
(4.33370204064e-06 -0.000257908791411 8.00450497374e-05)
(3.32752690245e-06 -0.000197102555441 0.000102365338319)
(-0.000210510712529 -8.37928207837e-05 0.000172618553572)
(-0.000486415484644 0.000123300199163 0.000146282358585)
(-0.000700977295531 0.000377345110553 7.17007395785e-05)
(-0.000787468068069 0.000656311238296 -6.96418108641e-05)
(-0.000703426202684 0.000902114373015 -0.000199909956972)
(-0.000491597090019 0.00108967465724 -0.000288173666504)
(-0.000200270248748 0.00119847581476 -0.000332900876126)
(0.000111725935103 0.00123927246372 -0.000343958958744)
(0.000415100662757 0.00122513798382 -0.000337476396803)
(0.0007070538446 0.001159586245 -0.000314230128067)
(0.00095951345708 0.00103378166779 -0.000257390659736)
(0.00111162525125 0.000836559753191 -0.000161246151343)
(0.00113237860026 0.00059174436267 -2.96833016154e-05)
(0.000984839168383 0.000313035478232 0.000119457375669)
(0.000690727856294 6.80888511912e-05 0.000194137059461)
(0.00034813210846 -0.000129853161491 0.00021718689526)
(7.07586422786e-05 -0.000237230227575 0.000137747148131)
(1.97680505704e-05 -0.00029254240091 9.78339944285e-05)
(2.26120273354e-05 -0.000299933684537 5.5618417907e-05)
(0.000109194196489 -0.000249366707638 4.18977893761e-05)
(-2.32243408394e-05 -0.000134656629972 0.000122388315362)
(-0.000230508856185 8.50447780685e-05 0.000143816760002)
(-0.000407142170774 0.000364827280635 0.000112411094674)
(-0.000503611926039 0.000676219196386 2.66544533257e-05)
(-0.000460011629668 0.0009597869476 -6.75534938989e-05)
(-0.00031305725461 0.00117452710897 -0.000132851494704)
(-9.95338383311e-05 0.00130394458372 -0.00016571445602)
(0.000137196460426 0.00135596946155 -0.000177336370966)
(0.000372124592126 0.00134373272169 -0.000172579479461)
(0.000591305063318 0.00127100395016 -0.000150476561807)
(0.000768398140418 0.00112508465765 -0.000107770171081)
(0.000863088885397 0.00090247665639 -3.67446496651e-05)
(0.000850754244517 0.000619663389148 6.0950256124e-05)
(0.000695123450377 0.000305172128547 0.00015748251187)
(0.000443476258694 2.91860157953e-05 0.000190885132281)
(0.000167301415518 -0.000183156651199 0.000167095191429)
(-3.14596922181e-05 -0.000293287275787 7.72939641829e-05)
(2.94193778447e-06 -0.000338142583862 7.25493615007e-05)
(4.21973242049e-05 -0.000355926492328 1.03187549586e-05)
(0.00019843130529 -0.000321597178268 -3.83078170393e-05)
(0.000152011591136 -0.000219336027072 4.92906055641e-05)
(2.68932510894e-05 -1.41948267854e-05 0.000110652919405)
(-9.97490307566e-05 0.000251085297085 0.000135541679367)
(-0.000189355307236 0.000555811997029 0.000117741255303)
(-0.000181121729174 0.000849545008013 7.95297517393e-05)
(-0.000101927560506 0.00107983571093 5.28846303571e-05)
(2.62569872289e-05 0.001222369666 3.96385703168e-05)
(0.000174497379516 0.00128520419393 3.3805653956e-05)
(0.000322404946936 0.00127510842021 3.73554929618e-05)
(0.000454663954456 0.00119462119421 5.11134058799e-05)
(0.000549528389709 0.00103803026408 7.26644704691e-05)
(0.000581630999788 0.000802599034221 0.000105433686922)
(0.000537496546011 0.000508312841008 0.000150793061732)
(0.0003874025987 0.000196549037396 0.00017803055898)
(0.000190246732904 -6.66749687866e-05 0.000157650975162)
(-4.90925565156e-06 -0.000267565516285 9.33005571432e-05)
(-0.000119331855135 -0.000367119488654 -3.49489420534e-06)
(-1.8041255207e-05 -0.000395871511988 2.75919303995e-05)
(5.4431297602e-05 -0.000329221221631 -3.91583594014e-05)
(0.000261702527311 -0.000339894884833 -0.000120180796657)
(0.000288221492598 -0.000277563326192 -3.96480878627e-05)
(0.00024291622708 -0.000122922756037 4.13466802174e-05)
(0.000164484739645 9.37643028344e-05 0.000114528755888)
(8.96031088273e-05 0.000346606209146 0.000151411107991)
(6.95147725486e-05 0.000600081487189 0.000155885134424)
(9.44875835449e-05 0.000798965402536 0.000163649835647)
(0.000146792036467 0.000922983049185 0.000174886877427)
(0.000211698161469 0.000978828432783 0.000181250589716)
(0.000274814637328 0.000971074072929 0.000184275776712)
(0.000324928834066 0.000900780057092 0.000183998284641)
(0.000345680232475 0.000764827157875 0.000180359793295)
(0.00032653888511 0.00056133036524 0.000179068388412)
(0.00025602706234 0.000306219554371 0.000181781755675)
(0.000122092957462 4.57129975801e-05 0.000154147741031)
(-2.49056545749e-05 -0.000170076264648 8.41852094222e-05)
(-0.000140062303955 -0.000322144245993 1.77800920512e-06)
(-0.000181765736836 -0.000381965157045 -8.80983149346e-05)
(-3.01426299927e-05 -0.000366024676663 -2.46564381051e-05)
(6.73074982465e-05 -0.000272054835641 -7.12947946316e-05)
(0.00029047248601 -0.000313994988149 -0.000176195652618)
(0.000376329373983 -0.000291858728727 -0.000125713249385)
(0.000395229326544 -0.000201384078285 -3.84900335116e-05)
(0.000366989020109 -6.38570788596e-05 5.34659588804e-05)
(0.000306091304617 0.000107264596184 0.00013066125372)
(0.00027327983248 0.000293028759048 0.000182476066859)
(0.000257663598211 0.000440017917243 0.000227545523652)
(0.000247699728251 0.000534871531756 0.000264467165616)
(0.000242565859735 0.000575495794913 0.000283895110734)
(0.000235259291408 0.000569220840584 0.000287346489933)
(0.00021623084537 0.000516399195375 0.000274618447497)
(0.000176810452163 0.000413631834277 0.000244768500112)
(0.000118008564709 0.000262924460772 0.000205626887906)
(3.65890586188e-05 7.51779829105e-05 0.000159239886008)
(-8.31472846318e-05 -0.000104587357457 9.02199918098e-05)
(-0.000179095442581 -0.00024097896316 1.31503147438e-06)
(-0.000229693310335 -0.000329610634308 -8.74095130517e-05)
(-0.000211733374636 -0.000348497176009 -0.000146738889341)
(-4.37304097491e-05 -0.000300622647921 -5.79497403955e-05)
(6.53785397598e-05 -0.000164817164589 -6.72953868368e-05)
(0.000271975785279 -0.00022646352302 -0.000183981350232)
(0.000394448284007 -0.00024161840925 -0.000177628785032)
(0.000454118524664 -0.00021113744096 -0.000120982165725)
(0.000466585157355 -0.000147213575353 -3.71541760241e-05)
(0.000418008625315 -6.24641101094e-05 4.75170532958e-05)
(0.000383576161942 4.38416429459e-05 0.000108953054822)
(0.000348041417156 0.000125303407117 0.000165579621713)
(0.000303937581765 0.000172166521818 0.000208558155869)
(0.000258694332337 0.000189700378578 0.000230225446421)
(0.00021087469505 0.00018583381274 0.00023389027301)
(0.000152540737174 0.000161254630063 0.000219635436726)
(8.00556517023e-05 0.000109344322408 0.000184235487554)
(1.40216593603e-06 2.53392035784e-05 0.000133105397216)
(-8.05233713335e-05 -8.07958709849e-05 7.4122304998e-05)
(-0.00018739492507 -0.00017564960896 -2.31484243489e-06)
(-0.000242505730554 -0.000239417521322 -8.62895382918e-05)
(-0.00025127225174 -0.000269249292806 -0.000144852659552)
(-0.000195121242678 -0.000250627738033 -0.000158372009484)
(-4.16550167817e-05 -0.00018193607613 -5.41816050339e-05)
(5.0758939833e-05 -3.92730978958e-05 -3.27918051063e-05)
(0.000204284929381 -5.05557454591e-05 -7.00690431323e-05)
(0.000344351121207 -5.09763093261e-05 -7.4429314771e-05)
(0.000432285355975 -3.69509011807e-05 -4.0544960225e-05)
(0.000490994263605 -2.03776582172e-05 7.97846243589e-06)
(0.000457694089202 -6.44341607412e-06 6.01219008793e-05)
(0.000433731211491 1.57202697044e-05 8.28163745787e-05)
(0.000397994495558 3.09351820334e-05 0.000108054183939)
(0.000336927254689 3.38997887043e-05 0.00012565932145)
(0.000265142623083 3.227353584e-05 0.00013248532537)
(0.000188901866779 2.92676261227e-05 0.000134052472759)
(0.000104379178488 2.52058706668e-05 0.000130453713279)
(1.40172443525e-05 1.77477269702e-05 0.000117239245644)
(-6.61012161751e-05 7.53337001044e-07 9.61331787114e-05)
(-0.000136501396114 -1.33004819756e-05 6.98129736781e-05)
(-0.000223822697059 -4.18336683047e-05 3.16349871597e-05)
(-0.000235190163744 -5.00915439912e-05 -2.12264301009e-05)
(-0.000208949058608 -6.33243864107e-05 -5.45303027514e-05)
(-0.000130244862186 -6.04606166149e-05 -5.14451535578e-05)
(-2.72618946265e-05 -4.37286076485e-05 -1.58652141804e-05)
(0.000107356629402 9.26484986297e-05 -0.000404420989167)
(0.000338870016986 0.000174456016108 -0.000487258022559)
(0.000431769977029 0.000209825534369 -0.000438066043289)
(0.000445132576649 0.00021171998284 -0.000333661496417)
(0.000407216943408 0.000194282134852 -0.000189560592065)
(0.00034418154032 0.000140405517173 -5.83001818209e-05)
(0.000302890827694 8.48106995046e-05 4.62547622728e-05)
(0.000276645377556 2.7739553741e-05 0.00014220379066)
(0.000256590513114 -1.18228312932e-05 0.00020915748201)
(0.000244094335515 -3.03145860016e-05 0.000239383726631)
(0.000231896004845 -2.91173605012e-05 0.000246114680952)
(0.000204445512519 -8.85912457505e-06 0.000229984420647)
(0.000152851089691 3.20840906172e-05 0.000178531252396)
(8.03722770431e-05 8.94588993106e-05 9.45591717306e-05)
(-1.24539869401e-05 0.000143166176734 -5.68254078864e-06)
(-0.000128428814649 0.000205596325884 -0.000124698675218)
(-0.000236183815167 0.00022278697337 -0.00026780168326)
(-0.00028819502943 0.00022156091849 -0.000373847423302)
(-0.000260545454797 0.000184649055299 -0.000426705700679)
(-8.54406761473e-05 9.65697638458e-05 -0.000351394827759)
(0.000198953351632 0.000287298254876 -0.000484145869308)
(0.000405295764954 0.000336584518532 -0.000407088217781)
(0.000426142803388 0.000350193318054 -0.000248709374683)
(0.000386784149756 0.000302866049238 -9.50311025133e-05)
(0.000324157218663 0.000230208617012 6.15454713412e-05)
(0.000259003169431 0.000125793846604 0.000195351679086)
(0.000218562049257 6.46139644352e-06 0.000298796354091)
(0.000205517506843 -9.84204130954e-05 0.000381536398051)
(0.000213203545121 -0.000169321191516 0.000442662755202)
(0.000231845154939 -0.000200542544369 0.000476247076095)
(0.000248875113977 -0.000195866319795 0.000484153632665)
(0.000251092329497 -0.000156580594449 0.000466314579916)
(0.000227702729429 -8.09278780236e-05 0.000419664765942)
(0.000171733581872 2.55989479294e-05 0.000348496768833)
(8.16207640701e-05 0.000145019796309 0.000255045810763)
(-3.75538472648e-05 0.000253657542119 0.000132282951)
(-0.000159295156932 0.00032860796672 -1.85274192047e-05)
(-0.000259984594313 0.000376583950993 -0.000171285518289)
(-0.000302346464872 0.000361530066821 -0.00033343705005)
(-0.00016287874411 0.000302616423434 -0.000425170372374)
(0.000238696278032 0.000335648186099 -0.000435804885654)
(0.000425259840036 0.000314983124831 -0.000250143355711)
(0.000415536066131 0.0002984627707 -2.48973579771e-05)
(0.000334230297243 0.000219945796785 0.000165055242731)
(0.000237136511832 8.53304834317e-05 0.0003121775238)
(0.000160056422315 -8.45607563881e-05 0.000419784373563)
(0.000125285677406 -0.000265151868919 0.000488485717843)
(0.000132868597947 -0.000408522393298 0.000538780256331)
(0.000168951576687 -0.000503515954571 0.000580329686998)
(0.000218676981138 -0.00054473473798 0.000607156593533)
(0.000266328433006 -0.000536366358125 0.000616917780286)
(0.000297457400825 -0.000479147466657 0.00060882367122)
(0.000300221287541 -0.000375151979947 0.000582595305218)
(0.000264606035067 -0.000226027159617 0.00054350314491)
(0.000180461605668 -4.61359020406e-05 0.000485850653079)
(5.04568696248e-05 0.000125023244515 0.000389069778181)
(-0.00010159602315 0.000259433711875 0.000249190480056)
(-0.000240846936052 0.000337408268228 6.13378931188e-05)
(-0.000311944057904 0.000352307123754 -0.000168421299971)
(-0.000195247186303 0.00036658941495 -0.000370246356468)
(0.00024215384839 0.000306464284331 -0.000335816103744)
(0.000380815530324 0.000235891269533 -0.000100179699461)
(0.000339290273034 0.000180125535859 0.000160835454886)
(0.000204633636023 4.96001188652e-05 0.000331259415644)
(6.43291318695e-05 -0.000147305758854 0.000420615867326)
(-3.99657567119e-05 -0.000382327378872 0.000453613943485)
(-5.83570411177e-05 -0.000610642273955 0.000447048918115)
(-5.38944814517e-06 -0.000797330032475 0.000428305197154)
(8.53156615602e-05 -0.000917653961747 0.000427558775046)
(0.000194058272652 -0.00096950278305 0.000435071911366)
(0.000296559695515 -0.000959467306724 0.000445483339617)
(0.000383657766346 -0.000888769554142 0.000458687219768)
(0.000439848904182 -0.000755150983733 0.000476881927042)
(0.000447082324621 -0.000562604820233 0.000506922510316)
(0.000376163199612 -0.000332549474313 0.000527651172504)
(0.000221642913726 -9.78565030579e-05 0.000502599370561)
(2.82957371311e-05 9.69790189143e-05 0.000420434490298)
(-0.000161222665998 0.000225890311651 0.000251712120522)
(-0.000262573358455 0.000281193077474 -1.25087734266e-05)
(-0.000195412419516 0.000347412157393 -0.000262011094099)
(0.000226879603445 0.000227063115073 -0.000196597578773)
(0.00030693291639 0.000137720240518 4.92795649709e-05)
(0.000204749724868 5.04013577174e-05 0.000302046826457)
(7.23972875852e-06 -0.000122671627123 0.000415508637876)
(-0.000178518514309 -0.000364232467419 0.000413089727755)
(-0.000278050395189 -0.000625772437684 0.000329043192624)
(-0.000267233830978 -0.000865799121754 0.000211949600947)
(-0.000164083440326 -0.0010631457068 0.000117777633623)
(-7.37131869914e-06 -0.001185435361 7.07607006193e-05)
(0.000165276375581 -0.00123857303118 5.82079845212e-05)
(0.000332536539466 -0.00122673130837 6.79785106472e-05)
(0.000484042676294 -0.00115213774296 0.000101692238173)
(0.00060097511293 -0.00101137434244 0.000167711909637)
(0.000654430635224 -0.000808197918482 0.000273733865801)
(0.000612955615206 -0.000566327086619 0.000402072890698)
(0.000461088582211 -0.000307722403356 0.000497349896766)
(0.00022320564708 -6.98269880801e-05 0.00050664517108)
(-2.79361370357e-05 0.00010010079856 0.000396402634987)
(-0.000190423749083 0.000186569949313 0.000142242378523)
(-0.000176982637717 0.000272796648832 -0.000116066776903)
(0.000168858645406 0.000133285014004 -7.4590387494e-05)
(0.000200417453861 4.29322020501e-05 0.000175795470412)
(3.21467230374e-05 -5.60829847445e-05 0.000404621416393)
(-0.000230233384044 -0.00026297133442 0.000444440251377)
(-0.000441893538204 -0.000494347868108 0.00032488936626)
(-0.000532990792974 -0.000748007837849 0.000115175146199)
(-0.000483561710824 -0.000980486499699 -0.000106014356817)
(-0.000320305215102 -0.00115927557527 -0.0002665500061)
(-9.65840041683e-05 -0.00126911759704 -0.00034769513955)
(0.000141046341042 -0.00131405167147 -0.000372895905034)
(0.00037212963262 -0.00129955898877 -0.000362272668396)
(0.000587578417439 -0.00122818847945 -0.000313686272139)
(0.000766878279826 -0.0010966902755 -0.000209891550015)