/*--------------------------------*- C++ -*----------------------------------*\
| =========                 |                                                 |
| \\      /  F ield         | OpenFOAM: The Open Source CFD Toolbox           |
|  \\    /   O peration     | Version:  3.0.1                                 |
|   \\  /    A nd           | Web:      www.OpenFOAM.org                      |
|    \\/     M anipulation  |                                                 |
\*---------------------------------------------------------------------------*/
FoamFile
{
    version     2.0;
    format      ascii;
    class       volVectorField;
    location    "6.5";
    object      ddt0(rho,U);
}
// * * * * * * * * * * * * * * * * * * * * * * * * * * * * * * * * * * * * * //

dimensions      [1 -2 -2 0 0 0 0];

internalField   nonuniform List<vector> 
7968
(
(0.0458121574245 0.0326381499126 -0.0251049542064)
(0.211859834637 0.0183293318573 -0.0645464103278)
(0.397149176496 0.00822816081817 -0.0685919987382)
(0.527235439179 -0.00354914485664 -0.0328663352639)
(0.614484562897 -0.00987432234594 0.0187412572598)
(0.583912491993 -0.0063366879966 0.0737995123186)
(0.541786624874 -0.0184550233243 0.0987756180909)
(0.466845410782 -0.0176665172932 0.121462051041)
(0.353810594322 -0.00902586557307 0.133320658355)
(0.227717639477 -0.00265994377053 0.136714604893)
(0.0975063416088 -6.93488225934e-05 0.137252638097)
(-0.036580374575 -0.00152789131915 0.134987986744)
(-0.16762569764 -0.00603536930766 0.125301507265)
(-0.271036008675 -0.00464555109989 0.106058238308)
(-0.344701969586 0.00259129179645 0.0807445422743)
(-0.414942108759 0.00704327861443 0.0328476125269)
(-0.377220260951 0.00926240896735 -0.0190168810402)
(-0.295567600096 0.0202631726773 -0.0539175085293)
(-0.157116627603 0.028151738463 -0.0509283977069)
(-0.0282146891837 0.0373691202561 -0.013070430038)
(0.0333300943219 0.170653325607 -0.0621200908696)
(0.258166649511 0.213858558227 -0.238709141155)
(0.451008864777 0.230079924338 -0.256926455396)
(0.566729333698 0.219824805114 -0.195738659117)
(0.608078700579 0.190923690482 -0.107750400656)
(0.565238263166 0.142639996316 -0.0195922287789)
(0.507974421152 0.0663708483832 0.0488000578758)
(0.429679643897 0.0104930004144 0.109056140092)
(0.328655353433 -0.0198131414866 0.151524601717)
(0.223076497964 -0.0304375880398 0.171613381951)
(0.115957232559 -0.0268463677763 0.173995493148)
(0.00206956064493 -0.00970629948712 0.158799108493)
(-0.117148402103 0.0257647235037 0.121818243308)
(-0.223738587451 0.0846402323973 0.0658983015936)
(-0.313196426859 0.162420762914 0.000231170465244)
(-0.398630766836 0.217432286145 -0.0825287506286)
(-0.407046123508 0.246984704849 -0.16921597356)
(-0.344569030849 0.256447300955 -0.230772680291)
(-0.202970036938 0.236519554493 -0.218274510716)
(-0.0163810871624 0.185823485127 -0.0520757537016)
(0.0239546568026 0.323675737687 -0.0660771451014)
(0.27616966677 0.372917742643 -0.256080375399)
(0.444046960251 0.363435641643 -0.233897546498)
(0.528150934824 0.303461199957 -0.140171291324)
(0.533080601727 0.210185996477 -0.0327385282566)
(0.47339618565 0.0869890785597 0.0587406888861)
(0.408551564843 -0.0581235266508 0.1220797301)
(0.343010598955 -0.174412036471 0.168599692145)
(0.273021224528 -0.245511574638 0.201388311247)
(0.206902476248 -0.279529530811 0.219205370643)
(0.138940148973 -0.274134301723 0.221411644005)
(0.0635927687797 -0.23048984308 0.208145360955)
(-0.0256073528254 -0.152832726513 0.180545662007)
(-0.119121158036 -0.0331976540659 0.139011624155)
(-0.216958171608 0.114534502826 0.0805820908133)
(-0.319157714552 0.244158721946 -0.00469117551705)
(-0.364610306332 0.338061742648 -0.108267895851)
(-0.335133011282 0.396909210396 -0.202319596199)
(-0.220368001603 0.403074080495 -0.231952852712)
(-0.00775331419136 0.347428052096 -0.055703894914)
(0.0123624874009 0.42306874776 -0.032073120802)
(0.266118581037 0.455675683986 -0.196376708483)
(0.384872575286 0.413867300928 -0.142381269846)
(0.413704734511 0.297863089995 -0.044430764138)
(0.370848853855 0.130840249561 0.0496612091381)
(0.29072224164 -0.0725016139296 0.112131261932)
(0.230965090273 -0.284619773991 0.13658103795)
(0.197897092341 -0.451678396028 0.142689536519)
(0.182793679097 -0.554978408554 0.149816002579)
(0.179065039072 -0.599762649294 0.151911827241)
(0.173903908564 -0.592893377435 0.154000829867)
(0.159064141461 -0.536226300718 0.157314472654)
(0.123115544657 -0.425061274049 0.155344726287)
(0.061244898765 -0.255166723437 0.155004824315)
(-0.0318326787746 -0.0411350572226 0.136134184978)
(-0.153751365354 0.168532802851 0.080754438048)
(-0.248004895202 0.336519992979 -0.00910436430299)
(-0.274633784987 0.451490360133 -0.107147290256)
(-0.209996146537 0.490476379732 -0.169701728057)
(0.00370009653129 0.452380654718 -0.0211314234187)
(0.00725123158923 0.48254475389 0.0186359990496)
(0.236086181861 0.468672584874 -0.111365031538)
(0.290690388132 0.389827467458 -0.0390066941166)
(0.246084771501 0.225076019551 0.0449182977862)
(0.153714295269 0.0072234157378 0.104304186494)
(0.0529248811647 -0.248093931725 0.113719824181)
(0.0130974813 -0.502832400954 0.100315893479)
(0.027546622329 -0.702608173396 0.0848305991544)
(0.0787089157979 -0.827425525936 0.0772632672881)
(0.147387278387 -0.881253951029 0.0744864745561)
(0.215196233432 -0.872569773176 0.0776282604134)
(0.269854529224 -0.803922542986 0.0862955162548)
(0.296467068471 -0.670876759815 0.0987210460963)
(0.280241577251 -0.469611781335 0.11877425957)
(0.207959450784 -0.215474635428 0.138281748509)
(0.0651176391906 0.0461085100418 0.138205380222)
(-0.0797886916564 0.264553936853 0.0837104681019)
(-0.180471532226 0.428354257691 -0.0007288033973)
(-0.180369923126 0.504908489525 -0.0822253413782)
(0.00856564495189 0.513677263531 0.0314392544719)
(0.00744322169584 0.431770777306 0.0697446506084)
(0.183734769487 0.404026541144 -0.0264691521472)
(0.163155326847 0.307871277843 0.0478568362754)
(0.0384357842382 0.121825378146 0.101792470523)
(-0.104420567317 -0.117436316577 0.107527988171)
(-0.222715302515 -0.391160958958 0.0671026390381)
(-0.235124406889 -0.644650592741 -0.00157469674987)
(-0.164554980137 -0.839296257673 -0.0543566772109)
(-0.0364831861169 -0.954985718489 -0.0828413590597)
(0.113906801827 -0.99926474227 -0.0927921676933)
(0.260254924055 -0.98882254402 -0.0874531277601)
(0.391943616206 -0.927480471618 -0.0692149052848)
(0.49008725377 -0.801920551062 -0.0365501768776)
(0.526574127408 -0.605311158828 0.0179308321975)
(0.482312982049 -0.355256958037 0.0892639738576)
(0.32523860608 -0.0788316253048 0.141908562476)
(0.127499581094 0.161055552976 0.142047239195)
(-0.0533582635162 0.344302372967 0.087919050758)
(-0.128610192108 0.437339214422 0.00465405672207)
(0.0089102267225 0.460074371621 0.0828775430184)
(-0.0029778161961 0.375391285129 0.0940714410843)
(0.105278508348 0.332265239451 0.0392482048136)
(0.0146756580101 0.227619450199 0.107298754975)
(-0.177053821343 0.0452105318443 0.121535172819)
(-0.36096617701 -0.17585875548 0.0894920206974)
(-0.477252236079 -0.424064802516 -0.00498774087715)
(-0.456851198527 -0.64764719189 -0.112773127538)
(-0.328130355217 -0.819326706821 -0.189414507551)
(-0.126431367752 -0.914248233602 -0.227401532118)
(0.0916278227878 -0.950123042037 -0.232921876572)
(0.297543326293 -0.939484572703 -0.225251898596)
(0.492330486643 -0.884892886011 -0.208582094979)
(0.658612440708 -0.778335578485 -0.167023787764)
(0.747606964996 -0.603818007717 -0.0887487581986)
(0.733503555705 -0.384429512834 0.0189149448805)
(0.580445761222 -0.136191729506 0.125576654205)
(0.340512047598 0.0829750167768 0.165096165161)
(0.0924120846228 0.260700448377 0.149093610002)
(-0.0522456939462 0.361202204917 0.0708933199686)
(0.0181588985676 0.399670472874 0.107634026897)
(-0.00425695690787 0.290054209173 0.114433788695)
(0.0462458101088 0.244063365737 0.0960090721785)
(-0.106436141892 0.151749204572 0.150019987071)
(-0.349987608202 0.000150804383807 0.122726539639)
(-0.565495514864 -0.176211191143 0.0682571098762)
(-0.676375858374 -0.371123228057 -0.0629702019135)
(-0.630317036035 -0.539854214717 -0.19629839773)
(-0.446206676203 -0.660278456815 -0.289889251757)
(-0.203414404726 -0.752245456169 -0.273247449616)
(0.0676027156991 -0.772874559022 -0.293275058117)
(0.332234940405 -0.760572916218 -0.293274819802)
(0.58253378013 -0.7292221738 -0.241988364856)
(0.784842101175 -0.623281684171 -0.259544986426)
(0.921694119898 -0.497649822563 -0.165008896704)
(0.929161477769 -0.332190718643 -0.0342901216672)
(0.78131506415 -0.138770538502 0.10831937921)
(0.508243823772 0.0334706055733 0.169230845442)
(0.208909547619 0.178668771281 0.193269852991)
(0.00395038338583 0.266219130796 0.128486345884)
(0.0178968484136 0.308474322192 0.127443115061)
(0.0013560056053 0.173972986272 0.124743100705)
(0.0114196305608 0.14056133928 0.135023429395)
(-0.183990012076 0.0785963056687 0.178874986046)
(-0.462091343668 -0.0189838219076 0.12487879864)
(-0.698579875685 -0.130970735001 0.0539950445006)
(-0.800025373201 -0.251867408786 -0.0982319698802)
(-0.730940070335 -0.349468752819 -0.241655482356)
(-0.539426910562 -0.430807777851 -0.282634311236)
(-0.251746354967 -0.478680138072 -0.356170480722)
(0.0509214432409 -0.486579434058 -0.400316427227)
(0.351928580836 -0.478960717712 -0.395723309667)
(0.630228464983 -0.45860527754 -0.350471278588)
(0.886257244242 -0.406237607269 -0.247316931897)
(1.02600716204 -0.31976586846 -0.201153805843)
(1.05046277417 -0.223312564662 -0.06163926914)
(0.910033798005 -0.10364680981 0.100538259248)
(0.614244049741 0.00502895860988 0.174917713557)
(0.282364306749 0.0966088077215 0.22363718279)
(0.0356726672858 0.154341568404 0.167533053873)
(0.0105943394662 0.185346111605 0.137309602807)
(0.00460815472686 0.0516493942043 0.127071585916)
(-0.00411957507847 0.0394159239767 0.152445510386)
(-0.226407034118 0.0173308030175 0.194031584575)
(-0.516629205343 -0.0177574567998 0.122700135523)
(-0.762994766268 -0.0579898762414 0.0453369045449)
(-0.85580801349 -0.0999584760652 -0.114763265395)
(-0.776292126209 -0.132605809656 -0.254906391527)
(-0.57426043575 -0.164313946426 -0.292629558902)
(-0.265574819364 -0.182025947119 -0.404391919804)
(0.0488364166625 -0.18443127321 -0.435618967342)
(0.356057527254 -0.182022685485 -0.428920854618)
(0.646408006319 -0.176854395117 -0.393280547564)
(0.912053477883 -0.155079133562 -0.295566439075)
(1.07499970146 -0.123878489115 -0.210784666305)
(1.10494298116 -0.0914922052872 -0.0739271497206)
(0.9729400568 -0.0495123821074 0.0956649736588)
(0.665444194163 -0.00970363360713 0.173497167969)
(0.320152546453 0.0229511337199 0.238444973233)
(0.0493436441054 0.043759627027 0.184740889865)
(0.00634411405082 0.0550947633401 0.139643198372)
(0.00434511412265 -0.0698656484063 0.126727795534)
(-0.00522012479704 -0.0581613243811 0.152475913588)
(-0.228390710925 -0.0397971684637 0.193729993457)
(-0.519085662997 -0.010127692189 0.12200716788)
(-0.76570726761 0.023497874883 0.0442332650084)
(-0.858517035164 0.0591787629897 -0.116101057024)
(-0.778916467313 0.085944180599 -0.256478594946)
(-0.5769326856 0.112393193239 -0.294220619993)
(-0.267710131993 0.125731789357 -0.406683426072)
(0.0475187577601 0.124257340172 -0.437960591403)
(0.355761600708 0.120191967369 -0.431346455739)
(0.64734692574 0.115953008121 -0.395743056974)
(0.914182484543 0.0974691689176 -0.297765643181)
(1.07766615702 0.0711383794594 -0.21308977058)
(1.10804375938 0.0448963586711 -0.0757506789269)
(0.976238589989 0.010090917694 0.0944153561133)
(0.668587578038 -0.0217128061807 0.172924753648)
(0.322787892273 -0.0477857738545 0.238439483309)
(0.050839646674 -0.0639884870848 0.185203454467)
(0.00669161018387 -0.0750177719408 0.139482547683)
(0.000613853075554 -0.190648273933 0.123890867881)
(0.00815846911753 -0.157694775353 0.135340004724)
(-0.189874921804 -0.0989982919696 0.178249982025)
(-0.469408735739 -0.00625517502502 0.123061980053)
(-0.706683671602 0.099795575119 0.0510133835835)
(-0.808082427554 0.214918628308 -0.102186400573)
(-0.738597235224 0.307120598872 -0.246191306322)
(-0.547667824159 0.384110856709 -0.284506034406)
(-0.257945216564 0.428002297347 -0.361694838575)
(0.046925576925 0.43264311105 -0.406931749772)
(0.351008067719 0.423788134499 -0.402557362639)
(0.633004724679 0.404384422089 -0.35728738171)
(0.892572466437 0.355368244646 -0.25281714247)
(1.033676181 0.272971592741 -0.207246966893)
(1.05936789133 0.181830937383 -0.0666731583034)
(0.919571324969 0.0683288637333 0.0969890246142)
(0.623356085793 -0.033464576949 0.173289773245)
(0.290019427499 -0.119351911883 0.223616219821)
(0.0399957248553 -0.173134183 0.168825690534)
(0.0115755436049 -0.203895066287 0.136974216214)
(-0.00540197554829 -0.304577410027 0.113353739077)
(0.0410722282378 -0.258682952648 0.0966588354835)
(-0.11547521677 -0.168572316987 0.149191820707)
(-0.361625202676 -0.0206334486606 0.120195911711)
(-0.578398649899 0.151257887823 0.0639217499667)
(-0.689261505553 0.341727997202 -0.0689845023157)
(-0.642772502129 0.506023905769 -0.203022214422)
(-0.457232307769 0.622142919345 -0.297917389939)
(-0.214623287693 0.715160433878 -0.271102683045)
(0.0621713576452 0.729922196835 -0.303426973694)
(0.331425525324 0.717232925401 -0.304037851881)
(0.58730310798 0.686925203365 -0.251899817178)
(0.793765208786 0.583455258534 -0.269211213614)
(0.93344876695 0.461118241026 -0.173378645892)
(0.942808223625 0.299620461915 -0.0412966998814)
(0.796046420998 0.110699908495 0.1032716702)
(0.522398544578 -0.0564762661528 0.166814742277)
(0.220382777007 -0.197435945327 0.193111234142)
(0.0106548569231 -0.282442580072 0.130392867251)
(0.0193624874482 -0.324936938026 0.127148779243)
(-0.00459348764179 -0.387307442727 0.0930695632102)
(0.0988174855457 -0.343785138851 0.0397552680864)
(0.00330830657626 -0.240134089657 0.106585392532)
(-0.19187978901 -0.0598780367379 0.118804149641)
(-0.377395595092 0.158317240784 0.0848713087332)
(-0.49391020122 0.403916931867 -0.0114821160299)
(-0.472825422243 0.624854717571 -0.120780672393)
(-0.342241561114 0.794173381781 -0.198811608056)
(-0.136730204669 0.887037319166 -0.238223787016)
(0.0860674108157 0.922084156832 -0.244941117983)
(0.297371822012 0.911760395317 -0.238045181779)
(0.49814982081 0.857965682432 -0.220954427333)
(0.669463953271 0.752838731089 -0.178139884833)
(0.762189484273 0.579961275688 -0.0983306175559)
(0.750532015328 0.362424172594 0.0110031069864)
(0.598957552734 0.116495796915 0.120060733528)
(0.358452565458 -0.0994341918788 0.162555324653)
(0.106790575517 -0.274679875623 0.149202944286)
(-0.0439498421446 -0.374273136917 0.0730234856583)
(0.0201519476046 -0.413500731494 0.107604746081)
(0.00520790092472 -0.440618611818 0.0684691939177)
(0.176486171105 -0.411943364603 -0.0257323998254)
(0.150596191935 -0.315649067729 0.0476259219772)
(0.0216307170944 -0.130421201686 0.0996941304056)
(-0.123125314836 0.107645724212 0.103812224043)
(-0.241234980223 0.379661389344 0.0612090909487)
(-0.252646837061 0.632071233469 -0.00895168272685)
(-0.179775328978 0.825750993249 -0.0631413066223)
(-0.0474598742646 0.941050314277 -0.0928359596725)
(0.108277512845 0.985292307031 -0.10363554202)
(0.260487701026 0.975353065483 -0.0988948015657)
(0.398401854201 0.914462141101 -0.0802711211987)
(0.501649603832 0.789575387753 -0.0464165641359)
(0.541762235896 0.593298765279 0.00905521446285)
(0.500390992511 0.343471233639 0.0817528075782)
(0.345911086059 0.0680465309772 0.13666727475)
(0.147827226862 -0.170371237317 0.139911510104)
(-0.0374642064432 -0.352792847801 0.0885575139087)
(-0.119345495119 -0.446443096561 0.00662278970806)
(0.0116931057773 -0.470674299775 0.0825770243725)
(0.00619621801898 -0.488794805501 0.0182980754664)
(0.229677455904 -0.473819971334 -0.109817318802)
(0.278581329704 -0.393812674432 -0.0381338365155)
(0.229223675815 -0.228334759128 0.0440197918088)
(0.134426626132 -0.0102458385323 0.101660742065)
(0.0333785427343 0.245140645883 0.109906516123)
(-0.00493206551932 0.49943981558 0.0945146276831)
(0.0117536398272 0.699378440016 0.0773093022121)
(0.067485121661 0.824640840465 0.0681678654594)
(0.142023215588 0.879718403488 0.0634290920173)
(0.216188939201 0.8717080306 0.0663395291019)
(0.277175136044 0.802740671313 0.0767976936967)
(0.308610607016 0.670062906381 0.0905312896769)
(0.295328452417 0.468776433269 0.111535011056)
(0.226253577642 0.21463682118 0.132273553185)
(0.0861599784176 -0.0473006134957 0.131671667195)
(-0.059190777674 -0.266506605642 0.0823538986983)
(-0.165131067669 -0.431876295796 0.0008656467254)
(-0.172194889361 -0.510523699565 -0.0792953393564)
(0.0097199156215 -0.521515304591 0.0322004709266)
(0.0107452438098 -0.428366557303 -0.0322954769486)
(0.26035693801 -0.459196172467 -0.194786974583)
(0.373503525738 -0.415615262758 -0.140571242723)
(0.397444913041 -0.29794896178 -0.0439758911077)
(0.351955047877 -0.129587143655 0.0487085648222)
(0.27146060028 0.0747090886801 0.10960662614)
(0.213090574447 0.287215857693 0.132623577425)
(0.183137538099 0.455052996575 0.137292446805)
(0.173508240868 0.559414496782 0.143342240862)
(0.175532676325 0.604972035488 0.142636446163)
(0.174683196097 0.598909086822 0.144770833994)
(0.165790260831 0.542928168723 0.151378731451)
(0.135205010337 0.431784495791 0.150189351896)
(0.076326403133 0.261984208235 0.150669195335)
(-0.0138853875966 0.0478920437596 0.132014720323)
(-0.133711196863 -0.162824074778 0.0787864576963)
(-0.229295119917 -0.33355939798 -0.00832970064205)
(-0.261110433462 -0.451770151838 -0.104436124464)
(-0.203229188679 -0.493902234584 -0.166889827863)
(0.00518338423971 -0.459097166763 -0.0210670123057)
(0.0223977823677 -0.327827552421 -0.0662038984826)
(0.270979741978 -0.375925612531 -0.254361660178)
(0.433684585985 -0.364707294361 -0.231591106507)
(0.513079495056 -0.302739021682 -0.138554202956)
(0.515350341328 -0.20756330668 -0.0321120643676)
(0.454903640723 -0.0826166609604 0.0580231982089)
(0.391655928486 0.063802304817 0.119966834416)
(0.329430428736 0.181402703719 0.165302714906)
(0.264326882006 0.254206052373 0.197534591535)
(0.203616132584 0.288392609467 0.214603994049)
(0.141152263108 0.28379237733 0.21700785125)
(0.0709627157286 0.241623968763 0.204916358407)
(-0.0138234488566 0.163182082719 0.177948458767)
(-0.104319506757 0.0432261510564 0.137413896427)
(-0.1997937633 -0.10513767327 0.080081338937)
(-0.301411985498 -0.236950288964 -0.00368697390884)
(-0.348779665119 -0.334025673721 -0.105872570971)
(-0.324004109798 -0.396313178888 -0.198902350755)
(-0.215181293813 -0.405404685642 -0.229318572636)
(-0.00674454129765 -0.351966638499 -0.0562672716207)
(0.0314699079998 -0.173806376886 -0.0623640621932)
(0.252752137848 -0.217116470008 -0.237631252647)
(0.441030143812 -0.232313569762 -0.255508586877)
(0.552624882761 -0.220489837427 -0.19480882134)
(0.591773578985 -0.189815174096 -0.107125370104)
(0.548088353519 -0.140013463836 -0.0193340795442)
(0.492165406764 -0.0625890669006 0.0480222802737)
(0.417062951526 -0.00558682471201 0.107356939958)
(0.320762577989 0.0256361726985 0.149526321434)
(0.22053568865 0.0368288618584 0.169612591567)
(0.118710956358 0.0337876846059 0.172360606847)
(0.00974506001602 0.0171556383322 0.157791792752)
(-0.105596612707 -0.0182608856364 0.121451641044)
(-0.209714238631 -0.0774281036257 0.0663272344178)
(-0.297770355595 -0.155816605123 0.00145484571014)
(-0.383408011427 -0.212733467106 -0.0810374561361)
(-0.393642508895 -0.244773202188 -0.167029312008)
(-0.335090185841 -0.256624786147 -0.228377909223)
(-0.198236187222 -0.238141617295 -0.216733795391)
(-0.0150916725731 -0.187937124168 -0.0524964399349)
(0.0424899584714 -0.0339727574266 -0.0251440015897)
(0.204466007955 -0.0202027219103 -0.0652624287551)
(0.386048949023 -0.00991173104143 -0.0695138602804)
(0.512726083029 0.00246051193156 -0.034133125177)
(0.59805926023 0.00953290046997 0.0173200090211)
(0.567010051893 0.00675228949181 0.0717753235286)
(0.526338275517 0.0192997665543 0.0960768950448)
(0.454745939017 0.0191444011699 0.118104321746)
(0.346276124908 0.0108806379392 0.129646040889)
(0.225366443767 0.00467045513049 0.132906822933)
(0.100428757206 0.00227010420684 0.133696586678)
(-0.0288876202035 0.00395639498186 0.131986590851)
(-0.156249070439 0.00850370446055 0.12306331856)
(-0.257230120209 0.00693813073061 0.104795754504)
(-0.329860510875 -0.000358694063667 0.0800807502517)
(-0.400541181766 -0.00596151860584 0.0329988346373)
(-0.36461915052 -0.00901088360366 -0.0190661556708)
(-0.285602871488 -0.0207268326264 -0.053742926624)
(-0.150714622817 -0.0285827878418 -0.0502924343369)
(-0.0254868954489 -0.0373799693803 -0.0119760874723)
(0.121840204736 0.10942468889 -0.419814737556)
(0.381037440402 0.203161648251 -0.510682333321)
(0.525509622895 0.251893010847 -0.475637099033)
(0.586780039395 0.266472345702 -0.379350285416)
(0.590632147303 0.263544861439 -0.246046453779)
(0.526562071541 0.230866021759 -0.114840767206)
(0.46142640767 0.184393674175 -0.013014778298)
(0.384749970963 0.140644627274 0.0736305468536)
(0.298220562411 0.114180395031 0.12809249983)
(0.211752217529 0.102826557751 0.150054151543)
(0.123965983987 0.104619208728 0.153012551522)
(0.029093073457 0.119064016324 0.137443107204)
(-0.075049873033 0.147557403133 0.0914546063034)
(-0.179671513279 0.190876057241 0.0134126699764)
(-0.278635770152 0.234996172726 -0.0831144684185)
(-0.381281357381 0.275338350016 -0.204071016931)
(-0.427837306641 0.277448333996 -0.334278639608)
(-0.416829928996 0.262980286581 -0.429302900739)
(-0.322651497024 0.21207590827 -0.466925369525)
(-0.105030994632 0.112332251765 -0.381463211648)
(0.222837484973 0.339167512556 -0.508336908014)
(0.469947159468 0.415342628485 -0.533634660552)
(0.544515177962 0.449980983296 -0.409054189361)
(0.537487036148 0.442679002503 -0.244721839409)
(0.490010735143 0.393184195578 -0.0818836808616)
(0.423013389068 0.316188362653 0.0616454860222)
(0.359932593282 0.227096243037 0.17519544071)
(0.302490451515 0.155867835856 0.268731970495)
(0.248034746959 0.111026192374 0.334417428187)
(0.197198130592 0.0909743227788 0.366535124312)
(0.1453733142 0.0957117838305 0.371304406139)
(0.0849863075386 0.124273934239 0.349082635704)
(0.0115017419129 0.175004857996 0.294005635255)
(-0.0730102330393 0.247911755055 0.209450934866)
(-0.167926474236 0.336239764928 0.104039189191)
(-0.27279451138 0.416613936042 -0.0292104295929)
(-0.36420940669 0.46675877344 -0.18631878387)
(-0.418568191427 0.474521082766 -0.348388587287)
(-0.392941906664 0.437244745033 -0.477439660768)
(-0.195741135094 0.352020269207 -0.466317519668)
(0.27490645523 0.447900303112 -0.474917874007)
(0.5097600586 0.455795543034 -0.411059467311)
(0.546658501556 0.453145924663 -0.220000333514)
(0.501865961311 0.40745414576 -0.0128746043391)
(0.419757564211 0.320700877578 0.174487584286)
(0.331625293428 0.200081790057 0.3182807199)
(0.262431180459 0.0685591962673 0.415069333407)
(0.21897334546 -0.0462884556238 0.482521030602)
(0.194867586851 -0.120412720182 0.526398770469)
(0.179577951233 -0.151803208439 0.549000666258)
(0.16473599659 -0.145025691272 0.55442551107)
(0.13835825204 -0.101772660141 0.542640290871)
(0.0945938109473 -0.0197060388487 0.509170025586)
(0.0247799578558 0.0986011055319 0.452962626595)
(-0.0762604219976 0.231092997988 0.367872532583)
(-0.20092055712 0.352892602524 0.233485936606)
(-0.323216861734 0.440379919083 0.0542086625636)
(-0.412985155981 0.486469338369 -0.14967454757)
(-0.424255471294 0.487593536231 -0.345997886417)
(-0.242350038653 0.47395586036 -0.427426999942)
(0.290687664421 0.475412535121 -0.384100590886)
(0.503889420439 0.417318280267 -0.252185403756)
(0.502445144698 0.378005434392 -0.018835282258)
(0.404221472163 0.279624009808 0.184931603371)
(0.279142922363 0.128405373215 0.333021068685)
(0.163631187599 -0.0590020373064 0.417643116925)
(0.0949596189059 -0.245171365503 0.445683346393)
(0.0819075168319 -0.39984425403 0.457267930882)
(0.110002418046 -0.501071630139 0.464598379747)
(0.152691940104 -0.544762550557 0.47095995266)
(0.195753092652 -0.53562998939 0.477682737393)
(0.225008067408 -0.47648901686 0.484093082261)
(0.230130544049 -0.366438406417 0.487596124765)
(0.189294081162 -0.210123966205 0.486211821377)
(0.0894554244215 -0.0242097789566 0.473770381199)
(-0.0611087352415 0.165318625337 0.397488729711)
(-0.224171531303 0.31656104261 0.257712862308)
(-0.365162878388 0.415605862158 0.0579555304234)
(-0.414345175557 0.454341433686 -0.18042061005)
(-0.254995292268 0.5096853715 -0.330044432304)
(0.288821714975 0.449267467899 -0.257472736392)
(0.454020591298 0.342743016136 -0.0969503555732)
(0.415028709286 0.270459733084 0.15991255179)
(0.252099993075 0.129712421147 0.32441884997)
(0.0719348491274 -0.0764506259853 0.394357015059)
(-0.0544043987136 -0.300910735118 0.374028689974)
(-0.097266283263 -0.51527643748 0.30191408401)
(-0.0625013130379 -0.684715772593 0.235266184752)
(0.0234336481842 -0.794445851979 0.196991422618)
(0.127734617329 -0.84047273685 0.185791990644)
(0.229160591116 -0.828921384922 0.194230827991)
(0.31523759261 -0.763923822468 0.219853119565)
(0.371601918554 -0.644306550621 0.267729739572)
(0.375453855897 -0.474579530429 0.338808164817)
(0.304389887761 -0.263384939231 0.423414142976)
(0.145507594198 -0.0382941054119 0.463899549658)
(-0.0722029444622 0.168100188968 0.399361514284)
(-0.276415476429 0.309680049533 0.241236303835)
(-0.362950003412 0.381908610336 -0.0196864067906)
(-0.251576365045 0.485917549762 -0.195471276996)
(0.252985815004 0.364550059051 -0.135043614729)
(0.374059200489 0.255186583836 0.0379249497112)
(0.291848287077 0.162278592024 0.294780814486)
(0.0618804237979 -0.00586246357259 0.399601261125)
(-0.155342635988 -0.222885997632 0.364374689749)
(-0.28351633106 -0.450213231732 0.229663091092)
(-0.298433407486 -0.663076171473 0.0534360733584)
(-0.2105847794 -0.828859043524 -0.0866534424962)
(-0.0617236885044 -0.932331082579 -0.164592236265)
(0.105739465018 -0.973606105041 -0.189913759504)
(0.266626457346 -0.959898924822 -0.177759278452)
(0.409679231517 -0.895724594442 -0.133069604754)
(0.520259774394 -0.779622356981 -0.0469140706)
(0.570287628103 -0.612146298464 0.0922355493467)
(0.527061469641 -0.405077845323 0.271321964158)
(0.369751479786 -0.181377533218 0.425573204347)
(0.117238010406 0.0347002020074 0.473607522627)
(-0.153951272516 0.20152814934 0.378428688147)
(-0.284367203741 0.293102204427 0.119495674099)
(-0.214433908521 0.399572811141 -0.0691000918176)
(0.207294654315 0.284950070107 -0.0386375298774)
(0.283054809067 0.178070585764 0.144562600698)
(0.156536079896 0.078569912565 0.383714149329)
(-0.128395643042 -0.090404235855 0.419229410033)
(-0.373509388368 -0.283545952367 0.285779777951)
(-0.499032061089 -0.485500590595 0.0471568393505)
(-0.482130105984 -0.670339649582 -0.215607638525)
(-0.342068204583 -0.811707882942 -0.410598109781)
(-0.133627508846 -0.895172434383 -0.512786654328)
(0.0908249581682 -0.924526178899 -0.543631955146)
(0.303441065718 -0.910327145181 -0.526078668025)
(0.49757466549 -0.857533536456 -0.468636609227)
(0.659272643485 -0.758339917464 -0.353902263969)
(0.752074359985 -0.612506400735 -0.16212008452)
(0.73582730705 -0.432712421005 0.0938422005786)
(0.582759073173 -0.237063930549 0.346142625006)
(0.302664746207 -0.048980522412 0.497570644181)
(-0.0242454868777 0.115153402604 0.470117610369)
(-0.197093693171 0.211659640545 0.227847398944)
(-0.169587410102 0.3148955707 0.0285843245739)
(0.162543747629 0.198896768346 0.0418513217927)
(0.208440357754 0.111918874924 0.231164207347)
(0.0351817196599 0.0259768811242 0.444026681095)
(-0.291112375193 -0.115030274388 0.421010719381)
(-0.550730169913 -0.264147454586 0.208539008452)
(-0.671217896831 -0.41731369952 -0.10394917466)
(-0.626427420668 -0.55527005552 -0.424584269973)
(-0.440437274832 -0.656265285349 -0.65163117095)
(-0.183178188519 -0.707560472915 -0.759849380244)
(0.0846156750858 -0.718632821105 -0.798490019418)
(0.331420999183 -0.707001303753 -0.774227549865)
(0.562491134313 -0.670573510242 -0.716713263395)
(0.769935090416 -0.608826333981 -0.575692466389)
(0.898528244931 -0.500981568478 -0.349039400963)
(0.902961479622 -0.365577473284 -0.0420174331694)
(0.751894998973 -0.218776638016 0.280275050358)
(0.45664642975 -0.0783734812592 0.507294733455)
(0.0899984486891 0.0558152120497 0.532346251086)
(-0.127545816933 0.138269897904 0.31573935684)
(-0.127164573665 0.221545591098 0.108294440777)
(0.133785733608 0.110551148615 0.0912248345853)
(0.157977944202 0.0554628902317 0.290137782839)
(-0.0485539440389 -0.000865926032655 0.480913943952)
(-0.404047859365 -0.0915694369124 0.417691389693)
(-0.672756140094 -0.185493764373 0.15720484691)
(-0.786337021203 -0.27974184663 -0.19779999857)
(-0.718272051386 -0.362290557826 -0.546918384498)
(-0.49489453405 -0.41980519303 -0.781014154808)
(-0.20328619034 -0.44242322694 -0.884982675388)
(0.084685761028 -0.44539864974 -0.898031675938)
(0.348611116765 -0.437429270591 -0.869427984865)
(0.600586033594 -0.419365537892 -0.81728958766)
(0.832688357548 -0.384401617938 -0.700788108089)
(0.995276972627 -0.32424144953 -0.450686100673)
(1.01466767813 -0.242166157955 -0.115249917374)
(0.865575067427 -0.152749635765 0.244229318106)
(0.560039587715 -0.0663822824964 0.512566436349)
(0.165545263162 0.0184127674991 0.57124659038)
(-0.0817507069248 0.0719974674493 0.374652294824)
(-0.100866156499 0.12468429937 0.155826638201)
(0.119906475231 0.0290050950875 0.109131424718)
(0.1314149537 0.0095025828779 0.31652949322)
(-0.0894893637072 -0.0118829345492 0.495929043113)
(-0.46071403496 -0.0445060579564 0.413807009012)
(-0.733685962506 -0.0776630906256 0.133188027051)
(-0.842947166728 -0.110894627318 -0.239672546278)
(-0.760651514618 -0.139471489754 -0.598587858105)
(-0.51184695309 -0.158327045472 -0.848952936708)
(-0.208754588351 -0.167039143055 -0.92502117695)
(0.0861909338825 -0.168759016562 -0.926628322456)
(0.357376032808 -0.166178102568 -0.895042786182)
(0.61701846874 -0.159404040325 -0.846216664241)
(0.86423628041 -0.147743499041 -0.73555106588)
(1.0398185002 -0.127949332501 -0.49003669076)
(1.06945133282 -0.099197811318 -0.145353175896)
(0.92131131645 -0.0675723000319 0.22859715508)