/*--------------------------------*- C++ -*----------------------------------*\
| =========                 |                                                 |
| \\      /  F ield         | OpenFOAM: The Open Source CFD Toolbox           |
|  \\    /   O peration     | Version:  3.0.1                                 |
|   \\  /    A nd           | Web:      www.OpenFOAM.org                      |
|    \\/     M anipulation  |                                                 |
\*---------------------------------------------------------------------------*/
FoamFile
{
    version     2.0;
    format      ascii;
    class       volScalarField;
    location    "6.8";
    object      k;
}
// * * * * * * * * * * * * * * * * * * * * * * * * * * * * * * * * * * * * * //

dimensions      [0 2 -2 0 0 0 0];

internalField   nonuniform List<scalar> 
7968
(
0.000322071979728
0.000371880121383
0.000412296383466
0.000438042196792
0.00045302428082
0.000460483008084
0.000463090559445
0.000463256374395
0.000462708143377
0.000461821681249
0.000461647631995
0.000462457779246
0.000462905389906
0.000462501292015
0.000459298749891
0.000451316245057
0.000436113375071
0.000410571671623
0.000370827855891
0.000321672077439
0.000371787649062
0.000571289086103
0.000710795339767
0.000799932347303
0.000854630525822
0.000884969698391
0.000898939054373
0.00090267740663
0.000901469247772
0.000899143538848
0.000897885148239
0.000897639537369
0.000896028261404
0.000889438400128
0.000873222215667
0.000841915179724
0.000788214506449
0.000702094232983
0.000566770904671
0.000370901925202
0.000412137788267
0.00071091679233
0.000916142668296
0.00104834214428
0.00113121864202
0.00117889610287
0.00120223184514
0.00121001044619
0.0012096041288
0.00120629036564
0.00120289841743
0.00119944522323
0.00119334193224
0.0011799256455
0.00115281053512
0.00110426928514
0.00102424955587
0.000898542731334
0.000701821281053
0.000410916436153
0.000438110711285
0.000800701059911
0.00104928455947
0.00121005794515
0.00131141870672
0.00137012518877
0.00139926174094
0.00140947834453
0.00141038974607
0.0014070695322
0.00140084120958
0.00139236429056
0.00138231598884
0.00136402137
0.0013298325908
0.00127042386939
0.0011737521855
0.00102284052268
0.000787137597896
0.000436416193255
0.000453463461736
0.000856615681989
0.00113404584634
0.00131364730108
0.00142654401727
0.00149200429446
0.00152874472261
0.00154525687384
0.00154725160378
0.00154188224653
0.00153335036294
0.00152235787101
0.00150624298817
0.00147942940442
0.00143860094153
0.00137282572913
0.0012662374186
0.00109954805222
0.000839279774321
0.000451042528121
0.00046131336745
0.000888587593278
0.00118437600834
0.00137572300017
0.00149568094909
0.00157133543306
0.00161335476985
0.00162877918599
0.00162819894048
0.00162025834487
0.00160990171524
0.00159795299576
0.00158114866681
0.00155292877618
0.00150505465934
0.00143103069993
0.0013189047605
0.00114307499771
0.000868037744084
0.000458501383011
0.000464251626875
0.000904346757112
0.0012108595414
0.00140902841191
0.00153626139863
0.00161820158637
0.00165913616905
0.00167149290613
0.00166763015049
0.00165718357405
0.00164557539669
0.00163364466173
0.00161771943497
0.00159053300488
0.00154248049288
0.00146299078186
0.00134476407423
0.00116419996336
0.000881268186237
0.000461354215942
0.000464245101707
0.000909845113039
0.00122201056301
0.0014238035992
0.00155833703123
0.00164002351634
0.00167825321092
0.00168713187323
0.00168012917336
0.0016676100864
0.001655330621
0.00164403307436
0.00162964909732
0.00160438134282
0.00155795333722
0.00147861382898
0.00135432618069
0.00117147065287
0.000885039779712
0.000462320543556
0.000463448325349
0.000910211224441
0.00122493985562
0.00142851308202
0.00156659301225
0.00164681058061
0.00168236234748
0.00168834781738
0.00167894302678
0.00166500337276
0.00165251951299
0.00164209854895
0.00162923794458
0.00160580947649
0.00156117293293
0.001483072339
0.00135763301035
0.00117185952897
0.000884257248481
0.000462033593162
0.000462518518471
0.000909206066161
0.00122473859925
0.001429214045
0.00156776901568
0.00164657251668
0.00168036138274
0.00168467886474
0.00167401581023
0.00165940844292
0.00164696508538
0.00163724649471
0.00162540901887
0.00160312485975
0.0015596707693
0.00148264541451
0.00135776499654
0.00117025473524
0.000882462562133
0.000461203392803
0.000462307089721
0.000909044244685
0.00122412576728
0.00142784497489
0.00156555873335
0.00164369162942
0.00167705731619
0.00168123764714
0.0016706714321
0.00165625929602
0.00164399743648
0.00163443632799
0.00162273217083
0.00160059673361
0.00155738701088
0.00148075320038
0.00135638777464
0.00116913510266
0.000881635773288
0.000460592343952
0.000463178891641
0.000909696899744
0.00122302610176
0.00142457448063
0.00156011272522
0.00163835199166
0.00167261689495
0.00167811495119
0.00166889727345
0.00165548462444
0.00164356250436
0.00163358680056
0.00162111822416
0.00159815854057
0.00155428734526
0.00147737602006
0.00135342857861
0.00116833218858
0.000881933484596
0.000460872494677
0.000463992402843
0.000908787762109
0.00121863718544
0.00141741827333
0.00154806512667
0.00162657738087
0.00166262781785
0.00167050221038
0.00166352023772
0.00165164054593
0.00164019638722
0.00162963749693
0.00161596929645
0.00159160613928
0.00154656715558
0.00146920702374
0.00134655336702
0.00116518549177
0.000881088302421
0.000460898608358
0.00046388854593
0.000902522185687
0.00120597579449
0.00140043353975
0.00152317298324
0.00160104410454
0.00163900468422
0.00164974902555
0.00164552748919
0.00163557750243
0.00162489351783
0.00161393456149
0.00159909537377
0.00157332500006
0.00152728719902
0.00145029613847
0.00133294240684
0.00115490501138
0.000875365804261
0.000459379889036
0.000460747716938
0.000885944772445
0.00117822544525
0.00136555965486
0.0014814013238
0.00155259373693
0.00159117231646
0.00160450959922
0.00160315477768
0.00159543602887
0.00158592744629
0.00157506492893
0.00155962476286
0.0015331919847
0.00148751339869
0.00141420269983
0.00130386406878
0.00113106680609
0.000860166815603
0.00045535563689
0.000452720171716
0.000853378792407
0.0011272848191
0.0013030468158
0.00141214603922
0.00147412880425
0.00150775677696
0.00152213220445
0.00152314766239
0.00151776406033
0.00150990683017
0.00149993780217
0.00148514168304
0.00145990888278
0.00141903449863
0.00135409611311
0.0012493991066
0.00108579761619
0.000829843146964
0.000447461375374
0.000437319236774
0.000797413725107
0.00104294215697
0.00120056300354
0.00129888045888
0.00135490353567
0.00138194904483
0.00139087248475
0.00139135266566
0.00138795958126
0.00138220156754
0.00137437012329
0.00136419759564
0.00134568545041
0.00131145214465
0.00125251870204
0.00115728405258
0.00100900575256
0.000777251796197
0.000432864276721
0.000411438399906
0.00070820779821
0.000911275359616
0.00104142221909
0.00112242302022
0.00116851867912
0.00119069360241
0.00119784966022
0.00119731251146
0.00119415912071
0.00119091246975
0.00118732451891
0.00118073137313
0.00116655348583
0.00113874001115
0.00108990056057
0.00101044911684
0.000886491753809
0.000692883586605
0.000407783716074
0.000371298462356
0.000569626339443
0.000707945613939
0.000796259881058
0.000850538156253
0.000880531586697
0.000894376165211
0.000898281788923
0.000897424289437
0.00089542536691
0.000894126561249
0.000893361871217
0.000890851381768
0.000883026163981
0.000865510641744
0.000833109424505
0.000778884258928
0.000693444024308
0.000560256623878
0.000368641731072
0.000321841411357
0.00037132913512
0.000411671578106
0.000437394308644
0.000452234720863
0.000459854081717
0.000462714507236
0.00046345517291
0.000463240601093
0.000462572688005
0.000462189616438
0.000462437600734
0.00046237488087
0.000460927177617
0.000456859627473
0.000448147875269
0.000432770531696
0.000407411216695
0.000368361011059
0.000320650237401
0.000368705495759
0.000551494977383
0.000685742489288
0.000775396899507
0.000833339855051
0.000868293029629
0.000886923102641
0.000894409949954
0.000895427126627
0.000894095480782
0.000892572770414
0.000890930566986
0.000886947472351
0.000876752590093
0.000856557201905
0.000821635843488
0.00076562504702
0.000679518867578
0.000549180173501
0.000367969635897
0.000551547864688
0.00118677141457
0.00154360908376
0.00178224307565
0.0019396344416
0.00203695924049
0.00209066655691
0.00211461256208
0.00212030805539
0.00211633174883
0.00210747100271
0.00209423963789
0.00207311074236
0.00203721309082
0.0019769682753
0.00188022956285
0.00173133021671
0.00150818015414
0.00117054677152
0.000548828322072
0.000685899714152
0.0015436087019
0.00202538750587
0.00235215440431
0.00257062954439
0.00270701492802
0.002782377676
0.00281527977243
0.00282132965992
0.00281237509205
0.00279554065837
0.00277197695845
0.00273724670038
0.00268276343531
0.00259571778501
0.0024601472929
0.00225603230949
0.00195569136162
0.00150767540479
0.000678993545887
0.000776009231529
0.00178370671197
0.0023543300159
0.00274382675866
0.00300528830264
0.00316831723889
0.00325730788722
0.00329460642651
0.00329905059054
0.00328394735726
0.00325925059164
0.00322672098239
0.00318052912415
0.00311282441905
0.00300725471266
0.00284518009182
0.00260344577451
0.0022504947851
0.00172738634544
0.000764442558044
0.000834823047721
0.0019441516916
0.00257750579079
0.00301090332235
0.00330132657874
0.00348085567705
0.00357689720642
0.00361149620399
0.003608400006
0.00358555484238
0.0035538966931
0.00351586444379
0.00346592762968
0.00339180376283
0.0032747104212
0.00309630718947
0.00283047300423
0.00244272522796
0.00186927248779
0.000818970194293
0.00087099622749
0.002046028048
0.00272110802225
0.00318306524868
0.00349099324136
0.00367858393241
0.00377159807954
0.0037987532538
0.00378647599043
0.00375548830598
0.00371817173728
0.003677318905
0.00362678442602
0.00355235140763
0.00343410054391
0.00324791120227
0.00296877879224
0.00256027552631
0.00195565727451
0.000851634334591
0.000891111363003
0.00210555845445
0.00280591751887
0.00328438292429
0.00360158154781
0.00378728238162
0.00387299484769
0.00388999606313
0.00386766210515
0.00382905568646
0.00378772792555
0.00374651564176
0.00369845048023
0.00362777110208
0.00351286215647
0.00332825857257
0.00304361612218
0.00262475610207
0.00200326169634
0.000869070765861
0.00090051765087
0.00213629037875
0.0028499813111
0.00333610430136
0.00365436439068
0.00383483906167
0.00391143069113
0.00391797488757
0.00388648096456
0.00384182452524
0.00379823486166
0.00375829146329
0.00371423800207
0.00364908715584
0.00353980315555
0.00335963074129
0.00307744248519
0.0026544631252
0.00202562260605
0.000875933495903
0.000903426386493
0.00214936394048
0.00286853663121
0.00335747584333
0.00367213425143
0.0038462662172
0.00391459474484
0.00391276589927
0.0038746196726
0.00382612922735
0.00378183156019
0.00374383753801
0.00370359976949
0.00364351038188
0.00353966568842
0.00336450048848
0.00308629394336
0.00266403973523
0.00203362253565
0.000877416835047
0.000903637587328
0.00215288941702
0.00287254399344
0.00336083321393
0.00367130703085
0.00384049237957
0.00390347804105
0.00389690893833
0.00385544974936
0.00380553415879
0.00376155118808
0.00372519307595
0.0036874910016
0.00363055610358
0.00353027324304
0.00335876454427
0.00308395696047
0.00266422391867
0.00203494175994
0.000876903209234
0.0009035820748
0.0021512585623
0.00286814300979
0.00335332604647
0.00366100808613
0.00382791927925
0.00388942684041
0.00388227860689
0.00384102802943
0.0037918028152
0.00374866725675
0.00371307964379
0.00367606478234
0.00361988509322
0.00352064890188
0.00335065013638
0.00307787187614
0.00266059634286
0.00203352224366
0.000876264645701
0.0009032452526
0.00214443656795
0.0028555204633
0.00333543794809
0.0036419402783
0.00380934027085
0.00387315695188
0.00386934914852
0.00383148496439
0.00378474139321
0.00374277358489
0.00370703386607
0.00366894791167
0.00361126819242
0.00351071723635
0.00334018251925
0.00306808397454
0.00265283692196
0.00202922817057
0.000875717924161
0.000899997789634
0.00212807934527
0.00282910495744
0.00330144929567
0.00360655282719
0.00377612816275
0.00384507332183
0.00384772705965
0.00381577871021
0.00377311860176
0.00373279107219
0.00369644685104
0.00365616066648
0.00359544592028
0.00349206010482
0.00331984349625
0.00304798277804
0.00263592423065
0.00201808160769
0.000873202078486
0.000890100697718
0.00209443339092
0.00277876291819
0.00323995521321
0.00354040044946
0.00371183277364
0.0037870261171
0.00379793522909
0.00377374381914
0.00373656965331
0.00369877037482
0.00366213735041
0.00361944390537
0.00355537768821
0.00344904542147
0.00327552894392
0.00300440362006
0.00259982133801
0.00199274665184
0.000865242299591
0.000869506122208
0.00203299039238
0.00269033813242
0.00313331887437
0.00342293514923
0.00359433809941
0.00367490387103
0.00369414075152
0.00367847919144
0.0036479331283
0.00361386487818
0.00357810738467
0.00353413239696
0.00346803793774
0.00336051173318
0.00318823950994
0.00292336248224
0.00253128251351
0.00194315696906
0.00084737336244
0.000833104644795
0.00193092610747
0.00254687778725
0.00296172152925
0.00323427636896
0.00339797894449
0.00348125869558
0.00350725696629
0.00349981958468
0.0034765354965
0.00344755454948
0.00341454170021
0.00337153797002
0.00330630579586
0.00320094878736
0.00303524862551
0.00278454129397
0.00241344830332
0.00185659348194
0.000814384441942
0.000774512110584
0.00177247826449
0.00232815140276
0.00270167033119
0.00294775598609
0.0030971510495
0.00317518419328
0.00320499334586
0.00320496013398
0.00318902549811
0.00316639720167
0.00313834699592
0.00309880620202
0.00303836667417
0.00294247810428
0.00279202063207
0.00256376369313
0.00222547411494
0.00171690103263
0.000760288456357
0.000685039597864
0.00153636191221
0.0020074549246
0.00232264389154
0.00252995506218
0.00265644812897
0.00272385839582
0.00275123501165
0.0027543140844
0.00274483308113
0.00272949220177
0.00270902492841
0.00267871681867
0.00262987136823
0.00254989413165
0.00242283959597
0.00222858166219
0.00193896499481
0.0015015303082
0.000676004212504
0.000551356928621
0.00118437329426
0.00153580811413
0.00176836590171
0.00191986084631
0.00201197657506
0.0020615700605
0.00208277663836
0.00208721611981
0.00208328861031
0.00207548926323
0.00206404248993
0.00204523843722
0.00201228264186
0.00195562152259
0.00186320229106
0.0017193701198
0.00150183031218
0.00116970627858
0.000547189131491
0.000368341302886
0.000550957124077
0.0006843953572
0.000773111858327
0.000830174600789
0.000864405182607
0.000882545658584
0.000889656152027
0.000890786963241
0.00088968472918
0.000888205359247
0.000886347962201
0.000882085674529
0.000871921108482
0.000851639798259
0.000816864978618
0.000761443086688
0.000676419862709
0.000547359506356
0.000366252251155
0.00040892622149
0.000689422360615
0.000898038076117
0.00104062704174
0.00113479198297
0.00119251908763
0.00122345622625
0.00123607136378
0.00123764011245
0.00123370471392
0.00122743537268
0.00121922529484
0.00120671725554
0.0011854632879
0.00114969420173
0.00109227309543
0.00100419820278
0.000872849695747
0.000677963640517
0.000406945881788
0.000689730266671
0.00156955040913
0.00207576014676
0.00242293431529
0.00265628272807
0.00280183181971
0.00288115588995
0.00291369161446
0.00291623643904
0.00290168155617
0.00287762890645
0.00284579983845
0.00280235346434
0.00273829469329
0.00264097248896
0.00249442203963
0.00227882027824
0.00196700298932
0.00150877601001
0.000677385624942
0.000898756394862
0.0020763425367
0.00274324716345
0.00320395778416
0.00351676105224
0.00371302165165
0.00381950620627
0.00386135253262
0.00386062198657
0.00383514937543
0.00379588865194
0.00374581060167
0.00368027884525
0.0035877284579
0.00345205563354
0.00325287702742
0.00296571890686
0.00255771804228
0.00196457911795
0.000871495738742
0.00104251295012
0.00242689317441
0.00320850331982
0.00374888736756
0.00411605464795
0.00434524820734
0.00446683285296
0.00451114779767
0.00450278101946
0.00446465195146
0.00441105381707
0.00434619996319
0.00426462769408
0.0041522367009
0.00399148618438
0.00375786573272
0.00342350950706
0.00295128291317
0.00226654351131
0.00100034862911
0.00113879350386
0.00266665913236
0.0035303278796
0.00412642366086
0.00452939872231
0.00477768831405
0.00490314992579
0.00493823815384
0.00491549487972
0.00486232438998
0.00479579442199
0.00472116366647
0.00463211017731
0.00451256714901
0.00433961593732
0.00408623074127
0.00372305801987
0.00320931918815
0.00246327349845
0.00108343193169
0.00119956656712
0.00282165524135
0.00374016965458
0.00437196793106
0.00479527783553
0.00504902093781
0.00516631227439
0.00518397884899
0.00514166490379
0.00507200393407
0.00499445212751
0.00491488322226
0.00482547892225
0.00470770792089
0.00453609969625
0.00427895406045
0.00390184055868
0.00336511859007
0.00258236228912
0.00113344328831
0.00123437023563
0.00291321078064
0.00386451897471
0.00451564440766
0.00494647292076
0.0051945349772
0.00529468994836
0.00528910951578
0.00522498804481
0.00513953520285
0.0050538603053
0.00497387247929
0.0048898324592
0.00478069327623
0.00461871188473
0.00436900213522
0.00399200383735
0.00344642648991
0.00264587696946
0.00116012281865
0.00125150339424
0.00296032114443
0.003927957858
0.0045868925312
0.00501452364128
0.00525024446755
0.00532965022156
0.00530095321211
0.00521720159806
0.00511910725654
0.00502870788565
0.00495137997407
0.0048755957381
0.00477816145765
0.00462914360692
0.00439179297233
0.00402322705125
0.00347847675425
0.00267300336261
0.00117161522533
0.00125798867169
0.00297914089814
0.00395178461167
0.00461060338181
0.00503021035771
0.00525217381031
0.00531373685394
0.00526718521459
0.00516943202504
0.00506332202746
0.00497117398007
0.0048975097234
0.00482949256785
0.00474258032137
0.00460539212184
0.00437979513047
0.00402121530623
0.00348312352775
0.00267969746564
0.00117464296796
0.001259150884
0.00298177238044
0.00395243861396
0.00460665655323
0.00501829186417
0.00522997604884
0.00528034055307
0.00522383786031
0.00511918430541
0.00500990985892
0.00491807654835
0.00484743149725
0.00478442095214
0.00470402232604
0.00457443195963
0.00435701080075
0.0040065200757
0.00347597274062
0.00267734646947
0.00117405895101
0.0012579257286
0.00297481579141
0.00393926364258
0.00458717927059
0.00499312744716
0.00520016222223
0.00524734081479
0.00518939861506
0.00508485989665
0.00497669226868
0.00488637920109
0.00481724911205
0.00475568053752
0.00467694350734
0.00454972554891
0.00433576373671
0.00398988042191
0.00346482252088
0.00267176987586
0.00117251620046
0.0012542771095
0.00295861270329
0.00391309479882
0.00455352723591
0.00495645007957
0.0051645677831
0.0052163161704
0.00516487272014
0.00506673607278
0.00496328563353
0.00487527459784
0.00480605097001
0.00474257641764
0.00466107039927
0.0045314414639
0.00431652367891
0.00397184688343
0.00345020157797
0.00266306221488
0.00117016400973
0.00124526702858
0.00292735366466
0.0038663874596
0.00449636918106
0.00489745450093
0.00511044952979
0.00517288613461
0.00513460498632
0.00504833861597
0.00495290746714
0.00486822574279
0.00479800728251
0.00473040717499
0.00464317770218
0.00450795466375
0.00428907880253
0.00394358056352
0.00342486767378
0.00264580695893
0.00116439310244
0.0012258116892
0.00287016707323
0.00378502749775
0.00439972206511
0.00479603149129
0.00501387726073
0.00509024970301
0.00506967454315
0.00499947237015
0.00491504219502
0.00483535806434
0.00476457702429
0.00469254488144
0.00459901700754
0.00445749959869
0.00423381698428
0.00388824281892
0.00337605939593
0.00260992414555
0.00115046675553
0.00118941996489
0.00277250705415
0.0036501605317
0.004241285976
0.0046260179177
0.00484550441396
0.00493469402835
0.00493292375313
0.00488075720224
0.0048095820503
0.00473712560307
0.00466789058047
0.00459339436065
0.00449567157638
0.00434977526219
0.00412395621462
0.00378276882497
0.00328474162791
0.00254130496318
0.00112221675858
0.00112840959945
0.0026169622661
0.0034394689991
0.0039947423281
0.00435923577192
0.00457313468202
0.004670076123
0.00468430118875
0.00464945034987
0.00459262511912
0.00452986574418
0.00446547719753
0.00439240536552
0.00429477326996
0.00414967213353
0.00392877783448
0.00360255266134
0.00312864882365
0.00242260729971
0.00107216036658
0.00103363094169
0.00238313888045
0.00312762493414
0.00363119124702
0.00396376697042
0.00416212515668
0.0042580773393
0.00428305918386
0.00426285002087
0.00422046052281
0.00416968896282
0.00411415761893
0.00404774466591
0.00395629046484
0.0038207331373
0.0036173389509
0.00331716614892
0.00288135593835
0.00223262710846
0.000990941163033
0.000892930503977
0.00204462986897
0.00268247342841
0.0031141395308
0.00339969218521
0.00357173471859
0.00365813128372
0.00368499095971
0.00367510683831
0.00364638922007
0.00360942713532
0.0035667896759
0.00351329572399
0.00343735575665
0.0033223271606
0.00314754101715
0.00288766233855
0.00250832127853
0.0019428982062
0.000865532114547
0.000687452714604
0.00155370576021
0.00204208320629
0.00237099832318
0.00258713802098
0.00271745104603
0.00278427862623
0.00280770203625
0.00280491464574
0.00278883224074
0.00276682950467
0.0027402973803
0.00270491918696
0.00265169089538
0.00256767072764
0.00243659559432
0.00223803825187
0.0019437749943
0.00150183892081
0.000674948597007
0.000408220762462
0.000686692804424
0.000891197640759
0.00102922181868
0.00111899693535
0.00117286021721
0.00120072412371
0.00121123013173
0.00121169390361
0.001207515747
0.00120168942462
0.00119448157347
0.00118352662154
0.00116442492652
0.00113140893968
0.00107741593262
0.000993409088787
0.000866481602542
0.00067538115603
0.000404388286511
0.000444843205176
0.000825448975973
0.00111093708112
0.00130792262944
0.00143821254532
0.00151682956595
0.00155660811014
0.00156946076942
0.00156589240742
0.00155384526373
0.001537889957
0.00151904863343
0.0014948995197
0.00145996955519
0.00140681756352
0.0013263690958
0.00120753154766
0.00103506206801
0.000784155970977
0.000438028242976
0.000826398344751
0.00197070557013
0.00263880885499
0.00310216238636
0.00341439463834
0.00360684043245
0.003706882949
0.00374029705006
0.00373019903858
0.00369460771857
0.00364465256272
0.00358390410561
0.00350849322726
0.00340755817915
0.00326534459359
0.00306246997982
0.00277573313372
0.00237432937111
0.00180084772401
0.000783233030305
0.00111306130366
0.00264086970266
0.00350831234089
0.00411159224445
0.00452187271521
0.00477652794272
0.00490873157296
0.0049504871152
0.00493188300522
0.00487742031293
0.00480271483611
0.00471347913937
0.00460510754124
0.00446369741611
0.00426930712916
0.00399773054673
0.00362081561022
0.00310193653477
0.00236676443866
0.00103164341879
0.00131270801581
0.00311093832777
0.00411983847423
0.00481897893983
0.00529346529883
0.00558613259042
0.00573444670403
0.00577213123286
0.00573641342977
0.00565946709075
0.00556150023478
0.00545013706849
0.0053193759041
0.0051524559637
0.00492748360908
0.00461490211705
0.00418187633819
0.00358726514466
0.00274363201241
0.00119679694952
0.00144746592193
0.00343466714239
0.00454479752584
0.0053096145122
0.00582578232169
0.00613937454142
0.0062820850053
0.00629610097432
0.00623039914886
0.00612521896138
0.00600493721694
0.00587875501883
0.00573900177191
0.00556558385852
0.00533145846034
0.00500194553501
0.0045402094827
0.00389998733918
0.00298581316695
0.00130196330495
0.00153236551148
0.00364337746741
0.00482061954542
0.00562666592972
0.00616709797002
0.00647669439622
0.00659066758598
0.00656351957945
0.00645723453311
0.00632005804809
0.00618031901286
0.00604779427464
0.0059122746475
0.00574907018288
0.00552577317276
0.00520379276958
0.00473783440844
0.00407789765597
0.00312516931828
0.00136266252279
0.00158011408992
0.00376422016673
0.0049802612951
0.00580803508634
0.00635202455596
0.00663710750764
0.00670671695214
0.00662832066264
0.00647716097212
0.00630934172247
0.00615582355884
0.00602525236412
0.00590442244349
0.0057635985007
0.00556479584066
0.00526464749066
0.00481498759734
0.00415594268574
0.00318974860327
0.00139173417983
0.00160236730792
0.00382257292125
0.00505575310562
0.00588991657259
0.00642019978621
0.00667150729064
0.00669353063992
0.00656547232724
0.00637452980292
0.00618281716813
0.00602198730191
0.00589859795311
0.00579646157334
0.00568154925775
0.00551152850153
0.00523904333578
0.00481303107287
0.00416891505297
0.00320609762932
0.00140070399176
0.00160925809729
0.00384084002707
0.00507614592983
0.00590419663317
0.00641564332698
0.00663590578715
0.00661941914271
0.00645443206851
0.00623610306508
0.00602979889367
0.0058667446174
0.00575112961715
0.0056645073255
0.00557060975472
0.00542460832347
0.00517683361307
0.00477371622464
0.00414867579244
0.00319745417232
0.00139932283149
0.00160835005064
0.00383615880741
0.00506479870533
0.00588190139648
0.0063768511297
0.00657573037536
0.00653621331546
0.00635159209936
0.00612047298506
0.00590882005842
0.00574679513157
0.0056368149519
0.00555908362505
0.0054768522887
0.0053449907158
0.00511327579223
0.00472688303037
0.00411794988869
0.00318061368057
0.00139455613458
0.00160368700955
0.00381810850107
0.00503521725993
0.00584112635747
0.00632573789243
0.00651581335729
0.00647032203516
0.0062833370193
0.00605282374842
0.00584339254912
0.00568405195983
0.00557645106312
0.00550055679901
0.00542033902484
0.00529194771494
0.00506614139247
0.00468827992876
0.00409008240241
0.00316459341338
0.00139013339627
0.00159538352503
0.00378776474874
0.00498936796454
0.00578469395692
0.00626561062676
0.00645929633625
0.00642389916811
0.00625017743155
0.00603183697133
0.0058307067197
0.00567487019041
0.00556634369781
0.00548601481949
0.00539951628943
0.00526534501045
0.00503633223242
0.00465925117739
0.00406628360645
0.00314992960383
0.00138616394474
0.00157970401893
0.00373776415174
0.00491775204971
0.00569994027477
0.00618095812716
0.00638821041101
0.00637677315065
0.00623014548206
0.00603435018643
0.00584708018455
0.00569577816721
0.00558393469613
0.00549442617043
0.00539555728291
0.0052489828331
0.00501023528627
0.00462828497431
0.00403675463582
0.00312927902214
0.00137923177351
0.00154984318517
0.00365372045933
0.00480158023609
0.00556281230398
0.00604221380144
0.0062680706591
0.00628984766467
0.00618059849379
0.00601585578829
0.00584775372876
0.00570326279628
0.00558792742193
0.00548751874876
0.00537407501718
0.00521263863461
0.00496186617851
0.00457286805741
0.00398247112512
0.00308878840835
0.00136312342392
0.00149696989338
0.00351653404907
0.0046166717104
0.00534834056929
0.00581590732821
0.0060569421387
0.00611285883207
0.00604427919867
0.00591499966276
0.00577086223854
0.00563729486642
0.00552180387897
0.0054132558745
0.00528773889424
0.00511404283074
0.00485393048232
0.00446075160057
0.00387938849136
0.00300966180941
0.00132953874956
0.00141086468562
0.00330392329322
0.00433504979659
0.00502445943155
0.00546830014031
0.00571300179369
0.00579493738169
0.00576262487985
0.00566798098359
0.00555037424927
0.00543281388812
0.00532319573421
0.00521322703274
0.00508290963042
0.00490447569494
0.00464254942865
0.00425606361408
0.00369803656559
0.00286925055987
0.00126847455325
0.00127979788339
0.00299077333943
0.00392612201331
0.00455544822711
0.00496419591251
0.00519615209326
0.00529049843528
0.00528446677186
0.00521945579374
0.00512813240315
0.00503047441664
0.00493367563955
0.0048313148235
0.00470652376782
0.0045344453534
0.0042850753026
0.00392369673486
0.00340625638598
0.00264133345832
0.00116786291426
0.00108863317079
0.00254581202734
0.00335218964551
0.00389762929964
0.00425388988201
0.00445934580149
0.00454875347119
0.00455622483665
0.00451412473953
0.00444798597475
0.00437333312071
0.00429582081999
0.00421088231102
0.00410418807569
0.00395449851926
0.00373628786437
0.0034193897867
0.00296415007154
0.00229246767731
0.00101150585299
0.000813602794824
0.00191267472159
0.00253862909413
0.00296186923684
0.00323692354117
0.00339590123388
0.00346723880969
0.00347804640785
0.00345272943187
0.0034100765149
0.00336147770652
0.00331037319517
0.00325234802941
0.00317620661283
0.0030654206005
0.00289957609876
0.00265387263021
0.00229517316184
0.00176294515769
0.000773425023854
0.000442481138408
0.000812194260873
0.00108438584117
0.00126830570887
0.00138651376839
0.0014544908035
0.00148548907202
0.00149179573459
0.00148414081446
0.00147051857049
0.00145547559977
0.00143983022212
0.0014209274425
0.00139328002804
0.00134931448472
0.00127980789608
0.00117325951034
0.00101361663377
0.000774358078687
0.000433479839042
0.000490992085247
0.00101163360557
0.00139412491572
0.00165678136505
0.00182937615491
0.00193134539033
0.00197956581975
0.00199009222992
0.00197712402686
0.0019513983647
0.00191937736562
0.00188297513923
0.00183978889979
0.00178339929282
0.00170471646721
0.0015929197061
0.00143520125352
0.00121409422638
0.000899869527437
0.00046913698124
0.00101394199504
0.002504830128
0.00337018332079
0.00397285792911
0.00437941382831
0.00462838078767
0.00475402993095
0.00478918933288
0.00476359583222
0.00470062970519
0.0046152239327
0.00451315970854
0.00439059852872
0.00423473029905
0.00402677387287
0.00374422333598
0.00336130220544
0.00284490685753
0.00213195823374
0.000898123715585
0.00139893030307
0.0033746017974
0.00448683194231
0.00526295245535
0.00579213037397
0.00612083039188
0.00628917113248
0.00633381269479
0.0062947164875
0.00620472380163
0.00608345978061
0.00594022046873
0.00577056903689
0.00555803255392
0.005279879479
0.00490651174633
0.00440593039482
0.00373976555092
0.00282602297927
0.0012056675399
0.00166644870602
0.00398773569891
0.00527459418094
0.00616763853953
0.00677937418342
0.00715713190026
0.0073398157977
0.00736840990317
0.00729651735316
0.00716877584134
0.00701204131187
0.00683785358502
0.00663928295876
0.00639636966913
0.00608137371395
0.00566149694738
0.00509540203481
0.00433600473579
0.00328871549011
0.00140868679488
0.00184661490227
0.00441019683796
0.00582179779564
0.00679875730843
0.00746418881622
0.00785654574805
0.00801004397834
0.00798519550992
0.0078545738302
0.00767577000475
0.00748260459763
0.0072884105112
0.00708376977899
0.00684242624968
0.00652922850147
0.00610200336738
0.00551434201992
0.0047080982396
0.00357794768112
0.00153410042107
0.0019588424951
0.00468037908807
0.00617531426787
0.00720899004653
0.00789458225103
0.0082551222289
0.00833611159112
0.00822152684123
0.00800975791399