/*--------------------------------*- C++ -*----------------------------------*\
| =========                 |                                                 |
| \\      /  F ield         | OpenFOAM: The Open Source CFD Toolbox           |
|  \\    /   O peration     | Version:  3.0.1                                 |
|   \\  /    A nd           | Web:      www.OpenFOAM.org                      |
|    \\/     M anipulation  |                                                 |
\*---------------------------------------------------------------------------*/
FoamFile
{
    version     2.0;
    format      ascii;
    class       surfaceScalarField;
    location    "5.7";
    object      phi;
}
// * * * * * * * * * * * * * * * * * * * * * * * * * * * * * * * * * * * * * //

dimensions      [0 3 -1 0 0 0 0];

internalField   nonuniform List<scalar> 
22672
(
6.80868682265e-07
6.01420445129e-07
-1.28228914796e-06
2.16438487714e-06
1.7699242839e-07
-1.66050864955e-06
3.8075718558e-06
2.05595486197e-08
-1.66374651538e-06
5.12070090709e-06
4.40603594078e-08
-1.35718934525e-06
5.81582408112e-06
2.44686640534e-07
-9.39809694022e-07
5.77136734161e-06
5.51974288476e-07
-5.07517374418e-07
5.0619613971e-06
8.48399495791e-07
-1.38993320991e-07
3.78353524719e-06
1.10538907817e-06
1.73037363856e-07
2.12753444848e-06
1.27876287436e-06
3.77238286879e-07
3.1261383724e-07
1.35694392232e-06
4.5797712905e-07
-1.45371830985e-06
1.33882335265e-06
4.27509313357e-07
-2.98066086113e-06
1.22978567527e-06
2.97157465961e-07
-4.09485562029e-06
1.04174155935e-06
7.24538456252e-08
-4.68104943878e-06
7.94088450781e-07
-2.07893946247e-07
-4.68284318115e-06
5.28584545582e-07
-5.26790083435e-07
-4.07455439787e-06
2.76658646847e-07
-8.84946669368e-07
-2.97999508166e-06
1.27373062654e-07
-1.22193156218e-06
-1.64558913703e-06
1.33140592515e-07
-1.46754563867e-06
-4.73394049601e-07
2.82381560826e-07
-1.45457563221e-06
6.44185044892e-07
-1.11757839173e-06
2.79783073586e-07
1.9512245847e-06
-1.62958725813e-06
2.09426142473e-06
1.83274072068e-06
-3.47022668135e-06
4.18089178394e-06
1.92209524981e-06
-3.98816604758e-06
5.78306518563e-06
2.2339712909e-06
-3.7920842545e-06
6.59739020368e-06
2.73631113306e-06
-3.30594936497e-06
6.546476015e-06
3.31698183517e-06
-2.714093147e-06
5.71052215882e-06
3.82960433549e-06
-2.14525070547e-06
4.24039292082e-06
4.23568535232e-06
-1.66016668536e-06
2.35351201684e-06
4.48989606576e-06
-1.32425185736e-06
2.93452296728e-07
4.58823586635e-06
-1.17123171189e-06
-1.70409310564e-06
4.5403930939e-06
-1.20402374983e-06
-3.42436726645e-06
4.35473147112e-06
-1.40467098232e-06
-4.68368640773e-06
4.04248235187e-06
-1.74142095247e-06
-5.34466913698e-06
3.62527898687e-06
-2.17020707521e-06
-5.32325169284e-06
3.14539017367e-06
-2.6382223078e-06
-4.59525105022e-06
2.64600270015e-06
-3.09734388442e-06
-3.25296011691e-06
2.23866851725e-06
-3.45358551128e-06
-1.55127306359e-06
1.99972477873e-06
-3.56827028053e-06
-1.12175159261e-07
1.9319220567e-06
-3.08863735455e-06
2.00823735652e-06
-1.47622677575e-06
1.31822853397e-07
3.46232235803e-06
-1.64292068581e-06
2.21062325343e-06
3.77017177672e-06
-4.01623150342e-06
4.57547041297e-06
4.13349996164e-06
-4.57625185971e-06
6.33160545657e-06
4.69854457922e-06
-4.22070824503e-06
7.17822451017e-06
5.41728185518e-06
-3.52758961325e-06
7.07117772927e-06
6.16899258369e-06
-2.7449637323e-06
6.11933060736e-06
6.80622895545e-06
-2.0247771893e-06
4.50749248781e-06
7.28982152921e-06
-1.4422976716e-06
2.4688721411e-06
7.58363007059e-06
-1.05511319323e-06
2.59165075208e-07
7.68567642595e-06
-8.87732953473e-07
-1.87647351136e-06
7.61201487489e-06
-9.35982590518e-07
-3.71934135612e-06
7.3775391868e-06
-1.17993922101e-06
-5.07843889339e-06
6.9902213661e-06
-1.58864079865e-06
-5.80854230509e-06
6.47772618208e-06
-2.12234308535e-06
-5.8063585479e-06
5.87082839e-06
-2.72762124792e-06
-5.03042436217e-06
5.2126869299e-06
-3.34261764082e-06
-3.54945484268e-06
4.61458043755e-06
-3.85688059401e-06
-1.61703336909e-06
4.15336996608e-06
-4.08606572831e-06
3.07014608989e-08
3.84282966268e-06
-3.5586414223e-06
3.53074213912e-06
-1.49180265763e-06
1.54061148453e-07
4.6828907904e-06
-1.37462966144e-06
2.52921312221e-06
5.27882210738e-06
-3.88380237083e-06
5.15253381337e-06
5.79995728623e-06
-4.28977801587e-06
7.02983103055e-06
6.48694011585e-06
-3.66569267016e-06
7.86364772888e-06
7.28756773914e-06
-2.70410241487e-06
7.65148071232e-06
8.08440968244e-06
-1.70324983399e-06
6.54460381492e-06
8.74588219863e-06
-8.32776017195e-07
4.76582360947e-06
9.23545673341e-06
-1.66854589642e-07
2.56632909028e-06
9.52056748222e-06
2.62557592259e-07
2.12161549165e-07
9.61082086125e-06
4.29023653003e-07
-2.05744287684e-06
9.52533478869e-06
3.56285101833e-07
-4.03044221121e-06
9.28077033083e-06
6.97688003598e-08
-5.50558068453e-06
8.89001325449e-06
-4.24652801055e-07
-6.33435942098e-06
8.36614000971e-06
-1.05963447544e-06
-6.38757047715e-06
7.73897333017e-06
-1.81493325011e-06
-5.59608719508e-06
7.04266759937e-06
-2.62146326994e-06
-4.00167227926e-06
6.37703671397e-06
-3.35687043619e-06
-1.85753022858e-06
5.80993363245e-06
-3.80070487029e-06
2.23915424317e-08
5.35865435629e-06
-3.39574553687e-06
4.77841782493e-06
-1.22528353938e-06
3.48454570276e-07
5.34270786147e-06
-1.00827175252e-06
3.02943900005e-06
6.0720241083e-06
-3.47418652472e-06
5.87456267964e-06
6.63311046647e-06
-3.67827688095e-06
7.83421172229e-06
7.31220857147e-06
-2.78491742762e-06
8.6188693283e-06
8.06797127473e-06
-1.56506097809e-06
8.27288908236e-06
8.79975760197e-06
-3.69367419096e-07
6.98508636836e-06
9.39034522036e-06
6.43340036638e-07
5.01937196755e-06
9.82039305519e-06
1.38077850823e-06
2.654330202e-06
1.00630697455e-05
1.82254000145e-06
1.54357516604e-07
1.0130770438e-05
1.98002365282e-06
-2.24763559768e-06
1.00467724838e-05
1.88055597824e-06
-4.34689016263e-06
9.82933288272e-06
1.55069256034e-06
-5.95391249451e-06
9.48807879221e-06
1.00895731512e-06
-6.89678682519e-06
9.03299333697e-06
2.76021503246e-07
-7.02817091802e-06
8.48445200867e-06
-6.14094081011e-07
-6.24988229242e-06
7.86103428496e-06
-1.59665476387e-06
-4.57529262209e-06
7.2454642912e-06
-2.54301662578e-06
-2.25206246636e-06
6.68922947778e-06
-3.20252528696e-06
-1.33329251513e-07
6.20252745971e-06
-2.96260552299e-06
5.49306493129e-06
-8.47975841214e-07
6.46007224909e-07
5.31761404831e-06
-6.20913551655e-07
3.60800334365e-06
6.06314990678e-06
-2.95312203497e-06
6.63249689448e-06
6.57845210901e-06
-2.96983523177e-06
8.64089287736e-06
7.15894194764e-06
-1.85512929755e-06
9.35789326449e-06
7.78659430423e-06
-4.35623251706e-07
8.85976744579e-06
8.3715947189e-06
9.26288970151e-07
7.3937333951e-06
8.83994275353e-06
2.01643688662e-06
5.24970486506e-06
9.17342344784e-06
2.79099859496e-06
2.73028014324e-06
9.3517345328e-06
3.23076045369e-06
1.01263159566e-07
9.39189255529e-06
3.36789540849e-06
-2.41601667103e-06
9.31958536449e-06
3.24446747442e-06
-4.63025018767e-06
9.15294687442e-06
2.89062000059e-06
-6.35743960875e-06
8.89984086538e-06
2.31542776282e-06
-7.41519545061e-06
8.56291466959e-06
1.52783487675e-06
-7.63840773541e-06
8.15264572969e-06
5.55018919567e-07
-6.89498303324e-06
7.67605506124e-06
-5.58445088536e-07
-5.17335551955e-06
7.18913714648e-06
-1.6652999079e-06
-2.71234157439e-06
6.72567625497e-06
-2.49746017004e-06
-3.77744731978e-07
6.2799118972e-06
-2.41198064736e-06
5.55401422283e-06
-4.38693611082e-07
9.37121558313e-07
4.66521901056e-06
-2.84726671589e-07
4.12484240286e-06
5.31348595326e-06
-2.43805701154e-06
7.28368559875e-06
5.72373838017e-06
-2.30412950081e-06
9.32039316274e-06
6.15545006159e-06
-1.03321560287e-06
9.96487908139e-06
6.60905067365e-06
5.33057901943e-07
9.33808570552e-06
7.02210505187e-06
1.97628334893e-06
7.72038555806e-06
7.34567452058e-06
3.11196879626e-06
5.42891675609e-06
7.5688932926e-06
3.89599946162e-06
2.78582294676e-06
7.67672205097e-06
4.31810684427e-06
5.9686657763e-08
7.69023896882e-06
4.42779042552e-06
-2.53967110921e-06
7.63641633955e-06
4.28252728888e-06
-4.83700045131e-06
7.53309068768e-06
3.91718593824e-06
-6.65527117132e-06
7.38488468734e-06
3.33322721147e-06
-7.80630767823e-06
7.18695012794e-06
2.52700128765e-06
-8.10921831489e-06
6.93976835425e-06
1.51578822181e-06
-7.4094370701e-06
6.64049732296e-06
3.35776726744e-07
-5.66827787267e-06
6.32083634552e-06
-8.72858097628e-07
-3.11632886044e-06
5.99478543845e-06
-1.82105780906e-06
-6.18745671703e-07
5.64350344072e-06
-1.86117426739e-06
5.01227416567e-06
-7.70053063926e-08
1.19623091879e-06
3.48069004612e-06
-1.17020862471e-08
4.54157128279e-06
3.95338430675e-06
-1.98523880746e-06
7.78712173888e-06
4.23015996705e-06
-1.75197203766e-06
9.83627742259e-06
4.5023965626e-06
-3.96102061327e-07
1.04196382786e-05
4.76912359502e-06
1.25656647145e-06
9.69011368349e-06
5.00884407939e-06
2.74278594197e-06
7.95381316604e-06
5.19063584643e-06
3.89133967978e-06
5.5483993027e-06
5.3090289918e-06
4.665278735e-06
2.81771153983e-06
5.35779631411e-06
5.04961410144e-06
2.77802468756e-08
5.35507792973e-06
5.12509290208e-06
-2.61636747514e-06
5.32325479742e-06
4.95730974582e-06
-4.96037012784e-06
5.28210474087e-06
4.59498895737e-06
-6.83717600222e-06
5.23755108202e-06
4.02413970985e-06
-8.05458568169e-06
5.17610761908e-06
3.22825232064e-06
-8.42080233764e-06
5.08847250234e-06
2.21751259511e-06
-7.76374035552e-06
4.96803691054e-06
1.01539853136e-06
-6.02415851509e-06
4.82345522696e-06
-2.42200561035e-07
-3.42674696902e-06
4.64580311527e-06
-1.24842897874e-06
-8.25985679015e-07
4.41572796561e-06
-1.37298549479e-06
3.93984426666e-06
2.46444441223e-07
1.37518665712e-06
1.91189917605e-06
1.93604132219e-07
4.8152753817e-06
2.16882938415e-06
-1.65553382872e-06
8.11287837176e-06
2.29917913226e-06
-1.36662207813e-06
1.01555377052e-05
2.40904924734e-06
5.06881853055e-08
1.0696746005e-05
2.51121003411e-06
1.71670559744e-06
9.89735277087e-06
2.59715831006e-06
3.21107946927e-06
8.08202637326e-06
2.65624519859e-06
4.34971762199e-06
5.60711098415e-06
2.6916854363e-06
5.09225959133e-06
2.8262171407e-06
2.6980448664e-06
5.44064594667e-06
1.19431247691e-08
2.69278812213e-06
5.47656441854e-06
-2.64157674056e-06
2.69368374221e-06
5.28309139548e-06
-4.99066719321e-06
2.71474828865e-06
4.91644722625e-06
-6.8891606891e-06
2.75795093447e-06
4.37809381298e-06
-8.14303907167e-06
2.81430775564e-06
3.61567830124e-06
-8.55270766556e-06
2.86417598658e-06
2.63396510996e-06
-7.93332819707e-06
2.90204496132e-06
1.44661248937e-06
-6.21706644944e-06
2.91215419487e-06
1.95039349474e-07
-3.61136566108e-06
2.87964179061e-06
-8.39539318954e-07
-9.67361016222e-07
2.78182000972e-06
-1.01009647015e-06
2.50449434067e-06
4.67989073043e-07
1.46503631522e-06
1.61037584496e-07
2.8582526687e-07
4.93744877521e-06
1.8029984799e-07
-1.48388286974e-06
8.24774429829e-06
1.62042139118e-07
-1.17315836473e-06
1.02831013787e-05
1.23720927517e-07
2.4997153714e-07
1.079980598e-05
7.30352355678e-08
1.92147063137e-06
9.96718908356e-06
2.41206032246e-08
3.40565516497e-06
8.11721091147e-06
-1.82247446171e-08
4.52444877807e-06
5.61785635289e-06
-5.12200088705e-08
5.24226071878e-06
2.82628766251e-06
-6.74637612941e-08
5.55707801776e-06
2.08068625935e-08
-5.87202871982e-08
5.55698982147e-06
-2.61257543003e-06
-1.62762491643e-08
5.34334275058e-06
-4.94114233918e-06
6.45847208128e-08
4.97873076869e-06
-6.82906119891e-06
1.86295814999e-07
4.45957410496e-06
-8.08793907889e-06
3.38020847322e-07
3.73516479271e-06
-8.5169979917e-06
5.04690999779e-07
2.78854384767e-06
-7.9265238165e-06
6.79182721211e-07
1.63238802257e-06
-6.24261985896e-06
8.27464614814e-07
4.00785637888e-07
-3.66404119923e-06
9.26990422265e-07
-6.25927197202e-07
-1.03069869724e-06
9.60783378752e-07
-8.12305703739e-07
8.98936416987e-07
5.74859362518e-07
1.46233487245e-06
-1.57315679944e-06
2.71859571955e-07
4.91384332789e-06
-1.78801514955e-06
-1.4831933292e-06
8.20479215718e-06
-1.95064174152e-06
-1.17826470373e-06
1.02283457181e-05
-2.13112422227e-06
2.31291970592e-07
1.07424328563e-05
-2.32818292444e-06
1.88713154057e-06
9.91500942904e-06
-2.50492950322e-06
3.35647417424e-06
8.07698793953e-06
-2.64096492463e-06
4.46076239752e-06
5.59556366047e-06
-2.73306067303e-06
5.16326570318e-06
2.83044569565e-06
-2.76300275062e-06
5.46065767491e-06
5.91121865893e-08
-2.73205031691e-06
5.444664149e-06
-2.53282058278e-06
-2.64496240638e-06
5.22061937182e-06
-4.82052046852e-06
-2.50298141207e-06
4.85526627645e-06
-6.67321089633e-06
-2.30770393425e-06
4.34669026431e-06
-7.90902435252e-06
-2.06650306515e-06
3.64033733693e-06
-8.33290625816e-06
-1.79073045638e-06
2.7193032809e-06
-7.75873400712e-06
-1.48955217042e-06
1.59456257804e-06
-6.11387177407e-06
-1.21193825764e-06
3.94540641418e-07
-3.59171610578e-06
-9.87547803886e-07
-6.07617358646e-07
-1.01367914358e-06
-8.28935618347e-07
-7.88317808546e-07
-6.84922692101e-07
5.70180097563e-07
1.36800422939e-06
-3.09862235368e-06
1.57461431528e-07
4.74714170765e-06
-3.52045595182e-06
-1.6466965015e-06
7.98920443089e-06
-3.81783608624e-06
-1.37486808448e-06
9.99745676032e-06
-4.145852027e-06
6.47590964961e-09
1.0532420643e-05
-4.4863504331e-06
1.62320419749e-06
9.7491809528e-06
-4.79635601213e-06
3.07466688589e-06
7.96973216636e-06
-5.03302148239e-06
4.17150610498e-06
5.5490537409e-06
-5.18466806745e-06
4.87228659367e-06
2.84583284551e-06
-5.23269651815e-06
5.17291537695e-06
1.33574141832e-07
-5.18511543196e-06
5.16532440361e-06
-2.40262282616e-06
-5.05343497777e-06
4.94466994599e-06
-4.63385794219e-06
-4.84932826027e-06
4.57758217764e-06
-6.42921586269e-06
-4.57762448958e-06
4.06527852105e-06
-7.61602275246e-06
-4.23796910082e-06
3.35827286075e-06
-8.01101254767e-06
-3.84702912762e-06
2.45128836607e-06
-7.4398082538e-06
-3.41680436834e-06
1.35604783622e-06
-5.83834750989e-06
-3.0104210838e-06
1.97022090195e-07
-3.3982923975e-06
-2.66315620278e-06
-7.64446618466e-07
-9.18186541108e-07
-2.39014449487e-06
-9.1889681123e-07
-2.07214610131e-06
4.69037007167e-07
1.18757232815e-06
-4.23630653516e-06
-4.9888031711e-08
4.43995223399e-06
-4.81956546614e-06
-1.95327021239e-06
7.59820309404e-06
-5.23221669293e-06
-1.74386995182e-06
9.5971501705e-06
-5.69453402086e-06
-4.50264636462e-07
1.01719773159e-05
-6.19242880597e-06
1.13125181266e-06
9.47033979812e-06
-6.64502545297e-06
2.55030765567e-06
7.79343675333e-06
-6.99194711341e-06
3.63582943747e-06
5.4776374687e-06
-7.21646374042e-06
4.34759571862e-06
2.87084942795e-06
-7.29423361897e-06
4.66832582801e-06
2.40880164219e-07
-7.2399442344e-06
4.68479861049e-06
-2.22091353915e-06
-7.07388503008e-06
4.48224411359e-06
-4.37940291321e-06
-6.80866514974e-06
4.11782642674e-06
-6.09474562305e-06
-6.45112976809e-06
3.58884798902e-06
-7.20789411677e-06
-6.00553092423e-06
2.88071021951e-06
-7.55237977611e-06
-5.49110746832e-06
1.98856388186e-06
-6.97379420982e-06
-4.92791533351e-06
9.32525328865e-07
-5.41964840856e-06
-4.38914734322e-06
-1.75419524004e-07
-3.08810512806e-06
-3.92624818348e-06
-1.06845118846e-06
-7.50772164179e-07
-3.55646754243e-06
-1.17100973114e-06
-3.11192572792e-06
2.89007608298e-07
9.34803968136e-07
-4.85329043042e-06
-3.1781998809e-07
4.00653495001e-06
-5.52634244833e-06
-2.36495385455e-06
7.05522950879e-06
-6.02485405415e-06
-2.25605692643e-06
9.03098360608e-06
-6.6074549979e-06
-1.06283269854e-06
9.66799253115e-06
-7.24437295156e-06
4.1493578626e-07
9.08148866378e-06
-7.83270102316e-06
1.77418011685e-06
7.54523473323e-06
-8.28931748586e-06
2.83362504436e-06
5.37439271717e-06
-8.59072470932e-06
3.54510372e-06
2.89445643816e-06
-8.7102870255e-06
3.89599033898e-06
3.72058297232e-07
-8.66255384313e-06
3.94500825491e-06
-1.99408948243e-06
-8.47080122336e-06
3.76306428834e-06
-4.05289214669e-06
-8.15194472212e-06
3.40208235834e-06
-5.66535007027e-06
-7.71582226595e-06
2.87715038631e-06
-6.68374271913e-06
-7.17140591508e-06
2.18426751571e-06
-6.9612026614e-06
-6.54155200676e-06
1.32790434816e-06
-6.36858489038e-06
-5.85801573913e-06
3.3748256146e-07
-4.87344695901e-06
-5.2029230514e-06
-6.81362199927e-07
-2.67596819524e-06
-4.64295972194e-06
-1.48076710474e-06
-5.2698869414e-07
-4.20344495959e-06
-1.50200189081e-06
-3.68239880125e-06
4.34845243246e-08
6.55663186472e-07
-4.87514456772e-06
-6.33809020736e-07
3.49191468222e-06
-5.53604762679e-06
-2.82654623041e-06
6.39367779199e-06
-6.06626861115e-06
-2.86034833549e-06
8.33517514286e-06
-6.72123087474e-06
-1.82772109929e-06
9.04801097178e-06
-7.45262746237e-06
-5.04580792114e-07
8.6012029293e-06
-8.15254119006e-06
7.66648854955e-07
7.23482757935e-06
-8.69885426746e-06
1.77591284341e-06
5.23551478841e-06
-9.06803259723e-06
2.47662138709e-06
2.9081167477e-06
-9.23072761166e-06
2.84783925556e-06
5.16626550381e-07
-9.19963342563e-06
2.92857026192e-06
-1.73012933191e-06
-8.9992225644e-06
2.77517751785e-06
-3.66980139266e-06
-8.64751691559e-06
2.43524435822e-06
-5.16036258103e-06
-8.15777311313e-06
1.93251198668e-06
-6.06684457373e-06
-7.54343281745e-06
1.27850876199e-06
-6.26554869075e-06
-6.83195242245e-06
4.89104394749e-07
-5.65579671865e-06
-6.06436464163e-06
-4.03403145405e-07
-4.23292781746e-06
-5.33592024225e-06
-1.2898716896e-06
-2.19870194941e-06
-4.72232906934e-06
-1.95485640371e-06
-2.79213843115e-07
-4.25801060724e-06
-1.86492227308e-06
-3.74129171963e-06
-2.20320791271e-07
3.78184324434e-07
-4.26142991047e-06
-9.91899018063e-07
2.93778323705e-06
-4.80584204066e-06
-3.28980447687e-06
5.65819913335e-06
-5.29255280034e-06
-3.49413155147e-06
7.55001327691e-06
-5.93891013149e-06
-2.6741345688e-06
8.33310096403e-06
-6.69073930145e-06
-1.54497537272e-06
8.04469819381e-06
-7.42949270166e-06
-4.34645116248e-07
6.86876431249e-06
-8.02326557981e-06
5.00345870103e-07
5.06500865875e-06
-8.43337996017e-06
1.16910369921e-06
2.91297090034e-06
-8.62864198661e-06
1.54995274705e-06
6.73590719807e-07
-8.62147525733e-06
1.66122249024e-06
-1.4353493859e-06
-8.4337929576e-06
1.54351079875e-06
-3.24061534433e-06
-8.0831019466e-06
1.24085110523e-06
-4.59748620942e-06
-7.58645652158e-06
7.85554239021e-07
-5.38563607947e-06
-6.95794776252e-06
2.02664694231e-07
-5.50201537133e-06
-6.22872701806e-06
-4.8684624414e-07
-4.88264838378e-06
-5.45099432126e-06
-1.23273738655e-06
-3.54664683037e-06
-4.72379558342e-06
-1.94812620297e-06
-1.70051122215e-06
-4.12963295984e-06
-2.43883161966e-06
-4.2265817167e-08
-3.69856290293e-06
-2.21769294861e-06
-3.27637614186e-06
-5.07181283983e-07
2.01190827762e-07
-3.13102999348e-06
-1.33159084023e-06
2.47021905118e-06
-3.4199811251e-06
-3.65488917702e-06
4.97639075036e-06
-3.76051705399e-06
-4.03820735061e-06
6.79026421157e-06
-4.28562914361e-06
-3.4671541925e-06
7.62626332903e-06
-4.94854034402e-06
-2.57819766016e-06
7.47689187362e-06
-5.63234501002e-06
-1.64777569069e-06
6.48773128672e-06
-6.19526208909e-06
-8.38842274662e-07
4.87929295048e-06
-6.59720258324e-06
-2.27738390798e-07
2.90101414572e-06
-6.80797055437e-06
1.57607972624e-07
8.15745363557e-07
-6.82812258606e-06
2.91916595595e-07
-1.15338731739e-06
-6.67871924964e-06
2.14059296865e-07
-2.8262987349e-06
-6.37432997124e-06
-3.58604075283e-08
-4.0498360532e-06
-5.92786696587e-06
-4.35052236071e-07
-4.7256566173e-06
-5.36405297091e-06
-9.18074320373e-07
-4.77267231346e-06
-4.7114566076e-06
-1.47025483316e-06
-4.15645968139e-06
-4.02410981052e-06
-2.0430972263e-06
-2.92316156274e-06
-3.40210711779e-06
-2.55498659636e-06
-1.28144853434e-06
-2.92636746002e-06
-2.84497846232e-06
1.27383679401e-07
-2.61845788338e-06
-2.48893711184e-06
-2.37856635096e-06
-7.70426030672e-07
1.87966725894e-07
-1.74028666294e-06
-1.57871020326e-06
2.18167575185e-06
-1.64280207908e-06
-3.77088816322e-06
4.44397893492e-06
-1.73299546325e-06
-4.28982473709e-06
6.14395997834e-06
-2.0229012493e-06
-3.96270874566e-06
6.99564867612e-06
-2.48215129742e-06
-3.3180773984e-06
6.95257696509e-06
-3.00511854312e-06
-2.58415427775e-06
6.11925773203e-06
-3.45567322275e-06
-1.90626906188e-06
4.67811012961e-06
-3.79568922647e-06
-1.36036514344e-06
2.86135844497e-06
-3.9878723369e-06
-1.00334594645e-06
9.19813725527e-07
-4.03267289047e-06
-8.53904478566e-07
-9.18890064413e-07
-3.94246389039e-06
-8.97551211108e-07
-2.46762702396e-06
-3.72692779295e-06
-1.09866502286e-06
-3.58166408382e-06
-3.39922778039e-06
-1.4146020803e-06
-4.16643899272e-06
-2.97848199467e-06
-1.80079612933e-06
-4.16572406178e-06
-2.49780375055e-06
-2.21436789632e-06
-3.57207538364e-06
-2.00605668204e-06
-2.61170190168e-06
-2.45505669089e-06
-1.59609834373e-06
-2.92302750793e-06
-1.0230638331e-06
-1.3370259333e-06
-3.02133435864e-06
1.55863010674e-07
-1.23636581097e-06
-2.5610188403e-06
-1.27714265506e-06
-9.45560634804e-07
3.30879580522e-07
-5.10366559213e-07
-1.56079987558e-06
2.08292113074e-06
-1.29986305842e-07
-3.26485745454e-06
4.08679212517e-06
7.04602727576e-09
-3.74391249285e-06
5.64347878766e-06
-1.91073373243e-08
-3.56048043415e-06
6.46462002638e-06
-2.00598367112e-07
-3.10269387977e-06
6.47529139418e-06
-4.76030403369e-07
-2.53975908489e-06
5.75334180302e-06
-7.37907974649e-07
-1.99581513097e-06
4.44897409118e-06
-9.57901445609e-07
-1.53341948516e-06
2.77656094284e-06
-1.09926072977e-06
-1.21619787651e-06
9.72520483659e-07
-1.1540779633e-06
-1.07455395305e-06
-7.42402119922e-07
-1.12510173884e-06
-1.102439158e-06
-2.18382223286e-06
-1.01803323195e-06
-1.26747421653e-06
-3.21194302464e-06
-8.44850858702e-07
-1.52625605557e-06
-3.73960520154e-06
-6.20629877241e-07
-1.83018998788e-06
-3.7240231353e-06
-3.77551482723e-07
-2.13583444514e-06
-3.17333196607e-06
-1.48769727312e-07
-2.40797823746e-06
-2.17363821637e-06
-6.44727023468e-09
-2.5893448939e-06
-9.39460953876e-07
1.92737503121e-08
-2.590476956e-06
5.35037252156e-08
-7.32300556642e-08
-2.15610039616e-06
-3.30710565059e-07
-8.92928341007e-07
7.07578853508e-07
-1.21794554821e-06
2.1578396597e-06
-1.58024719985e-06
3.75243911489e-06
-1.58755343453e-06
5.03449194421e-06
-1.30116007951e-06
5.73879377839e-06
-9.04900020312e-07
5.75116377483e-06
-4.88400133305e-07
5.14359701453e-06
-1.3034087975e-07
4.01405955195e-06
1.71636390785e-07
2.55035510662e-06
3.6444408845e-07
9.6101032389e-07
4.35267146016e-07
-5.61121093188e-07
3.97029918881e-07
-1.85015228013e-06
2.70998087673e-07
-2.77377746568e-06
7.87743544216e-08
-3.25252539408e-06
-1.41881999935e-07
-3.26129498418e-06
-3.68781981739e-07
-2.80416608438e-06
-6.05898713522e-07
-1.99473778354e-06
-8.15875626846e-07
-1.02974331736e-06
-9.45720732137e-07
-2.28965017005e-07
-8.74008348598e-07
-5.59675586088e-07
1.55421543166e-06
1.47884662447e-06
-4.31535131465e-06
3.32072709654e-06
1.76975886182e-06
-5.1967793142e-06
4.90862944017e-06
2.05575157108e-06
-5.30740052221e-06
6.0168090519e-06
2.36616395114e-06
-4.83153293006e-06
6.47325037819e-06
2.66180375407e-06
-4.0580547234e-06
6.2271703458e-06
2.91334872705e-06
-3.17478594634e-06
5.32098852281e-06
3.09635371858e-06
-2.32916502013e-06
3.89784022924e-06
3.21372271972e-06
-1.61753678655e-06
2.14290310528e-06
3.27025656642e-06
-1.13808079532e-06
2.51426311883e-07
3.28286539376e-06
-9.33411027304e-07
-1.58324355459e-06
3.26158927856e-06
-9.99409581148e-07
-3.18509386327e-06
3.20721689118e-06
-1.30820854447e-06
-4.41077859432e-06
3.11319146914e-06
-1.81505228802e-06
-5.13388842083e-06
2.97058008265e-06
-2.45536358116e-06
-5.28578255965e-06
2.77896699341e-06
-3.15386230068e-06
-4.8680833046e-06
2.54054497231e-06
-3.84319022899e-06
-3.9511867484e-06
2.27676040359e-06
-4.41558780612e-06
-2.67900547265e-06
2.00213796876e-06
-4.74186410271e-06
-1.26781368091e-06
1.72930410901e-06
-4.59507069489e-06
1.41629474809e-06
-3.80168631617e-06
1.91623389039e-06
3.09629288863e-06
-5.16326757825e-06
3.71643827808e-06
3.41808323357e-06
-6.91875561001e-06
5.18612005785e-06
3.76630309225e-06
-7.16839945467e-06
6.16297348668e-06
4.1944863271e-06
-6.59726008219e-06
6.51718122626e-06
4.64591652743e-06
-5.64426981707e-06
6.21394309266e-06
5.06548317739e-06
-4.56298932126e-06
5.29450979528e-06
5.40568092826e-06
-3.53514439189e-06
3.88517309692e-06
5.64925572138e-06
-2.68636267493e-06
2.15268175277e-06
5.79081649356e-06
-2.11232003743e-06
2.85075999551e-07
5.84060281567e-06
-1.86136289556e-06
-1.52892646458e-06
5.80836237568e-06
-1.93679383288e-06
-3.1171919415e-06
5.69805570342e-06
-2.30724372651e-06
-4.33644028649e-06
5.50852170931e-06
-2.91750223774e-06
-5.07886036207e-06
5.23714025666e-06
-3.69434655613e-06
-5.28149702724e-06
4.89512824857e-06
-4.55174626622e-06
-4.94719303116e-06
4.50132275003e-06
-5.39242499212e-06
-4.13319456703e-06
4.09428540542e-06
-6.08510825725e-06
-2.95855760509e-06
3.71009867232e-06
-6.4508671648e-06
-1.53947818791e-06
3.37705996427e-06
-6.15547181055e-06
3.0274646737e-06
-4.62687441078e-06
2.23758660872e-06
4.54537174673e-06
-5.32958633204e-06
4.09712890353e-06
4.77149937027e-06
-7.22919010649e-06
5.50871665644e-06
5.07336964951e-06
-7.29490626941e-06
6.39175368324e-06
5.50766816096e-06
-6.41692711548e-06
6.65438327917e-06
6.00870843773e-06
-5.15301104063e-06
6.27983036912e-06
6.50528976739e-06
-3.81021724691e-06
5.31824477898e-06
6.93392476467e-06
-2.59143518134e-06
3.89265133369e-06
7.25847935312e-06
-1.62592751166e-06
2.16372890999e-06
7.45982886473e-06
-9.95202705197e-07
3.07665887402e-07
7.54196125927e-06
-7.33027863662e-07
-1.49730278065e-06
7.50991033899e-06
-8.32561322929e-07
-3.08826201711e-06
7.36960879032e-06
-1.26053248322e-06
-4.33072960328e-06
7.13019267741e-06
-1.96784358781e-06
-5.11640310427e-06
6.78800803883e-06
-2.88753677494e-06
-5.38263956122e-06
6.37246842387e-06
-3.93872436244e-06
-5.12250161262e-06
5.91419806188e-06
-5.01563025944e-06
-4.37960059017e-06
5.46311190888e-06
-5.96860741906e-06
-3.24907424272e-06
5.06913242182e-06
-6.57562506113e-06
-1.79047540509e-06
4.77225781184e-06
-6.41243731186e-06
4.50123235787e-06
-4.7560452824e-06
2.56543556897e-06
5.56815290499e-06
-4.96284657911e-06
4.54004963931e-06
5.68239039516e-06
-6.76930764334e-06
5.95258865258e-06
5.89776377956e-06
-6.52671125934e-06
6.78005659632e-06
6.27778113716e-06
-5.26327359636e-06
6.9628017898e-06
6.75650870596e-06
-3.63464778971e-06
6.50371405743e-06
7.25864202633e-06
-1.99751418071e-06
5.46834312427e-06
7.7076716186e-06
-5.71151661432e-07
3.98484544964e-06
8.06567977287e-06
5.09443039225e-07
2.21775403273e-06
8.30276185645e-06
1.18671647898e-06
3.3052397893e-07
8.40657529795e-06
1.45164019435e-06
-1.50645444396e-06
8.38104736928e-06
1.32212705476e-06
-3.13559877601e-06
8.23417702459e-06
8.34345463103e-07
-4.4414438203e-06
7.9727611422e-06
3.86243296307e-08
-5.29480065332e-06
7.62331186199e-06
-1.04158092761e-06
-5.6356319173e-06
7.2060457428e-06
-2.30767875948e-06
-5.44123979867e-06
6.75685840697e-06
-3.65851514882e-06
-4.73883911144e-06
6.33260299258e-06
-4.92876155989e-06
-3.60154608902e-06
5.98721023818e-06
-5.85607499564e-06
-2.04936851618e-06
5.76291263467e-06
-5.93857718458e-06
5.57912905593e-06
-4.35254831413e-06
2.87410037516e-06
6.00090574199e-06
-4.31512517411e-06
5.00229008706e-06
6.022783458e-06
-5.94276949286e-06
6.46133868815e-06
6.14672350527e-06
-5.38628532041e-06
7.26681624157e-06
6.44366669747e-06
-3.75628055548e-06
7.3867991704e-06
6.85695350733e-06
-1.78548862175e-06
6.84045585909e-06
7.30789700493e-06
1.27721104236e-07
5.72178071645e-06
7.73893773901e-06
1.73074935759e-06
4.15752823583e-06
8.09005216306e-06
2.92065900115e-06
2.31319445703e-06
8.32798687368e-06
3.64164924906e-06
3.56792385182e-07
8.43886492742e-06
3.90413663024e-06
-1.54808689289e-06
8.42292789706e-06
3.74355527326e-06
-3.25258995707e-06
8.28964519925e-06
3.1997279717e-06
-4.62808300069e-06
8.05320248308e-06
2.3040095014e-06
-5.56131746816e-06
7.73396192986e-06
1.09860635609e-06
-5.97827227858e-06
7.35920644881e-06
-3.50299524145e-07
-5.83767215327e-06
6.97299382398e-06
-1.95338981654e-06
-5.14965160654e-06
6.62152467695e-06
-3.51995830355e-06
-3.96728208111e-06
6.35558555605e-06
-4.75326950799e-06
-2.28695721316e-06
6.21111558881e-06
-5.09113268281e-06
6.09804608895e-06
-3.65384969404e-06
3.13755989177e-06
5.78518466109e-06
-3.54275259049e-06
5.43304071979e-06
5.75129006536e-06
-4.97710967925e-06
6.96754688943e-06
5.79876794204e-06
-4.15638596202e-06
7.78025749127e-06
6.00489098523e-06
-2.22906420525e-06
7.85090428112e-06
6.32396097587e-06
2.67225842079e-08
7.23969387799e-06
6.7077845587e-06
2.13761203251e-06
6.02914653041e-06
7.07822602639e-06
3.88769628066e-06
4.3705967593e-06
7.38947484472e-06
5.15012612648e-06
2.43322926775e-06
7.60483653019e-06
5.89127880583e-06
3.88311879238e-07
7.70991681923e-06
6.14176144952e-06
-1.60102934986e-06
7.70418293252e-06
5.95255419116e-06
-3.38941214285e-06
7.59922758088e-06
5.36942087845e-06
-4.84718132634e-06
7.41016991743e-06
4.41622991032e-06
-5.86056248155e-06
7.1565663422e-06
3.11861196677e-06
-6.33835650556e-06
6.86412850673e-06
1.52789122065e-06
-6.23874528644e-06
6.56666517184e-06
-2.51727288204e-07
-5.54583601669e-06
6.31403380658e-06
-2.05071787701e-06
-4.29800644228e-06
6.13820072118e-06
-3.52790440882e-06
-2.48123137546e-06
6.06367614019e-06
-4.08131571933e-06
5.99167424894e-06
-2.81355281714e-06
3.33046174273e-06
4.95234737118e-06
-2.78235135504e-06
5.78524257978e-06
4.89669480601e-06
-4.03824279562e-06
7.40827221158e-06
4.89462724233e-06
-3.02301854773e-06
8.24119944567e-06
5.02219331887e-06
-8.8344516965e-07
8.29817887929e-06
5.25103575702e-06
1.54900381432e-06
7.62711793233e-06
5.53823376164e-06
3.81689535316e-06
6.33685752709e-06
5.82676916046e-06
5.65368645819e-06
4.58826524132e-06
6.0770582479e-06
6.95700884229e-06
2.55859950199e-06
6.25450531664e-06
7.69810435548e-06
4.25240684386e-07
6.34514834965e-06
7.92591827104e-06
-1.64692416762e-06
6.35036726816e-06
7.70850830738e-06
-3.51295524223e-06
6.28206120091e-06
7.10038380205e-06
-5.04463734041e-06
6.1559617879e-06
6.11911774904e-06
-6.1251773175e-06
5.98776903067e-06
4.77633881393e-06
-6.6545973221e-06
5.79693098196e-06
3.11240596449e-06
-6.57524333174e-06
5.60887997162e-06
1.21420817664e-06
-5.86845592263e-06
5.45670335804e-06
-7.22314757184e-07
-4.55087390147e-06
5.3655134302e-06
-2.36595216792e-06
-2.6118740744e-06
5.34072274887e-06
-3.07722028201e-06
5.27820603215e-06
-1.97541090393e-06
3.45380428992e-06
3.6098762312e-06
-2.12303544181e-06
6.04097717053e-06
3.56588771454e-06
-3.2416047706e-06
7.74870905228e-06
3.54037010057e-06
-2.10544685201e-06
8.61161888542e-06
3.59933959701e-06
1.63841879494e-07