/*--------------------------------*- C++ -*----------------------------------*\
| =========                 |                                                 |
| \\      /  F ield         | OpenFOAM: The Open Source CFD Toolbox           |
|  \\    /   O peration     | Version:  3.0.1                                 |
|   \\  /    A nd           | Web:      www.OpenFOAM.org                      |
|    \\/     M anipulation  |                                                 |
\*---------------------------------------------------------------------------*/
FoamFile
{
    version     2.0;
    format      ascii;
    class       volScalarField;
    location    "1.3";
    object      epsilon_0;
}
// * * * * * * * * * * * * * * * * * * * * * * * * * * * * * * * * * * * * * //

dimensions      [0 2 -3 0 0 0 0];

internalField   nonuniform List<scalar> 
7968
(
0.00671263974225
0.00717478635793
0.00747008757881
0.00760002117935
0.00764378030526
0.00765009403261
0.00764217752835
0.00762991054771
0.00761787121522
0.00760914309991
0.00760906328876
0.00761771511295
0.00762975565971
0.00764205586945
0.00765002040469
0.00764375561477
0.00760003333294
0.00747012806114
0.00717488600971
0.00671269832329
0.00717479277397
0.00982951583819
0.0114950226411
0.0122947324194
0.0126072606329
0.0126846606537
0.0126688234208
0.0126301962566
0.0125986286934
0.0125822700541
0.0125821457845
0.0125982973302
0.01262974244
0.0126683428514
0.0126842295452
0.01260693768
0.0122945264285
0.011494931969
0.00982963727352
0.00717491760092
0.00747005424088
0.0114948458223
0.0142181714868
0.0156344991975
0.0162489026471
0.0164394570711
0.0164447453573
0.016396938939
0.0163554206435
0.0163349572634
0.0163347723714
0.0163549041141
0.0163962009273
0.0164439095783
0.0164386822293
0.0162482847011
0.0156340825837
0.0142179663586
0.0114948938334
0.00747019402516
0.0075998413176
0.012294003733
0.0156339303069
0.0174493484711
0.0182674295898
0.0185263073605
0.0185326741081
0.0184658699909
0.0184100018839
0.0183836283272
0.0183833749352
0.0184092741082
0.0184648114431
0.0185314743172
0.0185251123307
0.018266447979
0.0174486309613
0.0156335138816
0.012293917949
0.00759997997397
0.00764336205601
0.0126058046869
0.0162476270541
0.0182668224705
0.0191729973632
0.0194410962571
0.0195051631491
0.0194917446414
0.0194570029852
0.0194356678592
0.0194354813048
0.0194564635572
0.0194909541777
0.0195042279126
0.019439580745
0.0191715905873
0.0182657350223
0.0162469036029
0.0126055117719
0.00764346478347
0.00764940214488
0.0126825409922
0.0164376697375
0.0185254842903
0.0194411771616
0.0198384431773
0.0199433595941
0.0199160505975
0.0198659036348
0.019836040408
0.0198358442122
0.0198653249974
0.0199151766167
0.0199423332364
0.0198373256498
0.0194394960222
0.0185240159409
0.0164366305224
0.0126820106068
0.00764944311147
0.0076412124836
0.012666195485
0.0164427235252
0.0185321147057
0.0195047435554
0.019943204196
0.0200253446359
0.0199652367131
0.0198892040962
0.0198457356837
0.0198455240132
0.0198886001281
0.0199643281665
0.0200242299853
0.0199420543476
0.0195035496006
0.0185304114428
0.016441425509
0.012665460804
0.00764118350278
0.00762868785327
0.0126272122401
0.0163948507055
0.0184656411012
0.0194912866803
0.0199156254264
0.0199644170635
0.0198686424881
0.0197645864178
0.0197057396043
0.0197054886357
0.0197639554431
0.0198677427175
0.0199633162721
0.0199144570995
0.0194900782266
0.0184638673593
0.0163934169372
0.0126263201669
0.00762859307214
0.00761644681381
0.0125954535398
0.016353313597
0.018410052894
0.0194567373621
0.0198657353902
0.0198885134306
0.0197644772858
0.0196362674991
0.0195622472366
0.0195619448516
0.0196355860752
0.0197636464395
0.0198875383598
0.0198646473096
0.0194555691046
0.0184083695091
0.0163518520141
0.0125944852481
0.00761629050381
0.00760768956225
0.0125791380851
0.0163329470127
0.0183839836539
0.019435776169
0.0198365252931
0.0198459965763
0.0197063765641
0.0195627432258
0.0194768122224
0.0194765987689
0.0195621863307
0.0197057002142
0.0198452127201
0.0198356154729
0.0194347442047
0.0183825117178
0.016331580827
0.0125781805001
0.00760749840543
0.0076079771168
0.0125794372647
0.0163332046704
0.0183841907104
0.0194359901764
0.0198367864943
0.0198463829561
0.0197068787988
0.0195633164608
0.0194775099444
0.0194773599198
0.0195629612466
0.0197064422929
0.0198458520395
0.0198361207632
0.0194351707775
0.0183830244148
0.0163319931523
0.0125785458921
0.00760778873209
0.00761703375972
0.0125962707385
0.0163540081652
0.0184106153263
0.0194573448459
0.0198665278408
0.0198896837736
0.0197659681476
0.0196379979062
0.0195642536124
0.0195641286905
0.0196377712559
0.0197657089008
0.0198893512042
0.0198660766228
0.0194567533186
0.0184097923933
0.0163529937425
0.0125954798341
0.00761688078114
0.00762937660663
0.0126284360099
0.0163959516699
0.0184665832535
0.0194922382808
0.0199168476085
0.0199661740397
0.0198708130862
0.0197671603094
0.0197087238058
0.0197086699333
0.0197670657142
0.0198706929154
0.0199659838825
0.0199165789046
0.0194918412896
0.0184660213954
0.0163951158863
0.0126277756948
0.00762926594628
0.00764191784318
0.0126677357601
0.0164442017799
0.018533445432
0.0195060017536
0.0199446952977
0.0200273191513
0.0199676423285
0.0198920962039
0.0198491058295
0.0198490958627
0.0198920679996
0.0199675994188
0.0200272398596
0.01994454929
0.0195057171468
0.0185329778659
0.0164434717804
0.0126671215047
0.00764183233841
0.00765006692775
0.0126842726036
0.0164394385194
0.018527200851
0.0194432663048
0.0198401680055
0.01994540236
0.0199185673652
0.0198689481421
0.0198395427676
0.0198395580427
0.0198689681565
0.0199185671494
0.0199453719655
0.0198400528793
0.0194430786544
0.0185266252831
0.0164386607797
0.0126837099266
0.00765001065173
0.00764393785168
0.0126075737917
0.0162495330539
0.0182686717287
0.0191750990026
0.0194439860995
0.0195071808402
0.0194941698334
0.0194599225505
0.0194390106606
0.0194390384826
0.019459971777
0.0194942024098
0.0195071616964
0.0194438156934
0.0191746170974
0.0182678994001
0.0162487224395
0.012607071526
0.0076439098249
0.00760026788859
0.0122955761734
0.0156356683382
0.0174510024589
0.018269102698
0.0185283638403
0.0185354665347
0.0184694716288
0.0184142846745
0.0183884754598
0.0183885083296
0.0184143364753
0.0184694745871
0.018535371711
0.0185280747007
0.0182685247692
0.0174502217903
0.0156349316207
0.0122951583428
0.00760026265287
0.00747030439154
0.0114960099172
0.0142195052114
0.0156357164489
0.0162499573867
0.0164405124856
0.0164460605799
0.0163986454633
0.0163575071665
0.0163373596606
0.016337426721
0.0163576526625
0.0163987811841
0.0164460734623
0.0164403299895
0.0162495146355
0.0156350910352
0.0142188965486
0.0114956849712
0.00747030328178
0.00717492911197
0.00983023187754
0.0114958409115
0.0122954609325
0.0126077811687
0.0126850048329
0.012669136427
0.0126306070644
0.0125992111321
0.0125830533911
0.0125831308745
0.0125994264734
0.0126308605804
0.0126693235477
0.0126850232453
0.0126075772661
0.0122950812981
0.0114954096881
0.00982998248502
0.00717490781349
0.0067126586799
0.00717488418548
0.00747018503544
0.0076000929922
0.00764379718645
0.00765003259558
0.00764205730469
0.00762976727425
0.0076177393881
0.00760906601564
0.00760906695298
0.00761776955293
0.00762981812333
0.00764209652051
0.00765003376489
0.00764375438064
0.0076000164093
0.00747009863957
0.00717483702706
0.00671263730742
0.00714431076053
0.00962595596734
0.0112322652066
0.012029295084
0.0123632818389
0.0124694736448
0.0124795648002
0.0124587251035
0.0124357805893
0.0124219324445
0.0124218473308
0.0124355587385
0.0124584369449
0.0124792726707
0.0124692154553
0.0123630848061
0.0120291628334
0.0112321987833
0.00962598971001
0.00714436085678
0.00962572361229
0.0106561134781
0.0120031890685
0.0127396786846
0.0130705591078
0.0131888196295
0.0132132918421
0.0132057984953
0.0131937276858
0.0131864997526
0.0131864365334
0.0131935565735
0.0132055578204
0.0132130250453
0.0131885649173
0.0130703417459
0.0127395059324
0.0120030611444
0.0106560315777
0.00962565350143
0.0112319566369
0.0120030342205
0.0134542618116
0.0143084056321
0.0147203311692
0.0148814845948
0.0149233772617
0.0149207060442
0.0149091986942
0.0149018231155
0.0149017548951
0.0149090096569
0.0149204333802
0.0149230672752
0.0148811802476
0.0147200629259
0.014308183122
0.0134540849124
0.0120029030926
0.0112318729527
0.0120287526189
0.0127392989916
0.0143081717222
0.0152702458683
0.0157544937341
0.0159540587599
0.0160127600926
0.0160153888302
0.0160048535791
0.0159974173643
0.0159973435151
0.0160046439183
0.0160150819602
0.0160124039393
0.01595369232
0.0157541571061
0.0152699546979
0.0143079325435
0.0127391210098
0.0120286573979
0.0123623253827
0.0130698755199
0.0147198180426
0.0157542355931
0.0162865639572
0.0165143201155
0.0165980890107
0.0166165044699
0.0166123205764
0.0166065482448
0.016606486908
0.0166121464798
0.0166162480111
0.0165977767706
0.0165139073516
0.0162861466659
0.0157538552156
0.0147194930213
0.0130696257225
0.0123621608743
0.0124680673793
0.0131878351033
0.0148807347699
0.0159536163354
0.0165141530368
0.0167795829563
0.0168806282578
0.016902935788
0.0168981022587
0.0168911594783
0.016891095185
0.0168979199217
0.0169026684047
0.0168803070933
0.0167792097631
0.0165136789535
0.0159531444572
0.0148803170857
0.0131874991187
0.0124677942181
0.0124777718354
0.0132120637855
0.0149224714663
0.0160122233347
0.0165976855202
0.016880429957
0.0169845708075
0.0170033667391
0.0169938554998
0.0169839390335
0.0169838688389
0.0169936568034
0.0170030767689
0.0169842267706
0.0168800425521
0.0165972519879
0.0160116902122
0.0149219775444
0.0132116497378
0.0124773826046
0.0124566288124
0.0132043980857
0.0149197072212
0.0160148115945
0.0166159732293
0.0169026041795
0.0170033190646
0.0170153757837
0.0169991903621
0.0169851809372
0.0169851104882
0.0169989910575
0.017015082425
0.0170029624376
0.0169021947593
0.0166155215034
0.0160142496578
0.0149191702433
0.0132039273597
0.0124561497548
0.0124335068981
0.0131922379709
0.0149081653059
0.016004277505
0.0166117514195
0.0168977073557
0.0169937400472
0.0169991224479
0.0169764838343
0.0169586335635
0.0169585754109
0.0169763109044
0.0169988348681
0.0169933847271
0.0168973003915
0.0166112991005
0.0160037257969
0.0149076207598
0.0131917411597
0.0124329700291
0.012419694508
0.0131850413666
0.0149008429251
0.0159969215844
0.0166060471056
0.0168908071966
0.0169837968546
0.0169851505149
0.0169587136478
0.0169385296067
0.0169384516914
0.0169585245769
0.0169848749743
0.0169834638036
0.0168904290731
0.0166056235814
0.0159964149472
0.0149003258751
0.0131845545536
0.0124191578698
0.0124199587028
0.0131851790919
0.0149009595937
0.0159970218616
0.0166061471156
0.0168909173769
0.0169839293803
0.0169853215057
0.0169589497206
0.0169387765532
0.0169387182796
0.0169587720836
0.0169850760644
0.0169836473433
0.0168905962501
0.0166057802673
0.0159965896229
0.0149004950924
0.0131847282271
0.0124194651216
0.012434198664
0.0131926241707
0.0149084945388
0.016004560084
0.0166120278535
0.0168979970878
0.0169940681874
0.0169995250577
0.0169770010025
0.0169592033313
0.0169591773304
0.0169768945942
0.0169993649121
0.0169938729528
0.0168977519727
0.0166117323837
0.0160042164023
0.014908098949
0.0131922236396
0.0124337732576
0.0124576146529
0.0132049897166
0.014920224928
0.0160152537382
0.0166163807944
0.01690300327
0.0170037502316
0.0170159063203
0.0169998204146
0.0169858828419
0.0169858698364
0.0169997693303
0.0170158229242
0.017003631132
0.0169028311907
0.0166161563676
0.0160149906989
0.0149198945943
0.0132046464227
0.0124572695193
0.012478945672
0.0132128215387
0.0149231553684
0.0160128103775
0.0165981999926
0.016880892219
0.0169850541583
0.0170039602211
0.0169945603789
0.0169847224876
0.0169847216723
0.0169945516912
0.0170039346579
0.0169849963713
0.0168807825261
0.0165980329956
0.0160125945645
0.0149228675922
0.0132125186941
0.0124786497548
0.0124693347221
0.0131887176099
0.0148815628042
0.0159543437579
0.0165148269965
0.0167801295199
0.0168811456066
0.0169035289055
0.0168988011392
0.0168919595666
0.016891970898
0.0168988276449
0.0169035519813
0.0168811382594
0.0167800674796
0.0165147117746
0.0159541350088
0.0148812882531
0.0131884437036
0.0124690869982
0.0123635834392
0.0130708320972
0.014720748564
0.0157550548846
0.0162873138857
0.0165150730259
0.0165986847409
0.0166171489674
0.0166130687083
0.0166074068488
0.0166074268181
0.0166131167684
0.0166172007882
0.0165987088869
0.0165150364624
0.0162871853742
0.0157548349859
0.0147204819783
0.0130705823293
0.0123633727709
0.0120298707431
0.0127402610296
0.0143091361509
0.0152710874917
0.0157552270024
0.0159547738872
0.0160135401074
0.0160162978047
0.0160059029821
0.0159986047239
0.0159986280083
0.0160059586393
0.0160163572132
0.0160135719477
0.0159547420596
0.0157551023082
0.0152708805914
0.0143088916805
0.0127400326866
0.01202968442
0.0112328370023
0.0120039402851
0.0134551932649
0.0143092066317
0.0147209832072
0.0148820524601
0.0149239571812
0.0149213615954
0.0149099573377
0.0149026923431
0.0149027252607
0.0149100395335
0.0149214569093
0.0149240234461
0.0148820523464
0.0147208916588
0.0143090341944
0.0134549762765
0.0120037202917
0.0112326322384
0.00962629418218
0.0106569057154
0.0120040088174
0.012740361998
0.013071069987
0.0131891973037
0.0132136187489
0.0132061477944
0.0131941462208
0.013187014683
0.0131870575934
0.0131942594454
0.0132062880164
0.0132137340869
0.0131892436209
0.0130710247495
0.0127402345924
0.0120038277969
0.0106567004171
0.00962606245501
0.00714431557349
0.00962657884217
0.011232980212
0.0120298969369
0.0123637106776
0.0124697435706
0.0124797648581
0.0124589517495
0.0124361021386
0.0124223993798
0.0124224644427
0.0124362796422
0.0124591798445
0.0124799676676
0.0124698609147
0.0123637206286
0.012029818702
0.0112328666465
0.0096264948087
0.00714428997861
0.00742215527618
0.0111276129516
0.0137148837796
0.0151046905899
0.0157463796019
0.0159862478425
0.0160400337868
0.0160258504986
0.0159998207714
0.0159835376437
0.0159834431217
0.0159995689077
0.0160255090935
0.0160396756836
0.0159859225511
0.0157461208236
0.0151045018551
0.01371476796
0.0111276131735
0.00742222983316
0.0111272148214
0.0119287744546
0.0133922306111
0.0142593154185
0.0146859858727
0.0148624464433
0.0149178939932
0.0149252277007
0.0149195214605
0.0149145668766
0.0149145191753
0.0149193922417
0.0149250453056
0.0149176912015
0.0148622496225
0.0146858136886
0.0142591724129
0.0133921143953
0.0119286665754
0.0111270570097
0.0137142553386
0.0133920176541
0.0145977547726
0.0153904483451
0.0158085392589
0.0159951807095
0.0160615924015
0.0160760264009
0.0160739708576
0.0160704255252
0.0160703870854
0.0160738649718
0.0160758726693
0.0160614146456
0.0159950007753
0.0158083717932
0.0153902932108
0.0145976058595
0.0133918564985
0.0137140216862
0.0151036575243
0.0142588826593
0.0153902288707
0.0161836866481
0.0166223008332
0.016829001324
0.0169088902493
0.0169305828849
0.0169322840739
0.0169299752944
0.0169299451167
0.0169321974164
0.0169304466817
0.016908717771
0.0168288150854
0.0166221111371
0.0161834946004
0.015390033219
0.0142586787167
0.0151033704972
0.0157447094759
0.0146852612343
0.0158080769492
0.0166220770556
0.0170847580011
0.0173115094377
0.0174053201211
0.0174347055092
0.0174384864171
0.0174363314733
0.0174363039194
0.0174384026023
0.0174345774732
0.0174051600724
0.0173113252827
0.0170845372426
0.0166218350679
0.0158078224584
0.0146849968775
0.0157443017826
0.0159839237656
0.0148614129937
0.0159944987397
0.0168285913024
0.0173113055
0.017554598685
0.0176595957094
0.0176941617013
0.0176985579307
0.0176957739137
0.0176957477759
0.0176984734757
0.0176940296978
0.0176594310823
0.017554395338
0.0173110615454
0.0168282958254
0.0159941806748
0.0148610755866
0.0159833537093
0.0160371908194
0.0149165980845
0.0160607458656
0.0169083522307
0.0174049757095
0.017659429572
0.0177713267511
0.0178075423371
0.0178105617183
0.0178062264368
0.0178061943382
0.0178104668022
0.0178074081962
0.0177711549813
0.0176592085206
0.0174046971104
0.0169080111153
0.016060372986
0.0149161908046
0.0160364576204
0.0160226364508
0.0149237338117
0.0160750577949
0.0169299310543
0.0174342427142
0.0176938622964
0.017807448709
0.0178423237572
0.017842954886
0.0178369264823
0.0178368847372
0.0178428569888
0.0178421852869
0.017807270934
0.017693624613
0.0174339451062
0.0169295668367
0.0160746515788
0.0149232741843
0.0160217877056
0.0159964080023
0.0149179147003
0.0160729307079
0.0169315161376
0.0174379494132
0.0176981499459
0.0178103387982
0.0178428090775
0.0178412200876
0.0178340590374
0.0178340147012
0.0178411193548
0.0178426589858
0.0178101518244
0.0176979099784
0.017437650659
0.0169311541437
0.0160725160485
0.014917430491
0.0159955043129
0.0159801803853
0.0149129708434
0.0160694003069
0.0169292242554
0.0174358064599
0.0176953439779
0.0178059135511
0.0178367140327
0.0178339697722
0.0178263723431
0.0178263400009
0.0178338664788
0.0178365565636
0.0178057227877
0.0176951186632
0.0174355227423
0.0169288751329
0.0160689993637
0.014912492129
0.0159792921219
0.0159804846825
0.0149130912372
0.0160694869591
0.0169292947773
0.0174358643689
0.0176953979889
0.0178059748447
0.0178367969163
0.0178340857185
0.0178264832608
0.0178264639853
0.0178340042122
0.0178366687236
0.0178058152927
0.017695203196
0.0174356102869
0.0169289737367
0.0160691169855
0.0149126418857
0.0159796640671
0.015997261965
0.0149182556224
0.0160731767793
0.0169317116513
0.0174380998728
0.0176982845861
0.0178104823165
0.0178429993854
0.0178414708865
0.0178343075351
0.0178343002787
0.0178414424813
0.0178429389157
0.0178103903784
0.0176981391526
0.0174378908339
0.0169314325624
0.016072851051
0.0149178520333
0.0159965446073
0.0160239505979
0.014924260458
0.0160754420425
0.016930211667
0.0174344523804
0.0176940184755
0.0178076033745
0.0178425343143
0.0178432172137
0.0178372200046
0.017837224717
0.0178432241718
0.0178425279393
0.0178075622425
0.0176939241358
0.0174342929646
0.0169299954968
0.0160751629904
0.0149239091546
0.0160233467972
0.0160388707789
0.0149172789274
0.0160612557866
0.0169087236978
0.0174052416855
0.0176596058681
0.0177714758767
0.0178077406965
0.0178108185607
0.0178065245268
0.0178065364958
0.0178108394451
0.0178077615538
0.0177714750486
0.0176595567009
0.0174051214274
0.0169085450893
0.0160610107787
0.0149169716778
0.0160383484743
0.0159858649117
0.0148622246546
0.0159951352648
0.0168290702985
0.017311656657
0.0175548415963
0.0176597850997
0.0176943695736
0.0176988172527
0.0176960885187
0.0176961097797
0.0176988659282
0.0176944214485
0.0176598126398
0.0175548157355
0.0173115521917
0.0168289056295
0.0159949097534
0.0148619545173
0.0159854168059
0.015746775087
0.0146861822295
0.0158088362549
0.0166226644885
0.0170851989853
0.017311838274
0.0174056166788
0.0174350167909
0.0174388418262
0.0174367479839
0.0174367715421
0.0174389001681
0.0174350847979
0.0174056627476
0.0173118308534
0.0170851192969
0.0166225131983
0.015808632821
0.0146859479541
0.0157463975075
0.0151056628422
0.0142598914159
0.0153910974002
0.0161843688169
0.01662282324
0.0168294275964
0.0169093015795
0.0169310054719
0.0169327096258
0.0169304601277
0.0169304889446
0.0169327831231
0.0169310920495
0.0169093703894
0.0168294494798
0.016622773452
0.0161842499167
0.0153909278372
0.0142596895617
0.0151053524646
0.013716002159
0.0133930990014
0.014598724497
0.0153912205217
0.0158091226063
0.015995639988
0.0160620187287
0.0160764751523
0.0160744706587
0.0160709961726
0.0160710342278
0.0160745683502
0.0160766000077
0.0160621310468
0.015995705707
0.0158091191586
0.0153911472594
0.014598592681
0.0133929135527
0.0137157064317
0.0111283941523
0.0119298892736
0.0133932829254
0.014260156186
0.0146866042848
0.0148629016473
0.0149182816728
0.014925626625
0.0149199819456
0.0149151186799
0.0149151728371
0.0149201251781
0.0149258150454
0.0149184605052
0.0148630265814
0.0146866520252
0.0142601276718
0.0133931905881
0.011929728562
0.0111281134605
0.00742215932127
0.0111288892682
0.0137165083321
0.0151062067428
0.0157476446629
0.0159872924373
0.0160410082323
0.0160269021458
0.0160010406467
0.0159849747635
0.0159851070426
0.0160013951999
0.0160273806982
0.0160414871612
0.0159876668626
0.0157478583652
0.0151062676687
0.0137164754848
0.0111288462407
0.0074221573329
0.0075572068724
0.0118524722336
0.0149979338075
0.0167732965427
0.0176408284376
0.0179922005477
0.0180902061497
0.0180886900054
0.0180644820317
0.0180479217026
0.0180478200299
0.0180642162635
0.0180883341687
0.0180898381972
0.0179918779221
0.017640587873
0.0167731364354
0.014997841577
0.0118525408833
0.0075573115545
0.0118518751228
0.0126068627206
0.0141949642851
0.0151778561442
0.0156878091014
0.0159150571928
0.0159973556475
0.0160170480431
0.016016153869
0.0160126655087
0.0160126277653
0.0160160518481
0.0160169056488
0.0159971979723
0.0159149025531
0.01568767165
0.015177740892
0.0141948738393
0.012606778714
0.0118517265308
0.0149970187882
0.0141946984082
0.0153461995102
0.0161527531463
0.0166025554819
0.0168193522208
0.0169076361647
0.0169352519541
0.0169394083638
0.0169380636683
0.0169380423877
0.0169393498244
0.0169351675134
0.0169075352286
0.0168192416791
0.016602446148
0.0161526413941
0.0153460785638
0.014194543665
0.0149967365269
0.0167717998244
0.0151773394481
0.0161525132741
0.0169034556532
0.0173457435478
0.0175725853209
0.0176741536107
0.0177124417005
0.0177208401214
0.0177204411051
0.0177204307514
0.0177208077292
0.017712396139
0.0176740838402
0.017572488864
0.0173456273614
0.0169033152739
0.0161523454564
0.0151771309637
0.0167714190483
0.0176384825105
0.01568695897
0.0166020460468
0.017345495466
0.0177997845445
0.0180456986252
0.018162893524
0.0182087244893
0.0182190717429
0.0182183159596
0.0182183117882
0.0182190485361
0.0182086851231
0.0181628360374
0.0180456072582
0.017799648972
0.0173453125907
0.016601821635
0.0156866845772
0.0176379181281
0.0179889865007
0.0159138251368
0.0168185743146
0.0175721003228
0.0180454420502
0.0183088427146
0.0184390491576
0.0184898270301
0.0184994019336
0.0184968238313
0.0184968179997
0.018499374389
0.0184897774504
0.0184389808871
0.0183087397534
0.0180452808673
0.0175718673945
0.0168182876107
0.0159134722522
0.0179881965746
0.0180863391911
0.0159957772134
0.0169066329353
0.0176734566806
0.0181623828501
0.0184387781696
0.018576098763
0.0186265681131
0.0186322818909
0.0186265890525
0.018626573265
0.0186322399784
0.0186265010128
0.0185760042476
0.0184386541109
0.0181621938744
0.0176731806902
0.0169062887958
0.0159953463625
0.0180853395852
0.0180843640677
0.0160152001711
0.0169340723148
0.0177115341559
0.0182080273813
0.0184893210046
0.0186261221981
0.0186724908099
0.0186745037513
0.0186670643933
0.0186670355621
0.0186744401121
0.0186723968146
0.0186260000724
0.0184891717687
0.018207813278
0.0177112339837
0.0169336847318
0.0160147051086
0.0180832288532
0.0180598889125
0.0160141488812
0.0169381290245
0.0177198792572
0.0182182489418
0.0184987220489
0.018631590951
0.0186742109624
0.0186750012321
0.0186675686607
0.018667516194
0.0186748891724
0.0186740927194
0.0186314456167
0.0184985533495
0.0182180170117
0.0177195565626
0.0169377192272
0.0160136181855
0.0180587034458
0.018043360714
0.0160106579883
0.0169367755768
0.0177194727209
0.0182174537017
0.0184960706942
0.0186258861506
0.0186667017992
0.0186674460411
0.0186605112041
0.0186604886741
0.0186673623046
0.0186665772901
0.0186257221484
0.0184958928994
0.0182172144153
0.0177191478176
0.0169363661122
0.0160101214209
0.0180422031869
0.0180437149818
0.0160107836613
0.0169368452441
0.0177195060236
0.0182174629951
0.0184960541325
0.0186258618615
0.0186666903989
0.0186674199153
0.0186605079732
0.0186604941419
0.0186673885735
0.0186666097213
0.0186257173103
0.0184958807389
0.018217223935
0.0177191899607
0.0169364518828
0.0160102682282
0.0180426505361
0.0180608941064
0.0160145049775
0.0169383266069
0.0177199661262
0.0182182467664
0.0184986408655
0.0186314946516
0.0186741684288
0.0186749850566
0.0186676042844
0.018667590598
0.0186749747143
0.0186741349237
0.0186314075303
0.018498505737
0.0182180317983
0.0177196714922
0.0169379633154
0.0160140324248
0.0180599748827
0.0180859288395
0.0160157477743
0.0169343846605
0.0177116722973
0.0182079814043
0.0184891321385
0.0186259094047
0.018672311062
0.0186744201722
0.01866706874
0.0186670752144
0.0186744430101
0.018672325586
0.0186258851716
0.0184890469172
0.0182078060303
0.0177113982728
0.0169340581356
0.0160153306695
0.0180851565219
0.0180883826976
0.015996485435
0.0169070546711
0.0176736305815
0.0181623171142
0.0184385096397
0.0185757479794
0.0186261910956
0.0186319783725
0.0186263857477
0.0186264038399
0.0186320200482
0.0186262356258
0.0185757665341
0.0184384688607
0.0181621731508
0.0176734021412
0.0169067646307
0.015996124723
0.0180877218841
0.0179914247801
0.0159146769502
0.0168191218161
0.0175723843945
0.018045450785
0.0183085989657
0.0184386467161
0.0184893804526
0.0184989953307
0.0184964728081
0.0184964993233
0.0184990585448
0.0184894523543
0.018438692278
0.0183085767582
0.0180453258429
0.0175721807326
0.0168188668868
0.0159143748635
0.0179908516046
0.0176411602539
0.0156879510093
0.0166027426837
0.0173459260106
0.0177999520147
0.0180456121234
0.0181626215226
0.0182083930543
0.0182187525872
0.0182180280964
0.0182180588825
0.0182188310571
0.0182084882919
0.0181626878835
0.018045607083
0.0177998570665
0.0173457619128
0.0166025384389
0.0156877141717
0.0176406918952
0.0167744934247
0.0151784793444
0.0161533750316
0.0169040425136
0.0173460916235
0.0175727396448
0.0176741818811
0.0177123898178
0.0177208332682
0.0177204830939
0.0177205188626
0.0177209265189
0.0177125115562
0.0176742787229
0.0175727772688
0.0173460547132
0.0169039432321
0.0161532322705
0.0151783000172
0.016774147074
0.0149994149016
0.0141959892252
0.0153472546318
0.0161535315362
0.0166030812574
0.0168196896856
0.0169078894757
0.0169354952862
0.0169396922803
0.0169384131897
0.0169384625493
0.0169398189172
0.0169356617885
0.0169080447305
0.0168197970475
0.0166031243348
0.0161535088886
0.0153471725699
0.0141958485086
0.0149991359175
0.0118535525
0.0126082684524
0.0141962311147
0.0151788518768
0.0156885304634
0.0159155721915
0.0159977740536
0.0160174699028
0.0160166454795
0.0160132627565
0.0160133337048
0.0160168346131
0.0160177254202
0.015998029638
0.0159157765874
0.0156886592335
0.0151789015408
0.0141962137906
0.0126081757386
0.0118533031095
0.00755715466709
0.0118542062203
0.0150002420473
0.0167755880361
0.0176428702929
0.0179940307742
0.0180920423852
0.0180907247437
0.0180668039466
0.0180505505725
0.0180507533935
0.0180673432424
0.0180914730267
0.0180928325876
0.0179947138198
0.017643352465
0.016775859804
0.0150003718818
0.0118542669184
0.00755717499849
0.00762665461756
0.0121785141227
0.0156041009979
0.0175950991626
0.0186000688779
0.0190251971091
0.0191557123936
0.0191658862554
0.0191454227153
0.0191300245977
0.0191299234768
0.0191451669685
0.0191655542724
0.0191553828436
0.0190249285504
0.0185999054419
0.0175950309782
0.0156041337146
0.0121787126028
0.00762678467153
0.0121778570323
0.0129172228125
0.0145900848036
0.0156542527316
0.0162255638466
0.0164920494567
0.016596010201
0.0166260376284
0.0166292468298
0.016626992813
0.0166269678934
0.0166291810359
0.0166259498341
0.0165959191418
0.0164919631506
0.0162254871492
0.0156541913907
0.014590051612
0.0129172073908
0.0121778081447
0.0156029854023
0.0145897800542
0.0157491963219
0.0165921030567
0.0170809298328
0.017330032707
0.0174415680162
0.0174828710269
0.0174928565248
0.0174931635453
0.0174931578358
0.0174928413382
0.0174828515246
0.0174415455394
0.0173299902336
0.0170808804244
0.0165920418503
0.0157491201858
0.0145896681537
0.0156027631693
0.0175932378756
0.0156536603923
0.0165918447233
0.0173565395716
0.0178304296784
0.0180922354427
0.0182234997593
0.0182776881851
0.0182917238609
0.0182921208011
0.0182921294274
0.0182917428501
0.0182777161928
0.0182235356084
0.018092219454
0.0178303804793
0.0173564474907
0.016591714965
0.0156534809302
0.0175928473749
0.0185973543358
0.0162246227484
0.0170803827387
0.0178301570924
0.018318254392
0.0186055666274
0.0187558717898
0.0188184390492
0.0188314895116
0.0188286560453
0.018828669268
0.0188315214018
0.0188184859607
0.0187559157743
0.0186055701881
0.0183182108615
0.0178300276407
0.0170801933179
0.0162243764075
0.0185967605714
0.0190215422146
0.0164906817216
0.01732917532
0.0180916334721
0.0186051911522
0.0189153989326
0.0190791800486
0.0191412730586
0.0191456865295
0.0191353004725
0.0191353030659
0.0191457056658
0.019141308059
0.0190792144377
0.0189154113714
0.018605134949
0.0180914695267
0.0173289215629
0.0164903574506
0.0190206947102
0.0191514188388
0.0165942370575
0.0174404213348
0.0182225079175
0.0187551056708
0.0190787977418
0.0192435675492
0.019294108399
0.0192825824947
0.0192617544577
0.0192617481993
0.019282585929
0.0192941213678
0.0192435823964
0.0190788021977
0.0187550375277
0.0182223286981
0.0174401115612
0.0165938321849
0.0191503583616
0.0191611571372
0.0166239552978
0.0174815029984
0.0182765009202
0.0188174339513
0.0191405560842
0.0192934284024
0.0193253885851
0.0192988442189
0.019270412664
0.0192703924947
0.0192988144466
0.0193253629917
0.0192934075135
0.0191405439255
0.018817333477
0.0182762678901
0.0174811331437
0.0166234732973
0.0191599771314
0.019140401835
0.016626990031
0.0174913543574
0.0182903801307
0.018830254014
0.0191446895887
0.0192814950404
0.0192983652674
0.0192650683057
0.0192349391485
0.019234890123
0.0192649700847
0.019298289666
0.0192814182227
0.0191446115788
0.0188300997834
0.0182900983932
0.0174909422206
0.016626456382
0.0191391985048
0.0191249991462
0.0166247351771
0.0174916371364
0.0182907111246
0.0188272417851
0.019134028024
0.0192604887557
0.0192697185837
0.0192347237214
0.019205624157
0.0192055930538
0.0192346432889
0.019269615557
0.0192603558518
0.0191338917823
0.0188270424088
0.0182903991
0.0174912077988
0.0166241802837
0.0191238428745
0.0191253402626
0.0166248443906
0.0174916570426
0.018290653111
0.0188270988477
0.01913378854
0.0192602184633
0.0192694907314
0.0192345246465
0.0192054871577
0.019205466109
0.0192344981183
0.0192694257584
0.0192600869667
0.0191336247086
0.0188268616658
0.018290318284
0.0174912244162
0.0166242949239
0.0191242910205
0.0191413578613
0.016627298237
0.0174914126125
0.0182901968738
0.0188297880722
0.0191439243958