/*--------------------------------*- C++ -*----------------------------------*\
| =========                 |                                                 |
| \\      /  F ield         | OpenFOAM: The Open Source CFD Toolbox           |
|  \\    /   O peration     | Version:  3.0.1                                 |
|   \\  /    A nd           | Web:      www.OpenFOAM.org                      |
|    \\/     M anipulation  |                                                 |
\*---------------------------------------------------------------------------*/
FoamFile
{
    version     2.0;
    format      ascii;
    class       volScalarField;
    location    "1.3";
    object      k;
}
// * * * * * * * * * * * * * * * * * * * * * * * * * * * * * * * * * * * * * //

dimensions      [0 2 -2 0 0 0 0];

internalField   nonuniform List<scalar> 
7968
(
0.00534069794735
0.00559126395163
0.00574989762835
0.00581988864232
0.00584372775763
0.00584729759453
0.00584307212718
0.00583644055929
0.00582993008116
0.00582521110836
0.00582516963943
0.00582984915657
0.0058363605128
0.00584300984163
0.0058472608134
0.00584371656002
0.00581989668527
0.0057499204698
0.00559131813772
0.00534073045584
0.00559126554455
0.00692455672406
0.00770412273255
0.00806874163584
0.00821110352373
0.0082470689773
0.00824038106921
0.00822294001439
0.0082085468579
0.00820106371539
0.00820100831254
0.00820839904411
0.00822273710539
0.00824016686638
0.00824687739006
0.00821096148049
0.00806865197795
0.00770408386534
0.00692461680118
0.00559133274197
0.00574987597051
0.00770403934722
0.00890023574485
0.0094967412438
0.00975290522721
0.00983314734013
0.00983620117466
0.00981662500091
0.00979935966633
0.0097908004984
0.00979072439196
0.00979914673865
0.0098163212899
0.0098358561748
0.00983282879479
0.00975265125797
0.00949656957036
0.00890014977412
0.00770406243522
0.00574995018257
0.00581978788699
0.00806841300952
0.00949650704604
0.0102347790741
0.0105625124969
0.0106669964295
0.0106706956335
0.0106445446875
0.0106223484575
0.0106117916855
0.0106116905635
0.0106220603857
0.0106441260194
0.0106702204412
0.0106665218997
0.0105621229276
0.0102344908255
0.00949633458482
0.00806837468735
0.00581986079663
0.00584350043195
0.00821045889518
0.00975239315055
0.0105622838756
0.010919553596
0.0110262318287
0.0110524349486
0.0110477207303
0.0110340970067
0.011025605865
0.011025533617
0.0110338882361
0.0110474146119
0.0110520721565
0.0110256433336
0.0109190043711
0.0105618530692
0.00975209564835
0.00821032747144
0.00584355376014
0.00584692721365
0.00824614105687
0.00983244472467
0.0106667063236
0.0110262896382
0.0111828233226
0.0112254157306
0.0112155864882
0.0111961421618
0.0111843967425
0.0111843219353
0.0111959215425
0.011215252602
0.0112250228292
0.0111823931777
0.0110256392519
0.0106661277383
0.00983201875776
0.00824590323906
0.00584694731536
0.0058425599456
0.00823923945249
0.00983542381346
0.0106705399018
0.0110523010059
0.0112253699589
0.0112593397912
0.0112368912706
0.0112074128098
0.0111903683874
0.0111902880214
0.0112071841761
0.0112365472031
0.0112589164943
0.0112249305667
0.0110518383335
0.0106698714478
0.00983489271955
0.00823891013224
0.00584254258475
0.00583579505674
0.00822164949167
0.00981583923394
0.0106445472394
0.0110475855945
0.0112154482326
0.0112365849768
0.0112002463084
0.0111597847617
0.0111367029774
0.01113660705
0.0111595457014
0.0111999068554
0.0112361694578
0.0112150048488
0.0110471201801
0.0106438550187
0.00981525498184
0.00822125058841
0.00583574266509
0.00582918037074
0.00820717691557
0.00979857532377
0.0106224732635
0.0110340471273
0.0111961117672
0.0112071598016
0.0111597435147
0.0111097847064
0.0110807394187
0.0110806231041
0.0111095256785
0.011159431762
0.0112067949854
0.0111957021748
0.011033600898
0.0106218239055
0.00979798405893
0.00820674547334
0.00582909565304
0.00582444660188
0.0081997128574
0.00979005383569
0.010612033548
0.0110257068489
0.011184626079
0.0111904894372
0.0111369536165
0.0110809291481
0.0110472079671
0.0110471287276
0.0110807226987
0.0111367052427
0.0111902017222
0.0111842883827
0.0110253170211
0.0106114755521
0.00978950717025
0.00819928952748
0.0058243444731
0.00582459764711
0.00819984373902
0.00979015312291
0.0106121056369
0.0110257882874
0.0111847253282
0.0111906367679
0.0111371454416
0.0110811471572
0.0110474744449
0.0110474211292
0.0110810232906
0.0111369942998
0.011190449535
0.0111844839239
0.0110254836148
0.0106116743191
0.00978967491282
0.00819945280994
0.00582449831292
0.00582948781561
0.00820753337055
0.00979884293203
0.0106226683947
0.0110342793394
0.0111964150659
0.0112076097185
0.011160319308
0.0111104536265
0.0110815163429
0.0110814715514
0.0111103781121
0.0111602354393
0.0112074980579
0.0111962565902
0.0110340644181
0.0106223774208
0.00979844862063
0.00820718963767
0.00582940757446
0.00583615582485
0.00822218448843
0.00981626632428
0.0106448838062
0.0110479534046
0.0112159210558
0.0112372650807
0.0112010900403
0.0111607880778
0.0111378688421
0.0111378508235
0.0111607602999
0.01120105614
0.0112372057728
0.0112158315296
0.0110478134408
0.0106446971036
0.00981594677479
0.00822189922117
0.00583609795362
0.00584292956106
0.00823991311687
0.00983600234387
0.0106710295548
0.0110527919345
0.011225954469
0.0112601130365
0.0112378341803
0.0112085478191
0.0111916923259
0.0111916901627
0.0112085417262
0.0112378253952
0.0112600924836
0.0112259092316
0.0110526940243
0.0106708763611
0.0098357232637
0.00823964776582
0.00584288448897
0.00584727540602
0.00824689951107
0.00983314404635
0.010667351141
0.0110270733095
0.0111835059013
0.0112262270772
0.0112165855766
0.0111973498235
0.0111857848552
0.011185791496
0.0111973594929
0.0112165889634
0.0112262207496
0.0111834698779
0.0110270273761
0.010667147369
0.00983283906043
0.00824665424941
0.0058472453818
0.00584380206355
0.00821123678365
0.0097531539784
0.0105629889219
0.0109203509084
0.0110273494205
0.0110532484186
0.0110487006414
0.0110352750502
0.0110269516525
0.0110269622265
0.0110352939439
0.0110487138254
0.0110532434528
0.0110272976267
0.0109201796121
0.0105626959537
0.00975282860807
0.0082110150415
0.00584378651907
0.00582001013606
0.00806910931077
0.00949721033978
0.0102354201512
0.0105631578403
0.0106678054077
0.0106718179492
0.010646005561
0.0106240883921
0.0106137584931
0.0106137710066
0.0106241085222
0.0106460079586
0.010671785274
0.0106677003569
0.0105629377908
0.0102351138156
0.00949690809229
0.00806892193843
0.00582000679508
0.00575000541111
0.00770456388567
0.00890079157771
0.00949722988767
0.00975332607443
0.00983357957918
0.00983675616457
0.00981735789082
0.00980025880765
0.00979183201035
0.00979185981988
0.00980031863114
0.00981741507063
0.00983676485177
0.00983350969815
0.00975314954874
0.0094969741083
0.00890053327786
0.00770441538965
0.00575000448871
0.00559133569115
0.00692489370033
0.00770448626629
0.0080690580851
0.0082113290205
0.0082472240708
0.00824053481603
0.0082231479968
0.00820883958002
0.00820144965545
0.00820148474583
0.00820893688862
0.00822326318883
0.00824062073474
0.00824723577457
0.00821124134662
0.00806889002305
0.00770429114949
0.00692477474784
0.00559132440313
0.00534070725026
0.00559131360586
0.00574994533246
0.00581992198802
0.00584373308626
0.00584726338314
0.00584300956513
0.00583636899127
0.00582986714261
0.00582517932199
0.00582518129381
0.00582988626069
0.00583639966862
0.00584303428587
0.00584726762461
0.00584371367632
0.00581988405381
0.00574990130575
0.00559128928362
0.00534069595778
0.00557441825147
0.00682384981908
0.00758042589495
0.0079464802236
0.00809971516023
0.00814914333442
0.00815434173929
0.00814500543626
0.0081345195954
0.00812816288395
0.00812812487641
0.00813442054472
0.00814487693231
0.00815421192475
0.00814902913483
0.00809962821944
0.00794642165822
0.00758039596388
0.00682386677675
0.00557444590074
0.00682373569858
0.0125365786423
0.0149391628198
0.0161065175624
0.0166312207771
0.0168232209721
0.0168612022765
0.0168436123882
0.0168182965587
0.0168032153927
0.016803115946
0.0168180247446
0.0168432220261
0.0168607593239
0.0168227900144
0.016630839629
0.0161061917715
0.0149388893417
0.0125363938807
0.00682370270153
0.00758027758009
0.014939001812
0.0181031889969
0.0197226849528
0.0205068942422
0.0208328251788
0.0209294677053
0.0209323128427
0.0209123056128
0.0208981196281
0.020898008187
0.0209119964883
0.0209318649797
0.0209289571581
0.0208323264539
0.0205064520421
0.0197223073956
0.018102875702
0.0149387811302
0.00758023857513
0.00794622552205
0.016105939419
0.0197222808708
0.0216375610135
0.0226029371366
0.0230254447698
0.0231637161203
0.0231786789595
0.0231605867953
0.0231460457133
0.0231459168591
0.0231602201573
0.0231781401659
0.0231630929178
0.0230248360675
0.0226023840325
0.0216370717397
0.0197218617396
0.0161056203601
0.00794618071401
0.00809927579744
0.0166301630889
0.0205060518209
0.0226025499837
0.023679329307
0.0241564829348
0.0243150378753
0.0243263110371
0.0243006123995
0.0242817271088
0.0242815750385
0.024300163003
0.0243256370865
0.0243142599214
0.0241557346694
0.023678631487
0.0226019083258
0.0205054799552
0.0166297015568
0.00809919869358
0.00814850675478
0.0168217758226
0.0208316880651
0.0230248915699
0.024156401131
0.0246497315881
0.0247895018289
0.0247804555741
0.0247386260337
0.0247113801809
0.0247112271577
0.0247381597766
0.0247797204873
0.024788612768
0.0246488246619
0.0241555443854
0.0230240883932
0.0208309564661
0.0168211634058
0.00814837967821
0.00815353798742
0.0168595039264
0.0209282227455
0.0231632375609
0.0243150964117
0.0247895828683
0.0249007453889
0.0248628978034
0.0247997524745
0.024761614934
0.0247614559063
0.0247993004207
0.0248622044422
0.0248998357986
0.024788601994
0.0243141009812
0.023162309931
0.0209273672045
0.016858769487
0.00815335785417
0.00814407135812
0.0168417746685
0.0209310552121
0.0231783339511
0.0243265157308
0.0247803577191
0.0248620943726
0.0247958977055
0.0247124820572
0.0246641346128
0.02466392768
0.0247120106035
0.0247952473171
0.024861260919
0.0247794178138
0.0243255238111
0.0231773864424
0.020930150122
0.016840966808
0.00814385052849
0.00813350999254
0.0168164264434
0.0209110902825
0.023160380394
0.0243011186555
0.0247388758132
0.0247991139337
0.0247123602059
0.0246142013018
0.0245579423346
0.0245576820908
0.02461366048
0.0247117824208
0.024798443442
0.024738067314
0.0243002241221
0.0231595021926
0.0209102058171
0.01681560125
0.00813326368942
0.00812717072148
0.0168014591563
0.0208970352486
0.0231460510707
0.0242826463922
0.0247123551448
0.0247619403762
0.024664633518
0.0245581663248
0.0244969525268
0.0244968417332
0.0245578193887
0.0246642408178
0.0247614865649
0.0247117621487
0.0242819250903
0.0231452992494
0.0208962288971
0.0168006739511
0.00812692602994
0.00812728860868
0.0168016955271
0.0208972256941
0.0231462026641
0.0242828117606
0.0247125586262
0.024762237986
0.0246649784589
0.0245584827707
0.0244973146693
0.0244972590207
0.0245583700984
0.0246648625963
0.024762048978
0.0247122146155
0.0242823078534
0.0231456158762
0.0208965327054
0.0168009875858
0.00812706490795
0.00813381892221
0.0168171109661
0.020911639953
0.0231608215781
0.0243016176399
0.0247395605763
0.02480012444
0.0247135768662
0.024615479472
0.0245593459217
0.0245592728501
0.0246154505556
0.0247135958297
0.024800093241
0.0247394046146
0.024301324871
0.0231604099
0.020911077742
0.0168164960583
0.00813362696643
0.00814451280639
0.0168428679326
0.0209319493487
0.0231790651471
0.024327366614
0.0247815166251
0.024863734449
0.0247978420763
0.0247146966234
0.0246666640745
0.0246666503044
0.0247147477772
0.0247979368235
0.0248637869002
0.0247815056786
0.0243272418986
0.0231788008049
0.0209314978373
0.0168423460949
0.00814435719073
0.00815406511843
0.0168609603104
0.0209294454303
0.0231642649016
0.0243162638294
0.0247911387944
0.0249027678245
0.0248652412098
0.0248024857881
0.0247647739685
0.0247647910112
0.0248025385401
0.024865335901
0.0249028689722
0.024791208957
0.0243162228786
0.0231640598932
0.0209290488936
0.0168605011698
0.0081539310113
0.00814907801006
0.0168235373005
0.0208332172663
0.0230261965149
0.0241577708902
0.0246515242617
0.0247918313253
0.024783220874
0.0247418611279
0.0247150346759
0.0247150647808
0.0247419230657
0.0247832929548
0.0247919154407
0.0246515830248
0.0241577169946
0.0230259578148
0.0208328157124
0.0168231089181
0.00814896431013
0.00809984627632
0.0166321390203
0.0205078143182
0.0226040622624
0.0236808022637
0.0241582583911
0.0243173702331
0.0243291439502
0.0243039037472
0.024285393599
0.0242854201209
0.0243039601111
0.0243292077872
0.0243174326874
0.0241582700055
0.0236806756044
0.0226037649545
0.0205074036218
0.0166317395053
0.00809974811196
0.00794673745641
0.0161079745234
0.0197241432164
0.0216391669981
0.0226044172349
0.0230270398991
0.0231656605813
0.023180992683
0.0231632131378
0.0231489397116
0.0231489696074
0.0231632873747
0.0231810820997
0.0231657340613
0.023027042372
0.022604274061
0.0216388749406
0.0197237674399
0.0161076239391
0.00794665032206
0.00758069018735
0.0149409187168
0.0181050156497
0.0197242913236
0.0205083151918
0.0208342050623
0.0209309901178
0.0209340546203
0.020914268898
0.0209002802763
0.0209003334461
0.0209144046358
0.0209342238508
0.0209311331054
0.0208342578144
0.0205082205585
0.019724052688
0.0181046908327
0.014940611826
0.00758059410414
0.00682401621606
0.012538160348
0.0149407749886
0.0161079922357
0.0166325077409
0.0168243772318
0.0168623575486
0.0168448634176
0.0168196931355
0.0168047771963
0.0168048473687
0.0168198781582
0.0168450991088
0.0168625641343
0.0168244804981
0.0166324571411
0.0161077890644
0.0149404630626
0.0125378416346
0.00682390440625
0.00557442007793
0.00682415814686
0.00758076336659
0.00794675874986
0.00809991472112
0.008149274156
0.00815444634193
0.00814512784654
0.00813468922136
0.00812840076564
0.00812843091437
0.00813477116938
0.00814523327639
0.00815454083483
0.00814933013628
0.00809992210199
0.00794672529908
0.0075807118549
0.00682411799993
0.00557440694036
0.00572354869115
0.00753020385213
0.0086779951026
0.00927011542089
0.00954088793225
0.00964295554012
0.00966666655909
0.00966126807
0.00965050776923
0.00964369585786
0.00964365699896
0.00965040439861
0.00966112844488
0.00966652073561
0.00964282375304
0.00954078340267
0.00927003847613
0.00867794612558
0.00753020491666
0.00572358879292
0.00753001782448
0.0147665118451
0.017893324426
0.0194921819075
0.02026507177
0.0205857974481
0.0206803377974
0.0206817255507
0.0206597980162
0.0206440963574
0.020643998436
0.020659534754
0.0206813538819
0.0206799273663
0.0205854099846
0.0202647429286
0.0194919035613
0.0178930743035
0.0147663060405
0.00752994661129
0.00867771773954
0.0178929580837
0.0218957152193
0.024027711886
0.0251269891079
0.0256331347694
0.0258211721265
0.0258631587754
0.0258561253039
0.0258445797876
0.0258444791146
0.0258558504075
0.0258627614349
0.025820717183
0.0256326877412
0.0251265838718
0.0240273432012
0.0218953776405
0.0178926834087
0.00867761665236
0.00926967313289
0.01949118335
0.0240271047641
0.0265137586384
0.0278455659773
0.0284906413434
0.0287495977005
0.0288219447468
0.028827180448
0.0288188841149
0.0288187898745
0.0288269147371
0.0288215252537
0.0287490811431
0.0284901168028
0.0278450519289
0.0265132558397
0.0240266219149
0.019490769158
0.00926955069588
0.00954018774115
0.0202633942642
0.0251257593856
0.0278449975013
0.0293330615539
0.0300707199501
0.0303696122762
0.030453331462
0.0304544119955
0.030440957574
0.0304408406381
0.0304540719228
0.0304528218349
0.0303690138061
0.030070153091
0.0293324277243
0.0278443291579
0.0251250907372
0.0202627876608
0.00954001488355
0.00964199393257
0.0205835838755
0.0256314694336
0.028489747631
0.030070379205
0.0308485823294
0.0311689507193
0.0312568873075
0.0312481189543
0.0312253549219
0.0312252356469
0.0312477569595
0.0312563218248
0.0311682773886
0.0308478665808
0.0300696539209
0.0284889126198
0.0256306110218
0.0205827783632
0.00964175294757
0.0096655014444
0.0206777881632
0.0258193107097
0.028748661807
0.0303693793668
0.0311688839164
0.0315019327099
0.0315843925757
0.0315583690868
0.0315226054336
0.0315224712894
0.0315579817693
0.031583827793
0.0315012279094
0.0311681102298
0.0303685011531
0.0287476966793
0.0258183066182
0.0206768229985
0.00966519231033
0.00965995887804
0.0206789727875
0.0258612057453
0.0288209854356
0.030453157327
0.0312566043954
0.0315837613351
0.0316481820887
0.0316018923646
0.0315536102564
0.0315534260187
0.0316014682263
0.0316476133636
0.0315830909971
0.0312558590278
0.0304522845814
0.0288199981122
0.0258601442352
0.0206779187655
0.00965960202047
0.00964912213347
0.0206569683764
0.0258541438309
0.0288260419888
0.0304544018268
0.0312480153489
0.0315577666257
0.0316017288171
0.0315386359276
0.0314810753977
0.0314808435198
0.0315381522898
0.0316012015337
0.0315572086804
0.0312473730515
0.0304536189247
0.0288251249339
0.0258531043823
0.0206558990114
0.00964874361313
0.00964233459332
0.0206413769311
0.0258427113082
0.0288178933012
0.0304412393454
0.0312257688266
0.0315226716313
0.03155392524
0.0314812607434
0.0314185302172
0.0314184321237
0.0314809385578
0.0315535451517
0.0315222765709
0.0312253034491
0.0304406043155
0.0288170690155
0.0258417512034
0.0206403557571
0.00964196422562
0.00964245966395
0.020641684906
0.0258429461166
0.0288180751819
0.030441373771
0.031225922722
0.031522918071
0.0315542358497
0.0314815760541
0.0314188902698
0.0314188402386
0.0314814514188
0.0315540875209
0.0315227364191
0.0312256580214
0.0304409217348
0.028817380634
0.0258421078254
0.0206407616247
0.00964211923213
0.00964947336798
0.0206578664202
0.0258548310678
0.028826572566
0.0304548106328
0.0312485318321
0.0315585776776
0.0316027792172
0.0315398055925
0.031482349185
0.0314822886514
0.031539765013
0.031602757878
0.0315585484022
0.031248429752
0.0304545436151
0.0288260315555
0.0258541400426
0.0206570723227
0.00964917719306
0.00966050057817
0.0206804216712
0.0258623282375
0.0288217976874
0.0304538631521
0.0312574527868
0.0315850069528
0.0316497607952
0.0316037555535
0.0315557591051
0.0315557462261
0.0316037840966
0.0316498272951
0.0315850681973
0.0312574882557
0.0304537531524
0.0288214592938
0.0258617717425
0.0206797517598
0.00966025177506
0.00966619621412
0.0206797423899
0.0258208667883
0.0287498316866
0.0303704189793
0.0311700424777
0.0315034082149
0.031586175092
0.0315605121868
0.0315251126052
0.0315251315579
0.0315605622349
0.0315862783908
0.0315035486239
0.0311701671395
0.030370382827
0.0287495768084
0.0258203872869
0.0206791585855
0.00966598005791
0.00964280093351
0.0205859967098
0.0256334643564
0.0284913190196
0.0300717742096
0.0308500823646
0.0311707388042
0.0312589884706
0.0312506091792
0.0312282009023
0.0312282400164
0.0312507043271
0.0312591207386
0.0311709002102
0.0308501943661
0.0300716800386
0.0284910522845
0.0256330019988
0.0205854590555
0.00964261318514
0.00954105387878
0.020266168323
0.0251281335429
0.0278469315706
0.0293347506524
0.0300724088133
0.030371734541
0.0304558182478
0.0304572499283
0.0304441070063
0.0304441483452
0.030457359391
0.030455971945
0.0303719008936
0.0300725011203
0.0293346801942
0.0278466575961
0.0251276992805
0.0202656831722
0.00954089319431
0.00927052695653
0.0194941440105
0.0240297327955
0.0265159655153
0.0278475112029
0.0284925770492
0.0287517916544
0.0288243891669
0.0288297108475
0.0288216316969
0.0288216969246
0.0288298861437
0.0288246157103
0.028752022489
0.028492735658
0.0278474988077
0.0265157625294
0.0240293872068
0.0194937518152
0.00927039323802
0.00867848584199
0.017895893099
0.0218984715179
0.0240301348542
0.0251291363416
0.0256351866161
0.025823362472
0.0258655734979
0.0258587676573
0.0258474423329
0.0258475402739
0.0258590266596
0.0258659273951
0.0258237260293
0.0256354673521
0.0251292476709
0.0240300558383
0.0218982390755
0.0178955958165
0.00867835654438
0.00753057183861
0.0147690872036
0.0178959864482
0.0194946722087
0.0202673241368
0.0205878977539
0.0206824707813
0.0206840065859
0.0206622787691
0.0206467949249
0.0206469246525
0.0206626277919
0.0206844869157
0.0206829684068
0.0205883014322
0.0202675471169
0.0194946875932
0.0178958186755
0.0147688215794
0.00753044334664
0.00572355035699
0.00753080639977
0.00867871322596
0.00927076674611
0.00954142829861
0.00964340651664
0.00966709574954
0.00966173711232
0.00965105217571
0.00964433301243
0.00964438823754
0.00965119994585
0.0096619368308
0.0096672963382
0.00964356455969
0.00954152013279
0.00927079459871
0.0086787002426
0.00753078737079
0.00572354969689
0.0057961966553
0.00786294768798
0.00922329491367
0.00995512458194
0.010307702752
0.0104513332164
0.0104925472909
0.0104929228039
0.0104835644092
0.0104770035466
0.0104769634571
0.01048345993
0.0104927835763
0.010492404065
0.0104512084075
0.01030761051
0.00995506300155
0.00922325778216
0.00786298047045
0.00579625235949
0.00786267499038
0.0158232638744
0.0193672191428
0.0212442037559
0.0221936275369
0.022615933505
0.022761466791
0.0227842354045
0.0227691489451
0.0227548871279
0.0227547916644
0.0227688975501
0.0227838925556
0.0227611015863
0.0226156051666
0.0221933766161
0.0212440112746
0.019367053273
0.0158231216222
0.00786261017046
0.00922290491399
0.0193667040276
0.023869069635
0.0263408214273
0.0276700082784
0.0283209016283
0.0285905519799
0.0286720131328
0.0286791779208
0.0286710839926
0.0286709970485
0.028678946148
0.0286716893076
0.028590184815
0.028320535272
0.027669676649
0.0263405112996
0.0238687712934
0.0193664571913
0.00922278640748
0.00995451025887
0.0212428943595
0.0263400513787
0.0292128377845
0.0308159514237
0.0316429252253
0.0320166242009
0.0321529321083
0.0321777512885
0.0321722321278
0.0321721485049
0.0321775231806
0.03215263079
0.0320162488755
0.0316425106815
0.0308155128836
0.0292123696132
0.026339567709
0.0212424542382
0.00995435407867
0.0103067646346
0.0221914370777
0.0276684566109
0.0308152360385
0.0326157334209
0.0335817396847
0.034036296576
0.0342028532709
0.0342294634839
0.0342183623732
0.0342182673742
0.034229191285
0.0342024634715
0.0340358515336
0.0335812641738
0.0326151797756
0.0308145823221
0.0276677485246
0.0221907491153
0.0103065357265
0.0104500655464
0.0226130795655
0.0283188057002
0.0316417725479
0.0335813027683
0.0346398520637
0.035149722399
0.0353287840137
0.0353414654794
0.0353160713321
0.0353159582133
0.0353411405116
0.0353283046056
0.0351491851702
0.0346392920061
0.0335806358159
0.0316409342447
0.0283178719599
0.0226121393376
0.0104497468481
0.0104910383831
0.0227582370378
0.0285882099937
0.0320152801023
0.0340356273879
0.0351494016846
0.0356805543639
0.0358445923489
0.0358266026049
0.0357799078295
0.0357797628696
0.0358262148521
0.0358440308166
0.0356799170268
0.0351487839081
0.0340348956099
0.0320143285988
0.0285871094715
0.0227571027867
0.0104906365316
0.0104912467768
0.0227807794248
0.0286695490318
0.0321513342917
0.0342020596459
0.0353281239031
0.0358435315174
0.0359713643385
0.0359183684564
0.0358523629638
0.0358521735851
0.0359178932831
0.0359707191866
0.0358428435778
0.0353274989714
0.0342013396214
0.0321503891311
0.0286683862059
0.0227795544205
0.0104907921515
0.0104817908316
0.0227655766448
0.02867668549
0.0321763369275
0.0342287409525
0.0353408652299
0.0358254699608
0.035918184718
0.0358399134629
0.0357612214758
0.0357609639855
0.0358393143311
0.035917534266
0.035824820834
0.0353402788378
0.0342280727082
0.0321754209754
0.0286755459092
0.0227643542845
0.0104813183507
0.0104752440029
0.022751377848
0.02866865046
0.0321709255075
0.0342178164188
0.0353158439649
0.0357795748604
0.0358527730612
0.0357616455904
0.0356766748321
0.0356765238218
0.0357611983608
0.0358522244083
0.035779024614
0.0353153518281
0.0342172459118
0.0321701076005
0.0286676022429
0.022750225045
0.0104747850584
0.0104753826226
0.0227517101244
0.0286688670734
0.0321710395934
0.0342178916786
0.0353159535614
0.0357798040476
0.0358531177314
0.0357619760254
0.0356771209437
0.035676997488
0.035761717095
0.0358527603351
0.0357794022455
0.0353155900335
0.034217453552
0.0321703621281
0.0286679576004
0.0227506868722
0.0104749630838
0.010482184226
0.0227665453745
0.0286773262446
0.0321766844072
0.0342289613052
0.0353411926805
0.0358261556446
0.0359192485379
0.0358411516334
0.0357627145339
0.0357625854041
0.0358409298579
0.0359189850086
0.0358258765945
0.0353409682575
0.034228675748
0.0321761636309
0.0286765837946
0.0227656930089
0.0104818241306
0.0104918604975
0.0227823494997
0.0286706350792
0.0321519915908
0.0342024278216
0.0353285856789
0.035844458755
0.0359727146664
0.0359201819828
0.0358545700292
0.0358545026215
0.0359200549982
0.0359725678149
0.035844332351
0.0353285110783
0.0342022845456
0.0321515617024
0.0286700291452
0.0227816484586
0.0104915587885
0.010491843469
0.022760383196
0.0285897703668
0.0320162058652
0.0340361767426
0.0351499152742
0.0356813636165
0.0358456635041
0.0358281051172
0.0357818671088
0.0357818522379
0.0358280775676
0.0358456493556
0.0356813930798
0.0351499798512
0.0340361325435
0.0320159168054
0.0285892534873
0.0227597771525
0.0104915839859
0.0104510336745
0.022615799165
0.0283209111567
0.0316432106268
0.0335822335453
0.0346405608225
0.0351504934894
0.0353297765974
0.0353428306129
0.0353177823624
0.035317804118
0.0353428906948
0.0353298794437
0.0351506488712
0.0346407039536
0.0335822102886
0.0316429338033
0.0283204212236
0.0226152319504
0.0104508050597
0.0103078404224
0.0221946460195
0.0276710878004
0.0308172254096
0.0326172332217
0.0335829666372
0.0340374959463
0.0342042219453
0.0342311533858
0.0342203343488
0.0342203838657
0.0342312966211
0.0342044447585
0.034037756034
0.0335831624464
0.0326172248892
0.0308169713446
0.0276706535717
0.0221941425816
0.0103076498181
0.00995561471255
0.0212464036912
0.0263430914005
0.0292152992358
0.0308180152107
0.0316448422778
0.0320186129338
0.0321550103772
0.032180249427
0.0321749998917
0.0321750846124
0.0321804877179
0.0321553721069
0.0320189960554
0.0316451447137
0.0308181156787
0.0292151774908
0.0263427985787
0.0212460337
0.00995547026341
0.00922392599403
0.0193702947639
0.0238724198542
0.0263437390101
0.0276725739701
0.0283233376223
0.02859316411
0.0286749296042
0.0286824297752
0.0286746071778
0.0286747484281
0.0286828035998
0.0286754589451
0.0285937341905
0.0283238299925
0.027672878444
0.0263438192364
0.0238723021168
0.01937007552
0.00922380638829
0.00786344669237
0.0158265143198
0.0193706222782
0.0212474267151
0.0221965861257
0.0226187739482
0.022764463111
0.0227875270321
0.0227727679879
0.0227588024965
0.0227589929839
0.0227732788254
0.0227882460095
0.0227652432059
0.0226194722665
0.0221970813928
0.0212476700593
0.0193706318068
0.0158263828288
0.00786333482713
0.00579616797725
0.00786375037375
0.00922428312331
0.00995607070405
0.0103085358314
0.0104520822731
0.010493307769
0.0104937724863
0.0104845351982
0.0104780988993
0.0104781793769
0.0104847488356
0.0104940692598
0.0104936219459
0.0104523555143
0.0103087307651
0.00995618252818
0.00922433822363
0.00786377839347
0.00579617903727
0.00583378930972
0.00801235048126
0.00947864242834
0.0102881790062
0.0106902694255
0.0108612807373
0.0109153115233
0.0109208346411
0.0109134426106
0.0109075991746
0.0109075602358
0.0109133446273
0.0109207082602
0.0109151868771
0.0108611800092
0.0106902099911
0.0102881558728
0.00947865888356
0.00801244210035
0.00583385822002
0.00801205447404
0.0163068075866
0.0200865980547
0.0221372317854
0.0232064235793
0.0237037314007
0.0238908325902
0.023933266279
0.0239258789162
0.0239139247468
0.0239138345291
0.0239256490991
0.0239329643038
0.0238905216076
0.0237034659341
0.0232062634404
0.0221371461158
0.0200865430203
0.0163068008588
0.00801203643864
0.00947817480921
0.0200859699016
0.0249019264045
0.0276116848716
0.0291152512298
0.0298854450876
0.0302311133476
0.0303522780307
0.0303733692447
0.0303678033165
0.0303677305012
0.0303731802041
0.0303520316598
0.0302308614967
0.0298851857624
0.0291150263157
0.0276114745768
0.0249017159913
0.0200857850806
0.00947808373547
0.010287428556
0.0221357718394
0.0276108365446
0.030773706697
0.0326022820656
0.0335973264421
0.0340819671273
0.0342663650385
0.034302599716
0.0342958111101
0.0342957361776
0.0343023984644
0.0342661051888
0.034081737339
0.0335970525403
0.0326019727839
0.0307733239598
0.0276104114444
0.0221353688356
0.0102872714468
0.0106892106747
0.0232040116437
0.029113581209
0.0326015056479
0.0346779733137
0.0358491250594
0.0364280665792
0.0366412057704
0.0366669266178
0.0366447374655
0.0366446410413
0.0366666716218
0.0366408710716
0.0364277371781
0.035848808573
0.0346776031789
0.0326009412705
0.0291129018982
0.0232033243407
0.0106889753244
0.0108598778161
0.0237006547632
0.0298832293957
0.0335959048406
0.0358483768857
0.0371302640364
0.0377519193752
0.0379453177534
0.0379254106128
0.0378702887645
0.0378701512558
0.0379250673105
0.03794487905
0.0377515103259
0.0371299242078
0.0358479439087
0.0335952018523
0.0298823011153
0.0236996882258
0.0108595437441
0.0109136853914
0.0238874743676
0.0302286378275
0.0340799389498
0.0364266275181
0.0377511416889
0.0383484451752
0.0384697677241
0.0383729806288
0.0382730768824
0.0382728957007
0.0383725304778
0.038469198289
0.0383479447259
0.0377507962073
0.0364262115491
0.0340792145991
0.0302275598919
0.0238863114069
0.0109132688802
0.0109190600133
0.0239297597125
0.0303496541223
0.0342641651614
0.0366393585153
0.0379439145185
0.0384684955958
0.0384910087736
0.0383146932855
0.0381753188915
0.0381750830502
0.0383141023765
0.0384902809253
0.0384678860387
0.0379435610461
0.0366389609782
0.034263422742
0.0303485304539
0.0239285318723
0.0109185986303
0.0109115650709
0.0239222386213
0.0303706319089
0.0343002865398
0.0366649124292
0.0379238548148
0.0383714327356
0.0383143599084
0.0380873787854
0.0379265907377
0.0379262896683
0.0380866336665
0.0383135165036
0.038370726315
0.0379234121812
0.0366644956113
0.0342995610251
0.0303695443694
0.0239210496986
0.0109110973809
0.010905719767
0.0239102685805
0.0303650279064
0.0342934604071
0.0366426985583
0.0378688218763
0.0382720718394
0.0381755609363
0.0379271852458
0.037758748423
0.0377584897872
0.0379264975489
0.0381747082286
0.0382713217255
0.0378683261705
0.0366422841569
0.0342927887331
0.0303640357654
0.0239091833688
0.0109052732745
0.0109058472585
0.0239105409172
0.0303651274516
0.034293426866
0.036642605015
0.0378687744183
0.0382722350547
0.0381759875527
0.0379277476185
0.0377594659255