/*--------------------------------*- C++ -*----------------------------------*\
| =========                 |                                                 |
| \\      /  F ield         | OpenFOAM: The Open Source CFD Toolbox           |
|  \\    /   O peration     | Version:  3.0.1                                 |
|   \\  /    A nd           | Web:      www.OpenFOAM.org                      |
|    \\/     M anipulation  |                                                 |
\*---------------------------------------------------------------------------*/
FoamFile
{
    version     2.0;
    format      ascii;
    class       volScalarField;
    location    "3.5";
    object      k;
}
// * * * * * * * * * * * * * * * * * * * * * * * * * * * * * * * * * * * * * //

dimensions      [0 2 -2 0 0 0 0];

internalField   nonuniform List<scalar> 
7968
(
0.00105630468196
0.00116046345411
0.00124045483155
0.00128800504421
0.00131342341656
0.00132497178616
0.00132841356153
0.00132769359939
0.00132610096821
0.00132491609717
0.00132543657581
0.00132702171523
0.00132897841534
0.00132928235288
0.00132515099003
0.00131290532496
0.00128700596547
0.00123930037551
0.00115954511474
0.00105592839262
0.0011603921443
0.00161074326276
0.00191401980708
0.00209722413476
0.00220375433312
0.00226059377171
0.00228635097034
0.00229449483953
0.00229502400264
0.00229459270526
0.00229650967776
0.00229997386095
0.00230086197999
0.00229236732087
0.00226494628275
0.0022058146482
0.00209713403407
0.00191246836092
0.00160884352217
0.00115946155068
0.00124039408732
0.00191410440318
0.00236423151889
0.00264055857566
0.0028063432158
0.00289939654702
0.00294575741276
0.00296476936187
0.00297073184469
0.00297293842786
0.00297576490383
0.00297836613129
0.00297514114796
0.00295636454901
0.00290799102929
0.00281166963454
0.0026424884053
0.00236350648854
0.00191216510662
0.00123906627109
0.00128816506527
0.00209785079971
0.00264110592214
0.00297820172937
0.00318356656562
0.00330158609539
0.00336340643042
0.00339324584937
0.00340977513075
0.0034168551649
0.00341949378527
0.00341716827757
0.00340649371832
0.00337938168277
0.00331580367071
0.00319365303158
0.0029834829504
0.00264223791444
0.00209656625211
0.0012866028932
0.00131393824837
0.00220505249732
0.00280743248001
0.00318395906264
0.00341527751379
0.00355103122757
0.00363450231323
0.00367874095746
0.00369911702359
0.0037077137226
0.00371080007668
0.00370773425262
0.003691378653
0.00364937791249
0.00357125115576
0.00343135523031
0.00319378547683
0.00281137604206
0.0022050796402
0.00131232904296
0.00132584988542
0.00226233503447
0.00290059542949
0.00330172964429
0.00355051017852
0.00371156659594
0.00380567863454
0.00385373835777
0.00387521048398
0.00388420722948
0.00388781102038
0.0038853049175
0.00386853407805
0.00382296438911
0.00372970124596
0.00357246704892
0.00331682371837
0.00290808579876
0.00226425854888
0.0013244226434
0.00132954275752
0.00228804815782
0.0029463515547
0.00336231649991
0.00363184361915
0.00380394381861
0.00390155439654
0.00395009440848
0.00397098797283
0.00397964474068
0.00398381085261
0.00398264873541
0.00396722509859
0.00392165321706
0.00382474590643
0.003651880856
0.00338240985828
0.00295764877335
0.00229220281122
0.00132850211179
0.00132885717947
0.00229553163137
0.00296388602133
0.00338909741394
0.00367387431965
0.00384973068654
0.00394771961491
0.00399503692369
0.00401445894494
0.00402243185352
0.00402721635482
0.00402776741085
0.00401449878981
0.00397050917541
0.00387337536049
0.00369664197
0.00341280323614
0.00297870860617
0.00230196407275
0.00132838461044
0.00132685965974
0.0022946691424
0.00296756677008
0.00340280899648
0.00369174438187
0.00386848859584
0.00396568047985
0.00401137826017
0.00402931938468
0.00403671162727
0.00404216842058
0.00404429451041
0.00403302520102
0.00399083557241
0.00389453475619
0.00371678769078
0.00342545369284
0.0029853435938
0.00230320894537
0.00132736874246
0.00132510057889
0.00229222314931
0.002966901863
0.00340750767462
0.0036977483523
0.00387460680672
0.00397119814069
0.00401598320556
0.0040331718255
0.00404038527877
0.00404641668855
0.00404948002511
0.00403928846189
0.00399808085076
0.00390233674499
0.00372441306198
0.003431674703
0.00298682574129
0.00230233243663
0.00132628959473
0.0013247610021
0.00229196803913
0.00296690457564
0.00340806627969
0.00369856080939
0.00387569817817
0.00397265835571
0.00401791665736
0.00403565304109
0.00404330273485
0.00404944368939
0.00405238545856
0.00404190445234
0.00400029587076
0.00390412129336
0.00372581208199
0.00343278707715
0.00298772047489
0.00230275883202
0.00132602543126
0.00132605124886
0.00229390285966
0.00296746753139
0.00340431525567
0.00369402311055
0.0038715668949
0.00396979836446
0.00401679335042
0.00403615384423
0.00404467787743
0.00405056441912
0.00405243569428
0.00404036715152
0.00399702272675
0.00389946363354
0.00372058924359
0.0034286184526
0.00298743692884
0.002304172658
0.00132703826713
0.00132778397006
0.00229420628114
0.00296339611586
0.00339061509425
0.00367716082368
0.00385431327612
0.00395388941563
0.00400312802968
0.00402456507439
0.00403414399698
0.00403964349413
0.00403988409758
0.00402540100134
0.00397959119167
0.00388044355618
0.00370191482257
0.00341705440021
0.00298055944037
0.00230244468636
0.00132775237388
0.00132824594557
0.00228608802585
0.00294512189601
0.00336330708347
0.0036354536697
0.00380933136725
0.0039089260898
0.00395980112076
0.00398307637122
0.00399362189295
0.00399866950864
0.00399714852897
0.00398019836871
0.00393227690334
0.00383274014414
0.00365755894733
0.00338530995543
0.00295761153984
0.00229105888872
0.00132719766478
0.00132443306989
0.00225981222717
0.00289852792956
0.00330174215725
0.00355382575608
0.00371695137924
0.00381334949687
0.00386397034508
0.00388801287621
0.00389904170797
0.0039036079159
0.00390070081039
0.00388219913997
0.00383394874206
0.00373766900584
0.00357760198096
0.00331695376446
0.00290518194516
0.0022608810338
0.00132234577798
0.00131257076824
0.0022022590366
0.00280469902158
0.0031828534632
0.00341708684168
0.00355658999502
0.00364167645771
0.00368857901311
0.00371154316143
0.00372220754239
0.00372628155214
0.00372282814259
0.00370483287543
0.00366068574548
0.00357967678644
0.00343340916856
0.00319070108359
0.0028056375747
0.00219964281196
0.00130963582457
0.00128701228742
0.00209519380352
0.00263812900127
0.00297622942855
0.00318375737346
0.00330496486957
0.00337058738976
0.00340309647404
0.00342104562334
0.00343014144439
0.00343379537092
0.00343220885268
0.0034223441941
0.00339056544819
0.00332086957602
0.00319259730721
0.00297790695855
0.00263466056253
0.00208996170623
0.00128366838879
0.00123952520838
0.001911856344
0.00236140333824
0.00263814546382
0.00280527849861
0.00290059139677
0.00294993948225
0.00297229445783
0.00298147706717
0.00298617096177
0.00299022243438
0.00299230536937
0.00298662638652
0.00296352539132
0.00290987484238
0.00280853581013
0.00263582757292
0.00235557621642
0.00190559227613
0.00123634433765
0.00115982785078
0.00160907777595
0.00191170801601
0.00209493897689
0.0022021539734
0.00226035180017
0.00228802774014
0.00229844876419
0.00230123967133
0.00230256667145
0.00230530987961
0.00230838991014
0.00230745443628
0.00229589705564
0.00226480247643
0.00220222711349
0.0020912384462
0.00190595035106
0.00160364689489
0.00115744931062
0.00105607574374
0.00115979950965
0.0012394224274
0.00128678514891
0.00131221561046
0.00132400497196
0.00132789104561
0.00132776505481
0.00132681192763
0.00132606961803
0.00132664388485
0.00132809339685
0.0013294888691
0.00132885361341
0.00132365719361
0.00131049029976
0.00128409153056
0.00123646887927
0.00115745299504
0.00105509258204
0.00115621308369
0.00158807744605
0.00188482202015
0.00206800968165
0.00217809582838
0.00224052920123
0.00227240052251
0.00228602401431
0.00228988467573
0.00229073454838
0.00229254423729
0.00229441076201
0.002291521031
0.00227796864701
0.00224526092711
0.00218151739952
0.00207006582261
0.00188573508153
0.00158817198341
0.00115564904669
0.00158796241236
0.00320461099005
0.00401386794982
0.00451170953897
0.00482016678949
0.00500387088117
0.0051057589754
0.00515700112983
0.00518012179063
0.00519022456888
0.00519447757686
0.00519197145475
0.00517404347869
0.00512510197498
0.00502269419352
0.00483642822378
0.00452435343083
0.00402271776493
0.00321002829129
0.00158810194268
0.00188454862916
0.00401293502166
0.00508068649566
0.00575203233717
0.0061784568636
0.00643942818133
0.0065889564609
0.00666751933782
0.00670446287046
0.00672051469678
0.00672556497899
0.00671863285413
0.00668800416206
0.00661286563738
0.00646337797054
0.00620003678714
0.00576986757377
0.00509426137934
0.0040221013942
0.00188544338843
0.0020676598011
0.0045097343043
0.00575071285467
0.0065426458558
0.00705348992138
0.00737130932157
0.00755672324154
0.00765763312335
0.00770501135539
0.00772527593062
0.00773082223213
0.00772049285815
0.00767923274091
0.00758421817758
0.00739977893804
0.00708032451232
0.00656598640816
0.00576960656676
0.00452347162889
0.00206956504404
0.00217764263308
0.00481679253566
0.00617524299103
0.00705140120497
0.00762230281346
0.00798177457089
0.00819157279636
0.00830290312408
0.00835566633526
0.00837812451209
0.00838432571784
0.00837319997562
0.00832885646464
0.00822259887312
0.0080133631176
0.00765442086567
0.00708079804967
0.00620019838798
0.00483590629066
0.00218090997338
0.00223981358736
0.00499849747967
0.00643354771325
0.00736625172453
0.00797868334274
0.0083624401162
0.0085849956881
0.00870142552749
0.00875552750271
0.00877823538198
0.00878515030879
0.00877516868856
0.00873088606038
0.00862042227591
0.00839998474916
0.00801512837375
0.00740190291785
0.00646504226591
0.00502349269529
0.00224476584622
0.00227118651651
0.00509774674855
0.00657965804971
0.00754798941976
0.00818503880933
0.00858136395028
0.00880882591142
0.00892517966007
0.00897737349209
0.00899883228257
0.00900653332115
0.0089992418566
0.00895811209506
0.00884867394965
0.00862418855316
0.0082279422336
0.00758962883771
0.00661756733151
0.00512856263203
0.00227798920337
0.00228404076082
0.00514580994157
0.00665424827967
0.00764494925833
0.00829215432548
0.00869343813812
0.00892071271457
0.00903381325563
0.00908244790696
0.00910204978372
0.00911060499983
0.00910668133273
0.00907025219625
0.00896472345446
0.00874089703467
0.00833991976097
0.00768964591078
0.00669758731634
0.00518177994927
0.00229263546915
0.0022868841449
0.00516541535392
0.00668693677434
0.00768795125531
0.0083402887228
0.00874265887544
0.00896775807871
0.00907707508198
0.00912244660749
0.00914056582999
0.00914997836735
0.00914901523358
0.0091168449147
0.00901546131654
0.00879398331176
0.00839228953662
0.00773849452362
0.0067350529477
0.00520551051385
0.00229686277971
0.00228623467475
0.00517197292396
0.00669882354801
0.00770387645473
0.00835820574662
0.00876059459411
0.008984164037
0.0090913488208
0.00913510240156
0.00915265904917
0.00916274294929
0.00916348309144
0.00913363726203
0.00903454789979
0.00881453276497
0.00841284585873
0.00775734171818
0.00674976756575
0.00521467070855
0.00229728115041
0.0022863331052
0.00517326835125
0.00670052569775
0.00770594057035
0.00836077205333
0.00876372434112
0.00898792488321
0.00909581318808
0.00914029840802
0.00915846058894
0.00916886539749
0.00916955113481
0.00913927436446
0.00903946437001
0.00881859614533
0.00841608527919
0.00775994708411
0.00675205573301
0.0052166761538
0.00229767802176
0.00228723682656
0.00516904317613
0.00669173491569
0.00769382029734
0.00834760850669
0.00875163616062
0.00897858573235
0.00908994749186
0.00913742052073
0.00915726258755
0.00916758321032
0.00916643558608
0.0091329701285
0.00902943201647
0.00880538799479
0.00840120718711
0.00774538214873
0.00674111291277
0.00521085285028
0.00229793453916
0.00228443457838
0.00515103007903
0.00666124873564
0.00765370073723
0.00830316067332
0.00870711725342
0.00893740537573
0.00905378424371
0.00910570285814
0.00912794052236
0.00913783664108
0.00913351213128
0.00909489162338
0.0089857650816
0.00875764654402
0.0083525496903
0.00769930766225
0.00670550298363
0.00518877723471
0.00229375032456
0.00227146771141
0.00510353397877
0.00658752223269
0.00755839867991
0.00819808269997
0.00859795761701
0.00882943139119
0.00895008556914
0.00900645767838
0.00903119368467
0.00904048826122
0.00903253362753
0.0089883902724
0.00887402146404
0.00864366118177
0.00824173282987
0.00759952478997
0.00662507231742
0.00513527505345
0.00227843226719
0.0022398524741
0.00500391036023
0.00644099420034
0.00737654683078
0.00799156795693
0.008379802752
0.008607134758
0.00872860303661
0.00878752399413
0.00881394666612
0.00882260517921
0.00881172027173
0.00876373370917
0.00864726629823
0.00841980548429
0.00802839099952
0.00741004988678
0.00647042106411
0.0050285145302
0.00224411783722
0.00217746972016
0.0048212340482
0.00618136026819
0.00706025379141
0.0076346519959
0.00799721617631
0.00821285790665
0.00832959436313
0.00838762292434
0.00841408105146
0.00842211274939
0.00840986742926
0.00836139659129
0.00824821503219
0.00803188419298
0.00766553559277
0.00708627421095
0.0062029042537
0.00483886225576
0.00217930248093
0.00206739661667
0.0045130144487
0.00575513408977
0.00654928149587
0.00706340996821
0.00738532482646
0.00757557051516
0.00768097769372
0.0077343067675
0.00775870804566
0.00776610219242
0.00775406913342
0.00770909047556
0.00760809684556
0.00741594184538
0.00708896797401
0.00656909538724
0.00577028649314
0.00452497527743
0.0020675495974
0.00188427214383
0.00401508400305
0.00508343700238
0.00575633739327
0.0061853994244
0.00645004681564
0.00660410790998
0.00668765573642
0.00672962893196
0.00674956294989
0.00675657599744
0.00674883827189
0.00671456103027
0.00663357416474
0.00647692570368
0.00620677659323
0.00577176965505
0.00509430965285
0.00402330549967
0.00188367974403
0.00158767356629
0.00320573149506
0.00401518064994
0.00451400055206
0.00482437227506
0.00501095150008
0.00511654284516
0.00517199055946
0.0051992599015
0.00521268541657
0.00521873461451
0.00521587734915
0.00519523671388
0.0051416865108
0.00503367556043
0.00484215691527
0.0045264756069
0.00402363501028
0.00321198224686
0.00158693194204
0.00115584249658
0.0015877127487
0.00188430656365
0.00206754053645
0.00217801833603
0.00224127965404
0.00227441435982
0.00228961225713
0.00229514403008
0.0022973523903
0.00229974670537
0.00230124931446
0.00229707622056
0.00228155381228
0.00224658378068
0.00218089164683
0.00206832956248
0.00188393038208
0.00158697483655
0.00115438177518
0.00123306674059
0.00187610243866
0.00231907191106
0.00259937163305
0.002774002739
0.00287783238702
0.00293458041393
0.00296194825615
0.00297322514041
0.00297766485984
0.0029800913533
0.00297965228683
0.0029707809954
0.00294420914506
0.00288699936237
0.00278196031513
0.00260576985586
0.00232368395268
0.00187852221113
0.00123256254805
0.00187603595807
0.00399279774192
0.00506388674369
0.00574059986546
0.00617222954429
0.00643746039819
0.00659011278274
0.00667057944037
0.0067090461933
0.00672589869111
0.00673088896034
0.00672318901935
0.00669146087695
0.00661464100472
0.00646279212185
0.00619627247465
0.00576210514031
0.00508203160058
0.00400648405443
0.00187845575309
0.00231840788264
0.00506161024961
0.00643781724693
0.00732139058115
0.00789730636574
0.00825918046774
0.00847230933303
0.00858710415674
0.00864245749238
0.00866568208973
0.00866979553999
0.00865460834942
0.00860528849633
0.0084941302512
0.00828282990388
0.00792143418149
0.00734525233301
0.00646060726992
0.00508132971454
0.0023233610956
0.00259789180632
0.0057356988388
0.00731855996034
0.00834516493244
0.00902280948759
0.00945400969558
0.00971116840005
0.00985016561
0.00991591989761
0.0099417788294
0.00994463183424
0.00992406961013
0.0098623612091
0.00972621394232
0.00947275912257
0.00904459167354
0.00836967563885
0.0073450034692
0.00576127771709
0.00260526135971
0.00277146389991
0.00616420055884
0.00789123596699
0.00901976784753
0.00977029155676
0.0102509625618
0.0105347447262
0.0106850448469
0.0107536132876
0.0107787404737
0.0107801951819
0.0107577030416
0.0106909978917
0.0105429390619
0.010262276629
0.00978855899773
0.00904463179979
0.00792153040661
0.0061961406884
0.00278145831576
0.00287394594648
0.00642569347184
0.00824949259239
0.00944800511142
0.0102486506418
0.0107575390133
0.01105434221
0.0112054833353
0.0112696710795
0.0112907392346
0.0112909122315
0.0112698609268
0.0112045262413
0.011053766841
0.0107626094553
0.0102621300174
0.00947319560639
0.00828410510712
0.00646449671872
0.00288683818767
0.00292909453374
0.00657413640749
0.00845882195049
0.00970257800877
0.0105312472711
0.0110543457568
0.0113516991927
0.0114945259307
0.0115489875381
0.0115638945928
0.011563391057
0.0115467739288
0.0114882053362
0.0113426455099
0.0110516641075
0.0105425570829
0.00972769384758
0.00849781164406
0.00661971401079
0.00294496090466
0.00295468334685
0.00665022419526
0.0085700079248
0.00983993514537
0.0106816132266
0.0112074953843
0.0114972735375
0.0116274262687
0.0116703603728
0.011678830417
0.0116784007709
0.0116678537899
0.0116190115097
0.0114833341038
0.0111989314536
0.0106902766901
0.00986568219385
0.00861294689539
0.00670170825585
0.0029732697634
0.00296404670407
0.00668450607939
0.00862222685743
0.00990450159862
0.0107509331671
0.0112740816282
0.0115547414035
0.0116732298358
0.0117064311813
0.0117097891992
0.0117097900782
0.0117047717601
0.0116649529621
0.0115392070064
0.0112628553405
0.0107580414613
0.0099312544859
0.00866797981278
0.00674030828638
0.00298474101443
0.00296651291658
0.00669789674041
0.00864346217618
0.00993004407427
0.0107775032433
0.0112979466245
0.0115728329569
0.0116845076448
0.0117122347568
0.0117128019061
0.0117131117984
0.0117112239107
0.0116765214456
0.0115565638816
0.0112852355234
0.0107833911332
0.00995655906351
0.00868985185529
0.00675586011808
0.00298840037917
0.00296726251125
0.00670071030451
0.0086467621488
0.00993375846607
0.0107815184105
0.0113021509398
0.0115770211431
0.0116886242528
0.0117163927769
0.0117170534919
0.0117173532146
0.0117152639704
0.0116801325738
0.0115596288543
0.0112878583533
0.0107857725165
0.00995883019613
0.00869229245141
0.00675848105243
0.00298920495147
0.00296610116586
0.00669245544351
0.00863181867752
0.00991514143128
0.0107624975976
0.0112862469106
0.0115668604441
0.0116851427613
0.0117184963689
0.0117221709744
0.0117221745463
0.0117165771712
0.0116754814214
0.0115480808289
0.0112703422514
0.0107646855111
0.00993740079297
0.00867452819027
0.00674738073491
0.00298682068114
0.00295758615941
0.00666193187356
0.00858435626579
0.00985598969305
0.0106991158349
0.0112258142047
0.0115154034924
0.011645310222
0.0116887232846
0.011697933636
0.0116976620287
0.0116862540409
0.0116353666241
0.0114970131402
0.0112102726467
0.0106999427331
0.00987392163504
0.00862165379732
0.00671124818608
0.00297568145596
0.00293224733735
0.00658770340917
0.00847565101063
0.00972156338799
0.0105526373448
0.0110767994982
0.0113740169644
0.0115168578801
0.0115723652057
0.0115885770395
0.0115884741859
0.0115707894813
0.0115095290894
0.0113603936795
0.0110660268931
0.0105539551541
0.00973690170181
0.00850647224211
0.00662938104069
0.00294663388418
0.00287683448978
0.00643921623055
0.00826655878287
0.00946853604677
0.0102718917057
0.0107829106024
0.0110807724431
0.01123292382
0.011298995306
0.0113219066304
0.0113226176747
0.0113001531355
0.0112313457026
0.0110758691836
0.0107795551859
0.0102740719
0.00948129248696
0.00829085162398
0.00647250319604
0.00288715108176
0.00277384189404
0.00617623547106
0.00790655634575
0.00903884486488
0.00979312234718
0.0102769279063
0.0105640070435
0.0107174541946
0.0107890772176
0.0108165535052
0.0108186060211
0.0107942333975
0.0107230059499
0.0105686953926
0.0102807537772
0.00979989135689
0.00905078623348
0.0079257216321
0.00620190111331
0.00278053726793
0.00259971085089
0.00574546245351
0.00733095448939
0.00836097234515
0.00904262289426
0.00947798271314
0.00973865108
0.00988278962429
0.00995289665311
0.00998179382774
0.00998562632761
0.0099630572177
0.00989563794709
0.00975333853388
0.00949139115109
0.00905502240594
0.0083741876353
0.00734730785326
0.00576542269852
0.00260382641494
0.00231962505888
0.00506879135042
0.00644680302426
0.00733304866316
0.00791257125761
0.00827881806991
0.00849681835478
0.00861692350431
0.00867712234384
0.00870379580047
0.00870964745584
0.0086931672752
0.00863916245247
0.00852093227229
0.00830097174427
0.00793133588911
0.00734931516354
0.00646261247282
0.0050852445183
0.00232229349436
0.00187651373478
0.00399724191625
0.00506941715226
0.00574799502978
0.00618247966795
0.0064515541828
0.00660887361767
0.00669446688083
0.00673781086774
0.0067584493209
0.00676542578057
0.00675713174138
0.00672185122276
0.00663900054888
0.00647975917442
0.00620624031372
0.0057671944383
0.00508548305348
0.00401146183653
0.00187803401301
0.0012326629142
0.0018765905285
0.00231990306245
0.00260056883596
0.00277589928232
0.00288094120099
0.00293945919353
0.00296901013842
0.00298251543138
0.00298874485464
0.00299202877813
0.00299123144602
0.00298063693052
0.0029512409879
0.00289073708539
0.00278282493755
0.0026049575977
0.00232270633059
0.00187818512775
0.00123091651198
0.00128193527882
0.00206560561061
0.0026133963208
0.0029673833779
0.00319241416276
0.00332844437204
0.00340373330192
0.00344037027986
0.00345560915967
0.00346147416059
0.00346399987441
0.00346236038621
0.00344970002356
0.00341397219365
0.0033385508594
0.00320206379215
0.00297655761001
0.00262161322897
0.0020711808451
0.00128182691797
0.00206583700695
0.00452570149769
0.00579753868031
0.00661748183753
0.0071486735397
0.00747796758088
0.00766744883711
0.00776584213536
0.00781106665092
0.00782894949177
0.00783217034173
0.00782018459475
0.00777921836936
0.00768295171998
0.0074944052183
0.0071660386124
0.00663658788887
0.00581852954455
0.00454613521742
0.00207114971931
0.00261245121129
0.00579401828934
0.0074133784315
0.00846977110234
0.00916767095194
0.00960905062993
0.00986778330764
0.0100034748489
0.010065174612
0.0100865745655
0.0100849072372
0.0100608068126
0.00999745546524
0.00986042013354
0.00960295717571
0.00916611396524
0.00847636716598
0.00743000392755
0.00581793353982
0.00262132116569
0.00296486878755
0.00661085241089
0.00846716459415
0.00968508956005
0.0104972740329
0.0110161697554
0.0113233068515
0.0114810364611
0.0115473753582
0.0115655290312
0.0115580720353
0.0115258185764
0.0114473751782
0.0112825052471
0.010979994726
0.0104713951719
0.00967470844501
0.00847587230464
0.0066360261527
0.00297612786662
0.00318804784758
0.00713910161113
0.00916375355986
0.0104973367698
0.01139213154
0.0119664361677
0.0122972361034
0.0124577396113
0.0125164104462
0.0125253897836
0.0125116102368
0.0124759142218
0.0123929506441
0.0122171957277
0.0118894666693
0.0113367723043
0.0104693472525
0.00916470035838
0.00716603616778
0.00320166029674
0.00332192601396
0.00746536593041
0.00960504133058
0.0110195685793
0.0119730142964
0.0125740452341
0.0129052585458
0.0130500004376
0.0130893841722
0.0130844262998
0.0130655349245
0.0130327112049
0.012956281423
0.01278448471
0.0124523269638
0.0118807362352
0.0109732271468
0.00959996614083
0.00749559709067
0.0033384019896
0.00339488994042
0.00765185697952
0.00986497588522
0.0113343664188
0.0123183369254
0.0129231704319
0.0132358220128
0.0133512538577
0.0133638064841
0.0133430880194
0.0133217564505
0.013298087648
0.0132377717295
0.013082457583
0.0127612188125
0.0121901311468
0.011266902384
0.00985547142615
0.00768635477069
0.00341458273633
0.00342922191675
0.00774769033636
0.0100033406197
0.0115032054691
0.01249820378
0.013092182994
0.0133768538202
0.0134580160189
0.0134431620602
0.0134082237618
0.0133870514373
0.0133759774753
0.0133365616871
0.0132041982887
0.0129024167289
0.0123427324919
0.01141979589
0.00999075643188
0.00778624300148
0.00345192537179
0.00344231629325
0.00779129694811
0.0100695877859
0.0115820223513
0.0125770191335
0.0131562843625
0.0134149345487
0.0134676197295
0.0134312762288
0.013385820865
0.0133656525812
0.0133657089178
0.0133447469856
0.0132335331086
0.0129509916333
0.0124050452214
0.0114875720412
0.0100530701063
0.00783226782098
0.00346716877246
0.00344641649937
0.00780903037252
0.0100971105283
0.0116135553976
0.0126062610477
0.0131755819865
0.0134187216603
0.0134552771918
0.0134069958512
0.0133556429442
0.0133358894601
0.0133419762451
0.013331181476
0.0132319680958
0.0129609160249
0.0124239595352
0.0115113520464
0.0100764994219
0.00785021364671
0.00347213145785
0.00344795211401
0.00781389492673
0.0101028935361
0.0116200335931
0.0126128959843
0.0131814179502
0.0134232410447
0.0134585378705
0.0134093558322
0.0133573675978
0.0133370897075
0.0133426398524
0.0133312180265
0.013231446796
0.0129603044101
0.0124238616379
0.0115122085061
0.0100783965205
0.00785299008885
0.00347314309778
0.00344650860628
0.00780504237216
0.0100859465529
0.0116005848862
0.01259603944
0.013172779727
0.0134272797357
0.0134761433946
0.0134372973549
0.0133902353744
0.0133687657358
0.0133674196102
0.0133447315377
0.013231969211
0.0129491885507
0.0124046488007
0.0114897727806
0.0100581058878
0.0078396748968
0.00346961818441
0.00343518680832
0.0077681073404
0.0100285882624
0.0115308593764
0.0125261102333
0.0131157124883
0.013393415529
0.0134684561812
0.0134501274301
0.013413347094
0.0133907367918
0.0133779078606
0.0133361078124
0.0132016364015
0.0128996322053
0.0123419181774
0.0114224792563
0.00999709489812
0.00779588750661
0.00345444866872
0.00340148121308
0.00767568734043
0.00989502750412
0.0113671806214
0.0123510661876
0.0129501657043
0.0132539044542
0.0133616418409
0.013370318151
0.0133480625334
0.0133256914178
0.0133005035294
0.0132378558226
0.013080544385
0.0127591019849
0.0121897784276
0.011269635895
0.00986081810695
0.00769529883103
0.0034156902407
0.00332812673055
0.00748927910946
0.00963589676441
0.0110552967733
0.0120088400284
0.0126048135872
0.0129275606173
0.013065115843
0.013101201163
0.0130953277958
0.0130757643299
0.0130414904528
0.0129625400825
0.0127882233818
0.012454593212
0.0118825172743
0.0109752598503
0.00960244485798
0.00750159866925
0.00333724028816
0.00319332328743
0.00716054913784
0.00919201763878
0.0105318253188
0.011429997633
0.0120027091978
0.012328548614
0.0124847617502
0.012542038536
0.0125510122676
0.0125366351312
0.0124988484662
0.0124120305678
0.0122317281467
0.0118990687554
0.0113419074812
0.0104700107897
0.00916375693632
0.00716843644962
0.00319845212266
0.00296907165227
0.006628423931
0.00849060249519
0.00971473292606
0.0105326231716
0.0110554198088
0.0113632988999
0.0115218148261
0.0115893901469
0.011608541097
0.0116005308288
0.0115653041374
0.0114808522681
0.0113086671625
0.0109968338804
0.0104784780303
0.00967416423362
0.00847250783887
0.00663585334941
0.00297199749018
0.00261544257195
0.00580708684951
0.00743075026149
0.00849234805964
0.0091959846129
0.00964309501505
0.00990720565368
0.0100478678017
0.0101130514378
0.0101365669184
0.0101354407998
0.0101090998501
0.010039203441
0.00989225251571
0.00962282146413
0.00917440442914
0.00847613264205
0.00742649775658
0.00581740450532
0.00261774008299
0.00206726724337
0.00453383065158
0.00580824165832
0.00663184328199
0.00716777540393
0.00750264568817
0.00769822654483
0.0078027798036
0.00785339405263
0.00787511461509
0.0078799496653
0.00786647105301
0.00782012197329
0.00771489163586
0.00751528710703
0.00717617604642
0.00663884734274
0.00581772318704
0.00454773157287
0.00206902763103
0.0012816403651
0.00206732331662
0.0026159770793
0.00297065690831
0.00319671490431
0.00333435481586
0.0034119068802
0.00345127278737
0.00346922318002
0.00347721527541
0.00348076022921
0.00347859881595
0.00346349695902
0.00342363169467
0.0033432415347
0.00320225129538
0.00297392598179
0.00261854580026
0.00206943614278
0.0012793314667
0.00131629849787
0.00221542356061
0.00285493630913
0.0032752966699
0.00354504923891
0.00370728598549
0.00379446748854
0.00383380692879
0.00384743421334
0.00385073450463
0.00385153187087
0.00384903839805
0.00383494628723
0.00379416862492
0.0037059962762
0.00354481406457
0.00327849989898
0.00286223120085
0.00222370451383
0.00131715226639
0.00221645727554
0.00497266524746
0.00643259918578
0.00739090139755
0.00801630349938
0.0084004464347
0.00861366995924
0.00871524243386
0.00875327242543
0.00876087884935
0.00875544902359
0.0087370420242
0.00868918662508
0.00857939454351
0.00836233530813
0.00798204219129
0.0073696398439
0.0064306128084
0.00498827700307
0.0022238533579
0.00285462390045
0.00642975026641
0.00829124329034
0.00952486467398
0.0103444323199
0.010858212166
0.0111493575812
0.0112877051977
0.0113357356146
0.0113368940407
0.0113164442147
0.0112762171973
0.0111967815908
0.0110363018767
0.0107393609754
0.0102361057192
0.00944352037472
0.00825012121597
0.00643034191926
0.00286219286157
0.00327384305188
0.00738928452442
0.00952901126668
0.0109497571896
0.0119031810672
0.0125068785129
0.0128466604145
0.0129964660393
0.0130331248226
0.01301654871
0.0129787263675
0.0129226743443
0.0128225313422
0.0126296883383
0.0122834351313
0.0117053580137
0.0108004130595
0.00944146988564
0.00736903166419
0.00327827450399
0.00354274852223
0.00801895900541
0.0103596311791
0.01191911279
0.0129727291079
0.0136308418802
0.0139769592323
0.0141035818747
0.0141072243045
0.0140629785187
0.0140087771778
0.0139467852792
0.0138450327992
0.0136463622949
0.0132809701162
0.0126651398869
0.0116951196824
0.0102279237528
0.00797982892984
0.0035440953962
0.00370405989004
0.00840899248183
0.0108902909723
0.0125530885803
0.0136704036363
0.0143384394314
0.0146492198902
0.0147181288762
0.0146691209391
0.0145917257346
0.0145275043808
0.0144749586842
0.0143939431016
0.0142158559313
0.0138618830781
0.0132424581881
0.0122461976376
0.0107189450187
0.00835684531738
0.0037042768159
0.00379027845725
0.00862917468694
0.011204169114
0.0129374611206
0.0140781959148
0.0147181450991
0.0149582149143
0.0149462293414
0.014834117943
0.0147249737616
0.0146605247289
0.0146329949829
0.0145926964651
0.0144573051105
0.0141375892826
0.0135396366629
0.0125465393407
0.0109957243002
0.00856949431957
0.00379137181753
0.00382893044541
0.00873907867064
0.0113704019994
0.0131394658938
0.0142766181054
0.0148674319539
0.0150254313694
0.0149294379053
0.0147581842501
0.0146244423905
0.0145668932538
0.0145711575667