/*--------------------------------*- C++ -*----------------------------------*\
| =========                 |                                                 |
| \\      /  F ield         | OpenFOAM: The Open Source CFD Toolbox           |
|  \\    /   O peration     | Version:  3.0.1                                 |
|   \\  /    A nd           | Web:      www.OpenFOAM.org                      |
|    \\/     M anipulation  |                                                 |
\*---------------------------------------------------------------------------*/
FoamFile
{
    version     2.0;
    format      ascii;
    class       surfaceVectorField;
    location    "3.5";
    object      Uf_0;
}
// * * * * * * * * * * * * * * * * * * * * * * * * * * * * * * * * * * * * * //

dimensions      [0 1 -1 0 0 0 0];

internalField   nonuniform List<vector> 
22672
(
(0.000293680474451 6.89422080157e-05 -0.000266759419282)
(4.59645971665e-05 0.00033194748987 -0.000262966186731)
(0.000182816862617 0.00020964705445 -0.000625628403478)
(0.000805186069761 -2.35492751901e-05 -0.000270362427185)
(0.000444644067683 0.000206839518308 -0.000493181750824)
(0.000649916835596 0.000182563610362 -0.000718345566219)
(0.00133892436353 -6.33215198077e-05 -0.00021592153269)
(0.00111804150938 0.000165808297153 -0.00055198389403)
(0.00125978261837 0.000187256781004 -0.000699546997968)
(0.00174211563187 -6.00605737863e-05 -0.000128787033414)
(0.00166048263624 0.000183617444665 -0.000501129304264)
(0.0017425153602 0.000217115410552 -0.000586809044462)
(0.00192034127766 -2.09939819557e-05 -3.51184616294e-05)
(0.00200716817743 0.000256141179069 -0.00040901451099)
(0.00203359810606 0.000267491970399 -0.000434367066693)
(0.00183429019875 3.36507499231e-05 5.08383853385e-05)
(0.0020692348192 0.000356003578839 -0.000299678795809)
(0.00205795816741 0.000324255333583 -0.000269952649307)
(0.00150203050021 8.81949023289e-05 0.000121785423161)
(0.00184814996056 0.000451553232528 -0.000195804270168)
(0.00181587454124 0.000372149989923 -0.000119293596757)
(0.0009713342181 0.000131574981905 0.000170719310632)
(0.00137661984225 0.000530094130023 -0.000105548012233)
(0.00133713545957 0.00040744160259 6.02162826487e-07)
(0.000306321250399 0.000155963196432 0.000192760836281)
(0.000721830374603 0.000576747991262 -4.68667393259e-05)
(0.00068776169968 0.000426330081278 8.82650415204e-05)
(-0.000403656100376 0.000159545352503 0.000192118039761)
(-3.06807522622e-05 0.000591416479959 -2.31203540587e-05)
(-4.99633526852e-05 0.000429684229398 0.000118560966771)
(-0.00107597750335 0.000142243014011 0.000172246514993)
(-0.000786308987382 0.000575005460409 -3.32072491353e-05)
(-0.000787324372435 0.00041878969869 9.73160445929e-05)
(-0.00163552601045 0.000106070348737 0.000132924693473)
(-0.00145757225573 0.000529568211072 -7.35091127301e-05)
(-0.00144317196132 0.000394626751782 2.99803815233e-05)
(-0.00202390930553 5.61753030262e-05 7.54099542059e-05)
(-0.00197480123946 0.000458226636265 -0.000141371241056)
(-0.00195221547399 0.0003590371523 -6.98432896842e-05)
(-0.00219982726282 1.82113627494e-06 6.3833340695e-06)
(-0.00228021838128 0.000369335860955 -0.000227252449307)
(-0.00225954388288 0.00031437729361 -0.000193417897051)
(-0.00214534838666 -4.75116810368e-05 -7.09608978825e-05)
(-0.00234391916844 0.000275398806 -0.000319463925827)
(-0.00233749227739 0.00026514475756 -0.000329877725138)
(-0.00186368129666 -7.85802801167e-05 -0.000151789881135)
(-0.00215362541764 0.000188478471297 -0.000412354633248)
(-0.00217802893941 0.000214946481654 -0.000470145653599)
(-0.001401194378 -7.60531788491e-05 -0.00022490525796)
(-0.00173154905931 0.000132625990093 -0.000488786391014)
(-0.00180352011411 0.000175342748609 -0.000595113045772)
(-0.000843254898169 -3.66466426785e-05 -0.00026826181554)
(-0.00115596795205 0.000125580299298 -0.000528029812897)
(-0.00128187600086 0.000154303371534 -0.00068351995618)
(-0.000320194268424 4.62949457556e-05 -0.000259180484256)
(-0.000485263191252 0.000166505736532 -0.000470230073677)
(-0.000669476673512 0.000151675868165 -0.000689566577521)
(-6.78878208785e-05 0.000275118306633 -0.000256403734123)
(-0.00019122880488 0.000172381600257 -0.000595312713898)
(0.000177460829748 0.000489969690621 -0.000489388518273)
(-4.52769523267e-05 0.000862042380812 -0.000261680833982)
(0.000166134357997 0.000703116181264 -0.000707556161345)
(0.000777676700917 0.000418294940976 -0.000774803217669)
(0.00038215730481 0.000816591523587 -0.000776829502675)
(0.000660053851769 0.000691434358123 -0.00120996830558)
(0.00144425509685 0.000436561484389 -0.000837191665605)
(0.00119905810867 0.000857658206267 -0.000949224413075)
(0.00135539580023 0.000744282115889 -0.00135842867664)
(0.00194629902522 0.000527885427408 -0.000781356781841)
(0.00184175168072 0.00097984199716 -0.000917823452694)
(0.00189684954741 0.000856042370956 -0.00129826877081)
(0.00217732856047 0.000666837284744 -0.00067357484517)
(0.00224610078194 0.0011640448955 -0.000804111689362)
(0.00221985864916 0.00100530375101 -0.0011389334493)
(0.00209952255196 0.000812653512979 -0.000546321451315)
(0.00232169306332 0.00136472330015 -0.000652687526039)
(0.00225223655341 0.0011576730217 -0.000930913817244)
(0.00173283171082 0.000935830382159 -0.000423137705561)
(0.00207338922865 0.00153577848908 -0.000499710254958)
(0.00199208414562 0.0012817162696 -0.000717534433853)
(0.00113300406096 0.00102005049979 -0.00032313406219)
(0.00154522631386 0.00166039253144 -0.000365360979543)
(0.0014746099585 0.00136663938359 -0.000530470698343)
(0.00038374522261 0.00105806679073 -0.000262747929666)
(0.000815796474516 0.0017262337549 -0.000271495139025)
(0.000770516610092 0.00140741078615 -0.000400226820955)
(-0.000417944735923 0.0010524374108 -0.000248445642955)
(-1.67997041435e-05 0.00173607858811 -0.00022942622911)
(-2.99377728962e-05 0.00140906089253 -0.000342972018875)
(-0.00117752781444 0.00100644772128 -0.000278962876858)
(-0.000850677321694 0.00169632847541 -0.000241149231961)
(-0.000830988112813 0.00137790934258 -0.000361739804799)
(-0.00181068860149 0.000923307923862 -0.000347805047258)
(-0.00159223562192 0.00161185161677 -0.000301382479035)
(-0.00154403737 0.00131709112241 -0.000449122508532)
(-0.00224865107577 0.000809420141775 -0.000444033644568)
(-0.00216416653389 0.00148708130861 -0.000400211376158)
(-0.00209610297198 0.00122830585525 -0.000590892126319)
(-0.00244400250556 0.000676499990906 -0.000553099709203)
(-0.00250303655727 0.00133078851 -0.000523688542231)
(-0.00242934049319 0.00111490295301 -0.000766101196187)
(-0.00237310309934 0.000539705666374 -0.000660857661192)
(-0.00257413534981 0.00115516193468 -0.000655337998537)
(-0.00251374804598 0.000983996409905 -0.000950662565134)
(-0.00203965889397 0.000422767271296 -0.000749351143127)
(-0.00235981123687 0.000976275218294 -0.000779589800927)
(-0.00234060678585 0.000845987361663 -0.00112124103591)
(-0.00148832372656 0.00035392634237 -0.000791910945951)
(-0.00188104126283 0.000827097708981 -0.000869858350182)
(-0.00193413281041 0.000723242718987 -0.00124580701866)
(-0.000814334137132 0.000347425775149 -0.000729998071034)
(-0.00121769892904 0.000735358496483 -0.000888425426948)
(-0.00136076892788 0.000636336504294 -0.00128376796023)
(-0.000214402648547 0.00041274295181 -0.000467453323543)
(-0.000424847870653 0.000707701774808 -0.000729261226988)
(-0.000675573986277 0.000595514153692 -0.00114112772731)
(1.30722606681e-05 0.000742484720202 -0.00026112846891)
(-0.000178110003224 0.000600824126142 -0.000681769187079)
(0.000138602582941 0.00116856314632 -0.000549121818383)
(-8.74077586395e-05 0.00141276904921 -0.000206681901871)
(0.000174956407751 0.00132039821304 -0.000689329615498)
(0.000827052013206 0.00123269621445 -0.000951250698081)
(0.000402765094307 0.0014940523326 -0.000847785971987)
(0.000723337836286 0.00139151000178 -0.00136591057728)
(0.00159691901874 0.00137508084252 -0.00102985620016)
(0.00134950939104 0.00163501694269 -0.00103839025104)
(0.00150212837967 0.00152631342194 -0.00154722602037)
(0.00216375977585 0.0015872508543 -0.000940578360215)
(0.0020737110331 0.00185738082472 -0.000961476020484)
(0.00208746194144 0.00173075491116 -0.00144437978584)
(0.00241250590396 0.00183020901684 -0.000783224370231)
(0.00250794375941 0.00212961360473 -0.0007830384653)
(0.00241878369954 0.00197070248831 -0.00121431495369)
(0.00231313759529 0.00205351404402 -0.000606076329682)
(0.00256583680264 0.00239679882204 -0.00056949023359)
(0.00243074302122 0.00219994130589 -0.000932707244683)
(0.00189689093057 0.00222406854477 -0.00044193352894)
(0.00226647154088 0.00260889221919 -0.000367431772696)
(0.00212996567586 0.0023795917249 -0.000656867018766)
(0.00123264655504 0.00232883319806 -0.000313722056378)
(0.00167006467027 0.00275094878648 -0.000202328712059)
(0.00156300958502 0.00249630722516 -0.00042631176841)
(0.000414532368202 0.00236584959817 -0.000238173438469)
(0.0008683558388 0.002815753079 -9.25646784649e-05)
(0.000807726085836 0.00254773693732 -0.000271404981563)
(-0.000454096665381 0.00234211159219 -0.000222129818116)
(-3.2371998805e-05 0.00281225826463 -4.77396741461e-05)
(-4.12031717946e-05 0.00254195123399 -0.00020755046643)
(-0.0012746232572 0.00226530075173 -0.000263568834138)
(-0.000927776012468 0.00275125096698 -6.74028422873e-05)
(-0.000886455118509 0.00248868001652 -0.000234395726599)
(-0.00195943396921 0.00214127478275 -0.000353788807935)
(-0.0017237549221 0.0026406613565 -0.000144798144401)
(-0.00163866655764 0.00239429175717 -0.000343998878782)
(-0.00243630942151 0.00197660171713 -0.000479866273821)
(-0.00234118007872 0.00248447695848 -0.000268572347929)
(-0.0022237515141 0.00226206537128 -0.000520520088158)
(-0.002653902477 0.00178028295158 -0.000625926831565)
(-0.00271449250718 0.00229013719971 -0.000426961715874)
(-0.00258307415533 0.00209523259608 -0.000741755574104)
(-0.00258243737586 0.00156530219702 -0.000774070138272)
(-0.00280359186645 0.00206511751138 -0.000602064822025)
(-0.00268328943579 0.0019003613686 -0.000981420672305)
(-0.00222042394014 0.00135683220469 -0.000900097007982)
(-0.0025828900531 0.00182433054731 -0.000775335495075)
(-0.00251159079895 0.00168983882056 -0.00121006881529)
(-0.0016082189743 0.00118706502338 -0.000966372831178)
(-0.00206613771463 0.00160193420943 -0.000914010046267)
(-0.0020878727635 0.00149009885403 -0.00138704156962)
(-0.00084731437052 0.00107626705743 -0.000887688582902)
(-0.00133133011951 0.00142871011554 -0.000965598541334)
(-0.00147481384647 0.00132779448537 -0.0014542563708)
(-0.000176402444514 0.00102095415569 -0.000522936372354)
(-0.000433469336908 0.0013172683354 -0.000789269228005)
(-0.000722418480019 0.00121931221363 -0.00128047866066)
(5.11706240882e-05 0.00123716577506 -0.000214625985023)
(-0.000184959014446 0.00114924633355 -0.000671083604014)
(0.000154468458487 0.00173097841014 -0.000505346055474)
(-8.81192908383e-05 0.00184224750942 -0.000121068166956)
(0.000205632923161 0.0018253113312 -0.000583947165421)
(0.000951499342015 0.00189325153044 -0.000934925524948)
(0.000492894141315 0.00202213215208 -0.000806115823522)
(0.000839566202424 0.00195706130013 -0.00132511091503)
(0.00182429300808 0.00211654530907 -0.000970010071361)
(0.0015656254802 0.0022293795647 -0.000967331441184)
(0.00171263107884 0.0021385336646 -0.00146715644429)
(0.00244218633871 0.00239907866149 -0.000803936125569)
(0.00236054236094 0.00250484709972 -0.000813682949019)
(0.00234229652421 0.00238982654201 -0.00126535969455)
(0.00268536133678 0.00269398235479 -0.000569304328659)
(0.002804567048 0.00281094291573 -0.000551120612095)
(0.00266951616253 0.00266991168242 -0.00092450432577)
(0.00253832145255 0.00294806111998 -0.000330845676604)
(0.00282077132454 0.00309175266115 -0.000268254477093)
(0.00264004413898 0.00292764107007 -0.000547913899541)
(0.00205176297122 0.00312982382245 -0.000127826955816)
(0.00245068632685 0.0033016704664 -2.11121976581e-05)
(0.00227764511593 0.0031233373726 -0.000206219644436)
(0.0013104115387 0.00323059458844 1.88286658534e-05)
(0.0017730270947 0.00342952162008 0.000167373486245)
(0.0016441279534 0.00324454622187 6.27787740072e-05)
(0.000420842502581 0.00325449483723 9.7869085858e-05)
(0.000895551058918 0.00347565316784 0.000282272803636)
(0.000828336184115 0.00329081703405 0.000229669157629)
(-0.000510753029252 0.00321393606333 0.000106987301683)
(-6.91852932151e-05 0.00345434214702 0.000320756203457)
(-7.13854772728e-05 0.00327390157994 0.000289511873243)
(-0.00138614292881 0.0031200021228 5.13678474495e-05)
(-0.00101803548804 0.00338050296873 0.000288753829293)
(-0.00095931517409 0.0032063804689 0.000246138113646)
(-0.00212001665875 0.00297928594561 -5.95816843955e-05)
(-0.00186084575687 0.00326361800426 0.000194440418933)
(-0.00174952419996 0.00309642689743 0.000110917272212)
(-0.0026378940681 0.0027958560337 -0.000215667789982)
(-0.00252125824869 0.0031071576118 4.75038006185e-05)
(-0.00237025966313 0.00294715056707 -0.000104803092738)
(-0.00288662900433 0.00257502287307 -0.000403099706334)
(-0.00293272966642 0.00291159048635 -0.000142668174398)
(-0.002762448012 0.00276078824128 -0.000372718246928)
(-0.0028275551478 0.00232656522515 -0.000603330178829)
(-0.00304884973297 0.00268184814022 -0.000359957307634)
(-0.00288816156293 0.00254254753052 -0.000675804435841)
(-0.00244937064046 0.00207334267111 -0.00078924853336)
(-0.00283459591012 0.00242789519927 -0.000588200901484)
(-0.00272735973571 0.00230381671575 -0.000981749167006)
(-0.00178455476919 0.00184718707934 -0.000913235756424)
(-0.00229222088069 0.00217953086238 -0.000788961253302)
(-0.00229105316382 0.00207123139086 -0.0012424125874)
(-0.000938470311597 0.00167086832555 -0.000867179186438)
(-0.00149422579681 0.00196516300734 -0.000896693193408)
(-0.00163537937549 0.00187288954758 -0.00138253745961)
(-0.000183463664613 0.00153040861093 -0.000480958840674)
(-0.000498088569858 0.00179934095212 -0.00074297192515)
(-0.000808150515119 0.00172774227377 -0.00123707939984)
(5.41039592237e-05 0.00163103820305 -0.000138707945257)
(-0.00020680876386 0.00160333755352 -0.000577336170967)
(0.000223736392855 0.00211090520523 -0.000421837935004)
(-5.30144021982e-05 0.00205853731831 -2.84451600385e-05)
(0.000256389444763 0.00215112614388 -0.000440026315364)
(0.0011363331774 0.00233449284326 -0.000838521739758)
(0.000630954089488 0.00229662477697 -0.000712046655505)
(0.000992308058988 0.00232107871974 -0.0011870894847)
(0.0020998217062 0.00259202039107 -0.000811004318841)
(0.00181342024884 0.0025272866648 -0.000827176319203)
(0.0019583016516 0.00251688096933 -0.00126139565525)
(0.00274956891351 0.00288889229942 -0.000560867435545)
(0.00266140174682 0.00280336881322 -0.000595631660569)
(0.00262626067006 0.00276992779809 -0.000948268891998)
(0.00296634251321 0.00317901308681 -0.000250070760529)
(0.00309663346049 0.0030893481863 -0.000255788692156)
(0.00293791789794 0.00304003561308 -0.000495178783528)
(0.00275383636408 0.00341433620317 4.14790018528e-05)
(0.00305525945715 0.00333534438441 8.22659256041e-05)
(0.00285395343513 0.00327969875934 -3.10854299598e-05)
(0.00218476568441 0.00356965607113 0.000274088244403)
(0.00260544972811 0.00350613287258 0.000359801763317)
(0.00241981279304 0.00345365862073 0.000364608469588)
(0.00136302206298 0.00364245177201 0.000430817624027)
(0.0018445857023 0.00359681635753 0.00055841709746)
(0.00171278486875 0.0035529371527 0.000654449120381)
(0.000404985290528 0.00364312682042 0.000505159921235)
(0.000897006352827 0.00361253749916 0.00066622102964)
(0.00083383754958 0.00357991410467 0.000821152701062)
(-0.000581356148784 0.00358881651132 0.000502522731068)
(-0.000120442476535 0.00357328254234 0.000691018382939)
(-0.000114893153195 0.00354964165577 0.000867401308525)
(-0.00150211309185 0.0034928499766 0.000431826400777)
(-0.00110915440303 0.00349642449283 0.000646255976564)
(-0.00104118380448 0.00347662146998 0.000804835670606)
(-0.00227706813981 0.0033611418291 0.000301525903947)
(-0.00198645277121 0.00339186100306 0.000540304183089)
(-0.00186519135933 0.00336977933103 0.00064671227419)
(-0.00283570034001 0.0031939252458 0.000120503416202)
(-0.00268239091492 0.0032600096734 0.000378400028132)
(-0.00251968007773 0.00323102321916 0.000405780327032)
(-0.00311925784275 0.00299156598554 -9.95257756982e-05)
(-0.00313034817645 0.00309771623958 0.000168559131999)
(-0.00294589066702 0.00306024038342 9.74318934532e-05)
(-0.00308157969584 0.00275848072081 -0.000344828030289)
(-0.00327782428073 0.00290450400085 -7.81629929409e-05)
(-0.00310142493718 0.00285957780604 -0.00026033391501)
(-0.00269998301916 0.00251149026093 -0.000587913621425)
(-0.00308003348456 0.00268261998936 -0.000349367638708)
(-0.00295786411207 0.0026372083906 -0.00063632143055)
(-0.00199650940825 0.00227700934108 -0.000772418690287)
(-0.00252568372886 0.00245523364921 -0.000603924365138)
(-0.00251486663631 0.0024155026292 -0.000979176417281)
(-0.00107674707556 0.00207487789443 -0.000772485932121)
(-0.00167934312327 0.00224396365756 -0.000765850180561)
(-0.00181998356712 0.00221877669508 -0.00119856304954)
(-0.000235061683428 0.00188233991849 -0.000400721029734)
(-0.000601357048864 0.00206049596886 -0.000647524433291)
(-0.000920173926531 0.00206366870683 -0.00110284049983)
(2.61349537488e-05 0.00184205167431 -5.57459747304e-05)
(-0.000243475182836 0.00190532251961 -0.000446075202863)
(0.000321697155918 0.0022208546714 -0.00031865388054)
(-7.63056053155e-07 0.00201641179291 5.85590180147e-05)
(0.000314287437919 0.0022224891806 -0.000279571615438)
(0.0013405045573 0.00246552528382 -0.00070070123495)
(0.00077909346622 0.00227245129011 -0.000594045162811)
(0.00115027329953 0.00240846395348 -0.000994633861189)
(0.00237463609748 0.00271287520357 -0.000611803660931)
(0.00204635010772 0.00248987433098 -0.000661169275249)
(0.00219727383808 0.00259098865977 -0.000996719112077)
(0.00303717951113 0.00297597659705 -0.00029055291718)
(0.00292761395383 0.0027268187156 -0.000366329552308)
(0.00289358356327 0.0028100788653 -0.000585993178533)
(0.00321376872176 0.00321613650421 7.65479939771e-05)
(0.00334078507378 0.00295631823049 2.90819130993e-05)
(0.0031826838219 0.00303351486798 -4.35590732948e-05)
(0.00292883596671 0.00339625992571 0.000400588687069)
(0.00323723890605 0.00313832891648 0.000400148956675)
(0.00304030930434 0.00322219400798 0.000481948447158)
(0.00227842016941 0.00350126685026 0.000644130616375)
(0.00271143449483 0.00325110879929 0.0006897904524)
(0.00253436766384 0.00334977296799 0.000905440131418)
(0.00138356517319 0.00353417882321 0.000793820503073)
(0.00187718197505 0.00329469368442 0.000880795399886)
(0.00175734673122 0.00341180405951 0.00119697795553)
(0.000370940114244 0.00350998620855 0.000852079491344)
(0.000873839277322 0.00327796361206 0.000969438617317)
(0.000822704464702 0.00341308629895 0.00134719924268)
(-0.000653231818573 0.00344855268175 0.000834751628435)
(-0.000178527707113 0.00322509995709 0.000976683211904)
(-0.000164636349692 0.00337136743102 0.00137235480986)
(-0.00160299454847 0.00336363191551 0.000754733758876)
(-0.00118847568472 0.00315413383191 0.000920772746174)
(-0.00111799497329 0.00330165342281 0.00129205366518)
(-0.00240669386247 0.00325991068832 0.000617178307274)
(-0.0020836428719 0.00307454287648 0.000811195595438)
(-0.00196561178548 0.00321281848643 0.00112101768858)
(-0.00299777393696 0.00313430064889 0.000426455743929)
(-0.00280213972778 0.00298408926428 0.000648660670028)
(-0.0026465613076 0.00310503956507 0.00086700069855)
(-0.00331453883485 0.00298239929991 0.000189921914756)
(-0.00327897664407 0.00287526233239 0.000434255416638)
(-0.0031029504028 0.00297517803703 0.000539218980236)
(-0.00330396833296 0.00280206329543 -8.27026013594e-05)
(-0.00345612399929 0.0027420667073 0.000175374181571)
(-0.00328787598059 0.00282179379205 0.000151866919658)
(-0.00292986991175 0.00260195463606 -0.000365378382421)
(-0.00328033252711 0.00258155296995 -0.000120177604015)
(-0.00316445911575 0.00264797068047 -0.000273031326916)
(-0.0022039435627 0.0024000131934 -0.000597355855412)
(-0.00272600056888 0.00240660710386 -0.000409721359018)
(-0.00272088162906 0.00246979480966 -0.00067729978219)
(-0.00122882467559 0.00220933002412 -0.000640888681731)
(-0.00184924021117 0.00223130288715 -0.000612884483478)
(-0.00199524668611 0.00230414663517 -0.000962458139436)
(-0.000310627322947 0.00200073962885 -0.000302549378288)
(-0.000712474318397 0.00206126483298 -0.000531056228011)
(-0.00103420544908 0.00216173137938 -0.000918966260357)
(-1.67888413693e-05 0.00183054681842 2.23919714966e-05)
(-0.000285395467412 0.00199035971801 -0.00029912248406)
(0.000418643147859 0.00204869725198 -0.000216832264257)
(5.38259955143e-05 0.00172517983433 0.000132824132909)
(0.000364669113507 0.00202698043974 -0.000127411064367)
(0.0015202547229 0.00227653985363 -0.00055451320311)
(0.000909076994152 0.00195867016049 -0.000474233061771)
(0.00128328823999 0.00220426263015 -0.000787830285029)
(0.0026010237316 0.00248208732894 -0.000415695166626)
(0.00223255608195 0.00213557650057 -0.000500410091934)
(0.00239237505634 0.0023535655489 -0.000726470984813)
(0.00326154245867 0.00268388489126 -4.66947220286e-05)
(0.00312911520724 0.00231114142097 -0.000162996291524)
(0.00310644647758 0.00251864182379 -0.000244841206496)
(0.00339381211518 0.00285399838008 0.000352682875797)
(0.00351336613459 0.0024672944651 0.000265560729069)
(0.00337034198267 0.00267867426172 0.000356754366088)
(0.00304278679762 0.00296773229778 0.000689350722007)
(0.00335322704833 0.00257775880164 0.000649541585656)
(0.00317474418716 0.00280444994951 0.0009115957178)
(0.00232360197636 0.00301855554911 0.000926455235912)
(0.00276375577006 0.00263110403836 0.000933690594554)
(0.00260699543564 0.00287918154309 0.00133918988874)
(0.00137222244671 0.00301267825122 0.00105641351413)
(0.00187223550904 0.00263183436984 0.00110465331157)
(0.00177252427544 0.002902294656 0.00161423916094)
(0.000323761362506 0.00296764552632 0.00109404233788)
(0.000830822385375 0.00258948922829 0.00116805664732)
(0.00079574176287 0.00287926313339 0.00173693578231)
(-0.000718878243663 0.0029055048282 0.00106270432964)
(-0.000237161203347 0.00253015235694 0.00115624181522)
(-0.000215378377394 0.00283025925291 0.00173758750744)
(-0.00167860547651 0.00284001822811 0.000977234582736)
(-0.00124924284133 0.00247167708387 0.00109100732243)
(-0.00118074833757 0.00277054843168 0.00164218426161)
(-0.00249402520623 0.00277378930686 0.000842677958192)
(-0.00214477669352 0.00242239186855 0.000983618480355)
(-0.00203803914368 0.00270823856068 0.00146757099387)
(-0.00310469360191 0.00270049751824 0.000656460342737)
(-0.00287114796561 0.00237797090972 0.000831416489048)
(-0.00273362802821 0.00264126898361 0.00121678697827)
(-0.00344719294839 0.00261123143354 0.000419707683453)
(-0.00336621053078 0.00232796684591 0.000626867274909)
(-0.00321160745057 0.00256362790924 0.000889795027023)
(-0.00346156107268 0.00249881022724 0.000137899178916)
(-0.00356700783731 0.00226184860447 0.000371944846418)
(-0.00342051938455 0.00246999954371 0.000494586379576)
(-0.00310210517578 0.00236478053624 -0.000164520580612)
(-0.00341402035595 0.00217233126583 6.94623148814e-05)
(-0.00331669757249 0.00235901858297 4.97659115503e-05)
(-0.00236833063698 0.00221833883002 -0.000425249987083)
(-0.00286834567126 0.00206424437051 -0.000236191634532)
(-0.00287713971896 0.0022396482882 -0.000391411749705)
(-0.00135953096085 0.00206538026029 -0.000503052029758)
(-0.00197859902509 0.00194346904042 -0.000465412097592)
(-0.00213200694402 0.00212130506336 -0.000720965812573)
(-0.000385356485661 0.00187416147422 -0.000206114878227)
(-0.000808184694918 0.00180982757175 -0.000414701911711)
(-0.00112714463091 0.00200778052226 -0.000722737212907)
(-6.13946774414e-05 0.00160385680266 8.93124307214e-05)
(-0.000321318013171 0.00184610641108 -0.00015866645779)
(0.000502163518396 0.00162179111425 -0.000124576664606)
(9.99641428424e-05 0.00122385559875 0.000187630846307)
(0.000403788199144 0.00158820925161 -8.39075582274e-07)
(0.00165893643478 0.00180334903233 -0.000420129950596)
(0.001004868787 0.00139964100687 -0.000370960621599)
(0.00138066093641 0.00173495570595 -0.00059774352471)
(0.00276428307571 0.00194921423487 -0.000247711216832)
(0.0023592075994 0.00152000105192 -0.000367260508032)
(0.0025300091414 0.0018405889567 -0.000489770928541)
(0.00341225875705 0.0020784903274 0.000149259159573)
(0.00325749497507 0.0016257229432 -6.30326118059e-06)
(0.0032524454458 0.00194537324083 3.74430829694e-05)
(0.00350352626033 0.00217485908696 0.000562419438927)
(0.00361268607601 0.00170932082202 0.000437885382658)
(0.00349242684101 0.00203929178569 0.000666706445793)
(0.0030976222242 0.00222488958775 0.000893881458203)
(0.00340733142447 0.00175571717265 0.00081903974345)
(0.00325359967324 0.00210380691792 0.00122794598557)
(0.00232592950318 0.00222828568591 0.00111188867021)
(0.00277019685877 0.00176153900189 0.001085515142)
(0.00263799448176 0.00213025417622 0.0016412580844)
(0.00133564394127 0.00219242819829 0.00121629644475)
(0.00183858872013 0.00173325720142 0.00123238783989)
(0.00176106785465 0.00212096705522 0.00188886305369)
(0.000269717045719 0.00213544270551 0.00123025612466)
(0.000776294231535 0.00167893442135 0.00126691210353)
(0.000757225186262 0.00208068753513 0.00197648201306)
(-0.000772832230617 0.00207958782397 0.001184544808)
(-0.000289992493198 0.0016234387992 0.00123376455847)
(-0.000262066438104 0.00203093190974 0.00194926312595)
(-0.00172512117291 0.00203738825232 0.00109739122005)
(-0.00128805929379 0.00158228410521 0.0011609847496)
(-0.00122461564666 0.00198588437869 0.00184168219216)
(-0.00253690544829 0.00201007928722 0.000972357011212)
(-0.00216898433584 0.00156237878577 0.00106044354255)
(-0.0020777618922 0.00195272704306 0.00167179760866)
(-0.00315416518989 0.00198902799094 0.000801823421221)
(-0.00289031265632 0.00155893145287 0.000924817202196)
(-0.00277605992944 0.00192809027228 0.00143629942662)
(-0.00351355161373 0.00196229549444 0.000579104437873)
(-0.00339289229321 0.00156034040127 0.000740718580068)
(-0.00326573758631 0.00190325187461 0.00112701306903)
(-0.0035494052265 0.00191955041163 0.000303507982383)
(-0.00361021181397 0.00155440995929 0.000501145714811)
(-0.00349191194011 0.00187008831881 0.000743292422908)
(-0.00320717879375 0.00185692470781 -2.20873903847e-06)
(-0.00347749013579 0.00153232483678 0.000205071948224)
(-0.00340525959112 0.00182370549345 0.000297780119033)
(-0.00247720837488 0.00177530131066 -0.000276353745042)
(-0.00294610680157 0.00149200694453 -0.000104335579756)
(-0.00297348971289 0.00176609473407 -0.000157732912474)
(-0.00145531815792 0.0016743433865 -0.000377061979546)
(-0.0020579934351 0.00143026195922 -0.000344546341173)
(-0.00222028608451 0.00170027528486 -0.00050868308732)
(-0.00044822901168 0.0015262538121 -0.000119274602763)
(-0.000875574968762 0.0013460013256 -0.00031599303194)
(-0.00119091681065 0.00162441392418 -0.000543262861438)
(-9.82863515048e-05 0.00119435697442 0.000139330361418)
(-0.000348108393056 0.00149276211428 -3.87291471076e-05)
(0.000557545134687 0.000992530613699 -5.87531106854e-05)
(0.000129859172431 0.00056611620679 0.000217133532773)
(0.000427797858961 0.000959052388731 0.000100194515953)
(0.00174465793443 0.00110870638262 -0.000318091179035)
(0.00105857164542 0.000666962849491 -0.000301101182224)
(0.00143704694468 0.00105794873351 -0.000454434358813)
(0.00285743672114 0.00118902638638 -0.00012585255238)
(0.00242329536119 0.000724012600757 -0.000278955139741)
(0.00260739196857 0.00111636357094 -0.000316790033512)
(0.00349003963273 0.00124883593203 0.000282322961904)
(0.00331509054528 0.000762825655731 9.14842660441e-05)
(0.00333038657627 0.00116460450692 0.000230294691732)
(0.00354815892098 0.00128209800011 0.000694505687181)
(0.00364712375773 0.000782254340134 0.000537961940609)
(0.00355087588777 0.00120030932707 0.000868947517994)
(0.00310300988245 0.00128432279701 0.00101067342725)
(0.0034124193074 0.000779622922454 0.000908031563504)
(0.00328176024201 0.00121586318536 0.00142124361516)
(0.00229689877923 0.00125833654548 0.00120601431169)
(0.00274636063324 0.000756028265815 0.00115681868463)
(0.00263417435207 0.00120819501597 0.00181162215991)
(0.00128445740338 0.00121115334581 0.00128300349867)
(0.00179327482137 0.000717547660426 0.00128262958597)
(0.00173028598998 0.00118116477779 0.00202815122375)
(0.000217002891212 0.0011580340684 0.00127042053734)
(0.000725195208729 0.000670525462883 0.00129072146856)
(0.000713664583603 0.00113855222943 0.0020758637586)
(-0.000810738186399 0.00111721515422 0.00121020450007)
(-0.00032852201059 0.000632176943948 0.00123896540234)
(-0.000300263716869 0.00109859393813 0.00201900320077)
(-0.00174200753451 0.0010985713976 0.00112403707211)
(-0.00130434797399 0.000612995045151 0.00116019166216)
(-0.00124752097779 0.00107263514111 0.00190055865827)
(-0.00253770894524 0.00110283523437 0.00101290373353)
(-0.00216275819528 0.00061777613304 0.00106709836305)
(-0.00208461538914 0.00106626908312 0.00174030429819)
(-0.00315039456677 0.00112197162609 0.000863712361043)
(-0.00287010989527 0.000643479883706 0.000947847958682)
(-0.00277474791888 0.00107637956077 0.00152813740915)
(-0.00351745270269 0.00114403704332 0.000662759857005)
(-0.00337070192119 0.000681142722061 0.00078394050101)
(-0.00326695000599 0.00109413402831 0.00124625601159)
(-0.00356905574857 0.00115856352633 0.000402709680651)
(-0.00359582503938 0.000719916746807 0.000562841357213)
(-0.00350336067437 0.00111036530819 0.000886096424526)
(-0.00324349040748 0.00115829348706 0.000102945107507)
(-0.00347778241217 0.000752029273789 0.000279138232538)
(-0.00343044537611 0.00111889168338 0.000454730351473)
(-0.00252764129683 0.00113803142615 -0.000172528175887)
(-0.0029620848428 0.000768643200723 -2.60476900883e-05)
(-0.00300903973543 0.00111573532304 7.51472693063e-06)
(-0.00150719316213 0.00109375029415 -0.000283477393567)
(-0.00208542101836 0.000764978571911 -0.00026667625018)
(-0.00225796295094 0.00109897646313 -0.000355164678183)
(-0.000488081352115 0.00100579747439 -5.73880677589e-05)
(-0.000907736596545 0.000735918338621 -0.000250794654662)