/*--------------------------------*- C++ -*----------------------------------*\
| =========                 |                                                 |
| \\      /  F ield         | OpenFOAM: The Open Source CFD Toolbox           |
|  \\    /   O peration     | Version:  3.0.1                                 |
|   \\  /    A nd           | Web:      www.OpenFOAM.org                      |
|    \\/     M anipulation  |                                                 |
\*---------------------------------------------------------------------------*/
FoamFile
{
    version     2.0;
    format      ascii;
    class       surfaceScalarField;
    location    "0.4";
    object      alphaPhi;
}
// * * * * * * * * * * * * * * * * * * * * * * * * * * * * * * * * * * * * * //

dimensions      [0 3 -1 0 0 0 0];

internalField   nonuniform List<scalar> 
45932
(
1.12730049233e-06
9.50639438026e-07
-2.0819514252e-06
2.03413183219e-06
1.30576304586e-06
-2.22062180462e-06
2.16456015443e-06
2.17906092468e-06
-2.35122987177e-06
1.53212140469e-06
3.10297243555e-06
-2.49840773369e-06
5.09355090841e-07
3.59202829378e-06
-2.57840455436e-06
-5.51853867153e-07
3.58082735744e-06
-2.5326946682e-06
-1.32047937632e-06
3.0806632743e-06
-2.33358106333e-06
-1.46916193828e-06
2.12969234465e-06
-2.02947997331e-06
-1.02798351707e-06
1.16149576177e-06
-1.61973894892e-06
-4.06508958271e-07
5.09151815961e-07
-1.13619224678e-06
1.13266488246e-07
1.66472779004e-07
-6.87071982797e-07
4.5311936954e-07
1.01960860354e-08
-3.5071717228e-07
6.34745808883e-07
-6.73398195717e-08
-1.05475932039e-07
6.86866162716e-07
-9.89252144268e-08
4.66671236838e-08
6.63631007671e-07
-1.10190083589e-07
1.33250573892e-07
5.996937363e-07
-1.13804157926e-07
1.7731139792e-07
5.16221987482e-07
-1.14539602887e-07
1.9266308161e-07
4.29797023041e-07
-1.14147268288e-07
1.9200017428e-07
3.56916005102e-07
-1.13883700471e-07
1.87231077751e-07
2.9240991361e-07
-1.14590893e-07
1.79078451006e-07
2.37511937874e-07
-1.15180707537e-07
1.70089466348e-07
1.91783063416e-07
-1.1576758511e-07
1.6143189178e-07
1.54360160878e-07
-1.1629449575e-07
1.53685853153e-07
1.23984330664e-07
-1.1669331951e-07
1.46961034766e-07
9.96747163977e-08
-1.17033105737e-07
1.41339621783e-07
8.03133083832e-08
-1.17322429307e-07
1.36683134622e-07
6.4965564539e-08
-1.17471513101e-07
1.32818804868e-07
5.28747544866e-08
-1.17585403634e-07
1.29675732003e-07
4.34165785354e-08
-1.17717650661e-07
1.27175381023e-07
3.60680941123e-08
-1.17817263337e-07
1.25165345954e-07
3.04542406808e-08
-1.17890503733e-07
1.23504001997e-07
2.63648906034e-08
-1.17937816445e-07
1.22026857257e-07
2.37800757479e-08
-1.17960594221e-07
1.2054514254e-07
2.29251530315e-08
-1.17950978441e-07
1.18805672741e-07
2.43993670226e-08
-1.17924267657e-07
1.16449857978e-07
2.82234766086e-08
-1.17603311941e-07
1.1377903367e-07
3.78381018931e-08
-1.1721333724e-07
1.07598564416e-07
4.45195383899e-08
-1.14444367501e-07
1.07762798293e-07
5.14918704127e-08
-1.10838733842e-07
1.03866334611e-07
-1.04234565883e-07
1.55726260796e-07
1.19130358619e-06
2.08056786862e-06
-2.32006788131e-06
2.1974486799e-06
2.93452728837e-06
-2.67525482491e-06
2.34985274662e-06
4.85270763e-06
-2.88465751324e-06
1.64292268797e-06
6.8515561575e-06
-3.08149737997e-06
5.18970992127e-07
7.89248055356e-06
-3.20700820696e-06
-6.42981542402e-07
7.86403014932e-06
-3.15709914996e-06
-1.4856985801e-06
6.79148302269e-06
-2.90675612561e-06
-1.62330631121e-06
4.7274049886e-06
-2.50973636926e-06
-1.11175149429e-06
2.60657126692e-06
-2.00640926648e-06
-4.32085029959e-07
1.23431367004e-06
-1.41322896196e-06
1.15775549328e-07
4.9147081231e-07
-8.78623230024e-07
4.65536510396e-07
1.43590782289e-07
-4.81079334834e-07
6.46848304087e-07
-2.9886686139e-08
-2.12995023613e-07
7.03139551169e-07
-1.08648876454e-07
-3.88324424452e-08
6.75777451902e-07
-1.39360703321e-07
5.58291629629e-08
6.08397665035e-07
-1.49084290266e-07
1.01872696238e-07
5.23656108209e-07
-1.5169554006e-07
1.1821622856e-07
4.35182113984e-07
-1.50741074159e-07
1.16943393879e-07
3.59518175121e-07
-1.49865325887e-07
1.10166947211e-07
2.9494052723e-07
-1.50040466406e-07
1.01138674902e-07
2.39339088444e-07
-1.50611056642e-07
9.11156283345e-08
1.93116148252e-07
-1.51141727983e-07
8.16208309345e-08
1.55250191008e-07
-1.51612999805e-07
7.31255663304e-08
1.24588214919e-07
-1.51875528854e-07
6.58125012444e-08
9.98050742121e-08
-1.52183623694e-07
5.96626071131e-08
8.02253446705e-08
-1.52473947363e-07
5.47018049523e-08
6.46649164348e-08
-1.52399733848e-07
5.04890921813e-08
5.23535312507e-08
-1.5228731385e-07
4.70127737575e-08
4.26900072897e-08
-1.52337204333e-07
4.42825962339e-08
3.5140387071e-08
-1.52386616294e-07
4.21185399669e-08
2.93328556018e-08
-1.52431807587e-07
4.03484529478e-08
2.50685887598e-08
-1.52462920968e-07
3.87890388178e-08
2.23329136254e-08
-1.52464346162e-07
3.7239140724e-08
2.13428544091e-08
-1.52400336955e-07
3.5439172399e-08
2.26993855323e-08
-1.52220197412e-07
3.29391884229e-08
2.63141457621e-08
-1.51502596411e-07
3.02843429298e-08
3.58884573843e-08
-1.50216360091e-07
2.34285524316e-08
4.32011131426e-08
-1.45987793532e-07
2.42306271223e-08
5.08494302876e-08
-1.40031579782e-07
2.15443933993e-08
-1.29217987668e-07
7.58327311694e-08
1.40439118776e-06
3.08752989763e-06
-2.41728016783e-06
2.62400870345e-06
4.49943424186e-06
-2.82863955811e-06
2.79393970073e-06
7.46907759482e-06
-2.82657219098e-06
1.89416244185e-06
1.04857035235e-05
-2.76202543016e-06
5.18699256887e-07
1.20215618111e-05
-2.78790699725e-06
-8.96948454812e-07
1.19952677386e-05
-2.7349086672e-06
-1.93657838633e-06
1.03990746673e-05
-2.58231537048e-06
-2.08992662549e-06
7.29075358255e-06
-2.41623258633e-06
-1.43388312405e-06
4.05627503385e-06
-2.11266477256e-06
-6.05994405086e-07
1.949613317e-06
-1.5607513591e-06
2.82336009101e-08
8.41082078635e-07
-9.86747012975e-07
4.25540634322e-07
3.12365584456e-07
-5.66009168342e-07
6.25313797859e-07
5.29719308249e-08
-2.74905101845e-07
6.96984058954e-07
-6.71902020713e-08
-9.92639742899e-08
6.75921253893e-07
-1.201583535e-07
4.54350389797e-09
6.09420392525e-07
-1.37563490114e-07
5.40238921793e-08
5.26409140608e-07
-1.41925334845e-07
7.19718111547e-08
4.35743106879e-07
-1.41890176693e-07
7.11990047374e-08
3.59315257711e-07
-1.39419056966e-07
6.38268610298e-08
2.93604937353e-07
-1.38740085591e-07
5.39295066966e-08
2.38394463039e-07
-1.38502765788e-07
4.350634297e-08
1.92806203556e-07
-1.3854759078e-07
3.37636952014e-08
1.55198444286e-07
-1.38759691909e-07
2.49822681705e-08
1.24547798587e-07
-1.38245931413e-07
1.70980471207e-08
9.98508510776e-08
-1.37827859798e-07
1.03030792782e-08
8.01662287705e-08
-1.37454402376e-07
4.4986959365e-09
6.44120046958e-08
-1.37482166768e-07
6.30344107322e-10
5.20127362997e-08
-1.37597991998e-07
-2.28889793869e-09
4.22688119723e-08
-1.37584698365e-07
-5.00453089262e-09
3.45827826765e-08
-1.37588859356e-07
-7.11090119136e-09
2.85633648715e-08
-1.37583943925e-07
-8.82844246206e-09
2.39736358096e-08
-1.37554599637e-07
-1.03189276362e-08
2.07583007209e-08
-1.37468801631e-07
-1.17804981513e-08
1.90819471491e-08
-1.37271456653e-07
-1.34527740268e-08
1.95664879537e-08
-1.36873097277e-07
-1.58318528233e-08
2.2165372129e-08
-1.35881095605e-07
-1.82205677255e-08
3.09280015798e-08
-1.34078497677e-07
-2.49006519636e-08
3.84222164635e-08
-1.29587841248e-07
-2.38943124803e-08
4.79652590148e-08
-1.23249874203e-07
-2.6324884169e-08
-1.09621682959e-07
2.83688319507e-08
1.76674736033e-06
3.79638687753e-06
-2.47771066197e-06
3.30432181638e-06
5.65779394314e-06
-2.7401476795e-06
3.48434152744e-06
9.43523011894e-06
-2.16636574571e-06
2.27723427434e-06
1.31743773862e-05
-1.4992625914e-06
5.13383895971e-07
1.50539873747e-05
-1.27276056407e-06
-1.29728643161e-06
1.50183200035e-05
-1.22183910219e-06
-2.65131671241e-06
1.30687450952e-05
-1.32037577252e-06
-2.84367364281e-06
9.21334012272e-06
-1.73488591066e-06
-1.96193258217e-06
5.14439976359e-06
-1.97236878698e-06
-8.91959725627e-07
2.48532977185e-06
-1.60808734222e-06
-1.31263836851e-07
1.12162791687e-06
-1.04483116523e-06
3.5552337014e-07
4.39615886933e-07
-6.14703588676e-07
5.896665298e-07
1.31676049125e-07
-3.11103547693e-07
6.79641727052e-07
-1.39224364841e-08
-1.26435417066e-07
6.70509656352e-07
-8.30609997809e-08
-2.09791591223e-08
6.07827233097e-07
-1.07202462927e-07
3.29848450803e-08
5.26051679895e-07
-1.1338505695e-07
5.26619512075e-08
4.41962266227e-07
-1.13666217106e-07
5.44869997921e-08
3.59170534607e-07
-1.11999445412e-07
4.61098570194e-08
2.93569272661e-07
-1.09904769947e-07
3.64528052681e-08
2.37940876561e-07
-1.09115267263e-07
2.6052487161e-08
1.91937107301e-07
-1.08537899039e-07
1.60559407147e-08
1.54761010728e-07
-1.08096626483e-07
6.92802614047e-09
1.24348375468e-07
-1.07913967174e-07
3.79388825284e-10
9.99435719975e-08
-1.07538475874e-07
-5.57055972311e-09
8.02594010907e-08
-1.07260234359e-07
-1.05163009743e-08
6.45490466269e-08
-1.07117597555e-07
-1.47015357132e-08
5.20362401991e-08
-1.0702360676e-07
-1.81793420411e-08
4.21845748023e-08
-1.06913448586e-07
-2.09050732518e-08
3.44730070013e-08
-1.06842148645e-07
-2.30353639036e-08
2.84196372192e-08
-1.0677303018e-07
-2.47551347611e-08
2.37776948675e-08
-1.06680785589e-07
-2.62329585136e-08
2.0490196466e-08
-1.06515124292e-07
-2.76664370533e-08
1.87192211829e-08
-1.06215022713e-07
-2.92857035276e-08
1.91415926816e-08
-1.05672207218e-07
-3.16234713236e-08
2.17247816352e-08
-1.04569444914e-07
-3.38950205384e-08
3.0781456521e-08
-1.02576522114e-07
-4.0558808905e-08
3.89910520638e-08
-9.85283935092e-08
-3.92691863389e-08
4.91222779054e-08
-9.29273782538e-08
-4.04538576338e-08
-8.10548125952e-08
2.05554619352e-08
2.24219755352e-06
4.0934633799e-06
-2.54416663526e-06
4.18453182001e-06
6.17541005682e-06
-2.48634972244e-06
4.35412722907e-06
1.02849584723e-05
-1.03970699498e-06
2.75519432806e-06
1.42687007443e-05
5.01081074386e-07
5.06332487674e-07
1.62136122861e-05
1.07674446498e-06
-1.79636741777e-06
1.61855235322e-05
1.13220160877e-06
-3.55527663655e-06
1.414172279e-05
6.8272895651e-07
-3.80783313814e-06
1.00485298497e-05
-5.81790010915e-07
-2.63890496536e-06
5.63127293475e-06
-1.6590558349e-06
-1.25942239873e-06
2.72618471907e-06
-1.6215985767e-06
-3.04472720497e-07
1.2538599722e-06
-1.08941068214e-06
2.67692068461e-07
5.11692447091e-07
-6.44931665227e-07
5.48471508044e-07
1.84862032016e-07
-3.3458008899e-07
6.50061785721e-07
2.58067891553e-08
-1.38554855836e-07
6.63162306012e-07
-4.38682737094e-08
-3.05652353897e-08
6.05677508423e-07
-7.55775823204e-08
2.73208200446e-08
5.25961044684e-07
-8.30841125618e-08
4.93543885478e-08
4.43244846797e-07
-8.37874424936e-08
5.25340364262e-08
3.62973582094e-07
-8.2563488917e-08
4.58639921295e-08
2.93548461518e-07
-8.0405091518e-08
3.53945340621e-08
2.38040250925e-07
-7.89474198835e-08
2.5311002062e-08
1.91989297763e-07
-7.80747951997e-08
1.56281504989e-08
1.54532531618e-07
-7.73851673052e-08
6.78204610898e-09
1.24044669094e-07
-7.7442902161e-08
4.79900513613e-11
9.96234118664e-08
-7.70919718019e-08
-5.86234411774e-09
8.03097446054e-08
-7.67509414727e-08
-1.0770215863e-08
6.45732005174e-08
-7.65000689936e-08
-1.49306483959e-08
5.21236492e-08
-7.63091693566e-08
-1.82855722005e-08
4.22910445866e-08
-7.61573084911e-08
-2.09426132984e-08
3.45093609931e-08
-7.60497311025e-08
-2.30592461838e-08
2.84193692707e-08
-7.59560742145e-08
-2.47699999047e-08
2.37872918568e-08
-7.58283592437e-08
-2.6218371151e-08
2.05210333782e-08
-7.56302998491e-08
-2.7618876579e-08
1.87939489135e-08
-7.52944613757e-08
-2.91937029527e-08
1.93299113757e-08
-7.47139950407e-08
-3.14943668362e-08
2.21193507388e-08
-7.36500506891e-08
-3.37090125321e-08
3.16294826299e-08
-7.17672545682e-08
-4.03195561647e-08
4.04806302825e-08
-6.84532169967e-08
-3.89264647648e-08
5.0847822538e-08
-6.40993184988e-08
-3.91953865982e-08
-5.54823553993e-08
2.52750439593e-08
2.77363366607e-06
3.92905749676e-06
-2.612761517e-06
5.14056406278e-06
5.92141130484e-06
-2.14340190638e-06
5.28950432788e-06
9.78603732339e-06
3.43459868167e-07
3.25803115999e-06
1.34319000544e-05
2.86246447327e-06
4.98386337576e-07
1.51715897811e-05
3.80273114597e-06
-2.32434663044e-06
1.51445057684e-05
3.86293104238e-06
-4.52387277593e-06
1.32980610633e-05
3.04231019831e-06
-4.85808735492e-06
9.54776011571e-06
8.31251345755e-07
-3.38084597678e-06
5.40207496387e-06
-1.25053953994e-06
-1.66294271837e-06
2.63146739547e-06
-1.62643915864e-06
-5.04476275107e-07
1.22689427789e-06
-1.13222638706e-06
1.70005725677e-07
5.11205512538e-07
-6.74813462151e-07
5.04074379273e-07
2.06120072222e-07
-3.5507632899e-07
6.29016481756e-07
4.93745221371e-08
-1.48938239068e-07
6.48787435438e-07
-1.65804951441e-08
-3.37415771601e-08
6.03477200672e-07
-4.70502686785e-08
2.57460306857e-08
5.25779580872e-07
-5.63302973887e-08
5.1089493851e-08
4.43834390896e-07
-5.73176420957e-08
5.54123785416e-08
3.67168677767e-07
-5.62657544315e-08
5.02019545003e-08
2.94544289393e-07
-5.48510947227e-08
3.95586504791e-08
2.38249682425e-07
-5.30879776124e-08
2.96041381753e-08
1.92190881732e-07
-5.21489167267e-08
2.02141133928e-08
1.5452355669e-07
-5.14530719026e-08
1.17390594515e-08
1.24808169461e-07
-5.10100104821e-08
4.246134418e-09
1.00137398185e-07
-5.10731973402e-08
-1.35681791355e-09
8.04295047852e-08
-5.07766611363e-08
-6.21577673878e-09
6.46599623968e-08
-5.0466758115e-08
-1.03267553111e-08
5.21821250506e-08
-5.02243423462e-08
-1.36553388601e-08
4.22107904098e-08
-5.00660935144e-08
-1.63141415964e-08
3.44956025809e-08
-4.9947468737e-08
-1.83867560082e-08
2.8453423248e-08
-4.98405572595e-08
-2.00648523136e-08
2.38360625259e-08
-4.97107468487e-08
-2.15009952633e-08
2.06048500635e-08
-4.95128951026e-08
-2.28867222284e-08
1.89407794126e-08
-4.91851705398e-08
-2.44453985042e-08
1.9599457378e-08
-4.86345602911e-08
-2.67384521549e-08
2.25948652825e-08
-4.76900078069e-08
-2.89556207851e-08
3.24563082204e-08
-4.60720343938e-08
-3.5556818634e-08
4.16956848519e-08
-4.35134090025e-08
-3.41793250998e-08
5.21435267979e-08
-4.03146686852e-08
-3.42326254416e-08
-3.39000342635e-08
3.05611284704e-08
3.2786571776e-06
3.32680750508e-06
-2.68263348213e-06
6.0414141438e-06
4.95485328518e-06
-1.80899537782e-06
6.14615951366e-06
8.04271327817e-06
1.62641699379e-06
3.70977257471e-06
1.08782515008e-05
4.98859395901e-06
4.90211309747e-07
1.21936796522e-05
6.19653243659e-06
-2.80103128918e-06
1.21719679079e-05
6.26341427662e-06
-5.41452493061e-06
1.07525790462e-05
5.16060769755e-06
-5.84133431347e-06
7.83578721215e-06
2.1390455753e-06
-4.08566039395e-06
4.50693366564e-06
-8.61909561804e-07
-2.047874027e-06
2.22771261892e-06
-1.63611277693e-06
-6.96621013411e-07
1.05166105292e-06
-1.17709848211e-06
7.2534403735e-08
4.45142626824e-07
-7.03120581656e-07
4.60302015445e-07
1.93996436992e-07
-3.75752589087e-07
6.10771004491e-07
5.69828549641e-08
-1.57250411552e-07
6.29716715597e-07
-2.92028153046e-10
-3.5970484909e-08
6.00019820878e-07
-2.36935118121e-08
2.61007650478e-08
5.25004589038e-07
-3.40466093643e-08
5.37099651781e-08
4.43592630135e-07
-3.5145422387e-08
5.91821775143e-08
3.6713903511e-07
-3.43876819078e-08
5.45454666654e-08
2.9969607536e-07
-3.32336575395e-08
4.55870342566e-08
2.3862346665e-07
-3.21019547552e-08
3.43676084686e-08
1.92316194095e-07
-3.10580906379e-08
2.5071822851e-08
1.55579208921e-07
-3.03999462524e-08
1.70431684137e-08
1.24899246609e-07
-2.99786458428e-08
9.76078590168e-09
1.00309510795e-07
-2.96765406127e-08
3.28337232709e-09
8.05250618699e-08
-2.97911891278e-08
-1.21609695937e-09
6.4772546828e-08
-2.95817372704e-08
-5.14401378158e-09
5.20225428744e-08
-2.93201291852e-08
-8.53041151708e-09
4.22662561218e-08
-2.91445898209e-08
-1.11080203326e-08
3.45464772756e-08
-2.90412461132e-08
-1.31726442505e-08
2.85037459607e-08
-2.89432359056e-08
-1.48475979149e-08
2.38947077968e-08
-2.88252621487e-08
-1.62862065724e-08
2.06950322651e-08
-2.86433532153e-08
-1.76713214236e-08
1.90882528645e-08
-2.83493899887e-08
-1.92305008489e-08
1.98496868329e-08
-2.78650941121e-08
-2.15315120963e-08
2.30110789892e-08
-2.70755437055e-08
-2.37762208406e-08
3.3105181481e-08
-2.57755486935e-08
-3.03907423609e-08
4.25407999843e-08
-2.38837121024e-08
-2.90654552082e-08
5.29491842977e-08
-2.15320654681e-08
-2.91911206257e-08
-1.59988487129e-08
3.50478618293e-08
3.68690636674e-06
2.38758164782e-06
-2.75685639459e-06
6.74862609575e-06
3.48829740384e-06
-1.60614239844e-06
6.80820007818e-06
5.53083702441e-06
2.44570739449e-06
4.05001974951e-06
7.35787032254e-06
6.27652513451e-06
4.82886435426e-07
8.18340438813e-06
7.57802012101e-06
-3.1639287129e-06
8.1666000829e-06
7.65225143883e-06
-6.10435838172e-06
7.25965040203e-06
6.43765043038e-06
-6.621610031e-06
5.37645824893e-06
2.97684768503e-06
-4.66275858512e-06
3.16144041418e-06
-6.13655407573e-07
-2.367443952e-06
1.59202539114e-06
-1.66148305453e-06
-8.60625986874e-07
7.64572835324e-07
-1.22007638814e-06
-2.10309354967e-08
3.3392083799e-07
-7.28436156924e-07
4.2260490257e-07
1.45072724172e-07
-3.94550273e-07
5.94167537952e-07
5.03652656444e-08
-1.64929698577e-07
6.23431266697e-07
8.71790164324e-09
-3.73948442645e-08
5.86093828269e-07
-8.02388044048e-09
2.62555485391e-08
5.24613923409e-07
-1.47576692823e-08
5.54753181061e-08
4.43885655074e-07
-1.66296710886e-08
6.22661542524e-08
3.67627069804e-07
-1.61755668525e-08
5.8026767601e-08
3.00299210345e-07
-1.53884206051e-08
4.94459731249e-08
2.41627492394e-07
-1.46543178905e-08
3.91979071594e-08
1.92505979819e-07
-1.39460670128e-08
2.90111099245e-08
1.54716689728e-07
-1.34175762493e-08
2.07870589792e-08
1.25052709693e-07
-1.30445098207e-08
1.40250662998e-08
1.00245780534e-07
-1.27806414325e-08
7.89083623103e-09
8.05550677332e-08
-1.26234918042e-08
2.5371736187e-09
6.48108104499e-08
-1.2838312118e-08
-1.01249543149e-09
5.23102864591e-08
-1.26109737026e-08
-4.21067692902e-09
4.22683886857e-08
-1.24594994809e-08
-6.89774619418e-09
3.45736744513e-08
-1.2363459312e-08
-8.94745429183e-09
2.85342282689e-08
-1.22856343316e-08
-1.06226950009e-08
2.39483708863e-08
-1.21810624974e-08
-1.20571086078e-08
2.07735705494e-08
-1.20266962593e-08
-1.34501461757e-08
1.92165421017e-08
-1.17783939852e-08
-1.50150100724e-08
2.00579783692e-08
-1.13789705213e-08
-1.73280127275e-08
2.33420862193e-08
-1.07577194424e-08
-1.96021340832e-08
3.35777539808e-08
-9.78753785531e-09
-2.62238334919e-08
4.30929993611e-08
-8.46362312537e-09
-2.49354737275e-08
5.33986110989e-08
-6.68479585463e-09
-2.51530140587e-08
-1.1173745464e-09
3.85170169525e-08
3.95996742009e-06
1.24465616723e-06
-2.82504595785e-06
7.20784037284e-06
1.78427584134e-06
-1.5544792566e-06
7.22892529567e-06
2.77162582498e-06
2.73364639073e-06
4.26026862344e-06
3.63886750584e-06
6.68668159677e-06
4.77197287182e-07
4.02261247522e-06
7.94417211163e-06
-3.39099291618e-06
4.01096870408e-06
8.02470379431e-06
-6.54605323561e-06
3.58361999841e-06
6.83173564054e-06
-7.13296297584e-06
2.68697334025e-06
3.27752123787e-06
-5.04990725851e-06
1.61266452496e-06
-5.3429233934e-07
-2.58967989031e-06
8.27198469369e-07
-1.69681961719e-06
-9.72560586414e-07
4.04413402704e-07
-1.25739784799e-06
-6.24360191062e-08
1.77342959878e-07
-7.53592683158e-07
3.96717514612e-07
8.90115973315e-08
-4.03140084342e-07
5.82603131938e-07
3.48191466493e-08
-1.70246124121e-07
6.18301427861e-07
1.25710252839e-08
-3.90727116379e-08
5.82267528226e-07
3.80128032277e-09
2.67276604486e-08
5.23556600724e-07
3.64871247346e-10
5.70664706124e-08
4.44166875854e-07
-6.06372982804e-10
6.43724207079e-08
3.6793907476e-07
-4.70536685808e-10
6.05085770165e-08
3.00569661027e-07
-1.00682699e-10
5.20760983995e-08
2.43341261367e-07
2.51926151026e-10
4.2244409284e-08
1.92738633396e-07
5.52055002342e-10
3.18032158615e-08
1.54804804952e-07
8.48051361532e-10
2.35464358273e-08
1.24309561868e-07
1.04261508396e-09
1.65574561537e-08
1.00379578622e-07
1.21607899836e-09
1.08894809669e-08
8.05423258075e-08
1.30877589592e-09
5.8887389379e-09
6.49021697514e-08
1.26262541144e-09
1.535644246e-09
5.23744762415e-08
1.24243862362e-09
-1.33013813149e-09
4.2491596762e-08
1.36371746871e-09
-3.93541860889e-09
3.45700883362e-08
1.41747399502e-09
-6.07514070045e-09
2.85560045355e-08
1.48102427135e-09
-7.73866674258e-09
2.39848587446e-08
1.55953263792e-09
-9.17628243684e-09
2.08408047466e-08
1.68543525272e-09
-1.05703642514e-08
1.93215623042e-08
1.88279387827e-09
-1.21440852015e-08
2.02206235121e-08
2.18785109692e-09
-1.44660544867e-08
2.35875859492e-08
2.63607507663e-09
-1.67611274574e-08
3.3901663915e-08
3.27585605966e-09
-2.33776244747e-08
4.34425973991e-08
4.0997516423e-09
-2.21044472945e-08
5.36553846903e-08
5.46830742048e-09
-2.23660229726e-08
1.17556706638e-08
4.0782220261e-08
4.09193098477e-06
1.20283829785e-08
-2.86612461918e-06
7.42996025991e-06
8.77279975898e-09
-1.56902409009e-06
7.42773704472e-06
1.04705963538e-08
2.7588135633e-06
4.35623816647e-06
1.22410273834e-08
6.69860949763e-06
4.74119570166e-07
1.09898792979e-08
7.8941877082e-06
-3.49701907975e-06
7.50509681671e-09
7.97446728773e-06
-6.75454895402e-06
7.35525419765e-09
6.83567380102e-06
-7.37944054961e-06
5.31697739649e-09
3.3068595153e-06
-5.24051766586e-06
8.92874027779e-09
-5.3534209486e-07
-2.70222752729e-06
1.04197999441e-08
-1.72388659254e-06
-1.03223683623e-06
1.21667079002e-08
-1.27837427284e-06
-1.03083489692e-07
1.31760626666e-08
-7.6516753465e-07
3.82144884529e-07
1.34759141146e-08
-4.09716163766e-07
5.76288736847e-07
1.37987098985e-08
-1.7317986891e-07
6.17331185232e-07
1.36499284213e-08
-3.97222575154e-08
5.8075077338e-07
1.37511772272e-08
2.69472827638e-08
5.2335541363e-07
1.38523470134e-08
5.79278064561e-08
4.44124704555e-07
1.40343540169e-08
6.5431933924e-08
3.68045892768e-07
1.39296610624e-08
6.1728130347e-08
3.00710168924e-07
1.38440445956e-08
5.33727784154e-08
2.43472393811e-07
1.37843684744e-08
4.36545894546e-08
1.92795956884e-07
1.37021458053e-08
3.31971732024e-08
1.54839726111e-07
1.36807552985e-08
2.49855894117e-08
1.24308623434e-07
1.36904533168e-08
1.79865973228e-08
9.99832772615e-08
1.36923155747e-08
1.22771759311e-08
8.06757954992e-08
1.36967465419e-08
7.5202642075e-09
6.50061031488e-08
1.37037200625e-08
3.22275301181e-09
5.24828696168e-08
1.36856354815e-08
7.57799017133e-11
4.25527165011e-08
1.36986985858e-08
-2.40883498439e-09
3.47622104752e-08
1.37093605411e-08
-4.51114671235e-09
2.8564861297e-08
1.37383601554e-08
-6.24714489373e-09
2.4013526223e-08
1.3793187591e-08
-7.67914097858e-09
2.08899751542e-08
1.38823145721e-08
-9.07477517483e-09
1.93990799472e-08
1.40227351918e-08
-1.06499625885e-08
2.03320556069e-08
1.42245785892e-08
-1.29700370966e-08
2.37434169185e-08
1.44890283887e-08
-1.52644904482e-08
3.4082402683e-08
1.47882349117e-08
-2.18515210197e-08
4.36118844671e-08
1.51241208907e-08
-2.05539891748e-08
5.37298153387e-08
1.61395307732e-08
-2.07892863622e-08
2.3398449549e-08
4.20869174672e-08
4.091206871e-06
-1.22018284397e-06
-2.86553593733e-06
7.42891797471e-06
-1.76557821514e-06
-1.56983290945e-06
7.42779109328e-06
-2.74956071476e-06
2.75853176464e-06
4.35480483585e-06
-3.61496689783e-06
6.69940435107e-06
4.73779262013e-07
-4.00179046592e-06
7.89436201816e-06
-3.49683207892e-06
-3.99595809644e-06
7.97424781138e-06
-6.75445346463e-06
-3.56651888056e-06
6.83356012047e-06
-7.3790776968e-06
-2.6744856546e-06
3.3049887083e-06
-5.23969147193e-06
-1.59410746201e-06
-5.36053065786e-07
-2.70171844902e-06
-8.05731410741e-07
-1.72393134338e-06
-1.03195376187e-06
-3.80032573907e-07
-1.27807277773e-06
-1.02956085379e-07
-1.50969561524e-07
-7.64960916493e-07
3.82319119023e-07
-6.2086959406e-08
-4.0953646378e-07
5.76294928724e-07
-7.05877749218e-09
-1.73190451475e-07
6.16105646843e-07
1.43499690967e-08
-3.95968762266e-08
5.80428525442e-07
2.35476984959e-08
2.70869030747e-08
5.2296885978e-07
2.72439879818e-08
5.80506260986e-08
4.44183423068e-07
2.85049380122e-08
6.55577987105e-08
3.68102922916e-07
2.82378698521e-08
6.18694727576e-08
3.00689505106e-07
2.76813615906e-08
5.35169432428e-08
2.43268132956e-07
2.71976412371e-08
4.37178035299e-08
1.9279586481e-07
2.67151169339e-08
3.33069870877e-08
1.54848778531e-07
2.64082189464e-08
2.50973332551e-08
1.24275427586e-07
2.62116210975e-08
1.80970243603e-08
9.99529310043e-08
2.60662552033e-08
1.23587233532e-08
8.06626875543e-08
2.59690041559e-08
7.63352280528e-09
6.49960532202e-08
2.60080690122e-08
3.36112561261e-09
5.24824271871e-08
2.60449586859e-08
1.48168812396e-10
4.25483345252e-08
2.59245402562e-08
-2.30274651197e-09
3.47630828704e-08
2.58957018039e-08
-4.40517590982e-09
2.85808251685e-08
2.58874286411e-08
-6.13947073782e-09
2.40355790482e-08
2.59132501465e-08
-7.57574165278e-09
2.09249244006e-08
2.59642775927e-08
-8.97209032972e-09
1.94493163188e-08
2.60443782794e-08
-1.05467661918e-08
2.03964392994e-08
2.61401365343e-08
-1.28629326587e-08
2.38168867748e-08
2.62128063718e-08
-1.5144444306e-08
3.41392063586e-08
2.61573468555e-08
-2.16915843904e-08
4.36313674118e-08
2.59883157866e-08
-2.03564944161e-08
5.36835988504e-08
2.66211914166e-08
-2.05340239608e-08
3.48963929109e-08
4.21855367276e-08
3.95760207321e-06
-2.36227311252e-06
-2.82373149325e-06
7.20912696615e-06
-3.46898574088e-06
-1.55486497822e-06
7.23081326801e-06
-5.509239581e-06
2.73303371376e-06
4.25990924426e-06
-7.33461137808e-06
6.69092022236e-06
4.76520294642e-07
-8.1605628661e-06
7.94235154296e-06
-3.39408984752e-06
-8.14759063938e-06
8.02345968817e-06
-6.54730302737e-06
-7.24293649855e-06
6.8303431194e-06
-7.13153859888e-06
-5.36020723734e-06
3.27249296106e-06
-5.04822975694e-06
-3.1409674684e-06
-5.36679026135e-07
-2.58850209394e-06
-1.56932022021e-06
-1.69714404734e-06
-9.72138240725e-07
-7.40049505917e-07
-1.25707339517e-06
-6.2184209141e-08
-3.07868684611e-07
-7.52970448224e-07
3.9709320357e-07
-1.18757450683e-07
-4.02530475908e-07
5.82714915128e-07
-2.262931075e-08
-1.69952933064e-07
6.17835468167e-07
1.74866447242e-08
-3.85403108853e-08
5.81937734616e-07
3.50647380404e-08
2.71721491588e-08
5.22016758691e-07
4.20843463204e-08
5.69825103022e-08
4.44239123122e-07
4.43107278994e-08
6.458994105e-08
3.68064828867e-07
4.35367368881e-08
6.0859167353e-08
3.0073076169e-07
4.25781628935e-08
5.2432159277e-08
2.4175685498e-07
4.16211060298e-08
4.22114831476e-08
1.92923245748e-07
4.08372353625e-08
3.22402239751e-08
1.54803984177e-07
4.02793118992e-08
2.39333137389e-08
1.24331390521e-07
3.99202725464e-08
1.69353299301e-08
1.00368946416e-07
3.96698433939e-08
1.12824636264e-08
8.0542890102e-08
3.94974126454e-08
6.2913721772e-09
6.49060059045e-08
3.9701447196e-08
1.93908969197e-09
5.23781400344e-08
3.95083564298e-08
-9.42876218098e-10
4.25086555711e-08
3.93705911188e-08
-3.55537879395e-09
3.45937635699e-08
3.92956977355e-08
-5.69752001497e-09
2.85925629775e-08
3.92654335645e-08
-7.37057564055e-09
2.40486058282e-08
3.92629512746e-08
-8.81553728828e-09
2.09441023929e-08
3.92805542795e-08
-1.02133030614e-08
1.94716267994e-08
3.9300350092e-08
-1.17844662999e-08
2.04102809913e-08
3.92855710073e-08
-1.40843183715e-08
2.38014931883e-08
3.91541748286e-08
-1.63327565816e-08
3.40603668593e-08
3.87200963091e-08
-2.2821761985e-08
4.34926162548e-08
3.79838542776e-08
-2.14279260836e-08
5.35089610453e-08
3.81093090305e-08
-2.15045940368e-08
4.71677753137e-08
4.12374600905e-08
3.6860859479e-06
-3.30058462185e-06
-2.75653047993e-06
6.74606665427e-06
-4.93304399289e-06
-1.60858347015e-06
6.8100392339e-06
-8.01835637663e-06
2.44401941038e-06
4.04874310586e-06
-1.08566036987e-05
6.28117066809e-06
4.81925598073e-07
-1.21708268242e-05
7.57750170017e-06
-3.1665102528e-06
-1.21503545917e-05
7.65162237812e-06
-6.10546989631e-06
-1.07343821301e-05
6.43679739572e-06
-6.61935642569e-06
-7.81389163078e-06
2.96972467086e-06
-4.66010373888e-06
-4.48403485532e-06
-6.16366768123e-07
-2.36573400232e-06
-2.20320908975e-06
-1.66157540229e-06
-8.59641954817e-07
-1.02704450126e-06
-1.21973692062e-06
-1.98655362196e-08
-4.19222201119e-07
-7.28447411878e-07
4.22977863375e-07
-1.67582794779e-07
-3.939674977e-07
5.94282512924e-07
-2.95952003026e-08
-1.64480247535e-07
6.23121924836e-07
2.59997782402e-08
-3.65740764818e-08
5.85213275139e-07
4.98470702097e-08
2.70333357716e-08
5.2400952572e-07
6.10137118946e-08
5.60690780213e-08
4.43680520987e-07
6.21074877878e-08
6.28919592905e-08
3.67453126692e-07
6.10275906934e-08
5.87267328251e-08
3.00168758691e-07
5.96782400177e-08
5.00933266606e-08
2.41173988604e-07
5.83351121171e-08
3.97726562793e-08
1.92533021512e-07
5.71782399582e-08
2.97595288361e-08
1.54733049633e-07
5.65310075207e-08
2.15378227505e-08
1.25034356669e-07
5.61176002171e-08
1.47540086522e-08
1.00232556196e-07
5.57648193785e-08
8.71260781055e-09
8.05229887947e-08
5.58507593263e-08
3.34784652554e-09
6.47943354379e-08
5.57284094959e-08
-3.1238899161e-10
5.23095563523e-08
5.5475889894e-08
-3.45697879332e-09
4.22875092742e-08
5.53123796987e-08
-6.15711882023e-09
3.46091536284e-08
5.52238166068e-08
-8.22116102079e-09
2.86022865411e-08
5.51760013859e-08
-9.90700249186e-09
2.40572040158e-08
5.51536689841e-08
-1.13570054549e-08
2.09466404921e-08
5.51412777694e-08
-1.27572030998e-08
1.94630157644e-08
5.51027561056e-08
-1.43200057898e-08
2.03685354254e-08
5.49771777482e-08
-1.65976460754e-08
2.36891919355e-08
5.463093985e-08
-1.87977035529e-08
3.38289648277e-08
5.37906540738e-08
-2.52104994582e-08
4.31602917999e-08
5.23776467311e-08
-2.37252561605e-08
5.31577652265e-08
5.17532613024e-08
-2.36415571502e-08
6.10328872427e-08
3.9292534882e-08
3.27358954659e-06
-3.90261322304e-06
-2.68329132559e-06
6.03871406957e-06
-5.89892856655e-06
-1.80956356387e-06
6.14744648568e-06
-9.76055312145e-06
1.62417365397e-06
3.70912595698e-06
-1.34104197425e-05
4.99257789565e-06
4.89011533176e-07
-1.51486408814e-05
6.19751664314e-06
-2.80383905597e-06
-1.51204675549e-05
6.26414507011e-06
-5.41572846819e-06
-1.32773000997e-05
5.15955105698e-06
-5.83898820442e-06
-9.5223147539e-06
2.13235687191e-06
-4.08282466966e-06
-5.37675894276e-06
-8.63639904201e-07
-2.04575858797e-06
-2.60610186284e-06
-1.63584619633e-06
-6.95450282874e-07
-1.20234602162e-06
-1.17604228835e-06
7.33459290571e-08
-4.86028616862e-07
-7.02001700614e-07
4.60803717222e-07
-1.80617760141e-07
-3.74498248355e-07
6.10914867954e-07
-2.37453719288e-08
-1.55698287688e-07
6.28847104232e-07
4.12108650101e-08
-3.45089091787e-08
5.97204270281e-07