/*--------------------------------*- C++ -*----------------------------------*\
| =========                 |                                                 |
| \\      /  F ield         | OpenFOAM: The Open Source CFD Toolbox           |
|  \\    /   O peration     | Version:  3.0.1                                 |
|   \\  /    A nd           | Web:      www.OpenFOAM.org                      |
|    \\/     M anipulation  |                                                 |
\*---------------------------------------------------------------------------*/
FoamFile
{
    version     2.0;
    format      ascii;
    class       volScalarField;
    location    "0.4";
    object      nut;
}
// * * * * * * * * * * * * * * * * * * * * * * * * * * * * * * * * * * * * * //

dimensions      [0 2 -1 0 0 0 0];

internalField   nonuniform List<scalar> 
15984
(
0.0008090513867
0.000812676370681
0.000813149761672
0.000813182675257
0.000813168638983
0.00081315399693
0.000813152193063
0.000813143513247
0.000813114113377
0.000813073833748
0.000813044553739
0.000813039901577
0.000813040778939
0.000813041015977
0.000813040167952
0.000813037612226
0.000813034440201
0.000813031270789
0.000813028412056
0.000813025982681
0.000813023995117
0.00081302241364
0.000813021184435
0.000813020249132
0.000813019552924
0.000813019044826
0.000813018681456
0.000813018428557
0.000813018256685
0.000813018142463
0.000813018069654
0.000813018026895
0.000813018008353
0.000813018012702
0.000813018042798
0.000813018048987
0.000813016703828
0.000812987144813
0.000812550466295
0.000808994211238
0.000841318258783
0.000869734603933
0.000873775714581
0.000874105129262
0.000874120913815
0.000874108174347
0.000874082489362
0.000874048158891
0.000873980717266
0.000873866688603
0.000873758947568
0.000873690264399
0.000873646268795
0.000873620761264
0.000873614484016
0.000873611665987
0.000873608845556
0.000873606271298
0.000873604059391
0.000873602238331
0.000873600785147
0.000873599659402
0.000873598812665
0.000873598196271
0.000873597767221
0.000873597481119
0.000873597300256
0.000873597197499
0.000873597149294
0.000873597138973
0.000873597157386
0.000873597203386
0.000873597278987
0.000873597392443
0.000873597528141
0.000873596858071
0.000873578004942
0.000873251725289
0.000869271146929
0.000841006329076
0.000847426406123
0.000896944919044
0.000904667159223
0.000905366276634
0.000905408336225
0.000905397178928
0.0009053719766
0.0009053521133
0.00090528259245
0.000905131819652
0.000904980101972
0.000904882087893
0.000904822385437
0.000904786270454
0.00090476815597
0.000904764880828
0.000904762147578
0.000904759839657
0.000904757944626
0.00090475644206
0.000904755291812
0.000904754449549
0.000904753888621
0.000904753552713
0.000904753416582
0.000904753431432
0.000904753672597
0.000904754144169
0.000904754605021
0.000904755000873
0.000904755354475
0.000904755695455
0.000904756064869
0.000904756517943
0.000904757059585
0.000904755260192
0.000904708773483
0.000903993969903
0.000896346028163
0.000847026389357
0.000848439841236
0.000905582519839
0.000915062319701
0.000915885639459
0.000915904720747
0.000915893973154
0.000915910593393
0.000915995529585
0.000916013594631
0.00091586773669
0.000915687085195
0.000915568562692
0.00091549951836
0.000915458488465
0.000915436051194
0.000915429968649
0.000915427186914
0.000915424919171
0.000915423097998
0.000915421687549
0.000915420659053
0.000915419984062
0.00091541965636
0.000915419838571
0.000915420631069
0.000915421349863
0.000915421999969
0.000915422563816
0.000915423041537
0.000915423452307
0.000915423817658
0.000915424167627
0.000915424545355
0.000915425005267
0.000915425507996
0.000915422471714
0.000915356508899
0.000914410685195
0.00090493533337
0.000847996977298
0.000848612910507
0.000907692842634
0.000917633561854
0.000918432185826
0.000918481355042
0.000918478937815
0.000918494472069
0.000918665857346
0.000918877643788
0.000918789047871
0.00091859437005
0.00091845821734
0.000918382724128
0.000918338572052
0.000918314222322
0.000918306662862
0.000918303773957
0.00091830146976
0.000918299619959
0.000918298164458
0.00091829707479
0.000918296338099
0.000918295954173
0.000918296086905
0.000918296872913
0.000918297573362
0.000918298182267
0.000918298705469
0.000918299152903
0.000918299540974
0.000918299889074
0.000918300226699
0.000918300596332
0.000918301051086
0.000918301531972
0.000918297948631
0.000918223769162
0.000917187297168
0.000907074853244
0.000848141345763
0.000848655449957
0.000908046753849
0.000917979806976
0.000918935860321
0.000918954518935
0.000918951573395
0.000919000525714
0.000919125843646
0.00091944799711
0.000919453414024
0.000919254095712
0.00091910368982
0.000919021919965
0.000918974972956
0.000918948879595
0.000918940773215
0.000918937822533
0.000918935460591
0.000918933564592
0.000918932048003
0.000918930871537
0.000918930015413
0.000918929458759
0.000918929204138
0.000918929527114
0.00091893016355
0.000918930722697
0.000918931201717
0.000918931610519
0.000918931967713
0.000918932292674
0.000918932613994
0.000918932974765
0.00091893342918
0.000918933916095
0.000918930191343
0.000918853579538
0.00091779098963
0.0009075095039
0.000848161614123
0.000848675103586
0.000908030284419
0.000918013321993
0.000918903374644
0.000918880025675
0.000918875585441
0.00091896731485
0.000919173312872
0.000919492457108
0.000919595847113
0.000919394901517
0.000919232065102
0.000919144206612
0.000919094469721
0.000919066884024
0.000919058372208
0.000919055387955
0.000919052991374
0.00091905106037
0.000919049503657
0.000919048273624
0.000919047332629
0.000919046650566
0.000919046208578
0.000919046005179
0.000919046277077
0.000919046784572
0.000919047227428
0.00091904760428
0.000919047933448
0.000919048235306
0.000919048539924
0.000919048892325
0.000919049349991
0.000919049856047
0.000919046134257
0.00091896900765
0.000917900518447
0.00090758298204
0.000848164170311
0.000848689246342
0.000907980215049
0.000917976300188
0.000918808523172
0.000918744188876
0.000918737146465
0.000918871063079
0.000919142365537
0.000919466045432
0.000919638164801
0.000919433754887
0.000919260615787
0.000919167034626
0.000919114829958
0.000919085962273
0.000919077072642
0.000919074075564
0.000919071656751
0.000919069694912
0.000919068112701
0.000919066854694
0.000919065871389
0.000919065119158
0.000919064583516
0.000919064236934
0.000919064078792
0.000919064305191
0.000919064720224
0.000919065075265
0.00091906538469
0.000919065669977
0.000919065962714
0.00091906631033
0.000919066773736
0.00091906730218
0.000919063615943
0.000918986434938
0.000917916872706
0.000907592938007
0.000848164394513
0.000848700377956
0.00090796175768
0.000917956655028
0.000918757556344
0.00091865886336
0.000918647712711
0.000918818574328
0.000919126381355
0.000919461546364
0.00091966152923
0.000919452538716
0.000919270454898
0.00091917237926
0.000919118532647
0.000919088805212
0.000919079567511
0.000919076554122
0.000919074120431
0.00091907215103
0.000919070555778
0.000919069283228
0.000919068273488
0.000919067496033
0.000919066917448
0.000919066507197
0.000919066256454
0.000919066162613
0.000919066433144
0.000919066777273
0.000919067077426
0.000919067355558
0.000919067644285
0.00091906799247
0.000919068463242
0.00091906900839
0.000919065349298
0.000918988179283
0.000917918463797
0.000907593582261
0.000848164388484
0.00084870671477
0.000907962495751
0.000917953944339
0.000918743453232
0.000918622635949
0.000918607295596
0.00091880327032
0.000919125590726
0.000919469385832
0.00091967453147
0.000919461481836
0.000919274492676
0.000919174164839
0.000919119384924
0.000919089178859
0.00091907980273
0.000919076776531
0.000919074339041
0.000919072370663
0.000919070774187
0.00091906949258
0.000919068481821
0.000919067694344
0.000919067098761
0.000919066670684
0.000919066386822
0.000919066242397
0.000919066315028
0.000919066648127
0.000919066950237
0.000919067229582
0.000919067520801
0.000919067872654
0.000919068347864
0.000919068896524
0.000919065240404
0.000918988061932
0.000917918315431
0.000907593311124
0.000848164403775
0.00084870658186
0.000907962488232
0.000917953987083
0.000918743585794
0.000918622652044
0.000918607491293
0.000918803337446
0.000919125724184
0.000919469518202
0.000919674522018
0.000919461376675
0.000919274376159
0.000919174093649
0.000919119358197
0.000919089142412
0.000919079797479
0.000919076775109
0.000919074344303
0.000919072380551
0.000919070788694
0.000919069511122
0.000919068505696
0.00091906772438
0.000919067133745
0.000919066712573
0.000919066433917
0.000919066295364
0.000919066361856
0.000919066701219
0.000919067011976
0.000919067299351
0.00091906759741
0.000919067953763
0.000919068429314
0.000919068971366
0.000919065298543
0.000918988088312
0.000917918310277
0.000907593274
0.000848164468997
0.000848699608774
0.000907961235236
0.000917956703117
0.000918758075966
0.000918659256939
0.000918648749225
0.000918818891409
0.000919126734172
0.000919462058342
0.000919661426099
0.000919452250746
0.000919270061329
0.000919172098726
0.000919118396991
0.000919088679477
0.000919079551228
0.000919076552001
0.000919074133265
0.000919072175475
0.000919070594462
0.000919069333538
0.000919068338749
0.000919067575174
0.000919067011786
0.00091906661617
0.000919066378564
0.000919066293496
0.000919066536574
0.000919066904642
0.000919067228609
0.000919067529099
0.000919067837342
0.000919068199018
0.000919068671918
0.000919069197914
0.000919065492563
0.000918988231105
0.000917918421454
0.000907593444248
0.000848164579149
0.000848688312231
0.00090797989291
0.000917976304661
0.0009188092035
0.000918744902629
0.000918738490633
0.000918871544861
0.000919142802132
0.00091946663926
0.000919638000483
0.000919433356446
0.000919260304932
0.000919166740367
0.000919114614615
0.00091908580011
0.00091907703763
0.000919074066453
0.000919071664094
0.000919069725478
0.000919068163344
0.000919066925628
0.000919065956402
0.000919065228157
0.000919064708034
0.00091906437643
0.000919064225313
0.000919064383559
0.000919064826431
0.000919065216222
0.000919065559194
0.000919065875706
0.000919066195431
0.000919066562173
0.000919067030462
0.000919067536149
0.000919063789902
0.000918986476096
0.000917916767469
0.000907592676247
0.000848164702731
0.000848673821106
0.000908029566507
0.000918013199258
0.000918903987023
0.000918880794848
0.000918876893894
0.000918967894488
0.000919173683946
0.000919492654406
0.000919595512182
0.000919394240598
0.000919231341843
0.000919143700003
0.000919094030822
0.000919066604324
0.000919058323461
0.000919055378271
0.000919053010471
0.000919051104386
0.000919049567769
0.000919048361924
0.000919047435189
0.000919046769233
0.000919046335738
0.000919046126545
0.000919046271264
0.000919046802437
0.000919047284372
0.000919047699843
0.000919048065136
0.000919048399667
0.000919048731787
0.000919049103616
0.000919049566675
0.000919050050584
0.000919046265303
0.00091896898259
0.000917900301202
0.000907582542632
0.000848164569959
0.000848653946228
0.000908045715994
0.000917979499342
0.000918936286813
0.000918955201066
0.000918952649921
0.000919001021276
0.000919126035984
0.000919447581474
0.000919452911619
0.000919253255293
0.000919102783932
0.000919021368082
0.000918974448063
0.000918948478225
0.000918940750276
0.000918937841807
0.000918935514483
0.000918933642069
0.000918932151398
0.000918931000934
0.000918930151088
0.000918929587747
0.000918929306804
0.000918929420479
0.000918930074541
0.000918930671006
0.000918931187168
0.000918931633089
0.000918932023312
0.000918932376994
0.000918932721839
0.000918933099089
0.000918933557793
0.000918934022761
0.000918930233294
0.000918853450867
0.000917790624066
0.000907508838623
0.000848162062559
0.000848611352279
0.000907691617019
0.000917632677592
0.0009184321697
0.000918481738165
0.000918479628028
0.000918494606257
0.000918666198321
0.000918876458189
0.000918788013074
0.000918593271531
0.000918457226228
0.000918382073394
0.000918338005657
0.000918313675306
0.000918306695119
0.000918303859732
0.000918301587247
0.000918299755994
0.000918298319129
0.000918297239172
0.000918296491407
0.000918296072842
0.000918296024994
0.00091829668179
0.000918297414892
0.000918298053983
0.000918298609676
0.000918299088444
0.000918299503502
0.000918299875307
0.000918300232321
0.000918300615656
0.000918301073058
0.000918301530663
0.000918297879217
0.000918223512982
0.000917186752097
0.000907073913203
0.000848141772309
0.000848438034227
0.000905580945915
0.00091506084636
0.00091588436071
0.000915904095928
0.000915894122007
0.000915910106952
0.000915995010621
0.000916012368098
0.000915866391321
0.000915685698041
0.000915567397714
0.000915498606296
0.00091545764745
0.000915435416997
0.000915429932312
0.000915427181392
0.000915424958743
0.000915423167543
0.000915421769755
0.000915420726002
0.000915420020088
0.000915419636505
0.000915419557391
0.000915420159214
0.000915420895962
0.000915421548319
0.000915422133342
0.000915422641073
0.000915423076095
0.00091542346207
0.000915423829806
0.000915424221023
0.000915424684054
0.000915425163189
0.000915422056964
0.000915355892025
0.000914409732605
0.000904933912736
0.00084799727188
0.000847425203889
0.000896943390276
0.000904665043864
0.000905364115703
0.000905406594436
0.000905396095833
0.000905370556379
0.000905350648939
0.000905280895133
0.000905130142417
0.000904978470299
0.000904880986703
0.000904821159109
0.000904785094278
0.000904767904492
0.000904764681917
0.000904761988748
0.000904759721421
0.000904757865378
0.000904756383117
0.000904755240328
0.000904754400646
0.000904753823386
0.00090475346699
0.000904753292506
0.00090475326204
0.000904753342582
0.000904753587172
0.000904753996642
0.000904754411184
0.000904754781211
0.000904755137967
0.000904755521611
0.00090475598122
0.000904756505528
0.000904754646131
0.000904707960211
0.000903992809764
0.000896344429424
0.000847026484783
0.000841317577409
0.000869733023585
0.000873773338571
0.000874102354766
0.000874118454633
0.00087410628122
0.000874080482521
0.000874046385723
0.000873978883811
0.000873865018038
0.000873758050813
0.000873689223985
0.000873645340749
0.000873620245016
0.000873614428316
0.000873611637108
0.00087360884971
0.000873606303624
0.00087360411928
0.000873602325259
0.000873600898152
0.00087359979658
0.000873598972615
0.0008735983767
0.000873597965162
0.000873597695642
0.000873597531232
0.00087359744097
0.000873597403769
0.000873597404883
0.000873597435254
0.000873597493183
0.000873597582095
0.000873597709948
0.000873597857929
0.000873597186235
0.000873578286012
0.000873251849393
0.000869271080596
0.000841006485438
0.000809050803818
0.000812675545685
0.000813148553899
0.00081318139602
0.000813167486471
0.000813152979972
0.000813151170114
0.000813142542591
0.000813113109312
0.000813072734984
0.000813043900997
0.000813039735234
0.000813040959526
0.000813041525423
0.000813040694782
0.000813038154283
0.00081303500229
0.000813031854345
0.000813029017339
0.000813026609589
0.00081302464345
0.000813023084692
0.000813021878153
0.000813020964564
0.000813020288718
0.000813019799529
0.000813019453221
0.000813019213503
0.000813019052428
0.000813018948022
0.000813018884236
0.000813018851182
0.000813018843875
0.000813018862759
0.000813018911807
0.000813018941228
0.000813017616305
0.000812988021311
0.000812551247013
0.000808994779487
0.000841055563448
0.000869363981841
0.000873367124302
0.000873672781606
0.000873670473467
0.000873662769185
0.000873669387152
0.000873685501564
0.000873685565134
0.000873661960128
0.000873638704542
0.000873630765915
0.000873635507959
0.000873637409921
0.00087363542284
0.000873632309992
0.000873629215696
0.000873626509823
0.000873624304386
0.000873622580446
0.000873621262426
0.000873620285008
0.000873619571507
0.000873619071785
0.000873618731143
0.000873618507021
0.00087361837562
0.000873618306085
0.000873618275546
0.000873618272152
0.000873618289836
0.000873618327834
0.000873618386282
0.000873618465692
0.000873618541609
0.000873617709129
0.000873598602682
0.000873271615787
0.000869290015534
0.00084102384093
0.00211219282545
0.00298860010051
0.00311524459337
0.00312528402896
0.00312505360305
0.00312508762394
0.00312607520361
0.00312805216466
0.00312994812373
0.00313084025533
0.00313104429384
0.00313096605082
0.00313079837256
0.00313067918016
0.00313058319035
0.00313054177098
0.00313053796414
0.00313055207633
0.00313057305579
0.00313059502191
0.00313061516011
0.00313063260536
0.0031306471567
0.00313065911661
0.00313066876823
0.00313067655399
0.00313068290064
0.00313068803616
0.00313069220919
0.00313069569261
0.00313069875029
0.0031307017249
0.00313070494086
0.00313070879155
0.00313071227997
0.00313067736272
0.00312989261406
0.00311793558632
0.00298996729251
0.00211218066741
0.00217292105257
0.00381450008557
0.00407469370683
0.00410086447215
0.00410218634348
0.00410228210099
0.00410299554025
0.00410452777201
0.00410581819041
0.00410603744905
0.0041056876547
0.00410528042243
0.00410495642989
0.00410475096395
0.00410463126927
0.00410455830401
0.00410454911677
0.00410456973249
0.0041046013184
0.00410463442122
0.00410466409713
0.00410468871802
0.00410470853417
0.00410472389849
0.00410473503646
0.00410474278548
0.00410474786247
0.00410475173008
0.00410475523598
0.00410475831052
0.00410476093879
0.00410476337411
0.00410476589538
0.00410476864918
0.00410476679329
0.00410464865586
0.00410257163894
0.00407505604227
0.00381489255737
0.00217269417625
0.00218455140594
0.00409726216346
0.00442987497704
0.00446607891117
0.004468274045
0.00446841980013
0.00446920520414
0.00447099182114
0.00447231038045
0.00447216950905
0.00447140018208
0.00447073666101
0.00447028299632
0.00447001755419
0.00446987909808
0.00446979612019
0.00446978031812
0.00446980116534
0.00446983512306
0.00446987051218
0.00446990152194
0.00446992650132
0.00446994435379
0.00446995613175
0.00446996554123
0.00446997345971
0.004469979749
0.00446998477937
0.0044699888143
0.0044699920943
0.00446999484217
0.00446999730809
0.00446999978203
0.00447000226874
0.00446999665687
0.00446981227089
0.00446679026267
0.00442917827465
0.00409739666076
0.00218422635972
0.00218667119262
0.00417613638073
0.00453604126989
0.00457497217539
0.00457654096412
0.00457667032461
0.00457842745204
0.00458211998044
0.00458463966249
0.00458473136212
0.00458376375953
0.00458293967697
0.00458239214928
0.00458208173479
0.00458192214155
0.00458182909846
0.00458180529817
0.00458182424921
0.00458185888708
0.00458189543721
0.00458192798141
0.00458195429985
0.00458197354523
0.00458198655002
0.00458199661446
0.00458200490469
0.00458201154045
0.0045820168396
0.00458202107258
0.00458202449139
0.00458202733513
0.00458202986111
0.00458203236684
0.00458203478798
0.00458202737712
0.00458181107443
0.00457835441647
0.00453638840644
0.00417700499799
0.00218630313532
0.00218704175323
0.00419294613485
0.00455947042249
0.0045955494487
0.00459591444732
0.0045960447628
0.00459915410541
0.00460679167386
0.00461200431366
0.00461279619406
0.00461179784428
0.00461087863064
0.00461026715233
0.00460992044525
0.00460974191376
0.00460963775871
0.00460960669975
0.00460962285115
0.00460965702134
0.00460969433308
0.00460972819244
0.00460975638354
0.00460977839427
0.00460979400439
0.00460980446434
0.00460981283896
0.0046098195471
0.00460982491412
0.00460982920798
0.00460983267918
0.00460983556265
0.00460983811717
0.00460984064297
0.00460984305297
0.00460983504043
0.00460960801342
0.00460600898648
0.00456267043811
0.00419522259789
0.00218665500955
0.00218710421662
0.00419486732617
0.00456061318773
0.00459397407101
0.00459322330523
0.00459335137458
0.00459766522453
0.00460838387877
0.00461703342072
0.00461864790571
0.00461768573407
0.0046167006382
0.00461604240933
0.00461566622597
0.00461547089493
0.00461535526196
0.00461531851145
0.00461533204493
0.0046153654554
0.0046154031642
0.00461543811196
0.00461546777288
0.00461549131896
0.00461550925577
0.00461552169939
0.00461552998493
0.00461553668099
0.0046155420495
0.00461554636106
0.00461554985311
0.00461555275607
0.00461555532605
0.00461555786397
0.00461556027719
0.00461555211396
0.00461532232415
0.00461168716348
0.00456800964882
0.0041986830903
0.00218670938288
0.00218711676349
0.00419427781501
0.00455859456276
0.00459029084073
0.00458889535263
0.00458901788392
0.0045940549319
0.0046065360303
0.00461755809626
0.00461975866257
0.00461882368686
0.00461778300336
0.00461708990166
0.00461668939518
0.00461648039009
0.0046163550543
0.00461631441075
0.00461632532812
0.00461635794455
0.00461639555677
0.00461643119427
0.00461646168666
0.00461648621765
0.00461650533789
0.00461651953787
0.00461652929593
0.00461653570913
0.00461654106401
0.00461654537916
0.00461654888618
0.00461655180477
0.00461655438806
0.00461655693601
0.00461655935374
0.00461655115807
0.0046163207823
0.00461267806925
0.00456893150727
0.00419924109682
0.00218671634346
0.00218712302336
0.00419375569813
0.00455757087257
0.00458874534115
0.00458716238338
0.0045872820653
0.0045925687199
0.00460559374895
0.00461756553789
0.004620017307
0.00461907636547
0.00461799176621
0.0046172741823
0.00461685591963
0.00461663742431
0.00461650532301
0.00461646102634
0.00461647057827
0.0046165027473
0.00461654024439
0.00461657617123
0.00461660690963
0.00461663209221
0.00461665193847
0.00461666686211
0.00461667787268
0.00461668527315
0.00461669018925
0.0046166945025
0.00461669802254
0.0046167009552
0.00461670355129
0.00461670610876
0.00461670853006
0.00461670032445
0.0046164698344
0.00461282574703
0.00456906719843
0.00419931674414
0.00218671669763
0.00218712698106
0.00419355569291
0.00455740663817
0.00458857883011
0.00458700988889
0.00458714922443
0.00459242440176
0.00460546913898
0.00461760353468
0.00462010780211
0.00461914932914
0.00461804182789
0.00461731068307
0.00461688274877
0.00461665931568
0.00461652373847
0.0046164774454
0.00461648623481
0.00461651824874
0.00461655573129
0.00461659159032
0.00461662271528
0.00461664808684
0.00461666811615
0.00461668342103
0.00461669486767
0.00461670291763
0.0046167080313
0.00461671215917
0.00461671569271
0.00461671863416
0.00461672124023
0.00461672380664
0.00461672623271
0.00461671802198
0.00461648750028
0.00461284315712
0.00456908281693
0.00419932404118
0.00218671643767
0.00218712680462
0.00419355603753
0.00455740690476
0.00458858081253
0.00458701033894
0.00458715535987
0.00459242757994
0.00460547519109
0.00461760472349
0.00462010804648
0.00461914929014
0.00461804154277
0.00461731032996
0.0046168823014
0.00461665867069
0.00461652295861
0.00461647674027
0.00461648568017
0.00461651769957
0.00461655517984
0.00461659100977
0.00461662215146
0.0046166475517
0.0046166675534
0.00461668292837
0.00461669435721
0.00461670241784
0.00461670760327
0.00461671167791
0.00461671521246
0.0046167181571
0.00461672076811
0.00461672333977
0.00461672576811
0.00461671754806
0.00461648699683
0.00461284257774
0.00456908217743
0.0041993233996
0.00218671640875
0.00218712245999
0.00419375693979
0.00455756932843
0.0045887516713
0.00458717000345
0.00458731710421
0.00459257452005
0.00460560942891
0.00461756857635
0.00462001814797
0.00461907603391
0.00461799101694
0.00461727307743
0.00461685458529
0.00461663552554
0.0046165030161
0.00461645908615
0.00461646887166
0.00461650094075
0.00461653850136
0.00461657438238
0.00461660520109
0.00461663043581
0.00461665030869
0.00461666536738
0.00461667642143
0.00461668391329
0.00461668883343
0.0046166931383
0.00461669666314
0.00461669960571
0.00461670221581
0.0046167047857
0.00461670720701
0.00461669896471
0.00461646837953
0.00461282405547
0.00456906530825
0.00419931480213
0.00218671656157
0.00218711589774
0.0041942788867
0.00455859441577
0.00459029930156
0.00458890531674
0.00458905896648
0.00459406724543
0.00460655793193
0.00461756273412
0.00461975998724
0.00461882297822
0.0046177818218
0.00461708809211
0.00461668727517
0.0046164773304
0.00461635109143
0.00461631091663
0.00461632197888
0.00461635482114
0.00461639252925
0.00461642828936
0.00461645870597
0.00461648358198
0.00461650276457
0.00461651727291
0.00461652739651
0.00461653388307
0.00461653913946
0.00461654345624
0.00461654697426
0.00461654991004
0.00461655251257
0.00461655507116
0.0046165574725
0.00461654919426
0.00461631863508
0.00461267549097
0.00456892851707
0.00419923785057
0.00218671606793
0.00218710303741
0.00419486849603
0.00456061406851
0.00459398221313
0.00459323499512
0.00459339212361
0.00459768237482
0.00460840622918
0.00461703930317
0.0046186501623
0.00461768558917
0.00461670002204
0.00461604091874
0.00461566410427
0.0046154669939
0.00461534995307
0.00461531413848
0.0046153278523
0.00461536160188
0.00461539938552
0.00461543479992
0.00461546455442
0.00461548861883
0.00461550704276
0.00461552008737
0.00461552852991
0.00461553511141
0.00461554047103
0.00461554479157
0.00461554830332
0.0046155512316
0.00461555382395
0.00461555636637
0.00461555873903
0.00461555043312
0.0046153203467
0.00461168451216
0.0045680062009
0.00419867875779
0.0021867088252
0.00218704038388
0.00419294870012
0.00455947397033
0.00459555840162
0.00459592794703
0.00459608176774
0.00459917298885
0.00460681215244
0.00461201197318
0.00461280057471
0.00461179982548
0.00461088009001
0.00461026788463
0.00460992004101
0.00460973842247
0.00460963274807
0.00460960235441
0.00460961905256
0.00460965355232
0.0046096913999
0.00460972617024
0.00460975513779
0.00460977773698
0.00460979417321
0.00460980512655
0.00460981332437
0.00460982001674
0.00460982538518
0.00460982969848
0.00460983319877
0.00460983611568
0.0046098386956
0.00460984121982
0.00460984356541
0.00460983535004
0.00460960790396
0.00460600789939
0.00456266788304
0.00419521779267
0.00218665399612
0.00218666974622
0.00417614073125
0.00453605047914
0.00457498136041
0.00457655631346
0.00457670185558
0.00457844443096
0.00458213666978
0.00458464964129
0.00458473870121
0.00458376904884
0.00458294371922
0.00458239556208
0.00458208364088
0.00458191943543
0.00458182510092
0.00458180217388
0.00458182189391
0.00458185706173
0.00458189445397
0.00458192823196
0.00458195572028
0.00458197626816
0.00458199049663
0.00458200056068
0.00458200883819
0.00458201547282
0.00458202078159
0.00458202503758
0.0045820284918
0.00458203137459
0.00458203392878
0.00458203642968
0.0045820387685
0.00458203110324
0.00458181426422
0.00457835627687
0.00453638786504
0.00417700025845
0.00218630142376
0.00218454992282
0.00409726690567
0.00442988456688
0.00446609034107
0.00446828913638
0.00446844205091
0.00446922127131
0.00447100714826
0.00447232104352
0.00447217814204
0.00447140771229
0.00447074284712
0.00447028786608
0.00447001980545
0.00446987618427
0.00446979020724
0.00446977494339
0.00446979716305
0.00446983273068
0.00446986960642
0.00446990209228
0.00446992847731
0.00446994836789
0.00446996215843
0.00446997146637
0.00446997943957
0.0044699857808
0.00446999082508
0.00446999487453
0.0044699981869
0.00447000097973
0.0044700034815
0.00447000595824
0.00447000836387
0.00447000247567
0.00446981747318
0.0044667938219
0.00442917857356
0.00409739128748
0.00218422357924
0.00217292009739
0.00381450291551
0.00407469899231
0.00410087076858
0.00410219584123
0.0041022971997
0.00410300740149
0.00410453860726
0.00410582598759
0.00410604360607
0.0041056944138
0.00410528479087
0.00410495781048
0.00410474926459
0.00410462186086
0.00410454938811
0.00410454096306
0.00410456270421
0.00410459555466
0.00410462959882
0.00410466036499
0.00410468631206
0.00410470704546
0.00410472335039
0.00410473595655
0.00410474491064
0.00410475119126
0.00410475540638
0.00410475860796
0.00410476153802
0.00410476424685
0.00410476675246
0.00410476932029
0.00410477204821
0.00410476997051
0.00410465121889
0.00410257240204
0.00407505312253
0.00381488414378
0.00217269068217
0.00211219403867
0.00298860251899
0.00311524637432
0.00312528597493
0.00312505891583
0.00312509847077
0.00312608492031
0.00312805960391
0.0031299534214
0.00313084340323
0.00313104988309
0.00313096592927
0.00313079535979
0.00313067294706
0.00313057533627
0.00313053413474
0.00313053078975
0.00313054520345
0.00313056641037
0.00313058865029
0.00313060910013
0.00313062671733
0.00313064139691
0.00313065343028
0.00313066316303
0.00313067095618
0.00313067730357
0.003130682505
0.00313068678279
0.00313069038743
0.00313069359417
0.00313069670517
0.00313070006246
0.00313070401728
0.00313070744661
0.00313067198914
0.00312988533737
0.00311792439435
0.00298995180377
0.00211217758959
0.000841055161554
0.000869363071328
0.000873366158461
0.000873671907399
0.000873669908285
0.000873662481908
0.000873668951485
0.000873684917853
0.000873684733918
0.000873660933428
0.000873637922868
0.000873630275223
0.000873635561391
0.000873637306739
0.000873635327585
0.000873632244882
0.000873629179803
0.0008736264877
0.000873624306783
0.000873622601492
0.000873621304626
0.000873620343615
0.000873619649082
0.000873619164554
0.000873618839491
0.000873618625351
0.000873618499431
0.000873618438307
0.000873618419312
0.00087361842746
0.000873618457023
0.000873618508321
0.000873618582239
0.000873618677437
0.000873618761218
0.000873617897493
0.000873598663109
0.000873271289692
0.000869289185246
0.000841023600888
0.000847089897856
0.000896380247361
0.000904022603332
0.00090469316511
0.000904712627238
0.000904710251835
0.000904728755307
0.000904771507147
0.00090480411898
0.000904803711443
0.000904793032253
0.000904790052029
0.00090479936605
0.000904803542828
0.000904801831858
0.000904798644536
0.000904795261832
0.000904792242589
0.000904789781674
0.000904787842201
0.000904786368604
0.000904785246635
0.000904784430871
0.00090478382234
0.000904783392051
0.000904783093747
0.000904782880789
0.000904782733108
0.00090478263275
0.000904782567653
0.000904782525251
0.000904782497475
0.000904782476715
0.000904782444294
0.000904782296972
0.00090477955108
0.000904731117373
0.000904015529134
0.000896365963674
0.000847053641943
0.00217260367224
0.00381082670298
0.0040680592179
0.00409192157839
0.00409208266599
0.00409221278463
0.0040941498132
0.00409798611886
0.00410183247646
0.00410391494056
0.00410468109743
0.00410486701054
0.00410480513884
0.00410474933066
0.00410469127542
0.00410466588766
0.00410466474495
0.00410467534292
0.00410469042729
0.0041047059597
0.00410472018878
0.00410473224373
0.00410474231611
0.00410475033789
0.00410475680601
0.00410476198817
0.00410476603548
0.00410476928196
0.00410477193476