/*--------------------------------*- C++ -*----------------------------------*\
| =========                 |                                                 |
| \\      /  F ield         | OpenFOAM: The Open Source CFD Toolbox           |
|  \\    /   O peration     | Version:  3.0.1                                 |
|   \\  /    A nd           | Web:      www.OpenFOAM.org                      |
|    \\/     M anipulation  |                                                 |
\*---------------------------------------------------------------------------*/
FoamFile
{
    version     2.0;
    format      ascii;
    class       volScalarField;
    location    "0.6";
    object      ddt0(k);
}
// * * * * * * * * * * * * * * * * * * * * * * * * * * * * * * * * * * * * * //

dimensions      [0 2 -3 0 0 0 0];

internalField   nonuniform List<scalar> 
7968
(
-0.0328773377612
-0.0328164556795
-0.0326984546367
-0.0326262332535
-0.0326006578822
-0.0325953283875
-0.0325961645248
-0.0325983010163
-0.0325990740036
-0.0326003001067
-0.0326014669887
-0.0326009946712
-0.0326001556677
-0.0325995494202
-0.032599013064
-0.0326043192986
-0.0326295701362
-0.0327011152261
-0.0328180313679
-0.0328774631748
-0.0328165895743
-0.0338566877331
-0.033813043756
-0.0334971164501
-0.0333180562904
-0.0332616095112
-0.0332549000991
-0.0332615857242
-0.0332693658796
-0.0332747254324
-0.033276237556
-0.0332733289363
-0.0332674834302
-0.0332628540257
-0.0332712971524
-0.0333288163992
-0.0335079345628
-0.0338226863191
-0.0338636237765
-0.0328182295609
-0.0326986988851
-0.0338129802956
-0.0337625187563
-0.033264153642
-0.0329311320311
-0.032803038691
-0.0327747202459
-0.032778202717
-0.0327869965945
-0.0327929947158
-0.032793819408
-0.0327897912004
-0.0327836178177
-0.0327831320405
-0.0328140981937
-0.0329436483921
-0.0332768126696
-0.0337736274587
-0.0338212418664
-0.032701039516
-0.0326265041462
-0.0334968716639
-0.0332638270556
-0.0325863000766
-0.0321265839513
-0.031937666516
-0.0318883287892
-0.0318863756972
-0.0318850385778
-0.0318845002888
-0.0318846011352
-0.0318848648654
-0.0318890188045
-0.0318944688862
-0.0319475021294
-0.0321390732959
-0.0325993820183
-0.033275624294
-0.0335057162522
-0.032629244814
-0.0326008473522
-0.0333171331442
-0.0329297047859
-0.0321253196286
-0.0315838153542
-0.0313553776552
-0.0312860065798
-0.0312659328196
-0.0312665563175
-0.0312693539262
-0.031270010358
-0.0312685579522
-0.0312688223769
-0.031285412935
-0.0313614573325
-0.031594098458
-0.0321376134112
-0.0329414733207
-0.0333261453101
-0.0326038337137
-0.0325953099105
-0.0332593422976
-0.0327999007839
-0.0319339682245
-0.0313527573574
-0.0310981265468
-0.0310143054391
-0.0309985595794
-0.0310004586578
-0.0310039425821
-0.0310045785411
-0.0310024567675
-0.0310019362053
-0.0310187736515
-0.0311004250976
-0.0313590965861
-0.0319442068439
-0.0328107268083
-0.0332681662911
-0.0325984475622
-0.0325957991199
-0.0332511286984
-0.0327692493691
-0.0318818193504
-0.031284810759
-0.0310134918762
-0.0309310185053
-0.0309162316472
-0.0309191841008
-0.0309232969895
-0.0309238773873
-0.0309210497876
-0.0309194491423
-0.0309356051055
-0.0310186306784
-0.031283793312
-0.0318891855612
-0.0327786636082
-0.033259207051
-0.0325984745995
-0.0325977011824
-0.0332566049139
-0.0327709743583
-0.0318780352878
-0.0312638441094
-0.0309971292138
-0.0309154604629
-0.0309018522501
-0.0309057760892
-0.0309104458842
-0.030910956291
-0.0309074718608
-0.0309047797448
-0.0309197003394
-0.0310022853925
-0.0312684219193
-0.0318810882418
-0.0327784709985
-0.0332633683986
-0.0325985600653
-0.0325987234894
-0.0332638396367
-0.0327794261303
-0.0318827007482
-0.0312646097853
-0.0309988383476
-0.030917995875
-0.0309052317278
-0.0309096343912
-0.0309144460353
-0.0309148906883
-0.030911236094
-0.030908024192
-0.0309221780614
-0.0310039949342
-0.0312695176336
-0.0318790042347
-0.0327849108039
-0.0332695095
-0.0325994140947
-0.0325997432498
-0.0332695207632
-0.0327864048658
-0.0318814797402
-0.0312678965293
-0.0310027379593
-0.0309223388064
-0.030909867521
-0.0309141976769
-0.0309187457119
-0.030919065643
-0.030915694838
-0.030912783206
-0.0309267740703
-0.0310081704537
-0.0312731277195
-0.0318816735342
-0.0327873681637
-0.0332735713697
-0.0326003690256
-0.0326008263666
-0.0332721017632
-0.0327890728562
-0.0318821097807
-0.0312693208666
-0.0310042151292
-0.0309237045336
-0.030910955191
-0.0309148929964
-0.0309193265661
-0.030919423787
-0.0309163296496
-0.0309139201871
-0.0309283391012
-0.0310098633783
-0.0312747536722
-0.0318830272267
-0.0327873893621
-0.0332735169909
-0.0326011001663
-0.03260126952
-0.033270670382
-0.0327870692876
-0.0318828297203
-0.0312686059617
-0.0310030258277
-0.0309218391663
-0.0309082936708
-0.0309117983333
-0.0309162432119
-0.0309166601182
-0.0309136355186
-0.0309116090939
-0.0309267075418
-0.0310087710618
-0.0312740640442
-0.0318825068284
-0.0327880682877
-0.0332742337821
-0.0326011971638
-0.03260056133
-0.0332660687098
-0.0327824807499
-0.0318892231091
-0.0312693186044
-0.0310031561513
-0.0309209826438
-0.0309063469105
-0.030909168991
-0.0309138126188
-0.0309147109915
-0.0309119486199
-0.0309104423831
-0.0309264761213
-0.0310092730343
-0.0312749429903
-0.0318833833275
-0.0327848052466
-0.0332704196237
-0.0326013479524
-0.0325999785404
-0.0332623762386
-0.0327831714606
-0.0318962193034
-0.0312861704829
-0.031020250131
-0.0309374850554
-0.0309216284829
-0.0309235575956
-0.0309278452172
-0.0309290238431
-0.0309269299601
-0.0309264115785
-0.0309435462643
-0.0310268199726
-0.0312916084667
-0.0318961958599
-0.0327884407522
-0.0332686597808
-0.0326011791503
-0.0325995545997
-0.0332715655202
-0.0328149161981
-0.0319498231927
-0.031366456494
-0.0311019933351
-0.0310203708682
-0.0310040390884
-0.0310052510758
-0.0310089874479
-0.0310102467248
-0.0310087687861
-0.0310090176468
-0.0310266182021
-0.0311086587624
-0.0313677537437
-0.0319549527452
-0.0328237636074
-0.0332803441454
-0.0326025671591
-0.0326049208689
-0.033329550262
-0.032944805468
-0.0321410685485
-0.0315979284933
-0.0313650635028
-0.0312852096878
-0.0312696508418
-0.0312703589603
-0.0312734991849
-0.0312747096299
-0.0312737416454
-0.0312744148038
-0.0312911035131
-0.0313671115724
-0.031602972674
-0.032151267733
-0.0329570774674
-0.033341134655
-0.0326088690466
-0.0326301938846
-0.0335088590583
-0.0332780479311
-0.0326010192244
-0.0321400271919
-0.0319477210126
-0.0318931654408
-0.0318820249192
-0.031879462544
-0.0318817276205
-0.031882693621
-0.031881941923
-0.0318826686526
-0.0318934983906
-0.0319529700769
-0.0321504056107
-0.0326148345057
-0.0332925356409
-0.0335219840329
-0.0326337907273
-0.0327016829877
-0.0338235714457
-0.0337748017784
-0.0332769028783
-0.0329429413433
-0.0328125344802
-0.0327805991497
-0.0327799599465
-0.0327852331543
-0.0327887829616
-0.0327881050164
-0.0327854635964
-0.0327816228531
-0.0327854925258
-0.0328216400658
-0.0329558577857
-0.0332921027686
-0.0337898387782
-0.0338365758435
-0.0327048742672
-0.0328184991708
-0.0338644690573
-0.0338223120588
-0.0335067510143
-0.0333270767621
-0.0332691383298
-0.0332600693118
-0.0332639102519
-0.0332692991901
-0.0332730063474
-0.033273993707
-0.0332718060446
-0.0332677486744
-0.0332663444593
-0.0332785790875
-0.0333399589436
-0.0335213956211
-0.0338363535092
-0.0338760118901
-0.0328205759938
-0.0328775037738
-0.0328183625867
-0.0327011895797
-0.0326295695466
-0.0326041530348
-0.0325987399838
-0.0325987150441
-0.0325988597882
-0.0325997423329
-0.0326006786339
-0.0326013347936
-0.0326012242488
-0.0326011526535
-0.032601032416
-0.0326025071598
-0.0326087080447
-0.0326337471363
-0.0327048852573
-0.0328205971084
-0.0328772284798
-0.0328240221297
-0.033879998689
-0.0338394858787
-0.0335212497719
-0.0333368895769
-0.0332737466813
-0.033260379519
-0.0332611857852
-0.0332663499621
-0.0332694792987
-0.0332706711099
-0.0332696713427
-0.0332663602385
-0.0332651789371
-0.033279000945
-0.0333419634805
-0.0335254379266
-0.0338420449374
-0.0338807138299
-0.0328250067536
-0.0338801820922
-0.0487846732349
-0.0510379017812
-0.0505887544284
-0.0499882202097
-0.0496991466911
-0.0496099578866
-0.0495942776452
-0.049596917978
-0.049600279449
-0.0496002790292
-0.0495972412256
-0.0495957015686
-0.0496129212665
-0.049703806719
-0.0499935267205
-0.0505932176152
-0.0510399398341
-0.0487828562344
-0.0338823618318
-0.0338397072956
-0.0510384027668
-0.0538379577196
-0.0533090410939
-0.0524635832183
-0.0519937428964
-0.0518227585
-0.0517819146959
-0.0517794624894
-0.0517830838113
-0.0517830342862
-0.0517800743103
-0.0517841636152
-0.0518278200385
-0.0520011361519
-0.0524717448745
-0.0533159544195
-0.0538415924443
-0.0510371702043
-0.0338420380243
-0.0335215395478
-0.0505892225135
-0.0533089351518
-0.0525713812192
-0.0514997189692
-0.0508760176069
-0.0506323207087
-0.0505666315673
-0.050556837779
-0.0505609949821
-0.0505605693274
-0.0505570509845
-0.0505642861492
-0.0506366639904
-0.0508833788246
-0.0515085088667
-0.0525791371089
-0.0533131926335
-0.0505881923329
-0.0335242226615
-0.033337015886
-0.0499879675376
-0.0524624421254
-0.0514985336461
-0.0502437302886
-0.0495066897283
-0.049209301181
-0.0491287143662
-0.0491166211171
-0.0491186185974
-0.0491170288087
-0.0491133140771
-0.0491260323607
-0.0492121671967
-0.0495118595912
-0.0502510383146
-0.0515056139208
-0.0524663409223
-0.0499863995892
-0.0333399581273
-0.0332735710168
-0.0496975939087
-0.0519907497951
-0.0508725891576
-0.0495043719182
-0.0487012941476
-0.0483768772045
-0.0482846269098
-0.0482710348411
-0.0482731462875
-0.048270613548
-0.0482649608698
-0.048277461388
-0.0483721792342
-0.0487017865829
-0.0495088280592
-0.0508777044048
-0.0519933682652
-0.0496948625833
-0.0332766212933
-0.0332596634046
-0.0496067593602
-0.0518175230062
-0.0506263841553
-0.0492036542131
-0.0483736296049
-0.048036094578
-0.0479409491136
-0.0479285572535
-0.0479322108374
-0.0479292389992
-0.0479210022723
-0.0479307944631
-0.0480267295833
-0.0483682619944
-0.0492056683638
-0.0506287706952
-0.0518183140952
-0.0496024574873
-0.0332630788133
-0.0332599246645
-0.0495899953458
-0.0517752555863
-0.050559274913
-0.0491211422473
-0.048278698706
-0.0479380517481
-0.0478446254076
-0.0478346560951
-0.0478402833664
-0.0478370797034
-0.0478261725442
-0.0478322941838
-0.04792520229
-0.048268862192
-0.0491159008972
-0.0505565882181
-0.0517737186206
-0.0495841580138
-0.0332641361316
-0.033264258791
-0.0495926717075
-0.0517728697293
-0.0505481321838
-0.0491087782725
-0.0482646991251
-0.0479245535985
-0.0478331148556
-0.0478240460156
-0.0478306421928
-0.0478274282146
-0.0478154033761
-0.0478195566666
-0.0479097279167
-0.0482522357294
-0.0491009950332
-0.0505480315385
-0.0517697979886
-0.0495853727024
-0.0332661116543
-0.0332678581873
-0.0495971797805
-0.0517780681486
-0.0505554255772
-0.0491132656545
-0.0482692263495
-0.0479298521597
-0.0478392958978
-0.0478302172861
-0.0478374070384
-0.0478344303153
-0.0478216851091
-0.0478252360496
-0.0479137861597
-0.0482548880854
-0.0491031456629
-0.0505507356301
-0.0517704047541
-0.0495873663287
-0.0332680330452
-0.0332692462877
-0.0495986958665
-0.0517803272284
-0.0505583047823
-0.0491156500393
-0.0482709888987
-0.047930558768
-0.0478385880349
-0.0478282594936
-0.0478353182724
-0.0478320645702
-0.0478190568453
-0.047822813105
-0.0479120640166
-0.0482538658468
-0.0491028403487
-0.050550752145
-0.0517711288039
-0.0495876623055
-0.0332687046152
-0.0332691160509
-0.049597034451
-0.0517793551843
-0.0505578765833
-0.0491159297146
-0.048269885091
-0.0479265636582
-0.0478309292974
-0.0478180110411
-0.047823471667
-0.0478198272787
-0.0478075228023
-0.0478127437423
-0.0479051187586
-0.0482497344504
-0.0491006104693
-0.050548802467
-0.0517681467979
-0.0495852821792
-0.0332682388839
-0.0332663326459
-0.0495963218596
-0.0517845135516
-0.0505655470971
-0.0491314084738
-0.048286103909
-0.0479401650902
-0.0478403066424
-0.0478243610846
-0.0478283848657
-0.0478245285839
-0.0478134229339
-0.0478214730984
-0.0479184454303
-0.0482659917167
-0.0491165899296
-0.0505608479778
-0.0517766012112
-0.0495850009613
-0.0332678771199
-0.033265497416
-0.0496140352805
-0.0518289169209
-0.0506397952542
-0.0492192424663
-0.0483829549559
-0.0480387089115
-0.047935804575
-0.0479164351347
-0.0479178434949
-0.0479139154636
-0.0479055244867
-0.0479179861997
-0.048019182047
-0.048366042664
-0.049207672512
-0.0506345591782
-0.0518230877915
-0.0496042720483
-0.0332698810521
-0.0332794424806
-0.0497050198972
-0.05200233194
-0.0508863013436
-0.0495180351193
-0.04871195924
-0.0483800578319
-0.0482796178727
-0.0482592864303
-0.0482588599283
-0.0482552188827
-0.0482495837194
-0.0482647297961
-0.0483649927306
-0.0487002565717
-0.0495122454471
-0.0508848434646
-0.0519997685653
-0.0496975523995
-0.0332844593633
-0.0333424684929
-0.0499945237505
-0.0524726392813
-0.051510499192
-0.050255285471
-0.0495157176807
-0.0492144015722
-0.049124140948
-0.0491064109147
-0.0491056568443
-0.0491028246659
-0.0490993043716
-0.0491141265304
-0.0492054695308
-0.0495113396745
-0.0502563682408
-0.0515131820677
-0.05247312313
-0.0499893013118
-0.0333468997393
-0.0335259209241
-0.0505936510305
-0.0533163081601
-0.0525801145925
-0.0515079114473
-0.0508815956321
-0.0506336514585
-0.0505615180224
-0.0505507914739
-0.0505512210791
-0.0505494717508
-0.0505466605699
-0.0505580618667
-0.050632030686
-0.0508832686488
-0.0515125419181
-0.0525851430333
-0.0533184722384
-0.050590053681
-0.0335303471826
-0.0338423991892
-0.0510397241437
-0.0538414134339
-0.053313470818
-0.0524674441583
-0.0519953517249
-0.0518208346143
-0.0517759980073
-0.0517710418022
-0.0517690777563
-0.0517687335962
-0.0517678955691
-0.0517742652464
-0.0518209808157
-0.0519982307172
-0.0524723518428
-0.0533182722716
-0.0538432706197
-0.0510361520461
-0.0338461391809
-0.0338809660469
-0.0487820081406
-0.0510366047955
-0.0505881538203
-0.0499870507161
-0.0496961819734
-0.0496041510546
-0.0495857410765
-0.0495861335575
-0.0495878007975
-0.0495865680007
-0.0495837745838
-0.0495832772329
-0.0496027309175
-0.0496965041391
-0.0499888292127
-0.0505900461688
-0.0510363054991
-0.0487776822539
-0.0338838093679
-0.0328254013668
-0.0338824991314
-0.0338422406004
-0.0335244413065
-0.0333401744381
-0.0332768520264
-0.0332633774004
-0.033264441743
-0.0332662420101
-0.0332679345606
-0.0332684005249
-0.0332677198125
-0.0332671936476
-0.0332692914778
-0.0332836616627
-0.0333465853824
-0.0335301907327
-0.0338460433283
-0.0338837613322
-0.0328254014096
-0.0327111974151
-0.0338517738459
-0.0338090793284
-0.0333087626
-0.0329684904572
-0.032830895382
-0.0327927669454
-0.0327877883406
-0.0327908409354
-0.0327952490682
-0.0327972888198
-0.0327949472403
-0.0327926029556
-0.0327984588743
-0.0328369145808
-0.0329741384262
-0.0333131274001
-0.0338114124152
-0.033852211088
-0.0327121636228
-0.0338519475563
-0.0510805871201
-0.0538848578633
-0.0533559948175
-0.0525078872989
-0.0520339336669
-0.0518582498782
-0.051812973511
-0.0518072600333
-0.0518084256828
-0.0518072515147
-0.0518048133439
-0.0518106955365
-0.0518574962786
-0.0520346802256
-0.0525092611999
-0.0533563429805
-0.0538824792992
-0.0510745803491
-0.033853684507
-0.0338090981845
-0.0538853578645
-0.0573985117737
-0.0568769689027
-0.0557974735744
-0.055104531068
-0.0548076662983
-0.0547158085281
-0.0546979195947
-0.0546972950379
-0.0546961964631
-0.0546960665987
-0.0547146135277
-0.0548085774236
-0.0551075619329
-0.0558012017565
-0.056879273494
-0.0573971911134
-0.0538788742933
-0.0338105808729
-0.0333087840438
-0.0533565726007
-0.0568768743638
-0.0561919901196
-0.0548872503202
-0.0540093038819
-0.0536079978569
-0.0534711809184
-0.0534458125534
-0.0534443793298
-0.0534431203759
-0.0534431754385
-0.0534712438578
-0.0536077335925
-0.0540115721094
-0.0548908099401
-0.056194432459
-0.0568755018156
-0.0533492707556
-0.0333104361084
-0.0329683026502
-0.0525075058489
-0.0557963590161
-0.0548862887371
-0.0533773879966
-0.0523539721184
-0.0518809609314
-0.0517331824916
-0.0517072326899
-0.0517072040231
-0.0517060559897
-0.0517050437612
-0.051733713652
-0.0518826125194
-0.052353238657
-0.0533787448465
-0.0548872037051
-0.0557937328657
-0.0524986352187
-0.0329700263213
-0.0328302860432
-0.052031820455
-0.0551015628945
-0.0540065839098
-0.0523522794543
-0.0512468143559
-0.0507807190179
-0.0506840117651
-0.0506864868945
-0.0506928285447
-0.0506920322232
-0.0506853519871
-0.0506988862955
-0.0508124581205
-0.0512621437857
-0.0523503918641
-0.0540048743001
-0.0550965920243
-0.0520204286971
-0.0328318504583
-0.0327914456554
-0.0518540380199
-0.0548025634638
-0.0536034504996
-0.0518745461747
-0.0507754774901
-0.0504150145259
-0.0504116423537
-0.0504450594661
-0.0504498021584
-0.0504375793057
-0.0504094036151
-0.0503902018362
-0.0504445856196
-0.0508181405699
-0.0518788454682
-0.05359901617
-0.0547948268186
-0.0518398681105
-0.0327927341349
-0.0327857597431
-0.051807467087
-0.0547097940125
-0.0534691290278
-0.0517253326126
-0.0506731647099
-0.05040841709
-0.0504688096316
-0.0505241134137
-0.0505254240661
-0.0504989174805
-0.0504451952885
-0.0503933319351
-0.0504014621645
-0.0507166179346
-0.0517309991383
-0.0534614511186
-0.0546990984648
-0.051790306372
-0.0327873854279
-0.0327883858984
-0.0518019913731
-0.0546922270968
-0.053440422976
-0.0516982898284
-0.0506672906218
-0.0504395929701
-0.0505323701491
-0.050603562297
-0.0506069447352
-0.0505740608189
-0.0505052186787
-0.0504358774458
-0.0504229937525
-0.0507125358177
-0.051703169126
-0.0534310202944
-0.0546777401403
-0.0517817800178
-0.0327901344264
-0.0327922222949
-0.051804924146
-0.0546938797887
-0.0534415632772
-0.0516973535999
-0.0506623965591
-0.0504419509543
-0.0505501335277
-0.0506332845263
-0.0506417263671
-0.0506089914127
-0.050534973915
-0.0504615975398
-0.0504450398786
-0.0507261403343
-0.0517041076304
-0.053428869153
-0.054678185857
-0.0517826329913
-0.0327926685254
-0.0327949030379
-0.0518062056998
-0.0546958174242
-0.053443898322
-0.0516967480719
-0.0506521849424
-0.0504292148955
-0.0505416480459
-0.0506277537136
-0.0506355990287
-0.0506022235689
-0.0505272359747
-0.0504577865051
-0.0504485367168
-0.0507315248164
-0.0517035611516
-0.0534272385626
-0.0546771664879
-0.0517811611648
-0.0327935781053
-0.0327937999597
-0.051805699963
-0.0546977805175
-0.0534472714985
-0.0516963133511
-0.0506365461812
-0.0504012577356
-0.0505066885317
-0.0505867108492
-0.0505881672092
-0.0505532587796
-0.0504817223514
-0.0504244934997
-0.0504340944705
-0.0507297000265
-0.0517025974635
-0.0534271125813
-0.0546761735744
-0.0517773198444
-0.0327929896371
-0.0327921483415
-0.0518125165503
-0.0547174588967
-0.0534775318087
-0.0517309879246
-0.0506485652761
-0.0503802903589
-0.0504594404924
-0.0505212222957
-0.0505101955999
-0.0504713501887
-0.0504048275901
-0.0503651465523
-0.0504052680239
-0.0507321334263
-0.0517261129596
-0.0534575360537
-0.0546961193202
-0.0517845195069
-0.0327931527
-0.0327982297185
-0.0518594496183
-0.0548115380565
-0.0536140627593
-0.0518899688502
-0.0507792132951
-0.0504269834363
-0.0504441160462
-0.0504751227873
-0.0504531686931
-0.0504146421838
-0.0503605496441
-0.0503457571346
-0.05043099513
-0.0508178949311
-0.0518693651342
-0.0535958840785
-0.0547923729275
-0.0518338747807
-0.0328002748143
-0.0328368097775
-0.0520361587012
-0.0551098117475
-0.0540166100056
-0.0523598866013
-0.051257799596
-0.0508038037993
-0.0507255241034
-0.0507221523064
-0.0507018864766
-0.0506752330759
-0.0506437732041
-0.0506573725048
-0.0507922580174
-0.0512523807582
-0.052344973693
-0.0540043372834
-0.055094839482
-0.0520140903639
-0.0328388270067
-0.0329740911379
-0.0525099058492
-0.0558022330057
-0.0548939863603
-0.0533848115813
-0.0523572700422
-0.0518803339792
-0.0517335883858
-0.0517054105057
-0.0516956820653
-0.0516858508621
-0.0516775610165
-0.0517102809133
-0.0518686390546
-0.0523433537282
-0.0533762618758
-0.0548867829613
-0.0557912465122
-0.0524912759217
-0.0329767527841
-0.0333130184185
-0.0533557929249
-0.0568788995062
-0.0561955229884
-0.0548905692811
-0.0540103007203
-0.0536054208706
-0.0534669825902
-0.0534334031114
-0.0534278823809
-0.0534238580582
-0.0534227601003
-0.0534532517053
-0.0535940928399
-0.0540028410388
-0.0548863808495
-0.0561911439018
-0.0568702260247
-0.0533399154337
-0.0333158227861
-0.0338112086685
-0.0538808505784
-0.057395699442
-0.0568750783871
-0.0557949744212
-0.0550995175911
-0.0547986896402
-0.0547026681483
-0.0546797348097
-0.0546777582517
-0.0546751832634
-0.0546736346502
-0.0546937746225
-0.0547906028999
-0.0550938670085
-0.0557909865224
-0.056870286613
-0.0573870782449
-0.0538662653993
-0.0338135564013
-0.0338521169324
-0.0510721925538
-0.0538767931808
-0.0533482010664
-0.0524990132398
-0.0520223268397
-0.0518426888331
-0.0517934346918
-0.0517839694744
-0.0517822445992
-0.0517798332209
-0.051776468355
-0.0517835120786
-0.0518328678806
-0.0520136010322
-0.0524913317161
-0.0533402916368
-0.0538666084123
-0.0510583582226
-0.0338543965964
-0.0327127701905
-0.0338535035582
-0.0338103783613
-0.0333103174617
-0.0329700224512
-0.0328319907404
-0.0327929865327
-0.0327876351589
-0.0327902554188
-0.0327925120976
-0.0327931676771
-0.0327923120248
-0.0327922639813
-0.0327990907819
-0.0328382906885
-0.0329764054197
-0.0333155804264
-0.0338133335914
-0.0338542519243
-0.0327149392988
-0.0326404189367
-0.0335417439799
-0.0333204774244
-0.0326414623239
-0.0321735133763
-0.0319739461019
-0.0319146838641
-0.0319052659191
-0.0319088676612
-0.0319136403791
-0.0319155484521
-0.0319131285015
-0.0319109946421
-0.031921542365
-0.0319813674357
-0.0321804402216
-0.0326468414889
-0.0333235061301
-0.0335427667431
-0.0326415624433
-0.0335419483027
-0.0506654798032
-0.0533943838292
-0.0526572880329
-0.0515820794137
-0.0509536462112
-0.0507056830013
-0.0506361144578
-0.0506246258592
-0.0506241614679
-0.0506212489783
-0.0506178050773
-0.0506284251188
-0.0506998215335
-0.0509506382908
-0.0515807398206
-0.0526557891527
-0.0533905487478
-0.0506582925569
-0.0335442186411
-0.0333203628847
-0.0533946884321
-0.056917450894
-0.0562294936088
-0.0549197232429
-0.054037135216
-0.05363276321
-0.0534969254959
-0.0534660065539
-0.0534605849663
-0.0534571647656
-0.053457143568
-0.0534857734476
-0.0536225563155
-0.0540302362633
-0.0549158884585
-0.0562268327396
-0.0569130603886
-0.0533859371765
-0.0333222822968
-0.0326411567784
-0.0526571282724
-0.0562291170629
-0.0553988429507
-0.0538581360766
-0.0527742515243
-0.0522750564696
-0.0521255904961
-0.0521006778445
-0.0521014678802
-0.0521017603715
-0.052103059038
-0.0521326681714
-0.0522768453908
-0.0527656564695
-0.053846917277
-0.055391444854
-0.0562221458122
-0.052646401769
-0.0326430519189
-0.0321727790991
-0.0515802884631
-0.0549183752227
-0.0538579381468
-0.0521139848082
-0.0509556918517
-0.0505261733958
-0.0504666179381
-0.0504811714561
-0.0504919333076
-0.0504927644928
-0.0504852324415
-0.0504930929933
-0.0505816541224
-0.051002761161
-0.0521202484567
-0.0538436051794
-0.0549069267712
-0.0515663749783
-0.0321745468227
-0.0319723970279
-0.0509490376648
-0.0540343760255
-0.0527703838764
-0.0509564925267
-0.0499205179609
-0.0496364492539
-0.0496736787283
-0.049734907746
-0.0497521261657
-0.0497388856489
-0.0496967272038
-0.0496652138912
-0.0496935833469
-0.0500046051411
-0.051011035211
-0.0527646009256
-0.0540173161175
-0.0509305220781
-0.0319737083061
-0.0319119874205
-0.0506979962549
-0.0536287541431
-0.052268861634
-0.0505289366921
-0.0496448573307
-0.0494662606337
-0.0495968340743
-0.0497055669662
-0.049722388478
-0.049680713633
-0.0495815848583
-0.0494930402275
-0.0494739257587
-0.0497168390603
-0.0506079332498
-0.0522843257694
-0.0536063038897
-0.0506740459598
-0.0319124741565
-0.0319015499788
-0.0506270755762
-0.0534931680337
-0.0521244571974
-0.0504786776991
-0.0496945813161
-0.0496119043728
-0.0498292637743
-0.0499782392638
-0.049989353564
-0.0499146661824
-0.0497541047498
-0.0496030000125
-0.0495280637332
-0.0497185056276
-0.0505360840392
-0.0521442102149
-0.0534663764011
-0.0505973890738
-0.0319007982488
-0.0319045790185
-0.0506168073626
-0.0534646179113
-0.0520967917978
-0.0504790157626
-0.0497405236113
-0.0497242796375
-0.0500109552387
-0.0501978196699
-0.0502135402608
-0.0501233947617
-0.049926395756
-0.0497388279642
-0.0496285128309
-0.0497771705163
-0.0505495342427
-0.0521207242778
-0.0534338582193
-0.05058196218
-0.0319031045907
-0.0319095230747
-0.0506201458047
-0.0534646736374
-0.0520856334023
-0.0504513845193
-0.0497155700855
-0.0497328705795
-0.050069955111
-0.050291901532
-0.05032008956
-0.0502303182449
-0.0500210462354
-0.0498258727842
-0.0497101160067
-0.0498397154812
-0.0505815355198
-0.0521254442177
-0.0534297851572
-0.0505800734758
-0.0319071457802
-0.0319123278454
-0.0506215790775
-0.0534652252243
-0.0520748030752
-0.0504154855047
-0.0496623445729
-0.049685017702
-0.050044368163
-0.0502798885072
-0.0503067475092
-0.0502144958585
-0.0500011431901
-0.0498159531583
-0.049722309661
-0.0498630071768
-0.0505979462373
-0.0521267566165
-0.0534243968302
-0.0505761312106
-0.0319085371941
-0.0319111835096
-0.0506211345134
-0.0534681653224
-0.0520646810295
-0.050371705965
-0.0495811112424
-0.0495804428155
-0.0499331726482
-0.0501600505757
-0.0501712717754
-0.0500729187144
-0.0498636944442
-0.049707777824
-0.0496663025531
-0.0498501875429
-0.0506024122373
-0.0521277488359
-0.0534201728928
-0.0505697585961
-0.0319073641586
-0.0319095906394
-0.050632865505
-0.0534983406584
-0.0520988395203
-0.0503743272055
-0.0495428637728
-0.0494971780676
-0.0498074046383
-0.0499923598939
-0.0499636796372
-0.0498447122767
-0.0496362637175
-0.0495137759716
-0.0495358905453
-0.0497838925879
-0.0505865086566
-0.0521451971434
-0.0534486188193
-0.0505813222352
-0.0319068493818
-0.0319204546387
-0.0507040106336
-0.0536344719343
-0.0522727062533
-0.0504927833676
-0.0496063687305
-0.0494905608226
-0.0497167749069
-0.0498298760436
-0.0497526704844
-0.0496139508912
-0.0494176363136
-0.0493315820819
-0.049409836802
-0.0497205913249
-0.0506202270227
-0.0522634701622
-0.0535897349201
-0.0506571341774
-0.0319191673806
-0.0319804439908
-0.0509534106864
-0.0540396055433
-0.0527810489158
-0.0509589949992
-0.0499515959245
-0.0497372031684
-0.0498588387056
-0.0499039723645
-0.0498088568689
-0.0496821604886
-0.0495296570695
-0.0494859920118
-0.0495972823363
-0.0499725446478
-0.0510008634064
-0.0527430521029
-0.0540040927707
-0.0509136947847
-0.03198106378
-0.032179610904
-0.0515815325521
-0.0549214179493
-0.0538606100919
-0.0521205112889
-0.050989517267
-0.05060709441
-0.0505998727466
-0.0505986660027
-0.0505277824409
-0.0504473007261
-0.0503627665047
-0.0503625181833
-0.0505060017959
-0.0509685216589
-0.0521029025757
-0.0538317316972
-0.0548954872846
-0.0515492315111
-0.0321815544161
-0.0326459950565
-0.0526542594809
-0.056228215006
-0.0553985384598
-0.0538567876465
-0.0527671727361
-0.0522752477896
-0.0521559510091
-0.0521237487761
-0.0520924926859
-0.0520616561008
-0.0520353601857
-0.0520662115093
-0.0522430628002
-0.0527451433107
-0.053831072229
-0.0553803351764
-0.0562086973788
-0.0526278611383
-0.0326485397625
-0.0333227325007
-0.0533873509261
-0.0569111721803
-0.0562236579052
-0.0549126396156
-0.0540263265272
-0.0536157871492
-0.0534730368024
-0.0534349422758
-0.0534255981971
-0.0534169892241
-0.0534120670371
-0.0534420254212
-0.0535856959046
-0.0540027022122
-0.0548955820068
-0.0562090434758
-0.0568939466697
-0.0533646650027
-0.0333252420747
-0.0335424141679
-0.0506541758752
-0.0533824347918
-0.0526449050006
-0.0515675820094
-0.0509345473994
-0.0506796286249
-0.0506026855063
-0.0505844905088
-0.0505798987114
-0.0505734123069
-0.0505678328862
-0.0505792202556
-0.0506557910804
-0.0509135341833
-0.0515498166605
-0.0526286575884
-0.0533652499385
-0.0506349054715
-0.0335454918289
-0.0326423770106
-0.033543718338
-0.03332162347
-0.0326425659532
-0.0321742949857
-0.031973809317
-0.031912801129
-0.0319012243378
-0.0319030013983
-0.0319067731991
-0.0319079421826
-0.0319062800545
-0.031905545161
-0.0319183691667
-0.0319805361056
-0.0321811867383
-0.0326482218955
-0.033324905688
-0.0335452611616
-0.0326458662879
-0.0326136716223
-0.0333595370033
-0.0329849046315
-0.0321782602015
-0.0316279463457
-0.0313904213598
-0.0313200173093
-0.0313108168423
-0.0313175259169
-0.0313244194526
-0.0313258588462
-0.0313214715232
-0.0313170447382
-0.0313282020709
-0.0313995637911
-0.0316368974284
-0.0321857586839
-0.032989883788
-0.0333619915258
-0.0326149153674
-0.0333598604877
-0.0500859260712
-0.0525685618182
-0.0515993161586
-0.0503356874121
-0.0495928368565
-0.0492957039765
-0.0492138917228
-0.0492027045922
-0.0492025456058
-0.0491947922816
-0.0491836897305
-0.0491900458194
-0.0492742629176
-0.0495773539287
-0.050326683687
-0.0515946983337
-0.0525647282491
-0.0500796739264
-0.0333635518083
-0.0329847204917
-0.052568165735
-0.0558481950834
-0.0549139428245
-0.0533768446516
-0.0523407684779
-0.0518826553685
-0.0517508523996
-0.0517271327094
-0.051725452547
-0.0517178069535
-0.0517069660414
-0.0517208314728
-0.0518411387204
-0.0522942971532
-0.0533394985184
-0.0548916260904
-0.0558366617715
-0.0525589317477
-0.0329884471361
-0.0321775227159
-0.0515974560033
-0.0549137046072
-0.0538189440182
-0.0520588395349
-0.0508881865887
-0.0504051761333
-0.0503066336638
-0.0503194778091
-0.0503433942556
-0.0503505562823
-0.050344028155
-0.050351715368
-0.0504506361316
-0.0508911455713
-0.0520135798207
-0.0537678541647
-0.0548873308743
-0.0515832115887
-0.0321811869699
-0.0316263780223
-0.0503313243111
-0.0533783704908
-0.0520571505487
-0.0501999377547
-0.0490666410941
-0.0486672941058
-0.0486578996876
-0.0487364060188
-0.0487899153781
-0.0487955056579
-0.0487566772661
-0.0487292547279
-0.0487982688705
-0.0491872053405
-0.0502447309914
-0.0520230308254
-0.0533337068177
-0.0503094386702
-0.0316296775359
-0.0313874437571
-0.0495848279688
-0.0523406216875
-0.0509034847557
-0.0490886671422
-0.0480272128976
-0.0477361936879
-0.0478591507883
-0.0480252851386
-0.0481005696767
-0.0480757003394
-0.0479542883122
-0.0478370491978
-0.0478394520308
-0.048198088614
-0.0492214502307
-0.0509201896176
-0.0522943684856
-0.0495534039776
-0.0313899495575
-0.0313151984409
-0.0492842715365
-0.0518851391047
-0.0504412391408
-0.0487241260739