/*--------------------------------*- C++ -*----------------------------------*\
| =========                 |                                                 |
| \\      /  F ield         | OpenFOAM: The Open Source CFD Toolbox           |
|  \\    /   O peration     | Version:  3.0.1                                 |
|   \\  /    A nd           | Web:      www.OpenFOAM.org                      |
|    \\/     M anipulation  |                                                 |
\*---------------------------------------------------------------------------*/
FoamFile
{
    version     2.0;
    format      ascii;
    class       volScalarField;
    location    "0.6";
    object      epsilon;
}
// * * * * * * * * * * * * * * * * * * * * * * * * * * * * * * * * * * * * * //

dimensions      [0 2 -3 0 0 0 0];

internalField   nonuniform List<scalar> 
7968
(
0.0325338049799
0.0333485631767
0.0337436635074
0.0338596715518
0.0338856374255
0.0338898274621
0.0338893366398
0.0338875714796
0.0338856185304
0.0338837072146
0.0338820138268
0.033881988326
0.0338836765251
0.0338855041779
0.0338864660659
0.0338828147458
0.0338575026976
0.0337421854674
0.033348012326
0.0325339546262
0.0333486439504
0.0396082991205
0.0427355861366
0.0437787424737
0.0440515602274
0.0441063323449
0.0441101317948
0.0441040802465
0.0440973473552
0.0440925435801
0.0440907232299
0.0440925035901
0.044097206652
0.0441023789358
0.0440987897681
0.0440451587052
0.0437740658821
0.0427330058795
0.0396079191231
0.0333490576347
0.0337438555173
0.0427357138264
0.0478416586593
0.0497740175785
0.0503522756806
0.0504895552777
0.050509591737
0.0505039770714
0.0504951251462
0.0504890740586
0.0504873588941
0.050490062546
0.0504960341237
0.0505001638156
0.0504801671364
0.0503441814458
0.0497684354842
0.0478388892047
0.0427353830734
0.0337442883955
0.0338598846255
0.0437789948557
0.0497740486992
0.0521924518603
0.052965426094
0.0531623762514
0.0531950071228
0.0531898017621
0.0531806089425
0.0531761561788
0.0531747118129
0.0531761764179
0.0531812441693
0.0531842005566
0.0531509970599
0.0529554846651
0.052185186217
0.0497701744116
0.0437778970221
0.0338603366388
0.0338858910777
0.044051795308
0.050352282908
0.0529655532101
0.0538246349006
0.0540488450298
0.0540874739157
0.0540908225265
0.0540878357435
0.0540849800237
0.0540838560908
0.0540846109534
0.0540855226371
0.0540787191732
0.0540358293152
0.0538122309777
0.052955847283
0.0503462589532
0.0440492008831
0.0338861649979
0.033890121139
0.0441065178359
0.0504899465619
0.0531629060913
0.0540494637222
0.054283412712
0.0543365726296
0.0543430450421
0.0543397342327
0.0543363298624
0.0543350847937
0.0543362292419
0.0543376837091
0.0543301082312
0.05427501002
0.0540352031679
0.0531505015458
0.0504811736638
0.0441021138869
0.0338901165949
0.0338895698603
0.0441102595845
0.0505100276416
0.0531960135482
0.0540884711464
0.054336504677
0.0543916501854
0.0543969672232
0.0543921152654
0.054387767538
0.0543863236288
0.0543881226092
0.054390867627
0.0543845821337
0.0543292573247
0.054077616048
0.0531817044375
0.0504989603488
0.0441040913633
0.0338892974882
0.0338878349656
0.0441040421693
0.0505041199397
0.0531907984801
0.0540904581062
0.0543427752507
0.0543967976479
0.0544003366842
0.0543936905164
0.0543882825373
0.0543865908317
0.0543891121705
0.0543933622137
0.0543887009894
0.0543348487948
0.0540828024286
0.0531751413651
0.05049108555
0.0440962797716
0.033887718141
0.0338857581903
0.0440967471237
0.050494452671
0.0531796293709
0.0540870518544
0.0543391022689
0.0543915637458
0.0543933931885
0.0543849392455
0.0543783961383
0.054376395056
0.0543796303547
0.0543853675198
0.0543824837369
0.0543302115665
0.0540790417444
0.0531693901678
0.0504800123967
0.0440878216126
0.03388586893
0.0338837511555
0.0440912362678
0.0504872693954
0.0531740985526
0.0540837175201
0.0543352187144
0.0543867214556
0.0543875250139
0.0543778503848
0.0543704029541
0.0543679642882
0.0543715162623
0.0543782636065
0.0543765203246
0.0543253239187
0.0540749694691
0.0531653431634
0.0504719911912
0.0440814572174
0.0338838356184
0.0338819452516
0.0440887940461
0.0504845928577
0.0531722614267
0.0540822336636
0.0543335477969
0.0543848261716
0.0543854136439
0.0543753362568
0.0543674848617
0.0543643844982
0.0543677913209
0.05437483051
0.0543735193952
0.054322794234
0.0540729079146
0.0531634022353
0.0504692256934
0.0440784130759
0.0338818323559
0.0338814007815
0.0440904690059
0.0504873618436
0.0531737314151
0.0540830192378
0.0543346049084
0.0543864075907
0.0543876413288
0.0543781066307
0.0543703171248
0.0543669969234
0.0543698984303
0.0543763784467
0.0543745852527
0.0543235110901
0.0540735128316
0.0531639308441
0.0504710625642
0.0440793411256
0.0338804877462
0.0338831311116
0.044095371763
0.0504937234133
0.0531785918202
0.0540841635563
0.0543362219126
0.0543891701454
0.0543918107055
0.0543836624589
0.0543768218877
0.0543737377877
0.0543758857599
0.0543809339256
0.0543777869087
0.0543255326063
0.0540749045095
0.0531656823776
0.0504777061831
0.0440845802383
0.0338819701618
0.0338850490838
0.0441008378757
0.050498306667
0.0531821011234
0.0540777365986
0.0543290213515
0.0543832254293
0.054387440282
0.0543809872545
0.0543752038946
0.0543724347867
0.054373957247
0.0543775852019
0.0543728372111
0.0543191969993
0.0540683449846
0.0531641202925
0.0504828060211
0.0440906751787
0.0338836217265
0.033886066937
0.0440974058691
0.0504785650279
0.0531492801308
0.0540336199284
0.0542743394422
0.0543283570323
0.0543339650916
0.0543291828306
0.0543244593307
0.0543220665264
0.0543231039043
0.0543253832103
0.0543191723645
0.0542649286379
0.0540172806971
0.0531315330646
0.0504638979459
0.0440879170643
0.0338843971217
0.0338824188811
0.0440437323772
0.0503424782942
0.0529537721999
0.0538104582333
0.0540331890633
0.0540771191498
0.0540823913777
0.0540786120373
0.0540746941928
0.0540726866552
0.0540734657829
0.054074892871
0.0540683359362
0.0540172636528
0.0537922569821
0.0529370571637
0.0503289167279
0.0440351399921
0.0338809320245
0.0338571269202
0.0437725382328
0.0497665638673
0.0521834712469
0.0529544121409
0.0531492874594
0.0531805544249
0.0531750307195
0.0531692593878
0.0531653699118
0.0531634612097
0.0531641193633
0.0531658439386
0.0531648089856
0.0531320311791
0.0529372934732
0.0521679240169
0.0497541130231
0.043764899044
0.0338558260437
0.033741844975
0.0427314130774
0.0478369878715
0.0497683491244
0.0503448552713
0.0504802689951
0.0504984113867
0.0504910725378
0.0504805598678
0.0504728987975
0.0504698428538
0.0504723084456
0.0504788292869
0.0504835902231
0.0504644946196
0.0503292465038
0.0497542849505
0.0478258222574
0.042724656508
0.0337407379673
0.0333477936785
0.0396065627346
0.0427337594711
0.0437763433514
0.0440479360449
0.0441012913603
0.0441035658804
0.0440961161899
0.0440879636039
0.0440818998281
0.0440788514793
0.044080166613
0.0440853830495
0.0440912939974
0.0440883864411
0.0440354710076
0.0437651300594
0.0427247479499
0.0396010820484
0.0333469638382
0.0325340149174
0.0333488325654
0.0337438726873
0.0338598293719
0.0338856720508
0.0338896389481
0.0338888928588
0.0338873141086
0.0338854766831
0.0338834705381
0.0338815102076
0.0338805313533
0.0338821699304
0.0338838061543
0.0338845474172
0.0338810834906
0.0338559606732
0.0337408298988
0.0333469848287
0.0325341339399
0.0333478341546
0.0395817176572
0.0426976930389
0.043739750234
0.0440157372299
0.0440750825467
0.0440838904189
0.0440823790065
0.0440789192153
0.0440756782368
0.0440736720572
0.0440742968257
0.0440769238297
0.0440784402584
0.0440700666409
0.0440114666963
0.0437365847083
0.0426958504732
0.0395811091511
0.0333475046807
0.0395819555161
0.0385467099296
0.0402383728984
0.0408910719056
0.0410794499739
0.0411242117177
0.0411326669006
0.041133316425
0.0411326156386
0.041131947371
0.0411316357645
0.041131796299
0.0411321806731
0.0411314275682
0.0411230763382
0.0410785846802
0.0408906106649
0.0402383183506
0.0385465116495
0.0395816467257
0.0426981547989
0.0402384227789
0.0415934110847
0.0421699321452
0.0423499286683
0.0423971073219
0.0424074575337
0.0424089707981
0.0424087019513
0.0424083200811
0.0424081546766
0.0424082311005
0.0424082658745
0.0424066735456
0.0423964009746
0.042349425095
0.0421697340363
0.0415934410377
0.0402380752387
0.042697882747
0.0437403810893
0.040891175369
0.0421699615507
0.0427295626083
0.0429084756655
0.0429569983295
0.0429682581011
0.0429702663205
0.042970386998
0.0429704240608
0.042970301195
0.0429700370241
0.0429696109169
0.0429675109842
0.0429563019816
0.0429080091418
0.0427294036431
0.0421700255879
0.0408908149917
0.04374043075
0.044016405604
0.0410795625108
0.0423499547617
0.0429084675777
0.0430878366358
0.0431368655585
0.0431486151075
0.0431519543802
0.0431532299032
0.0431537155625
0.0431536412839
0.0431530610367
0.0431517326292
0.0431481562352
0.043136086111
0.0430871877829
0.0429081526595
0.0423498882818
0.041079035671
0.0440163898347
0.0440758807594
0.0411243119857
0.042397131727
0.0429569543018
0.0431368251597
0.0431863561259
0.0431999644283
0.0432041508603
0.0432057649347
0.0432063510861
0.0432062706046
0.043205581879
0.0432040007861
0.0431998880525
0.0431861498169
0.0431360324663
0.042956377925
0.0423968060775
0.041123484145
0.0440754459314
0.0440846119984
0.0411327102778
0.0424074261826
0.0429681520435
0.0431484737258
0.0431997921068
0.0432140726851
0.0432184272426
0.0432200340967
0.0432205678827
0.0432204659095
0.0432197768262
0.0432181829079
0.0432139786935
0.0431998091005
0.0431480778261
0.042967382258
0.0424068498225
0.0411315601769
0.0440837455562
0.0440830338618
0.0411332829134
0.0424088550679
0.0429700675105
0.0431515411171
0.043203812156
0.0432182525926
0.0432225013187
0.0432239339138
0.043224329224
0.0432242061563
0.0432236000738
0.0432221259886
0.0432180125074
0.0432038090641
0.0431516293732
0.0429691734813
0.0424080579574
0.0411318229572
0.0440812534155
0.0440795061895
0.0411324726361
0.0424084783791
0.0429699739553
0.0431527849184
0.0432053800226
0.0432197757088
0.0432238080724
0.0432249984114
0.0432252001253
0.0432250679273
0.0432246247569
0.0432233892705
0.0432194543621
0.0432053191168
0.0431529862126
0.0429697934508
0.0424075736243
0.0411307796625
0.044077257173
0.0440759294195
0.0411316914993
0.0424080003133
0.0429699849585
0.043153360778
0.0432060498866
0.0432203500693
0.04322418345
0.0432251480431
0.0432251720891
0.0432250190718
0.0432247642896
0.0432237931014
0.043220064595
0.0432060160007
0.0431536156741
0.0429700954861
0.0424070343847
0.041129856682
0.0440736351613
0.0440735371618
0.0411313097682
0.0424077896811
0.0429699511711
0.0431534488787
0.0432061423882
0.0432203921773
0.0432241421746
0.0432250235385
0.0432249985289
0.0432248344551
0.0432246336346
0.0432237714803
0.0432201501642
0.0432061353961
0.0431536963921
0.0429700828228
0.0424068237306
0.0411293966627
0.0440710529937
0.0440738375151
0.0411314999519
0.0424079155765
0.0429697732532
0.043153010994
0.0432056365949
0.0432198852503
0.0432236755298
0.0432246657055
0.0432247904363
0.0432246688956
0.0432243704521
0.0432233972518
0.0432197217293
0.0432056653791
0.0431532247377
0.0429697329673
0.0424068410911
0.0411294913493
0.0440706923881
0.0440766117293
0.0411319725985
0.0424080289128
0.0429693592261
0.0431517912914
0.0432042150978
0.0432184735006
0.0432223821085
0.0432235706817
0.0432239245551
0.0432238915502
0.0432234691317
0.0432223137247
0.0432184947844
0.0432043657054
0.0431519958669
0.0429688933178
0.0424069911855
0.0411300535873
0.0440731660964
0.0440783236012
0.0411313081224
0.0424065219796
0.0429673607663
0.0431482818646
0.0432002050852
0.0432143905122
0.0432183955809
0.0432197451564
0.0432202622337
0.0432203017897
0.0432198063119
0.0432185034529
0.0432145716503
0.0432004489637
0.0431483670744
0.042966344354
0.0424055627619
0.0411295550459
0.0440751811646
0.0440700180525
0.0411229984925
0.0423963083954
0.0429562046608
0.0431360508059
0.0431864485974
0.0432002225765
0.0432042004716
0.0432056126693
0.043206189145
0.0432062492617
0.0432057135827
0.0432043456014
0.0432004203488
0.0431865283987
0.0431351888766
0.0429551765677
0.0423954831211
0.0411214307176
0.0440676058212
0.0440114216272
0.0410785056843
0.0423493491611
0.0429079208559
0.0430871304468
0.043136052339
0.0431483483966
0.0431518835084
0.0431531483507
0.0431536617972
0.0431536936054
0.0431531869846
0.0431519212599
0.0431482923119
0.0431351511251
0.0430860034906
0.0429070173941
0.042348661855
0.0410771061737
0.0440092811126
0.0437365184236
0.0408905165896
0.0421696614802
0.0427293189824
0.0429080840045
0.0429563483647
0.0429673885826
0.0429692631296
0.0429698111484
0.0429700303052
0.0429699843634
0.0429696309249
0.0429687859933
0.0429663315697
0.0429551630616
0.0429070148273
0.042728510969
0.0421690483275
0.0408892462936
0.0437344973801
0.042695803775
0.0402382246828
0.0415933703687
0.0421699242223
0.0423497939169
0.0423967468363
0.0424068206283
0.0424080657552
0.0424075966401
0.0424070423631
0.0424067794465
0.0424068814012
0.0424070107169
0.0424055654882
0.0423954880108
0.0423486667701
0.0421690553105
0.0415927144018
0.040236987633
0.0426936935233
0.0395811121957
0.038546403484
0.0402379478512
0.0408906375163
0.041078871323
0.0411233796662
0.041131508698
0.0411318222678
0.0411308002347
0.0411298812703
0.0411293953386
0.0411295430294
0.041130098627
0.0411295835869
0.0411214545516
0.0410771285814
0.0408892657103
0.0402369945191
0.0385451883358
0.0395790977819
0.0333475031981
0.0395814472617
0.0426974458793
0.0437397942503
0.0440157231006
0.0440748277114
0.0440832094881
0.0440807950977
0.0440768319213
0.044073285717
0.044070801892
0.0440707593434
0.044073378503
0.0440753915444
0.0440678057452
0.0440094215683
0.0437346099465
0.0426937464708
0.0395791180401
0.0333469001823
0.0337434473751
0.0426952023382
0.0477811977196
0.0497097632145
0.0502920622977
0.0504364758299
0.0504640691062
0.050465237373
0.0504614616779
0.0504576904229
0.0504556261147
0.0504565163025
0.0504588609643
0.050457319063
0.0504300020087
0.0502865199425
0.0497055840315
0.047778590686
0.0426938302727
0.0337424794264
0.0426954626362
0.0402371287603
0.0415930686286
0.0421705629298
0.0423515406426
0.042399695878
0.0424109428509
0.0424131942323
0.0424134501409
0.0424132985504
0.042413099254
0.0424129548655
0.0424125581907
0.0424103229539
0.0423992043696
0.0423512458475
0.0421704909906
0.0415930644143
0.0402364433516
0.0426935126115
0.0477817092006
0.0415930573257
0.0417273096162
0.0418388643946
0.0418658880735
0.0418719308649
0.0418741143328
0.0418752079971
0.041875768173
0.0418760132715
0.0418760178278
0.0418758102617
0.0418753197615
0.0418743044044
0.0418721712918
0.0418661321431
0.0418390450374
0.0417272414222
0.0415920599581
0.0477798828186
0.0497106252367
0.0421705652476
0.0418388393703
0.0417398345535
0.0416825195697
0.0416603495291
0.0416549824585
0.041654634205
0.0416552047064
0.0416556359466
0.0416556803439
0.0416553693174
0.0416549251281
0.0416553791548
0.0416607698733
0.0416828837191
0.0417400582421
0.0418387570064
0.0421695684869
0.0497095477102
0.0502931017452
0.0423515282039
0.0418658281759
0.0416824726712
0.0415854851609
0.0415481900039
0.041538345297
0.0415373427813
0.0415381710263
0.0415388421362
0.0415389249748
0.0415384607224
0.0415378482116
0.0415389295196
0.0415486921354
0.0415858597864
0.0416826794018
0.0418657218992
0.0423504784707
0.0502923561994
0.05043773803
0.0423996354779
0.0418718215608
0.0416602324356
0.0415481108615
0.0415046066336
0.041493240643
0.0414922869031
0.0414935717853
0.0414945530375
0.0414946772214
0.0414939802643
0.0414930041823
0.0414941132126
0.0415053529557
0.0415485174061
0.0416604072928
0.0418716655069
0.0423984197429
0.0504367816015
0.0504653916909
0.0424107941934
0.041873940041
0.0416547818889
0.041538157107
0.0414931249233
0.0414816399316
0.0414812967516
0.0414833688761
0.0414847953715
0.0414849328496
0.0414838060811
0.0414820802605
0.0414826521772
0.0414940724099
0.041538726234
0.0416549417223
0.0418737233109
0.0424093605623
0.0504642031668
0.0504665115081
0.0424129599587
0.0418749770327
0.041654391249
0.0415370509641
0.0414920711942
0.0414811955422
0.0414819338945
0.0414851299594
0.0414871257894
0.0414872504563
0.0414855172645
0.0414826574989
0.041482191851
0.0414930974866
0.0415377824622
0.0416545469103
0.0418747032702
0.0424113079142
0.0504649025272
0.0504625110956
0.0424131463836
0.0418755081928
0.0416549018862
0.0415378597187
0.0414933132381
0.0414832116177
0.0414850641336
0.0414893403087
0.0414918411179
0.0414919687956
0.041489720395
0.0414857822821
0.0414842312501
0.0414944165937
0.0415387094899
0.0416552303504
0.0418752048636
0.0424113048312
0.0504601307344
0.0504583616086
0.0424129589352
0.0418757633681
0.0416553772781
0.0415385991167
0.0414943363019
0.0414846589787
0.0414870649667
0.0414918404893
0.0414945816221
0.0414947361012
0.0414923032253
0.0414879342976
0.0414858803657
0.0414956426035
0.0415395991247
0.0416558234825
0.041875454645
0.0424109585113
0.0504554778716
0.0504558015846
0.04241276993
0.04187580344
0.0416555076452
0.0415387924075
0.0414945493255
0.0414848645769
0.0414872430019
0.0414920047194
0.0414947641281
0.0414949717604
0.0414926292333
0.0414883896891
0.0414864276882
0.0414961449393
0.0415399516856
0.0416560143966
0.0418754847749
0.0424106448165
0.0504524858587
0.050456559611
0.0424126885105
0.0418756282673
0.0416552453756
0.0415383868237
0.0414938948184
0.0414837755191
0.041485565127
0.0414898327256
0.0414924221484
0.0414927346793
0.041490764444
0.0414871738271
0.0414858202836
0.0414958284706
0.0415396803029
0.0416557437221
0.0418752810981
0.0424105176894
0.0504527110503
0.0504591854272
0.042412378732
0.0418751581283
0.0416548022869
0.0415377883078
0.0414929352947
0.041482084278
0.0414827854152
0.0414860237645
0.0414882124491
0.0414886790337
0.0414873747349
0.0414849513639
0.0414846078574
0.0414951377267
0.0415391416209
0.0416552255839
0.0418748106045
0.0424103009078
0.0504557066427
0.0504578996795
0.0424102103286
0.0418741588412
0.0416552517165
0.0415388754235
0.0414940857538
0.0414827142113
0.0414824069388
0.0414845923687
0.041486293518
0.041486876097
0.0414862157823
0.0414848258347
0.0414853303435
0.0414962126596
0.0415400810411
0.041655497697
0.0418738184313
0.0424082789622
0.0504551513421
0.0504306388083
0.0423991158115
0.0418720399002
0.0416606428621
0.0415485809821
0.041505352001
0.0414941636715
0.0414933149959
0.0414947531188
0.0414960241807
0.0414965751575
0.0414962413614
0.0414954213454
0.0414963235366
0.041506985574
0.041549363075
0.0416608144426
0.0418717232587
0.0423973431415
0.0504283958967
0.0502871414007
0.0423511532458
0.0418660151808
0.0416827634492
0.0415857609228
0.0415484482873
0.0415387689294
0.0415378968418
0.0415388907985
0.0415398110737
0.0415402182501
0.0415399665317
0.0415393611937
0.0415401820939
0.0415493754333
0.0415862186573
0.0416828788405
0.0418657279789
0.0423495321713
0.0502849581333
0.0497061035821
0.0421704001636
0.0418389567094
0.0417399595865
0.0416825843253
0.0416603357012
0.0416549140057
0.0416545651109
0.0416552670079
0.0416558657493
0.0416560919525
0.0416558469437
0.0416552994816
0.0416555273529
0.0416608022417
0.0416828653692
0.0417400478733
0.0418387020536
0.0421689042606
0.0497038547809
0.0477790428193
0.0415930191715
0.0417272009454
0.0418386888751
0.0418656449754
0.0418715995443
0.0418736793941
0.0418746778996
0.0418751890631
0.0418754327607
0.0418754737185
0.0418752868136
0.0418748089405
0.0418737958868
0.041871691957
0.0418657020171
0.0418386882564
0.0417269693643
0.0415916546293
0.0477763639037
0.0426941394145
0.0402364704908
0.0415920397362
0.0421694724354
0.0423503778922
0.0423983587788
0.0424093514812
0.0424113276026
0.0424113161001
0.042410951752
0.0424106246824
0.0424104889138
0.0424102557424
0.0424082248669
0.0423972943001
0.0423495005817
0.0421688853973
0.0415916448564
0.040235356181
0.0426912844997
0.0337424211297
0.0426936567188
0.0477798082575
0.0497091802526
0.0502918635235
0.0504362998168
0.0504636953052
0.0504645026161
0.050459775905
0.0504552561472
0.0504523357167
0.0504528272433
0.050455929671
0.050455361024
0.0504285244203
0.0502850720418
0.0497039309569
0.0477763837672
0.0426912675283
0.0337408204964
0.0338621057183
0.0437369619523
0.0497077216573
0.0521213529042
0.0528998437724
0.0531061030709
0.0531485777197
0.0531515445243
0.0531468858884
0.0531423263834
0.0531402645633
0.0531414681364
0.0531440031656
0.0531401536957
0.0530979134264
0.052892677872
0.0521157438975
0.0497038431807
0.0437346460641
0.0338607685154
0.0437372087467
0.0408893501565
0.042170136175
0.0427318037852
0.0429127767422
0.0429632999522
0.0429763782792
0.0429797951779
0.0429807750604
0.0429809914411
0.0429808112308
0.0429803813941
0.0429793949765
0.0429761195431
0.0429632254036
0.0429128799982
0.0427320082549
0.042170174776
0.0408883537394
0.043734007105
0.0497083055259
0.0421700625371
0.0418405299522
0.0417431542591
0.0416870555311
0.0416658343528
0.0416612095291
0.0416614128618
0.0416623237991
0.0416629130996
0.0416629780249
0.041662610899
0.0416619952641
0.0416620176192
0.041666705403
0.0416878213291
0.0417436657883
0.0418405419478
0.0421687790696
0.0497048543226
0.0521224033093
0.042731707446
0.0417430736669
0.0413342518627
0.0411452927641
0.0410758719282
0.04105679898
0.0410535778368
0.0410541070619
0.0410548614667
0.0410550291728
0.0410547420281
0.0410547093166
0.041058129552
0.0410770984018
0.0411462120382
0.0413347703604
0.0417430512533
0.0427304929183
0.0521197972532
0.0529012338385
0.0429126030201
0.0416868707746
0.0411451770018
0.0408906360528
0.040794213802
0.0407661936526
0.0407611052461
0.0407617809501
0.0407628948022
0.0407632085316
0.0407628769168
0.0407629820732
0.0407683314323
0.0407958765239
0.0408916630651
0.0411456310254
0.041686786579
0.0429113806284
0.0528991040285
0.0531078179358
0.0429629688929
0.0416654976303
0.0410755930451
0.0407940984484
0.0406857705562
0.0406544066932
0.0406496087954
0.0406516006295
0.0406535556927
0.0406539743143
0.0406530027483
0.0406520038375
0.0406571718051
0.0406880151429
0.0407952577904
0.0410759763618
0.0416653044449
0.0429615543453
0.0531055104415
0.053150550141
0.0429758258264
0.0416606772911
0.0410563137648
0.0407658748455
0.040654236477
0.0406233787613
0.0406213701213
0.040626546514
0.0406301451267
0.0406305229711
0.0406278431831
0.0406237307353
0.0406262736849
0.0406567087149
0.0407672722745
0.0410566303243
0.0416603364077
0.0429741086057
0.053147910918
0.0531535676999
0.0429790393251
0.0416606932638
0.0410528701167
0.0407604922843
0.0406491749443
0.0406211786222
0.0406241158122
0.0406343073434
0.0406402516267
0.0406404410464
0.0406350540565
0.0406257848462
0.0406236070944
0.0406515003057
0.0407619148898
0.0410531391788
0.0416602018278
0.042976995735
0.0531505651617
0.0531484640704
0.042979906886
0.041661495106
0.0410531644653
0.0407608243029
0.0406508362112
0.040626144033
0.0406341912674
0.0406493820564
0.0406574811961
0.0406575302635
0.040649671921
0.0406351849246
0.040628089706
0.0406530605802
0.040762345929
0.0410534877051
0.0416608949633
0.0429775826523
0.0531452330869
0.0531432467417
0.0429801322293
0.0416621042576
0.0410538410869
0.0407617205754
0.0406525521627
0.0406296011611
0.0406401071171
0.0406575026436
0.0406666098283
0.0406666541799
0.0406577975163
0.040641224804
0.0406319460093
0.0406553892987
0.0407637796275
0.0410544015588
0.041661480594
0.0429775834532
0.0531396130331
0.0531405660571
0.0429800562321
0.0416622804892
0.0410540716159
0.0407619402616
0.0406527795256
0.0406298173134
0.0406402635102
0.0406576207003
0.0406667754231
0.0406670014808
0.0406585553935
0.0406426361644
0.0406338390765
0.0406571799612
0.0407650328314
0.0410550374234
0.041661674864
0.0429773027408
0.0531364541846
0.0531419104796
0.042979775458
0.0416620071015
0.0410538010718
0.0407614231264
0.0406514673702
0.0406267960923
0.0406347626629
0.0406499307321
0.0406582475872
0.0406589625271
0.0406524452595
0.0406398109551
0.0406337732483
0.0406581457061
0.0407657771537
0.0410551785292
0.0416614031514
0.0429769098683
0.0531376056658
0.0531449429623
0.0429789170724
0.0416614271921
0.0410537434992
0.0407613437572
0.0406501471439
0.0406223673928
0.040625471701
0.0406358823578
0.0406424053606
0.0406439738298
0.0406408807407
0.0406340973355
0.0406326030791
0.040658875135
0.0407665950351
0.0410553252863
0.0416608456558
0.042976166374
0.0531413371653
0.0531415411094
0.0429757449504
0.0416614683897
0.0410572378548
0.0407668063571
0.0406554115481
0.0406250256674
0.0406235740225
0.0406293928848
0.0406340013529
0.0406363149672
0.0406362575818
0.0406341894243
0.0406363725497
0.0406642836192
0.0407717189113
0.0410585040812
0.041660891789
0.0429732219659
0.0531384786401
0.0530993308746
0.0429629135151
0.0416661893966
0.0410763453966
0.0407947059135
0.0406867015491
0.0406558584505
0.0406516974081
0.0406544377702
0.0406574924102
0.0406597607706
0.0406608457971
0.0406609145788
0.0406650755407
0.0406934445566
0.0407980853729
0.0410770390479
0.0416656064492
0.0429606764819
0.0530966143622
0.0528939652441
0.0429126007925
0.0416873687405
0.0411455848779
0.0408908330088
0.0407943658514
0.0407667347496
0.040762070043
0.0407632495188
0.040765158211
0.0407667675032
0.0407676153149
0.0407680111593
0.040772375351
0.0407982404059
0.0408925565063
0.0411458280014
0.0416868230854
0.0429106427687
0.052891366929
0.0521167599669
0.0427317860643
0.0417433275677
0.0413343015514
0.0411450517919
0.0410753745202
0.0410561945041
0.0410530932425
0.0410538319908
0.0410550068948
0.0410558847566
0.0410561329231
0.0410560840676
0.0410588920852
0.0410771431938
0.0411458197829
0.0413343876969
0.0417429085236
0.0427300685888
0.0521140095523
0.049704644008
0.042170076523
0.0418403694856
0.0417427769595
0.0416864451736
0.0416649604505
0.0416600690393
0.0416600671259
0.0416609034304
0.0416615868633
0.0416619100785
0.0416617233311
0.0416610972593
0.0416609741313
0.0416655727715
0.0416867657031
0.0417428754138
0.0418401448941
0.0421686002831
0.0497012239531
0.0437350174767
0.0408884202646
0.042168765901
0.0427303479707
0.0429112004801
0.0429614219436
0.0429740581506
0.0429769938425
0.0429775542127
0.0429774942464
0.0429772139174
0.0429768218771
0.0429760249181
0.0429730549645
0.0429605260299
0.0429105431048
0.0427300134719
0.0421685782179
0.0408873525232
0.0437315050134
0.0338605358157
0.0437341593556
0.0497050202727
0.0521197156796
0.0528988366346
0.0531052874421
0.0531475931994
0.0531503224027
0.0531449833127
0.0531395659299
0.0531363828982
0.0531376283927
0.0531412860449
0.0531383629713
0.0530965690068
0.0528913982378
0.0521140517303
0.0497012299785
0.0437314714291
0.0338586672728
0.0338924530806
0.0440164964041
0.0502934069656
0.052903643129
0.0537707599086
0.0540064007207
0.0540548331111
0.0540569095778
0.0540502476236
0.0540445128593
0.0540423784698
0.0540442463818
0.0540477350225
0.0540440912222
0.053995580672
0.0537612682574
0.0528962049466
0.0502880946537
0.0440132311272
0.033890925097
0.0440166612997
0.041078845661
0.0423521287396
0.042914444393
0.0430980047121
0.0431512222888
0.0431665687834
0.0431716730678
0.0431738469986
0.0431747476836
0.0431746108186
0.0431737752836
0.0431720083244
0.0431673388366
0.0431522172079
0.0430989508136
0.0429151488354
0.0423522906129
0.0410775995263
0.0440121582332
0.0502940120766
0.0423519643618
0.041870633806
0.0416920570043
0.0415995800879
0.0415661634434
0.0415593194808
0.0415602569259
0.0415624271684
0.0415639820113
0.0415643516291
0.0415639292065
0.0415630389626
0.0415627620269
0.0415694394303
0.0416021274544
0.0416936207532
0.0418710578618
0.0423505739651
0.0502888604602
0.0529048144034
0.0429142070756
0.0416918979435
0.0411549892746
0.0409051304964
0.0408125341476
0.0407873463405
0.0407841697176
0.0407862661503
0.0407884511969
0.0407894307796
0.0407898389915
0.0407903802221
0.0407945484415
0.040818715
0.0409093348564
0.0411573078249
0.0416926359653
0.0429130937496
0.0529002449614
0.0537724719345
0.043097570636
0.0415991312926
0.040904804038
0.0405751354683
0.0404487562665
0.0404126582218
0.0404077799116
0.040410950089
0.0404142518857
0.0404160852855
0.0404172143745
0.0404183028725
0.0404245750178
0.0404585939881
0.0405812692818
0.0409078052997
0.0416000543255
0.0430965662102
0.0537677700917
0.0540086828601
0.0431503583054
0.0415651972438
0.0408117503199
0.0404483870552
0.0403076478605
0.0402687641135
0.0402669465731
0.0402745820506
0.0402804135707
0.0402830250792
0.0402831734421
0.040281247965
0.0402848291038
0.04032062852
0.0404561722307
0.0408151501105
0.0415660637494
0.0431491110982
0.0540030789002
0.0540575543311
0.0431650775648
0.0415576307084
0.0407857633998
0.0404114580916
0.0402680493193
0.0402340005199
0.0402424025258
0.0402607378238
0.0402714557969
0.0402740449833
0.0402694504951
0.0402576854564
0.0402519138683
0.0402827174039
0.0404201341236
0.0407892359667
0.041558203868
0.0431633341326
0.0540511233787
0.0540596038205
0.0431695793991
0.0415577565674
0.0407812566394
0.0404050156346
0.0402649115624
0.0402414771099
0.0402672346071
0.040303058619
0.0403205613837
0.0403221096779
0.0403088218046
0.0402789655525
0.0402571684534
0.0402788064461
0.0404135399207
0.040784531709
0.0415578681501
0.0431672497221
0.0540525467147
0.0540518904234
0.0431713910522
0.0415592232319
0.0407818880323
0.040406214405
0.0402707317414
0.0402586346064
0.0403024140436
0.0403563492422
0.0403796968556
0.0403802948001
0.0403590077291
0.0403093468876
0.0402705393927
0.0402830522623
0.040414537456
0.0407851066444
0.041558983703
0.0431685668453
0.054044608956
0.0540446501858
0.0431722903012
0.0415604784405
0.0407830942778
0.0404079395143
0.0402749164139
0.040268202005
0.0403194261218
0.040379523072
0.0404050650984
0.040405382898
0.0403814306283
0.0403257312331
0.0402808593041
0.0402894193516
0.0404185339504
0.0407875086729
0.0415603562854
0.0431691267272
0.0540374838494
0.054041525524
0.0431724316908
0.0415609878115
0.0407836542915
0.0404085484909
0.0402757443935
0.0402691382155
0.040320167471
0.0403800590914
0.0404057054391
0.0404068298182
0.0403850463365
0.0403329953777
0.0402907720667
0.0402987812611
0.0404250120698
0.0407907705308
0.0415614021177
0.0431689638579
0.0540346690474
0.0540439931653
0.0431719143109
0.041560690916
0.0407834914396
0.0404079646646
0.0402731946177
0.0402617374066
0.0403054656451
0.0403592027041
0.040383204628
0.0403869376747
0.0403729160728