/*--------------------------------*- C++ -*----------------------------------*\
| =========                 |                                                 |
| \\      /  F ield         | OpenFOAM: The Open Source CFD Toolbox           |
|  \\    /   O peration     | Version:  3.0.1                                 |
|   \\  /    A nd           | Web:      www.OpenFOAM.org                      |
|    \\/     M anipulation  |                                                 |
\*---------------------------------------------------------------------------*/
FoamFile
{
    version     2.0;
    format      ascii;
    class       volScalarField;
    location    "0.6";
    object      p_rgh;
}
// * * * * * * * * * * * * * * * * * * * * * * * * * * * * * * * * * * * * * //

dimensions      [1 -1 -2 0 0 0 0];

internalField   nonuniform List<scalar> 
7968
(
4950.52830936
4950.55310413
4950.59660334
4950.65419784
4950.72098819
4950.79164739
4950.86040512
4950.92061326
4950.96362269
4950.98785464
4950.98797575
4950.96292324
4950.91498532
4950.84990014
4950.77112217
4950.68844933
4950.60973048
4950.54216758
4950.49173169
4950.46335785
4950.5582509
4950.58908773
4950.63974014
4950.70546236
4950.78076682
4950.86021466
4950.93744312
4951.00524183
4951.05615297
4951.08446787
4951.08556411
4951.05845256
4951.00533955
4950.93193522
4950.84538191
4950.75448811
4950.6677167
4950.59234361
4950.53502523
4950.50104454
4950.61182614
4950.64965557
4950.71072621
4950.79009752
4950.88151622
4950.97870734
4951.07401738
4951.15856918
4951.22319279
4951.25971796
4951.26263715
4951.23081433
4951.16709655
4951.07873666
4950.97539511
4950.86766199
4950.76543542
4950.67703222
4950.60968581
4950.56979578
4950.68354309
4950.72944069
4950.80414748
4950.90246743
4951.01721011
4951.14084606
4951.26358236
4951.37368914
4951.45905498
4951.50818468
4951.51372859
4951.47437251
4951.39434717
4951.28334066
4951.15458945
4951.02172473
4950.89698886
4950.79043632
4950.71058726
4950.6611003
4950.76715207
4950.8216091
4950.91241396
4951.03404774
4951.17842473
4951.33637452
4951.49523874
4951.63941409
4951.75200031
4951.81754812
4951.82627687
4951.77650247
4951.67436012
4951.53352269
4951.37141109
4951.20583298
4951.05234036
4950.92309255
4950.82753503
4950.76920356
4950.85564255
4950.91881989
4951.02733421
4951.17526612
4951.3538522
4951.55196704
4951.75363966
4951.9383423
4952.08356393
4952.16874055
4952.18106528
4952.11840479
4951.98945567
4951.8127486
4951.61100743
4951.40702716
4951.22014891
4951.06490285
4950.95171237
4950.88445208
4950.94068753
4951.01246179
4951.13890757
4951.31403362
4951.52856949
4951.76930652
4952.01680188
4952.24522953
4952.42588676
4952.53238691
4952.54850046
4952.47161763
4952.31339097
4952.09779321
4951.85346172
4951.60858444
4951.38647486
4951.20401115
4951.07252092
4950.9958456
4951.01366584
4951.09317021
4951.23605302
4951.43641414
4951.68453844
4951.96565954
4952.25689573
4952.52732864
4952.74235126
4952.86964606
4952.88960031
4952.79911334
4952.61270192
4952.35973686
4952.07463967
4951.7908557
4951.53540274
4951.32733909
4951.17883568
4951.09395783
4951.0654833
4951.15193381
4951.30794572
4951.52847045
4951.80362566
4952.1174007
4952.44420914
4952.74914691
4952.99271447
4953.13747762
4953.16107307
4953.05994658
4952.8507245
4952.56730221
4952.24893916
4951.93340466
4951.6507601
4951.42182609
4951.25937235
4951.16770486
4951.09210725
4951.1823071
4951.34613926
4951.57887638
4951.87034367
4952.20391385
4952.55235215
4952.87842972
4953.13973365
4953.29562566
4953.32226302
4953.21577441
4952.99362885
4952.69221067
4952.35366099
4952.01845288
4951.71866527
4951.47624838
4951.30457418
4951.20869929
4951.08952162
4951.18046582
4951.34585669
4951.58107947
4951.87585683
4952.21339734
4952.5661643
4952.89671559
4953.1622267
4953.32147125
4953.35034104
4953.24481231
4953.02175933
4952.71764355
4952.37506519
4952.03507479
4951.73054243
4951.48403966
4951.30947089
4951.21178018
4951.05771009
4951.14653456
4951.30721672
4951.5351069
4951.81999581
4952.14555208
4952.48525944
4952.80324171
4953.05881985
4953.2131161
4953.24302131
4953.14434788
4952.93244977
4952.64117161
4952.31082216
4951.98113626
4951.68443466
4951.4433375
4951.27235268
4951.17534704
4951.00066109
4951.08450123
4951.23503803
4951.44735809
4951.71108636
4952.01101953
4952.32274305
4952.61376521
4952.84760309
4952.98967491
4953.01902648
4952.93153115
4952.73973291
4952.47334201
4952.16868874
4951.8622405
4951.58443586
4951.3572272
4951.19510144
4951.10158846
4950.92521478
4951.00137698
4951.13792667
4951.32884817
4951.56420888
4951.82976249
4952.10405381
4952.35899653
4952.5634908
4952.68837533
4952.71550974
4952.64080185
4952.47396623
4952.23966069
4951.96905797
4951.69419414
4951.44268467
4951.23516367
4951.08606081
4950.99765687
4950.83663947
4950.90561757
4951.0266465
4951.19389561
4951.39774559
4951.62546799
4951.85871224
4952.07417763
4952.24633393
4952.35164133
4952.3750548
4952.31285143
4952.17175259
4951.97147586
4951.73772027
4951.49767663
4951.2757029
4951.09053393
4950.95634253
4950.87491718
4950.74503459
4950.80654206
4950.91224169
4951.05637614
4951.22966589
4951.42094904
4951.61489091
4951.79258358
4951.93370337
4952.01970322
4952.03842579
4951.9870192
4951.8690772
4951.70029876
4951.50132363
4951.29489338
4951.10160764
4950.93834148
4950.81796957
4950.74864972
4950.65876202
4950.71294569
4950.80466962
4950.92829023
4951.07500204
4951.23482754
4951.39500961
4951.5403107
4951.65471268
4951.72361715
4951.73673244
4951.6953574
4951.59538718
4951.45272095
4951.2832697
4951.10558104
4950.9374713
4950.79397725
4950.68728338
4950.62590944
4950.58519208
4950.63229797
4950.71222608
4950.81919475
4950.94510621
4951.08060948
4951.21481764
4951.33528301
4951.4291117
4951.48495793
4951.49461698
4951.45682296
4951.37128054
4951.24838286
4951.10144773
4950.94580196
4950.797552
4950.6701015
4950.57477768
4950.52005307
4950.53055742
4950.57138544
4950.64235782
4950.7371363
4950.84913825
4950.96812582
4951.08488396
4951.18891541
4951.26911018
4951.31616599
4951.32350883
4951.28783397
4951.21118452
4951.10140119
4950.9697331
4950.8279731
4950.69355013
4950.57752632
4950.49054704
4950.44036231
4950.50006672
4950.53571169
4950.60079757
4950.68883653
4950.79125918
4950.90165928
4951.00934643
4951.10545726
4951.17890056
4951.22126334
4951.22642739
4951.19208062
4951.11916262
4951.01457197
4950.88943915
4950.7600712
4950.63369082
4950.52437142
4950.44187953
4950.39451163
4950.46315363
4950.48483168
4950.52532759
4950.57999349
4950.64400208
4950.71197541
4950.77805326
4950.83590203
4950.88094614
4950.90579847
4950.9059584
4950.8805754
4950.83241364
4950.76465523
4950.68660633
4950.60488992
4950.52739504
4950.46149388
4950.41303275
4950.38723345
4950.49022967
4950.51733398
4950.56492945
4950.62849709
4950.70312552
4950.78292794
4950.86118371
4950.930481
4950.98351988
4951.0131501
4951.01456841
4950.98654551
4950.93128592
4950.85462707
4950.76518357
4950.67198571
4950.58405372
4950.5092288
4950.45378138
4950.42289894
4950.54147663
4950.57555015
4950.6341197
4950.71267944
4950.80597866
4950.90707279
4951.00750582
4951.09756422
4951.16739115
4951.2070902
4951.21073633
4951.17679266
4951.10825021
4951.01335599
4950.90308097
4950.78922434
4950.68286249
4950.59329852
4950.52737721
4950.48997004
4950.61150816
4950.65429891
4950.72780986
4950.82755771
4950.94783245
4951.08027041
4951.2137937
4951.33440339
4951.43086796
4951.48639017
4951.4932268
4951.44952084
4951.36045345
4951.23768376
4951.09631933
4950.95200244
4950.81886643
4950.70821979
4950.6276706
4950.58133942
4950.69406382
4950.74733026
4950.83938639
4950.96601264
4951.12111708
4951.29465671
4951.47237804
4951.6358714
4951.76537616
4951.84141673
4951.85205968
4951.79489688
4951.67798002
4951.51803379
4951.33553347
4951.15146487
4950.9836991
4950.84601129
4950.74680398
4950.68976451
4950.78195459
4950.84671522
4950.95978226
4951.11744502
4951.31338592
4951.53570966
4951.76613361
4951.98047256
4952.15128813
4952.25224263
4952.26709439
4952.19296314
4952.04155199
4951.83628676
4951.60458499
4951.37331244
4951.16494268
4950.9957766
4950.87512323
4950.80617878
4950.86664206
4950.94316491
4951.07799228
4951.26830004
4951.50777743
4951.78259829
4952.07047164
4952.3405209
4952.55720552
4952.68567629
4952.70489109
4952.61149246
4952.42144344
4952.16611119
4951.88066156
4951.59863794
4951.34689377
4951.14440638
4951.00128227
4950.92048425
4950.93930586
4951.02671308
4951.18176021
4951.40277937
4951.68369589
4952.00890191
4952.35237516
4952.67670352
4952.93851532
4953.0940998
4953.11783974
4953.00581005
4952.77789701
4952.47362184
4952.13587874
4951.80493943
4951.51171946
4951.27740413
4951.11293109
4951.02088723
4950.99271632
4951.08797694
4951.25912972
4951.50513639
4951.81966091
4952.18616199
4952.57552455
4952.94498229
4953.24498013
4953.42363587
4953.4517577
4953.32487325
4953.06577407
4952.72082904
4952.33961892
4951.96820363
4951.64076909
4951.38020725
4951.19801173
4951.09684799
4951.01917844
4951.11932488
4951.30023773
4951.56143199
4951.89642914
4952.28795505
4952.70506234
4953.10182307
4953.42511913
4953.61810235
4953.6498106
4953.51572055
4953.23932681
4952.87050803
4952.46298142
4952.06645381
4951.71753583
4951.44046073
4951.24728529
4951.13959687
4951.01553865
4951.11675738
4951.29964647
4951.56396118
4951.90296747
4952.29915874
4952.72131729
4953.1230334
4953.45126734
4953.6482136
4953.68279542
4953.55031838
4953.27319459
4952.90117567
4952.48873832
4952.08628243
4951.73166373
4951.44960215
4951.25247226
4951.14288333
4950.98178819
4951.08039959
4951.25736027
4951.51241509
4951.83882791
4952.21933306
4952.62357414
4953.00802813
4953.32163371
4953.51152261
4953.54776261
4953.42497985
4953.16389516
4952.81017358
4952.41467823
4952.0257691
4951.68100311
4951.40559044
4951.21147503
4951.10509863
4950.92302987
4951.01466888
4951.17887305
4951.41426954
4951.71418512
4952.06169311
4952.4289612
4952.77694201
4953.06076595
4953.23403889
4953.26996574
4953.16273364
4952.92956089
4952.60977183
4952.24859709
4951.88996991
4951.5695946
4951.31183022
4951.13014778
4951.02857023
4950.84369486
4950.92694163
4951.07403369
4951.28310913
4951.54747679
4951.85142702
4952.17028971
4952.47080504
4952.71531345
4952.86560397
4952.89888777
4952.80952739
4952.61049359
4952.33358296
4952.01697271
4951.69898347
4951.41195147
4951.17909926
4951.01384253
4950.92044837
4950.75424585
4950.82707213
4950.9549827
4951.13507598
4951.36023087
4951.6170654
4951.88391953
4952.13356332
4952.33567819
4952.46033022
4952.48905663
4952.4166644
4952.25211993
4952.01986227
4951.75083666
4951.47725239
4951.22730248
4951.02231939
4950.8756377
4950.79196912
4950.66242599
4950.72480421
4950.83397651
4950.98611432
4951.17408992
4951.38552534
4951.60338796
4951.8053042
4951.96766659
4952.06763781
4952.09059177
4952.03225279
4951.89804458
4951.7064307
4951.48175857
4951.25028479
4951.03619541
4950.8584882
4950.73020306
4950.65742879
4950.57647334
4950.62938737
4950.72198411
4950.84979094
4951.00569002
4951.17874936
4951.35455842
4951.51599
4951.64451865
4951.72310514
4951.74014401
4951.69262742
4951.58254506
4951.42426248
4951.23662379
4951.04109666
4950.85800425
4950.70429193
4950.59248301
4950.52951238
4950.50395968
4950.54878818
4950.62812325
4950.73679374
4950.86779449
4951.01123053
4951.1550395
4951.28536439
4951.38763931
4951.44987853
4951.46188799
4951.42157699
4951.32889383
4951.19535948
4951.03577213
4950.86771633
4950.70872855
4950.57396478
4950.47522598
4950.42000077
4950.45089961
4950.48942545
4950.55930315
4950.65454961
4950.76835297
4950.89155497
4951.01384725
4951.12345828
4951.20849192
4951.25838605
4951.26692055
4951.23114716
4951.15004485
4951.03284197
4950.89203967
4950.7425694
4950.60022418
4950.47861121
4950.38881808
4950.338746
4950.42264738
4950.45658979
4950.52043918
4950.60770973
4950.71121081
4950.82302765
4950.93396605
4951.03261729
4951.10865408
4951.15305968
4951.15925761
4951.12505301
4951.04959659
4950.94084284
4950.81009667
4950.6716152
4950.53911976
4950.4252909
4950.34063788
4950.29394762
4950.34463949
4950.36442451
4950.40169185
4950.45165785
4950.50985484
4950.57155393
4950.6317114
4950.68523609
4950.72691005
4950.74950536
4950.74981847
4950.72614231
4950.67838659
4950.61250396
4950.5361636
4950.45685793
4950.38197765
4950.3183556
4950.2715303
4950.24675283
4950.3704815
4950.3981646
4950.44493317
4950.50567545
4950.57697498
4950.65350004
4950.72909728
4950.79699366
4950.84972703
4950.87968262
4950.88155874
4950.85330838
4950.79669223
4950.71846224
4950.62762278
4950.53368878
4950.44565499
4950.37097724
4950.31462049
4950.28227182
4950.41990734
4950.45692201
4950.5169036
4950.59471333
4950.68757101
4950.78949871
4950.89251778
4950.98710195
4951.06157078
4951.10499237
4951.11000381
4951.07374991
4950.99972287
4950.89780871
4950.78055817
4950.66108906
4950.5509915
4950.45902827
4950.389855
4950.34857562
4950.48758978
4950.53519922
4950.612166
4950.71363073
4950.83761856
4950.97750589
4951.12261937
4951.25943066
4951.36704228
4951.43160028
4951.44099589
4951.3915652
4951.29007582
4951.15135405
4950.99375401
4950.83600577
4950.69354908
4950.57704942
4950.49085125
4950.43907054
4950.56777952
4950.62827257
4950.72668458
4950.85919411
4951.02521552
4951.21737281
4951.42085714
4951.61395274
4951.77026428
4951.86399244
4951.87861704
4951.80987358
4951.66902109
4951.47874945
4951.26544783
4951.05571584
4950.86957514
4950.72030567
4950.6118695
4950.54700812
4950.65354342
4950.72854591
4950.85206457
4951.02210227
4951.23998693
4951.49739156
4951.77436784
4952.04014322
4952.25739454
4952.38777278
4952.40785339
4952.31305493
4952.12064698
4951.8645145
4951.58188458
4951.30756328
4951.06793649
4950.87880425
4950.74382208
4950.66395556
4950.73652153
4950.82648704
4950.97679792
4951.18797942
4951.46360732
4951.79419366
4952.15488209
4952.50428703
4952.79218965
4952.9646876
4952.99011408
4952.86354873
4952.60984163
4952.27758952
4951.91617668
4951.57021955
4951.27161113
4951.0388328
4950.87514723
4950.7798297
4950.80774702
4950.91156985
4951.08738262
4951.33852515
4951.67058347
4952.0735704
4952.5177735
4952.95156277
4953.31195823
4953.52741053
4953.55867267
4953.40009045
4953.08336873
4952.67374198
4952.23311596
4951.81612007
4951.45982005
4951.1843486
4950.99276788
4950.88252612
4950.85903006
4950.97360665
4951.17015856
4951.4542645
4951.8334388
4952.2971766
4952.8120316
4953.31842028
4953.74282667
4953.99635143
4954.03350786
4953.84780263
4953.47646481
4952.99985829
4952.49123688
4952.01419658
4951.60938552
4951.29842943
4951.08357322
4950.96050353
4950.88335721
4951.00448391
4951.21375615
4951.51793915
4951.92584632
4952.42632498
4952.98356193
4953.53318592
4953.99593847
4954.27226165
4954.31387238
4954.114744
4953.7136376
4953.19771389
4952.64816596
4952.13420998
4951.69922005
4951.36556155
4951.13589037
4951.00466611
4950.87750952
4950.99989698
4951.21166872
4951.51972373
4951.93290008
4952.43947779
4953.00296621
4953.55784945
4954.02825507
4954.30983343
4954.3556577
4954.15952822
4953.75817962
4953.23694896
4952.68054892
4952.1585842
4951.71691347
4951.3767452
4951.14208302
4951.00807399
4950.84226408
4950.95997156
4951.1635904
4951.45898198
4951.85367812
4952.33560571
4952.86965177
4953.39674641
4953.83748129
4954.1051179
4954.1539194
4953.97622753
4953.60575728
4953.11876101
4952.59109859
4952.08985832
4951.6604856
4951.32947343
4951.10145335
4950.96903045
4950.77988672
4950.88932177
4951.07625534
4951.34535034
4951.70215022
4952.13434254
4952.60928533
4953.07429265
4953.46396185
4953.70254643
4953.7517621
4953.60293655
4953.28162833
4952.85153751
4952.37908974
4951.92408277
4951.5310628
4951.22443958
4951.01040354
4950.8867318
4950.69889892
4950.79677783
4950.96160098
4951.19585057
4951.50316843
4951.87146475
4952.27225189
4952.661591
4952.98639762
4953.1871843
4953.23279139
4953.11548229
4952.85242041
4952.49178945
4952.08838066
4951.69377644
4951.34846916
4951.0752968
4950.88235195
4950.77058204
4950.60814121
4950.69279753
4950.83361232
4951.03059235
4951.28548671
4951.58648473
4951.91029327
4952.22196645
4952.48021833
4952.64112336
4952.68035472
4952.59118112
4952.38372143
4952.09250313
4951.76048088
4951.43021111
4951.1361877
4950.90002181
4950.7309851
4950.63279993
4950.51619377
4950.58759968
4950.70571076
4950.86812084
4951.07425222
4951.31429379
4951.56820367
4951.8099822
4952.00880183
4952.13322497
4952.16438263
4952.09650805
4951.93514567
4951.7044888
4951.4367745
4951.16549228
4950.91943121
4950.71825946
4950.57231601
4950.48720376
4950.43084195
4950.49039848
4950.58909308
4950.72283276
4950.88904816
4951.07848683
4951.27565533
4951.46066189
4951.61124513
4951.70517204
4951.72816257
4951.67529852
4951.54886727
4951.36569492
4951.14947088
4950.92639609
4950.72009946
4950.54846989
4950.42251859
4950.34944481
4950.35916081
4950.40869825
4950.49210847
4950.6041152
4950.74067212
4950.89288403
4951.04820266
4951.1915846
4951.30715287
4951.37775413
4951.39353757
4951.35036571
4951.24772112
4951.0980046
4950.91895617
4950.7312328
4950.55468333
4950.40566963
4950.29541796
4950.23211078
4950.30681614
4950.34770398
4950.41954952
4950.51615555
4950.63233844
4950.75965005
4950.88753601
4951.00377802
4951.09593808
4951.15203595
4951.16162817
4951.12583652
4951.03717117
4950.90865158
4950.75377182
4950.58953096
4950.4332667
4950.3000763
4950.20122923
4950.14573067
4950.27930486
4950.31320746
4950.37675363
4950.4635699
4950.56729031
4950.68026032
4950.79319557
4950.89496336
4950.97437053
4951.02162406
4951.02929351
4950.99561569
4950.91538463
4950.79866419
4950.65745177
4950.50666619
4950.36264432
4950.23934191
4950.14830706
4950.09901757
4950.17553615
4950.19382358
4950.22703323
4950.26995958
4950.31835925
4950.36837047
4950.41647633
4950.45947322
4950.49324961
4950.51244632
4950.5127649
4950.49175024
4950.44854637
4950.38808775
4950.31740379
4950.24370279
4950.17356405
4950.11305571
4950.06767494
4950.04354096
4950.20085957
4950.23131224
4950.27823033
4950.33536155
4950.40021626
4950.46858131
4950.53583738
4950.59726667
4950.64640484
4950.67557301
4950.67831162
4950.65126581
4950.59568205
4950.51857703
4950.42928914
4950.33721581
4950.25041774
4950.17536183
4950.11617752
4950.07983356
4950.24832301
4950.29230979
4950.35638934
4950.43345352
4950.52251191
4950.61981173
4950.71950942
4950.81406421
4950.89172456
4950.9400146
4950.94750746
4950.90927735
4950.8310904
4950.72361822
4950.601479
4950.47877977
4950.36631324
4950.27090587
4950.19523787
4950.1459287
4950.31266936
4950.37063723
4950.45466176
4950.55748462
4950.6808651
4950.82269476
4950.97481788
4951.12391677
4951.24833946
4951.32540253
4951.33979938
4951.28440532
4951.1685805
4951.01179791
4950.83729614
4950.66703584
4950.51660196
4950.39354816
4950.29804514
4950.23524577
4950.38865121
4950.46290929
4950.57134106
4950.70861976
4950.88165101
4951.09066659
4951.32311758
4951.55369761
4951.74784337
4951.86746814
4951.88950762
4951.80529607
4951.63148762
4951.40060869
4951.14902525
4950.90893499
4950.70348517
4950.54177471
4950.42052536
4950.34162928
4950.46994088
4950.56244271
4950.69998519
4950.88158838
4951.12103563
4951.4211179
4951.76218074
4952.10371045
4952.39278402
4952.5695272
4952.5986013
4952.47167901
4952.21591669
4951.88362416
4951.52844492
4951.19729725
4950.91995133
4950.7081624
4950.55492587
4950.45748221
4950.54859936
4950.65990135
4950.82954484
4951.06273172
4951.38129727
4951.78944044
4952.26153599
4952.73868979
4953.14617664
4953.39298751
4953.42821043
4953.24368282
4952.88174822
4952.42494005
4951.94673822
4951.50908752
4951.14847027
4950.87951859
4950.69025656
4950.5731277
4950.61557066
4950.74439051
4950.94546647
4951.23083146
4951.62976616
4952.14849864
4952.75620893
4953.37706591
4953.91387242
4954.23540212
4954.27866624
4954.0337111
4953.55505275
4952.96444578
4952.35705001
4951.81026631
4951.36621905
4951.03836173
4950.81297985
4950.67677181
4950.66218244
4950.80502131
4951.03213308
4951.36178739
4951.82993456
4952.44421595
4953.17050561
4953.92147673
4954.58016488
4954.97441824
4955.02689679
4954.72484175
4954.13753192
4953.42356254
4952.69981079
4952.05837742
4951.54245238
4951.16484688
4950.90851974
4950.75648061
4950.68205283
4950.83343612
4951.07644779
4951.43332588
4951.94355557
4952.6152368
4953.41208572
4954.23954602
4954.9706684
4955.40428662
4955.46210414
4955.1332772
4954.48852334
4953.70175192
4952.90845341
4952.20956677
4951.64943606
4951.24038973
4950.96340606
4950.80184435
4950.67214195
4950.82523856
4951.07127461
4951.43310868
4951.95031752
4952.63000821
4953.43520526
4954.27160956
4955.0126742
4955.45304047
4955.51711121
4955.19649058
4954.55367966
4953.75918488
4952.95571938
4952.24467043
4951.6735795
4951.25488469
4950.96978395
4950.80477427
4950.63344121
4950.78056377
4951.01566671
4951.35970412
4951.84845822
4952.48687876
4953.23792524
4954.0155212
4954.69972067
4955.11173156
4955.18191133
4954.89767575
4954.3192811
4953.58689169
4952.83507879
4952.15849843
4951.609742
4951.20431312
4950.92875033
4950.76386332
4950.56932283
4950.70482165
4950.91829348
4951.22591725
4951.6580032
4952.21642831
4952.86513591
4953.52981976
4954.11049928
4954.46504113
4954.53876131
4954.31373662
4953.83253829
4953.21050938
4952.55577097
4951.9531991
4951.45736094
4951.08527011
4950.82820016
4950.67349278
4950.48759955
4950.60780508
4950.79324141
4951.05411833
4951.41408403
4951.87311318
4952.39961785
4952.93299443
4953.39387509
4953.67836529
4953.74530584
4953.58301649
4953.21292664
4952.71490922
4952.17515056
4951.66697431
4951.24116862
4950.91550115
4950.68539384
4950.54543256
4950.39712488
4950.50057223
4950.65696528
4950.87014009
4951.15680086
4951.51558135
4951.92092371
4952.32670845
4952.67369564
4952.89095239
4952.94810385
4952.83640076
4952.56368724
4952.18191687
4951.75590117
4951.34538316
4950.99292998
4950.71637944
4950.51617141
4950.3932572
4950.30626842
4950.39323114
4950.5235516
4950.69562926
4950.91877883
4951.19097251
4951.49226603
4951.78959267
4952.04173977
4952.20222003
4952.2471996
4952.16941293
4951.97055462
4951.68411333
4951.35584164
4951.03104423
4950.74374933
4950.51117084
4950.33893734
4950.23302681
4950.22212522
4950.29414296
4950.40283581
4950.54325978
4950.71842543
4950.92400061
4951.14519959
4951.35906961
4951.53871744
4951.65419881
4951.68715174
4951.63079637
4951.48398334
4951.26769277
4951.01336412
4950.75428086
4950.51742398
4950.32004997
4950.17157546
4950.08118369
4950.15100854
4950.20982354
4950.30092461
4950.41801793
4950.55981574
4950.71987626
4950.88620964
4951.04292614
4951.17274331
4951.25575763
4951.27836355
4951.23398843
4951.1198296
4950.94946679
4950.74466611
4950.53041199
4950.32918489
4950.15821595
4950.02899749
4949.95187495
4950.0985322
4950.14470101
4950.22091147
4950.32032368
4950.43906595
4950.56975706
4950.70216876
4950.82421038
4950.92323967
4950.9853567
4951.00043843
4950.96264771
4950.86722388
4950.72413935
4950.54978632
4950.36421599
4950.18723203
4950.03571211
4949.92201025
4949.85691152
4950.07075084
4950.1058134
4950.16989888
4950.25661274
4950.35996956
4950.47293258
4950.58647625
4950.69021592
4950.77333048
4950.82296149
4950.83571084
4950.80022657
4950.71493679
4950.58663416
4950.42970551
4950.26148949
4950.10028837
4949.96221081
4949.86055157
4949.80593656
4949.96486284
4949.98160616
4950.01001772
4950.04393487
4950.07857811
4950.1107359
4950.13912711
4950.16441825
4950.18571326
4950.1994743
4950.20055075
4950.18496228
4950.14950222
4950.09852689
4950.03806664
4949.9737413
4949.9104177
4949.85330811
4949.80864306
4949.783965
4949.98966768
4950.02322145
4950.07038038
4950.12303778
4950.1782788
4950.23248875
4950.28353661
4950.3312015
4950.37210917
4950.398384
4950.4030694
4950.38027067
4950.3290675
4950.25700766
4950.17379037
4950.08730373
4950.00338941
4949.92746992
4949.86405521
4949.82234064
4950.03466357
4950.08685964
4950.15581853
4950.23099735
4950.31108482
4950.39457074
4950.48008118
4950.56654701
4950.64345259
4950.6947608
4950.70733636
4950.67168915
4950.59206103
4950.48271314
4950.36088684
4950.2406042
4950.12966112
4950.03182626
4949.94860984
4949.88923911
4950.09447492
4950.16538085
4950.25716647
4950.35756374
4950.47061438
4950.6015627
4950.74850823
4950.90540221
4951.04559757
4951.13697232
4951.16072273
4951.10136931
4950.97196415
4950.79852467
4950.61084949
4950.43493273
4950.28360011
4950.15838312
4950.05406381
4949.97748775
4950.16431638
4950.25613254
4950.37396005
4950.50807295
4950.67494841
4950.89013228
4951.14717581
4951.41937328
4951.66083832
4951.81428395
4951.85026861
4951.7477593
4951.53347101
4951.25404562
4950.95958685
4950.69258189
4950.47521659
4950.30841471
4950.17711477
4950.0810296
4950.23878711
4950.35327385
4950.50225371
4950.68443103
4950.93291895
4951.2759459
4951.69555613
4952.13901692
4952.53081848
4952.77543424
4952.81977881
4952.64685604
4952.3012377
4951.86411817
4951.41458478
4951.01785949
4950.70563072
4950.47869035
4950.3116821
4950.1934731
4950.31043672
4950.44799667
4950.63240302
4950.87597482
4951.23290465
4951.73647609
4952.36640411
4953.03610178
4953.63480391
4954.00353156
4954.05339122
4953.76971544
4953.23320003
4952.58811908
4951.94371488
4951.3874725
4950.95996534
4950.65845493
4950.44839896
4950.30627909
4950.37041651
4950.52916969
4950.74940012
4951.05856543
4951.52959171
4952.20439543
4953.06117158
4953.98643078
4954.82815668
4955.32953959
4955.39263848
4954.994514
4954.23038339
4953.34512804
4952.48491482
4951.75847353
4951.20832749
4950.82905443
4950.57400983
4950.40834299
4950.41018309
4950.58544814
4950.83585772
4951.20302856
4951.7763508
4952.60463308
4953.667525
4954.83982332
4955.94571942
4956.59652185
4956.67967292
4956.15354969
4955.14539626
4954.01849968
4952.9500988
4952.07249516
4951.41509836
4950.96758604
4950.67311316
4950.48748815
4950.42397327
4950.60902184
4950.8780709
4951.28061908
4951.91581311
4952.83515438
4954.02050596
4955.33391005
4956.58497963
4957.29347151
4957.38671787
4956.81115535
4955.69541578
4954.42196342
4953.22912104
4952.26223379
4951.54139632
4951.05180136
4950.73183269
4950.53229781
4950.40902391
4950.59579572
4950.86821053
4951.27708907
4951.92160429
4952.85157751
4954.04934076
4955.3763761
4956.6473897
4957.36712155
4957.46621343
4956.91224571
4955.810347
4954.50814354
4953.29891673
4952.31246786
4951.57577944
4951.07226158
4950.74145645
4950.53514956
4950.36657163
4950.54562386
4950.80391262
4951.18854369
4951.78955109
4952.64992867
4953.74464675
4954.95448761
4956.09338774
4956.77246448
4956.88774321
4956.38525363
4955.4168648
4954.25573584
4953.14565077
4952.21352381
4951.50905172
4951.02072199
4950.695397
4950.49152912
4950.30038576
4950.46467387
4950.69600361
4951.03191413
4951.54871449
4952.27918752
4953.19008698
4954.17994316
4955.09802414
4955.64100711
4955.75555576
4955.41109521
4954.6457318
4953.70576993
4952.76975503
4951.95629151
4951.33057073
4950.88746615
4950.58503685
4950.39227884
4950.21864194
4950.36419205
4950.56213503
4950.83676413
4951.24871073
4951.82251922
4952.52754681
4953.28026923
4953.96219233
4954.37492614
4954.47801349
4954.25136317
4953.71327141
4953.00224541
4952.26068618
4951.59609471
4951.07380954
4950.6934161
4950.42395307
4950.24791603
4950.12979639
4950.25537333
4950.42142819
4950.63779205
4950.94805022
4951.37092609
4951.88179834
4952.41975183
4952.89845665
4953.19546236
4953.28211771
4953.14808558
4952.78524579
4952.27333816
4951.71586178
4951.20200553
4950.78366225
4950.46624247
4950.23164438
4950.07580849
4950.04094719
4950.14689728
4950.28691685
4950.45928913
4950.68842405
4950.99005925
4951.34463533
4951.71174347
4952.03597392
4952.24507833
4952.31204513
4952.22990599
4951.98545104
4951.62586638
4951.21968627
4950.83130704
4950.49944002
4950.23329087
4950.02954093
4949.89458476
4949.95785871
4950.04536939
4950.16459621
4950.30793719
4950.48485314
4950.70049236
4950.9427163
4951.18677917
4951.40096671
4951.543942
4951.59256951
4951.53886128
4951.37128813
4951.11587772
4950.81611395
4950.51570844
4950.24420564
4950.01583756
4949.83787982
4949.72293605
4949.88613632
4949.95648264
4950.05728829
4950.17989587
4950.32471809
4950.48870632
4950.66166718
4950.82855156
4950.97286542
4951.07091261
4951.10421164
4951.06333189
4950.93872195
4950.74478462
4950.50904914
4950.26218898
4950.02942275
4949.82888476
4949.67337565
4949.57695354
4949.83205811
4949.88509674
4949.96778591
4950.0718286
4950.19353092
4950.32630404
4950.46047323
4950.58520888
4950.69009675
4950.7607821
4950.78243455
4950.74633595
4950.64286005
4950.48158778
4950.28164742
4950.06701596
4949.86093058
4949.68314605
4949.54831457
4949.47006124
4949.80297862
4949.84032602
4949.90631384
4949.99390463
4950.09680436
4950.2083986
4950.32038715
4950.42385276
4950.50976626
4950.56789534
4950.58066277
4950.54703509
4950.45334037
4950.30915608
4950.12996795
4949.93667561
4949.75089408
4949.59184621
4949.47521344
4949.41317805
4949.71584479
4949.73190642
4949.75550174
4949.7788473
4949.79565435
4949.80247435
4949.80047929
4949.79695329
4949.79768214
4949.80209879
4949.804777
4949.79921655
4949.77771356
4949.74323486
4949.70017117
4949.65051478
4949.59594854
4949.5412506
4949.49452628
4949.46641671
4949.74063246
4949.77818463
4949.82693735
4949.87558305
4949.91827585
4949.95006666
4949.97182864
4949.99283833
4950.01772036
4950.03737891
4950.04548009
4950.03175669
4949.99097232
4949.93116923
4949.86223807
4949.78820088
4949.70976196
4949.6312735
4949.56012835
4949.50978204
4949.78246775
4949.84523324
4949.92203256
4949.9953251
4950.05833035
4950.11061528
4950.15942315
4950.21898135
4950.28855549
4950.33866738
4950.36042136
4950.33327786
4950.25998028
4950.15877674
4950.05002457
4949.94507564
4949.84443944
4949.74643586
4949.65358407
4949.58005551
4949.83593597
4949.92450675
4950.02682591
4950.11885776
4950.20168435
4950.29307638
4950.40793909
4950.55074658
4950.69966883
4950.80435033
4950.84624074
4950.78898941
4950.6541561
4950.47433882
4950.2874032
4950.12542785
4949.99100495
4949.87424124
4949.76322144
4949.668291
4949.89705892
4950.01312331
4950.13947821
4950.25345852
4950.38266057
4950.5711261
4950.83043223
4951.13513139
4951.4267168
4951.61745944
4951.68247355
4951.563466
4951.30996563
4950.98385223
4950.65421318
4950.3765138
4950.16958705