/*--------------------------------*- C++ -*----------------------------------*\
| =========                 |                                                 |
| \\      /  F ield         | OpenFOAM: The Open Source CFD Toolbox           |
|  \\    /   O peration     | Version:  3.0.1                                 |
|   \\  /    A nd           | Web:      www.OpenFOAM.org                      |
|    \\/     M anipulation  |                                                 |
\*---------------------------------------------------------------------------*/
FoamFile
{
    version     2.0;
    format      ascii;
    class       surfaceScalarField;
    location    "0.6";
    object      phi;
}
// * * * * * * * * * * * * * * * * * * * * * * * * * * * * * * * * * * * * * //

dimensions      [0 3 -1 0 0 0 0];

internalField   nonuniform List<scalar> 
22672
(
9.58847953777e-08
7.90828205223e-08
-1.7479591329e-07
4.29651005973e-07
8.62476720629e-08
-4.19817267527e-07
8.0176446557e-07
8.58696159894e-08
-4.57778185807e-07
1.09770104158e-06
9.41219537228e-08
-3.89850084544e-07
1.27454152184e-06
1.15082966585e-07
-2.91712118463e-07
1.31216736296e-06
1.44729953766e-07
-1.82141288527e-07
1.21596100722e-06
1.71728910918e-07
-7.53044778114e-08
1.00344324269e-06
1.94885680737e-07
1.78539626236e-08
6.94920534041e-07
2.06208594278e-07
1.02539857565e-07
3.34836839508e-07
2.08876783614e-07
1.51436572146e-07
-2.88918036442e-08
2.03615789824e-07
1.60346573389e-07
-3.55631384633e-07
1.92883883058e-07
1.34093558496e-07
-6.06270487222e-07
1.76498707363e-07
7.43820194849e-08
-7.54759879364e-07
1.54818266651e-07
-6.08474798887e-09
-7.88158470186e-07
1.30519289671e-07
-9.68762834423e-08
-6.98844019612e-07
1.05960585777e-07
-1.95032942954e-07
-5.00613713542e-07
9.14507579661e-08
-2.89443262137e-07
-2.34959489787e-07
8.97433789812e-08
-3.55160496869e-07
1.64864266895e-09
8.8306958894e-08
-3.24664059502e-07
8.53394347663e-08
-8.3514174918e-08
9.85157350544e-08
4.01801958987e-07
-4.21035290988e-07
4.42700137556e-07
4.24557490595e-07
-6.82271338233e-07
8.31395432531e-07
4.42333024104e-07
-7.44928058772e-07
1.14546134684e-06
4.72745314807e-07
-6.92455341035e-07
1.33108592858e-06
5.21652876287e-07
-5.91958372274e-07
1.3693713116e-06
5.80233494266e-07
-4.73551213608e-07
1.26331671677e-06
6.30398468297e-07
-3.52376337076e-07
1.0325317399e-06
6.6868974778e-07
-2.4278019289e-07
7.06437627696e-07
6.90819081662e-07
-1.58277458711e-07
3.2856357086e-07
6.96268768433e-07
-1.09278485734e-07
-5.28456681859e-08
6.8662288286e-07
-1.01356552879e-07
-3.93528776427e-07
6.65362659362e-07
-1.31550747634e-07
-6.57130548681e-07
6.34324940607e-07
-1.93974495066e-07
-8.15606369674e-07
5.95844443539e-07
-2.8229500024e-07
-8.47808446796e-07
5.51490449652e-07
-3.88509314622e-07
-7.49404530413e-07
5.07267952544e-07
-4.99448887691e-07
-5.2914089093e-07
4.68818845534e-07
-5.97368350592e-07
-2.38190468637e-07
4.48677854751e-07
-6.49618218951e-07
8.35521655255e-09
4.34068102961e-07
-5.9202725187e-07
4.26010455394e-07
-3.32120858792e-07
9.58549640803e-08
7.67751592282e-07
-4.61588238902e-07
4.57617832822e-07
8.08906175453e-07
-7.45871066575e-07
8.71831159546e-07
8.49671263698e-07
-8.21303445853e-07
1.20338659541e-06
9.07769388116e-07
-7.66329185315e-07
1.3944844445e-06
9.79319644556e-07
-6.48514819768e-07
1.42767093147e-06
1.05266050933e-06
-5.0536697578e-07
1.30779890282e-06
1.11156487954e-06
-3.61053921816e-07
1.05812449874e-06
1.1510414088e-06
-2.32444882311e-07
7.12811519918e-07
1.17023533017e-06
-1.33879288277e-07
3.17619433464e-07
1.17086326545e-06
-7.91848257808e-08
-7.86315916164e-08
1.15721977522e-06
-7.41305161421e-08
-4.30985043432e-07
1.13121571254e-06
-1.13281089471e-07
-7.04513889163e-07
1.0971561128e-06
-1.89075452281e-07
-8.71144547954e-07
1.05706036481e-06
-2.94346347927e-07
-9.06730586011e-07
1.00786486704e-06
-4.20535900089e-07
-7.9994921158e-07
9.53733113557e-07
-5.52980818851e-07
-5.63395827509e-07
9.00065259232e-07
-6.67522228292e-07
-2.52613075297e-07
8.59732260557e-07
-7.21546382502e-07
4.65140664819e-09
8.26608303977e-07
-6.49493862663e-07
7.95832764321e-07
-3.64953348449e-07
1.02818275319e-07
1.06113976116e-06
-3.95973942772e-07
4.87976853485e-07
1.11993455784e-06
-6.95928884775e-07
9.28496062056e-07
1.17784912662e-06
-7.68432122137e-07
1.27803303486e-06
1.25014852542e-06
-6.91652065018e-07
1.47023072658e-06
1.32785611668e-06
-5.40476856593e-07
1.49267742596e-06
1.39399624386e-06
-3.63538092796e-07
1.35512113228e-06
1.43889078553e-06
-1.89543965945e-07
1.08442752425e-06
1.46097118931e-06
-3.90326262064e-08
7.17882513442e-07
1.46609735225e-06
7.08649421862e-08
3.03739460399e-07
1.45660274432e-06
1.28568988561e-07
-1.06482299841e-07
1.43907613824e-06
1.28523190942e-07
-4.70362317955e-07
1.41649321423e-06
7.87636626038e-08
-7.53552880874e-07
1.39085170416e-06
-1.0329811506e-08
-9.26542131263e-07
1.36315462924e-06
-1.32907273037e-07
-9.6621166153e-07
1.32907771531e-06
-2.81317933396e-07
-8.56696080737e-07
1.28526135506e-06
-4.40789009394e-07
-6.07436597153e-07
1.23361160874e-06
-5.82522680889e-07
-2.74021291424e-07
1.1830711047e-06
-6.56442817434e-07
4.70185217147e-10
1.13926077795e-06
-5.86801525793e-07
1.08741772996e-06
-2.90874376691e-07
1.23223657945e-07
1.24118990948e-06
-3.03023316083e-07
5.35593640516e-07
1.30846873681e-06
-6.00627138254e-07
9.9934125014e-07
1.3713066226e-06
-6.56923632064e-07
1.35596355836e-06
1.44250066674e-06
-5.48700130469e-07
1.5395090528e-06
1.5073145109e-06
-3.62747120253e-07
1.53977622389e-06
1.55112624026e-06
-1.57168694182e-07
1.37894607476e-06
1.56605974374e-06
3.3852463176e-08
1.08788528967e-06
1.55936093943e-06
1.92821004106e-07
7.07180536558e-07
1.53986709523e-06
3.07046455583e-07
2.85001455757e-07
1.51559080702e-06
3.63273882476e-07
-1.29447416774e-07
1.49670673979e-06
3.56887997517e-07
-4.94919423295e-07
1.48418226562e-06
2.97857529217e-07
-7.80539562373e-07
1.47762582897e-06
1.98942736785e-07
-9.61989670607e-07
1.47584197333e-06
6.88956907831e-08
-1.0114320877e-06
1.46771335434e-06
-8.90146762419e-08
-9.08536395863e-07
1.44802847788e-06
-2.65434238153e-07
-6.54593419761e-07
1.41242373013e-06
-4.32477180476e-07
-3.06603661352e-07
1.36720154155e-06
-5.31795172594e-07
-1.24962008725e-08
1.32293216917e-06
-4.77409420889e-07
1.26247699217e-06
-1.87295716471e-07
1.48124396952e-07
1.29570126223e-06
-2.02365982775e-07
5.86740266525e-07
1.36068918509e-06
-4.90540201218e-07
1.06549562874e-06
1.41973716713e-06
-5.26890050076e-07
1.41910726118e-06
1.47702434817e-06
-3.87856464542e-07
1.5801307914e-06
1.52210696681e-06
-1.75570147014e-07
1.55571870423e-06
1.53446881464e-06
4.12667337624e-08
1.37346435301e-06
1.51872119005e-06
2.2972999154e-07
1.07152084441e-06
1.48064431833e-06
3.8073365354e-07
6.86794080205e-07
1.43778880413e-06
4.86821821863e-07
2.6601351551e-07
1.40096546719e-06
5.35382337405e-07
-1.43828106278e-07
1.38288441318e-06
5.23623058059e-07
-5.03817565914e-07
1.38418443322e-06
4.59954500291e-07
-7.87044637211e-07
1.40076719004e-06
3.60084934342e-07
-9.7038727702e-07
1.42442423801e-06
2.34811252203e-07
-1.03195440136e-06
1.44498968754e-06
8.44071656455e-08
-9.41643879745e-07
1.44979622408e-06
-9.18891096187e-08
-6.94401214227e-07
1.43664723621e-06
-2.71204404375e-07
-3.39894731284e-07
1.40490970612e-06
-3.91884946766e-07
-2.97586305089e-08
1.36875654567e-06
-3.55572313113e-07
1.31116037994e-06
-7.81687257659e-08
1.7343336659e-07
1.22498578914e-06
-1.02428973584e-07
6.31311112794e-07
1.28240210786e-06
-3.79277023794e-07
1.1201023265e-06
1.32732169551e-06
-3.96069339091e-07
1.45908164442e-06
1.37069281081e-06
-2.32371291089e-07
1.59518285244e-06
1.39216068489e-06
-5.93022421933e-09
1.54051752871e-06
1.38238246469e-06
2.06904663495e-07
1.33766073531e-06
1.34373902043e-06
3.77907437328e-07
1.02797678464e-06
1.28401053276e-06
5.06300651703e-07
6.50921711437e-07
1.22299263325e-06
5.91760931614e-07
2.46866196981e-07
1.17837845405e-06
6.26502671525e-07
-1.44395826175e-07
1.16317153674e-06
6.10815967216e-07
-4.88443767512e-07
1.1780584503e-06
5.50027989211e-07
-7.64311260723e-07
1.21544224935e-06
4.61089015814e-07
-9.50389851358e-07
1.25851313301e-06
3.51953189221e-07
-1.0244596969e-06
1.30026017532e-06
2.18847606493e-07
-9.52836040762e-07
1.322651203e-06
5.56644368448e-08
-7.19280600685e-07
1.32782574006e-06
-1.24495658118e-07
-3.66149231608e-07
1.31029607585e-06
-2.58191444988e-07
-4.48582769042e-08
1.28491377837e-06
-2.37050367528e-07
1.24196392757e-06
2.46188449017e-08
1.96003025002e-07
1.04301320757e-06
-1.37240256064e-08
6.6959949649e-07
1.08585308214e-06
-2.7671924566e-07
1.15700593342e-06
1.11589958813e-06
-2.75671867944e-07
1.47824048431e-06
1.14303429535e-06
-9.33078572499e-08
1.58430342899e-06
1.14636591075e-06
1.3992863937e-07
1.50005375687e-06
1.12486416139e-06
3.41870504571e-07
1.2776085745e-06
1.07751845258e-06
4.88661592785e-07
9.67554084697e-07
1.01034516116e-06
5.8361181483e-07
6.07014541804e-07
9.47850680068e-07
6.35488073414e-07
2.3116017934e-07
9.04022001325e-07
6.49962553508e-07
-1.32002641594e-07
8.94533850892e-07
6.31534017055e-07
-4.53051940292e-07
9.16890774498e-07
5.81969228275e-07
-7.18410462547e-07
9.64286297674e-07
5.16318903812e-07
-9.10135401638e-07
1.01703824265e-06
4.33084286418e-07
-9.97786319359e-07
1.06512735907e-06
3.22769231326e-07
-9.46665775992e-07
1.0943217993e-06
1.77307827592e-07
-7.28421666752e-07
1.10818475289e-06
1.61019215929e-09
-3.81602420031e-07
1.10344568777e-06
-1.3965076477e-07
-5.42517598586e-08
1.08930826197e-06
-1.31345044635e-07
1.06094500607e-06
1.27050164052e-07
2.08158166183e-07
7.69442212392e-07
6.57337847059e-08
6.93350768938e-07
7.91707821389e-07
-1.9070833493e-07
1.17746869047e-06
8.06723949291e-07
-1.74627659799e-07
1.48249174226e-06
8.17051863143e-07
2.12161539655e-08
1.56085684554e-06
8.10193463239e-07
2.57975403746e-07
1.45091339039e-06
7.86582342616e-07
4.48280420246e-07
1.21189324719e-06
7.45176068238e-07
5.71294204199e-07
9.02622004437e-07
6.91634315645e-07
6.27797560752e-07
5.63381502359e-07
6.44843941667e-07
6.41970683833e-07
2.21289323449e-07
6.12955324978e-07
6.32826102956e-07
-1.0859009472e-07
6.09922331208e-07
6.14142617254e-07
-4.06261254752e-07
6.31088865168e-07
5.83148898512e-07
-6.66627558401e-07
6.71826733667e-07
5.52561379129e-07
-8.64212973777e-07
7.16329699924e-07
4.98119074458e-07
-9.6472738577e-07
7.56431669325e-07
4.09147983402e-07
-9.31635713224e-07
7.84047737504e-07
2.7724713248e-07
-7.27468986772e-07
8.00814956177e-07
1.03395790133e-07
-3.87890859409e-07
8.07105444708e-07
-4.29287678138e-08
-5.92643687085e-08
8.06532143249e-07
-4.54524742055e-08
7.97004754179e-07
2.04957922836e-07
2.14441195499e-07
4.34913802825e-07
1.2041887422e-07
7.03501599691e-07
4.3675016263e-07
-1.33756772848e-07
1.18374683358e-06
4.34347912736e-07
-1.07554801147e-07
1.47485172023e-06
4.28906342083e-07
9.72867421077e-08
1.53458138018e-06
4.16520181895e-07
3.34088613985e-07
1.40819087262e-06
3.97768548341e-07
5.15224239776e-07
1.15952859886e-06
3.73366644433e-07
6.20358596913e-07
8.5459237735e-07
3.46240829032e-07
6.50094840907e-07
5.33824381819e-07
3.2738793591e-07
6.37895612953e-07
2.16386673546e-07
3.17100004689e-07
6.1290998991e-07
-8.75010621888e-08
3.19508340472e-07
5.93906358718e-07
-3.66180331183e-07
3.29112195999e-07
5.80288745824e-07
-6.1997444267e-07
3.48444084835e-07
5.76873865653e-07
-8.22568909411e-07
3.73488683168e-07
5.45227658346e-07
-9.34465410631e-07
3.98445019036e-07
4.69794610681e-07
-9.13313445405e-07
4.20272638757e-07
3.42668732069e-07
-7.19623308835e-07
4.39875873591e-07
1.6742962322e-07
-3.86040235939e-07
4.5798364075e-07
1.58413447252e-08
-5.81283403057e-08
4.73748309904e-07
5.26588100284e-09
4.85408832003e-07
2.5374691191e-07
2.13425173699e-07
8.31013176531e-08
1.38725381905e-07
7.01236750998e-07
6.4304547948e-08
-1.15016550117e-07
1.17769048304e-06
4.4619638998e-08
-8.64119745451e-08
1.46298121245e-06
2.38679643577e-08
1.19987293629e-07
1.51563075256e-06
8.08825736462e-09
3.55915183371e-07
1.38421162571e-06
-3.99433183355e-09
5.3318529525e-07
1.13437604604e-06
-8.30234623562e-09
6.31372775456e-07
8.34654651414e-07
-5.72429874471e-09
6.51433541899e-07
5.23664387932e-07
6.82315212365e-09
6.31211000996e-07
2.17358481608e-07
2.06687987411e-08
6.02341543043e-07
-7.66210112279e-08
2.86194585742e-08
5.8446329688e-07
-3.46708270053e-07
2.61380146048e-08
5.72686682846e-07
-5.95489457772e-07
2.20429519068e-08
5.74873488934e-07
-7.98183409207e-07
2.50043054071e-08
5.50965988815e-07
-9.12305451585e-07
3.37634547297e-08
4.78711886661e-07
-8.93453951867e-07
5.10114286437e-08
3.504531849e-07
-7.02327576657e-07
7.39462180312e-08
1.74982221192e-07
-3.73078869306e-07
1.03203075022e-07
2.58320864628e-08
-5.18745347342e-08
1.33510063982e-07
1.9423791604e-08
1.66384548034e-07
2.67425493087e-07
2.04135056161e-07
-2.38219938008e-07
1.17526107949e-07
6.84032649946e-07
-2.77243954542e-07
-1.37999498669e-07
1.15725605727e-06
-3.12822405318e-07
-1.15468385147e-07
1.44530800555e-06
-3.49563129614e-07
8.5618472954e-08
1.50515573125e-06
-3.70473009645e-07
3.18847495272e-07
1.3822498218e-06
-3.78058601728e-07
4.96977791435e-07
1.14093301676e-06
-3.65818695604e-07
5.98710442016e-07
8.48717477136e-07
-3.3903123181e-07
6.25284133145e-07
5.39072962888e-07
-3.02614306458e-07
6.1875776146e-07
2.24502791899e-07
-2.7054236233e-07
6.05409430685e-07
-7.93562012258e-08
-2.56550854045e-07
5.88649923934e-07
-3.52140794214e-07
-2.64223575021e-07
5.62797439791e-07
-5.95758912181e-07
-2.79447638761e-07
5.44824801057e-07
-7.90230146093e-07
-2.91197080364e-07
5.10482875972e-07
-8.96126887576e-07
-2.91961286076e-07
4.31548760212e-07
-8.68558330572e-07
-2.76443855703e-07
2.99944281053e-07
-6.73538098278e-07
-2.50136475095e-07
1.29249484773e-07
-3.47292232684e-07
-2.11584126994e-07
-1.11567454927e-08
-3.74112677789e-08
-1.69570387322e-07
-6.4144522023e-09
-1.15995045513e-07
2.45239786717e-07
1.89424415862e-07
-4.92316097336e-07
6.50085931169e-08
6.56168408412e-07
-5.49336530705e-07
-1.94305024225e-07
1.12769458082e-06
-5.99574315173e-07
-1.84461370509e-07
1.42401584615e-06
-6.51142532319e-07
5.50321364586e-09
1.50076244022e-06
-6.82485395579e-07
2.3541372115e-07
1.39546553177e-06
-6.9181693098e-07
4.19086791933e-07
1.1702948786e-06
-6.75610450373e-07
5.34874157114e-07
8.8487297512e-07
-6.38405564157e-07
5.84601928346e-07
5.69596125237e-07
-5.95173324708e-07
6.0756300325e-07
2.38744747613e-07
-5.56963378279e-07
6.16956210507e-07
-8.42885930243e-08
-5.37205340397e-07
6.03365579113e-07
-3.67796710681e-07
-5.3891809057e-07
5.57909822344e-07
-6.08105223225e-07
-5.49994771641e-07
5.1062411477e-07
-7.92145891951e-07
-5.60816329278e-07
4.53516645914e-07
-8.85168451299e-07
-5.59040986569e-07
3.60067680329e-07
-8.43158661842e-07
-5.39513620273e-07
2.21145171157e-07
-6.40731594279e-07
-5.06345838078e-07
5.39852361536e-08
-3.18075620684e-07
-4.58269205987e-07
-7.56643756576e-08
-2.261920518e-08
-4.0733018731e-07
-5.73145977807e-08
-3.38911847535e-07
2.00563956288e-07
1.67120821537e-07
-6.49670065885e-07
-9.43832411279e-09
6.15790997689e-07
-7.20663150028e-07
-2.7700420543e-07
1.08389076496e-06
-7.82996781259e-07
-2.84365006454e-07
1.39276005859e-06
-8.48353754059e-07
-1.11402928552e-07
1.49407360227e-06
-8.96463750683e-07
1.12836720286e-07
1.41395414463e-06
-9.16848419475e-07
3.05222126133e-07
1.20809818636e-06
-9.08694814438e-07
4.38907063507e-07
9.30433430817e-07
-8.75957464125e-07
5.15090425052e-07
6.07063230928e-07
-8.36656443678e-07
5.64657933799e-07
2.57967523786e-07
-7.99534015542e-07
5.91432841661e-07
-8.46312133632e-08
-7.76464081086e-07
5.81619076555e-07
-3.80324913685e-07
-7.67328199879e-07
5.23892354563e-07
-6.17986657589e-07
-7.65319095364e-07
4.52829934451e-07
-7.91335598018e-07
-7.62360041276e-07
3.74815330512e-07
-8.67286587253e-07
-7.49240854587e-07
2.66169406193e-07
-8.098072692e-07
-7.17583249898e-07
1.20713170093e-07
-6.00746374284e-07
-6.7214562431e-07
-4.30369691268e-08
-2.82684478473e-07
-6.15943268713e-07
-1.60075209571e-07
-3.51434829213e-09
-5.58145918994e-07
-1.27977098624e-07
-4.77998770827e-07
1.35833125448e-07
1.39835092433e-07
-6.95193828644e-07
-9.39964205667e-08
5.63883017824e-07
-7.67353860903e-07
-3.7702902537e-07
1.02462362648e-06
-8.37551901758e-07
-4.05875450296e-07
1.34545841338e-06
-9.10579108871e-07
-2.58342324552e-07
1.47272044186e-06
-9.76046857509e-07
-4.74768721076e-08
1.42226104354e-06
-1.01490844252e-06
1.48640796943e-07
1.23856895779e-06
-1.02450697461e-06
2.99540533351e-07
9.69014222746e-07
-1.0064702293e-06
4.0002706231e-07
6.41435371633e-07
-9.79387904034e-07
4.70212269369e-07
2.82251009703e-07
-9.48403706135e-07
5.07924160954e-07
-7.21010167016e-08
-9.23200101342e-07
5.0095436405e-07
-3.77068929266e-07
-9.00674319933e-07
4.38203570278e-07
-6.14996448732e-07
-8.81397551838e-07
3.53942491868e-07
-7.77059915043e-07
-8.60474735967e-07
2.60180706085e-07
-8.37618212769e-07
-8.30076079724e-07
1.41475240782e-07
-7.653965467e-07
-7.83625147635e-07
-6.01306965771e-09
-5.50566190938e-07
-7.25993067454e-07
-1.60734681306e-07
-2.40661093764e-07
-6.65150350344e-07
-2.60378689261e-07
1.48890493627e-08
-6.01874318454e-07
-2.11449575096e-07
-5.17701813376e-07
5.48467552917e-08
1.11166237234e-07
-6.21417889371e-07
-1.8464531474e-07
5.11618057768e-07
-6.85877379729e-07
-4.81614790032e-07
9.55415734941e-07
-7.47369872795e-07
-5.33674036848e-07
1.28347030263e-06
-8.20224123522e-07
-4.18130588948e-07
1.43317627146e-06
-8.92181608161e-07
-2.33336629844e-07
1.41214740778e-06
-9.47708038814e-07
-4.59948141342e-08
1.25255661985e-06
-9.7627020498e-07
1.11467691142e-07
9.96119164119e-07
-9.78450321328e-07
2.28473042599e-07
6.69934975028e-07
-9.67044440546e-07
3.13851824588e-07
3.08178651974e-07
-9.44906556767e-07
3.58245495458e-07
-4.89445057483e-08
-9.19406444374e-07
3.53312944587e-07
-3.56553203794e-07
-8.86138964735e-07
2.9307506871e-07
-5.92044636248e-07
-8.52630208992e-07
2.06762392761e-07
-7.44813223225e-07
-8.14343453372e-07
1.06726322562e-07
-7.91924599133e-07
-7.68900544734e-07
-1.39151851724e-08
-7.09437175254e-07
-7.11256374475e-07
-1.54643618372e-07
-4.9447866518e-07
-6.49127677013e-07
-2.91550832313e-07
-2.00521128083e-07
-5.90508508236e-07
-3.68273108646e-07
3.37814397176e-08
-5.33367778397e-07
-3.02441608249e-07
-4.57435946266e-07
-2.62349150699e-08
9.1593169147e-08
-4.39169954922e-07
-2.73564555478e-07
4.62207368539e-07
-4.81887943917e-07
-5.74306495041e-07
8.853237284e-07
-5.25907767094e-07
-6.44278625775e-07
1.21037966602e-06
-5.8407959956e-07
-5.60910923555e-07
1.37640588343e-06
-6.48000740073e-07
-4.09940981606e-07
1.38090660681e-06
-7.06895137319e-07
-2.45082194848e-07
1.24652679663e-06
-7.45987041963e-07
-9.57124886272e-08
1.00603432106e-06
-7.62136004963e-07
2.43298169539e-08
6.89415623499e-07
-7.64260376278e-07
1.13955344107e-07
3.34896195508e-07
-7.51541020878e-07
1.61256788606e-07
-1.57241121149e-08
-7.29123934041e-07
1.60438172058e-07
-3.20930783017e-07
-6.9048414422e-07
1.0966462107e-07
-5.52405103689e-07
-6.52381238698e-07
3.13632019416e-08
-6.95875571029e-07
-6.07754784329e-07
-6.29458218656e-08
-7.32954185632e-07
-5.56704410129e-07
-1.74904696559e-07
-6.45953973985e-07
-4.99994893861e-07
-2.98006180976e-07
-4.39330770139e-07
-4.4563561006e-07
-4.09819195951e-07
-1.63634648273e-07
-4.02233108072e-07
-4.63638702632e-07
5.27030067704e-08
-3.62695879851e-07
-3.8664581691e-07
-3.02960074347e-07
-1.01527595265e-07
8.57499979049e-08
-1.90948825912e-07
-3.33709748998e-07
4.3278182449e-07
-2.0659484442e-07
-6.22039949582e-07
8.31366835985e-07
-2.28592975735e-07
-6.95602624512e-07
1.14357785286e-06
-2.61345162438e-07
-6.34643908862e-07
1.31470386331e-06
-3.04440750199e-07
-5.14389298583e-07
1.33632864075e-06
-3.50646413591e-07
-3.77591011447e-07
1.22326100211e-06
-3.85790045444e-07
-2.46867735227e-07
1.00230196179e-06
-4.06021400532e-07
-1.34916731875e-07
7.00101568961e-07
-4.12697017948e-07
-4.91437496963e-08
3.58028038887e-07
-4.06872347821e-07
-2.38835560229e-09
1.73870589293e-08
-3.90157396547e-07
1.87808982492e-09
-2.77116574674e-07
-3.5924520672e-07
-3.65254229834e-08
-5.0124305408e-07
-3.26434700249e-07
-1.01596018753e-07
-6.38322405261e-07
-2.88085089031e-07
-1.82346388304e-07
-6.71774038829e-07
-2.4567568375e-07
-2.77309605615e-07
-5.87890751525e-07
-2.05395509973e-07
-3.78189995303e-07
-3.9646098065e-07
-1.68900029025e-07
-4.67848292613e-07
-1.43293531834e-07
-1.48307619429e-07
-5.06752188146e-07
5.33603812028e-08
-1.28824547464e-07
-4.30161634114e-07
-9.34923425436e-08
-1.55858949758e-07
8.27687576622e-08
2.53192642338e-08
-2.98772261287e-07
4.13876784749e-07
2.577004373e-08
-5.63186686372e-07
7.91832282655e-07
1.75446079379e-08
-6.23788289808e-07
1.09127253786e-06
5.20647136609e-09
-5.65672500472e-07
1.2610850336e-06
-1.17691913172e-08
-4.62157047929e-07
1.29297167661e-06
-3.57586879921e-08
-3.46448355083e-07
1.19542822536e-06
-5.51161702934e-08
-2.32812969138e-07
9.89324298429e-07
-6.61890318584e-08
-1.33423904021e-07
7.04433402555e-07
-7.16097435223e-08
-5.59050671626e-08
3.78139448011e-07
-6.88157363998e-08
-1.14813238336e-08
5.22987426137e-08
-6.00447054088e-08
-3.99524167121e-09
-2.31941068651e-07
-4.37865009387e-08
-3.09408802946e-08
-4.4938942023e-07
-2.64063768017e-08
-8.22956451996e-08
-5.80895705547e-07
-6.47276062074e-09
-1.49811680518e-07
-6.09956141825e-07
1.21858834196e-08
-2.28494105783e-07
-5.32102263265e-07
3.12394841805e-08
-3.14167396331e-07
-3.57761855048e-07
5.03274018719e-08
-3.93231578643e-07
-1.24623198206e-07
5.15901014678e-08
-4.32684114218e-07
5.93182834838e-08
5.7436465093e-08
-3.69825295863e-07
7.92832123864e-08
-1.1321279295e-07
8.07322037726e-08
-5.52313787428e-08
4.11456967844e-07
-3.04760637629e-07
7.70376961132e-07
-3.41168225063e-07
1.04738472805e-06
-2.71583474542e-07
1.21048127581e-06
-1.74642069167e-07
1.24479017653e-06
-6.98438001902e-08
1.16201319225e-06
2.78798396674e-08
9.70409736151e-07
1.25625919794e-07
7.02311047652e-07
1.96692651355e-07
3.95336650769e-07
2.3835640591e-07
8.68000998103e-08
2.48686620244e-07
-1.80835215768e-07
2.24043788743e-07
-3.85577645558e-07
1.78533930347e-07
-5.07967966746e-07
1.16120449637e-07
-5.3509574209e-07
3.95232780377e-08
-4.66073829426e-07
-3.75647721767e-08
-3.06587738306e-07
-1.08932828358e-07
-9.49077153007e-08
-1.59850544958e-07
7.72230268992e-08
-1.1445206138e-07
1.56614507099e-07
1.79069192111e-07
1.65025674184e-07
-5.18714900625e-07
5.47733631262e-07
2.29986988736e-07
-1.0182822851e-06
9.3225793578e-07
2.63756246454e-07
-1.10586879495e-06
1.23846023038e-06
2.9660739894e-07
-9.92468782428e-07
1.42130118451e-06
3.35172591499e-07
-8.09534690669e-07
1.45707821633e-06
3.75416033204e-07
-5.93143881689e-07
1.34392045091e-06
4.10831006668e-07
-3.72787907909e-07
1.09547746369e-06
4.36793132469e-07
-1.7030695933e-07
7.49332320966e-07
4.54573041691e-07
-5.69904460991e-09
3.42617632181e-07
4.58228867113e-07
1.00111923381e-07
-6.41126587969e-08
4.52742907504e-07
1.14525159808e-07
-4.28533003852e-07
4.3819893385e-07
6.05090882437e-08
-7.12511653841e-07
4.16923948009e-07
-5.83653959354e-08
-8.86056067306e-07
3.90365886628e-07
-2.22704575173e-07
-9.29100918649e-07
3.61880338396e-07
-4.15507275286e-07
-8.3750564066e-07
3.30193937839e-07
-6.16616141635e-07
-6.2954451586e-07
3.0136223233e-07
-7.98560080452e-07
-3.45985838258e-07
2.76004841206e-07
-9.14514090178e-07
-7.46970457897e-08
2.39789338929e-07
-8.3552227518e-07
1.66192604419e-07
-3.24259460855e-07
2.37019609494e-07
5.26113558402e-07
-1.01895190834e-06
6.04200400046e-07
5.89540921056e-07
-1.4088077213e-06
9.77720045823e-07
6.40313664899e-07
-1.49480522049e-06
1.28160690343e-06
7.02436251922e-07
-1.40197183673e-06
1.46287682351e-06
7.7508045554e-07
-1.21293927775e-06
1.49459712712e-06
8.47842025757e-07
-9.77504404537e-07
1.37392356886e-06
9.09807749341e-07
-7.30491288099e-07
1.11622718454e-06
9.54639964554e-07
-5.02747719386e-07
7.55940273759e-07
9.80173159687e-07
-3.23412481835e-07
3.38902720618e-07
9.85160495649e-07
-2.18997324835e-07
-7.99169780051e-08
9.72113007746e-07
-2.01731828026e-07
-4.52873317254e-07
9.46255286368e-07
-2.66472454695e-07
-7.42784976464e-07
9.10597355425e-07
-3.97551872742e-07
-9.20777385116e-07
8.67399345706e-07
-5.81143875102e-07
-9.66221079758e-07
8.17412816446e-07
-7.9839773064e-07
-8.7662783241e-07
7.61961251825e-07
-1.02060141256e-06
-6.69951826658e-07
7.0636613581e-07
-1.2088332866e-06
-3.93447394165e-07
6.56675717734e-07
-1.30657008036e-06
-1.25949947336e-07
6.0809280126e-07
-1.22759268257e-06
5.43738420952e-07
-8.35460686352e-07
2.69017594415e-07
9.04696508331e-07
-1.1089844611e-06
6.52939012799e-07
9.55709957123e-07
-1.49575090642e-06
1.03722207249e-06
1.01504889069e-06
-1.5801111069e-06
1.34645398975e-06
1.09549860734e-06
-1.46841594288e-06
1.5255151717e-06
1.18586733668e-06
-1.23816176392e-06
1.54820301078e-06
1.26947647685e-06
-9.49497952635e-07
1.41250665374e-06
1.33360239642e-06
-6.4897344126e-07
1.13704553039e-06
1.37480050862e-06
-3.76979174552e-07
7.58634114824e-07
1.39169018403e-06
-1.66832138775e-07
3.25593063863e-07
1.38779027739e-06
-4.8629352937e-08
-1.05470758235e-07
1.36793619732e-06
-3.87484269112e-08
-4.86619909342e-07
1.33878899944e-06
-1.24520299498e-07
-7.8347866953e-07
1.30353817518e-06
-2.85002167974e-07
-9.67246790435e-07
1.26173025091e-06
-5.04739335547e-07
-1.01765614633e-06
1.21316023356e-06
-7.65687272502e-07
-9.28926740797e-07
1.1550555692e-06
-1.03460021129e-06
-7.19021702456e-07
1.09047076826e-06
-1.2613103582e-06
-4.36147161891e-07
1.02991130776e-06
-1.3774171168e-06
-1.57035110823e-07
9.79311068622e-07
-1.29956599766e-06
9.3127476284e-07
-9.09352757912e-07
3.00300894496e-07
1.20807751977e-06
-9.99436663669e-07
7.12999061887e-07
1.25323997001e-06
-1.40593243018e-06
1.11755555253e-06
1.31501884546e-06
-1.47273628389e-06
1.43375776054e-06
1.3986835124e-06
-1.31082452488e-06
1.60518587727e-06
1.48447530845e-06
-1.0103120691e-06
1.60981732729e-06
1.55137980539e-06
-6.49892029454e-07
1.45241560889e-06
1.58999706543e-06
-2.88380737919e-07
1.15258285086e-06
1.60066282377e-06
3.50680611747e-08
7.54055777865e-07
1.59465848227e-06
2.665311042e-07
3.05586518697e-07
1.57600283209e-06
3.88917486665e-07
-1.35120078222e-07
1.55168710249e-06
3.85565255336e-07
-5.22067725622e-07
1.52708741551e-06
2.77504990463e-07
-8.25937782575e-07
1.50520342273e-06
9.19830022527e-08
-1.01600999551e-06
1.48757289208e-06
-1.68545910031e-07
-1.07499950924e-06
1.46462687583e-06
-4.73634389471e-07
-9.91870464367e-07
1.42805144156e-06
-7.96721900201e-07
-7.79078734555e-07
1.37695329456e-06
-1.08157359778e-06
-4.83346749671e-07
1.32124970889e-06
-1.24325922527e-06
-1.82156782085e-07
1.27493508591e-06
-1.18333391402e-06
1.23455018781e-06
-7.7611878594e-07
3.36885471945e-07
1.39099706525e-06
-8.22593088829e-07
7.81894112149e-07
1.4347546305e-06
-1.22691129311e-06
1.20516761143e-06
1.49207065196e-06
-1.25701626496e-06
1.52000997332e-06
1.56445682712e-06
-1.02909827342e-06
1.67183520739e-06
1.62693899046e-06
-6.5684362689e-07
1.64838937236e-06
1.65838380284e-06
-2.40569048751e-07
1.46291105376e-06
1.65402629218e-06
1.55418673597e-07
1.14534226034e-06
1.62594718901e-06
4.85181572451e-07
7.34587010072e-07
1.58758250966e-06
7.24919236616e-07
2.80322195298e-07
1.55125114136e-06
8.42309490448e-07
-1.60399058523e-07
1.52633208289e-06
8.22976429253e-07
-5.44245899883e-07
1.51528207148e-06
6.93531035626e-07
-8.4436371074e-07
1.51905889459e-06
4.85249955999e-07
-1.03997208646e-06
1.53324510593e-06
2.18911665739e-07
-1.11208975732e-06
1.54677420896e-06
-9.89216325325e-08
-1.04312520402e-06
1.54634083908e-06
-4.52518104371e-07
-8.35957611322e-07
1.52310052959e-06
-7.85574076153e-07
-5.31412380521e-07
1.48471209655e-06
-9.99539375976e-07
-2.08186565963e-07
1.44818588669e-06
-9.73585323914e-07
1.41207515407e-06
-5.7280710333e-07
3.72148997274e-07
1.44179671142e-06
-6.2506312491e-07
8.47336621659e-07
1.48011721931e-06
-1.0108377349e-06
1.28138765561e-06
1.52774864811e-06
-9.96379098977e-07
1.58290138654e-06
1.58142972764e-06
-7.06128743278e-07
1.70313663971e-06
1.61463010444e-06
-2.83322003371e-07
1.64464443666e-06
1.6071146782e-06
1.5115041706e-07
1.43566847401e-06
1.56301821526e-06
5.29777840713e-07
1.10718078217e-06
1.49648879024e-06
8.38687275013e-07
6.98537214701e-07
1.42714958384e-06
1.05586072591e-06
2.54218148901e-07
1.37560587157e-06
1.15528179109e-06
-1.72770110924e-07
1.35370588048e-06
1.123166259e-06
-5.41625577807e-07
1.36104888582e-06
9.82986042517e-07
-8.31564156472e-07
1.39414996225e-06
7.7490734468e-07
-1.02740917236e-06
1.44078984184e-06
5.23132730559e-07
-1.11295985583e-06
1.48781529884e-06
2.28994864832e-07
-1.06608368603e-06
1.51959593712e-06
-1.11878788864e-07
-8.74663678348e-07
1.52549336889e-06
-4.64811068553e-07
-5.6990720077e-07
1.50775209179e-06
-7.19414828189e-07
-2.30711691155e-07
1.48367624166e-06
-7.29944994373e-07
1.45280704624e-06
-3.49404371591e-07
4.02841952956e-07
1.35628669358e-06
-4.19494172964e-07
9.01691118685e-07
1.38853380521e-06
-7.86278775824e-07
1.33759752837e-06
1.42465378488e-06
-7.28637548988e-07
1.61572410843e-06
1.459545377e-06
-3.88408291935e-07
1.69550649173e-06
1.46619897295e-06
6.28676010193e-08
1.60069875416e-06
1.43364568889e-06
4.75260296013e-07
1.36995383655e-06
1.36416772674e-06
8.07506461591e-07
1.03878430275e-06
1.27249390785e-06
1.0613996821e-06
6.47634382963e-07
1.18150432341e-06
1.22843842142e-06
2.3084709662e-07
1.12023726967e-06
1.29851191958e-06
-1.66903357355e-07
1.10269216105e-06
1.2594298716e-06
-5.10209895707e-07
1.12728315067e-06
1.12696992492e-06
-7.86279985259e-07
1.18611515748e-06
9.45103494847e-07
-9.80894931254e-07
1.25653841137e-06
7.30785320119e-07
-1.08094630046e-06
1.32464877185e-06
4.8210017941e-07
-1.05892272385e-06
1.37505614646e-06
1.78292775551e-07
-8.9083113724e-07
1.3997208421e-06
-1.66623315565e-07
-5.93981028087e-07
1.39856312678e-06
-4.45587787463e-07
-2.45403253665e-07
1.38520352093e-06
-4.86836273453e-07
1.35884278805e-06
-1.26608589119e-07
4.27564137678e-07
1.14444399682e-06
-2.29165656088e-07
9.42166664621e-07
1.17145856098e-06
-5.73974138259e-07
1.37305347601e-06
1.19547508435e-06
-4.77136928371e-07
1.62169219328e-06
1.21403741136e-06
-9.6246361588e-08
1.66239584498e-06
1.20471419224e-06
3.60830442874e-07
1.53064468661e-06