/*--------------------------------*- C++ -*----------------------------------*\
| =========                 |                                                 |
| \\      /  F ield         | OpenFOAM: The Open Source CFD Toolbox           |
|  \\    /   O peration     | Version:  3.0.1                                 |
|   \\  /    A nd           | Web:      www.OpenFOAM.org                      |
|    \\/     M anipulation  |                                                 |
\*---------------------------------------------------------------------------*/
FoamFile
{
    version     2.0;
    format      ascii;
    class       surfaceScalarField;
    location    "5.7";
    object      meshPhiCN_0;
}
// * * * * * * * * * * * * * * * * * * * * * * * * * * * * * * * * * * * * * //

dimensions      [0 3 -1 0 0 0 0];

internalField   nonuniform List<scalar> 
22672
(
0
0
0
0
0
0
0
0
0
0
0
0
0
0
0
0
0
0
0
0
0
0
0
0
0
0
0
0
0
0
0
0
0
0
0
0
0
0
0
0
0
0
0
0
0
0
0
0
0
0
0
0
0
0
0
0
0
0
0
0
0
0
0
0
0
0
0
0
0
0
0
0
0
0
0
0
0
0
0
0
0
0
0
0
0
0
0
0
0
0
0
0
0
0
0
0
0
0
0
0
0
0
0
0
0
0
0
0
0
0
0
0
0
0
0
0
0
0
0
0
0
0
0
0
0
0
0
0
0
0
0
0
0
0
0
0
0
0
0
0
0
0
0
0
0
0
0
0
0
0
0
0
0
0
0
0
0
0
0
0
0
0
0
0
0
0
0
0
0
0
0
0
0
0
0
0
0
0
0
0
0
0
0
0
0
0
0
0
0
0
0
0
0
0
0
0
0
0
0
0
0
0
0
0
0
0
0
0
0
0
0
0
0
0
0
0
0
0
0
0
0
0
0
0
0
0
0
0
0
0
0
0
0
0
0
0
0
0
0
0
0
0
0
0
0
0
0
0
0
0
0
0
0
0
0
0
0
0
0
0
0
0
0
0
0
0
0
0
0
0
0
0
0
0
0
0
0
0
0
0
0
0
0
0
0
0
0
0
0
0
0
0
0
0
0
0
0
0
0
0
0
0
0
0
0
0
0
0
0
0
0
0
0
0
0
0
0
0
0
0
0
0
0
0
0
0
0
0
0
0
0
0
0
0
0
0
0
0
0
0
0
0
0
0
0
0
0
0
0
0
0
0
0
0
0
0
0
0
0
0
0
0
0
0
0
0
0
0
0
0
0
0
0
0
0
0
0
0
0
0
0
0
0
0
0
0
0
0
0
0
0
0
0
0
0
0
0
0
0
0
0
0
0
0
0
0
0
0
0
0
0
0
0
0
0
0
0
0
0
0
0
0
0
0
0
0
0
0
0
0
0
0
0
0
0
0
0
0
0
0
0
0
0
0
0
0
0
0
0
0
0
0
0
0
0
0
0
0
0
0
0
0
0
0
0
0
0
0
0
0
0
0
0
0
0
0
0
0
0
0
0
0
0
0
0
0
0
0
0
0
0
0
0
0
0
0
0
0
0
0
0
0
0
0
0
0
0
0
0
0
0
0
0
0
0
0
0
0
0
0
0
0
0
0
0
0
0
0
0
0
0
0
0
0
0
0
0
0
0
0
0
0
0
0
0
0
0
0
0
0
0
0
0
0
0
0
0
0
0
0
0
0
0
0
0
0
0
0
0
0
0
0
0
0
0
0
0
0
0
0
0
0
0
0
0
0
0
0
0
0
0
0
0
0
0
0
0
0
0
0
0
0
0
0
0
0
0
0
0
0
0
0
0
0
0
0
0
0
0
0
0
0
0
0
0
0
0
0
0
0
0
0
0
0
0
0
0
0
0
0
0
0
0
0
0
0
0
0
0
0
0
0
0
0
0
0
0
0
0
0
0
0
0
0
0
0
0
0
0
0
0
0
0
0
0
0
0
0
0
0
0
0
0
0
0
0
0
0
0
0
0
0
0
0
0
0
0
0
0
0
0
0
0
0
0
0
0
0
0
0
0
0
0
0
0
0
0
0
0
0
0
0
0
0
0
0
0
0
0
0
0
0
0
0
0
0
0
0
0
0
0
0
0
0
0
0
0
0
0
0
0
0
0
0
0
0
0
0
0
0
0
0
0
0
0
0
0
0
0
0
0
0
0
0
0
0
0
0
0
0
0
0
0
0
0
0
0
0
0
0
0
0
0
0
0
0
0
0
0
0
0
0
0
0
0
0
0
0
0
0
0
0
0
0
0
0
0
0
0
0
0
0
0
0
0
0
0
0
0
0
0
0
0
0
0
0
0
0
0
0
0
0
0
0
0
0
0
0
0
0
0
0
0
0
0
0
0
0
0
0
0
0
0
0
0
0
0
0
0
0
0
0
0
0
0
0
0
0
0
0
0
0
0
0
0
0
0
0
0
0
0
0
0
0
0
0
0
0
0
0
0
0
0
0
0
0
0
0
0
0
0
0
0
0
0
0
0
0
0
0
0
0
0
0
0
0
0
0
0
0
0
0
0
0
0
0
0
0
0
0
0
0
0
0
0
0
0
0
0
0
0
0
0
0
0
0
0
0
0
0
0
0
0
0
0
0
0
0
0
0
0
0
0
0
0
0
0
0
0
0
0
0
0
0
0
0
0
0
0
0
0
0
0
0
0
0
0
0
0
0
0
0
0
0
0
0
0
0
0
0
0
0
0
0
0
0
0
0
0
0
0
0
0
0
0
0
0
0
0
0
0
0
0
0
0
0
0
0
0
0
0
0
0
0
0
0
0
0
0
0
0
0
0
0
0
0
0
0
0
0
0
0
0
0
0
0
0
0
0
0
0
0
0
0
0
0
0
0
0
0
0
0
0
0
0
0
0
0
0
0
0
0
0
0
0
0
0
0
0
0
0
0
0
0
0
0
0
0
0
0
0
0
0
0
0
0
0
0
0
0
0
0
0
0
0
0
0
0
0
0
0
0
0
0
0
0
0
0
0
0
0
0
0
0
0
0
0
0
0
0
0
0
0
0
0
0
0
0
0
0
0
0
0
0
0
0
0
0
0
0
0
0
0
0
0
0
0
0
0
0
0
0
0
0
0
0
0
0
0
0
0
0
0
0
0
0
0
0
0
0
0
0
0
0
0
0
0
0
0
0
0
0
0
0
0
0
0
0
0
0
0
0
0
0
0
0
0
0
0
0
0
0
0
0
0
0
0
0
0
0
0
0
0
0
0
0
0
0
0
0
0
0
0
0
0
0
0
0
0
0
0
0
0
0
0
0
0
0
0
0
0
0
0
0
0
0
0
0
0
0
0
0
0
0
0
0
0
0
0
0
0
0
0
0
0
0
0
0
0
0
0
0
0
0
0
0
0
0
0
0
0
0
0
0
0
0
0
0
0
0
0
0
0
0
0
0
0
0
0
0
0
0
0
0
0
0
0
0
0
0
0
0
0
0
0
0
0
0
0
0
0
0
0
0
0
0
0
0
0
0
0
0
0
0
0
0
0
0
0
0
0
0
0
0
0
0
0
0
0
0
0
0
0
0
0
0
0
0
0
0
0
0
0
0
0
0
0
0
0
0
0
0
0
0
0
0
0
0
0
0
0
0
0
0
0
0
0
0
0
0
0
0
0
0
0
0
0
0
0
0
0
0
0
0
0
0
0
0
0
0
0
0
0
0
0
0
0
0
0
0
0
0
0
0
0
0
0
0
0
0
0
0
0
0
0
0
0
0
0
0
0
0
0
0
0
0
0
0
0
0
0
0
0
0
0
0
0
0
0
0
0
0
0
0
0
0
0
0
0
0
0
0
0
0
0
0
0
0
0
0
0
0
0
0
0
0
0
0
0
0
0
0
0
0
0
0
0
0
0
0
0
0
0
0
0
0
0
0
0
0
0
0
0
0
0
0
0
0
0
0
0
0
0
0
0
0
0
0
0
0
0
0
0
0
0
0
0
0
0
0
0
0
0
0
0
0
0
0
0
0
0
0
0
0
0
0
0
0
0
0
0
0
0
0
0
0
0
0
0
0
0
0
0
0
0
0
0
0
0
0
0
0
0
0
0
0
0
0
0
0
0
0
0
0
0
0
0
0
0
0
0
0
0
0
0
0
0
0
0
0
0
0
0
0
0
0
0
0
0
0
0
0
0
0
0
0
0
0
0
0
0
0
0
0
0
0
0
0
0
0
0
0
0
0
0
0
0
0
0
0
0
0
0
0
0
0
0
0
0
0
0
0
0
0
0
0
0
0
0
0
0
0
0
0
0
0
0
0
0
0
0
0
0
0
0
0
0
0
0
0
0
0
0
0
0
0
0
0
0
0
0
0
0
0
0
0
0
0
0
0
0
0
0
0
0
0
0
0
0
0
0
0
0
0
0
0
0
0
0
0
0
0
0
0
0
0
0
0
0
0
0
0
0
0
0
0
0
0
0
0
0
0
0
0
0
0
0
0
0
0
0
0
0
0
0
0
0
0
0
0
0
0
0
0
0
0
0
0
0
0
0
0
0
0
0
0
0
0
0
0
0
0
0
0
0
0
0
0
0
0
0
0
0
0
0
0
0
0
0
0
0
0
0
0
0
0
0
0
0
0
0
0
0
0
0
0
0
0
0
0
0
0
0
0
0
0
0
0
0
0
0
0
0
0
0
0
0
0
0
0
0
0
0
0
0
0
0
0
0
0
0
0
0
0
0
0
0
0
0
0
0
0
0
0
0
0
0
0
0
0
0
0
0
0
0
0
0
0
0
0
0
0
0
0
0
0
0
0
0
0
0
0
0
0
0
0
0
0
0
0
0
0
0
0
0
0
0
0
0
0
0
0
0
0
0
0
0
0
0
0
0
0
0
0
0
0
0
0
0
0
0
0
0
0
0
0
0
0
0
0
0
0
0
0
0
0
0
0
0
0
0
0
0
0
0
0
0
0
0
0
0
0
0
0
0
0
0
0
0
0
0
0
0
0
0
0
0
0
0
0
0
0
0
0
0
0
0
0
0
0
0
0
0
0
0
0
0
0
0
0
0
0
0
0
0
0
0
0
0
0
0
0
0
0
0
0
0
0
0
0
0
0
0
0
0
0
0
0
0
0
0
0
0
0
0
0
0
0
0
0
0
0
0
0
0
0
0
0
0
0
0
0
0
0
0
0
0
0
0
0
0
0
0
0
0
0
0
0
0
0
0
0
0
0
0
0
0
0
0
0
0
0
0
0
0
0
0
0
0
0
0
0
0
0
0
0
0
0
0
0
0
0
0
0
0
0
0
0
0
0
0
0
0
0
0
0
0
0
0
0
0
0
0
0
0
0
0
0
0
0
0
0
0
0
0
0
0
0
0
0
0
0
0
0
0
0
0
0
0
0
0
0
0
0
0
0
0
0
0
0
0
0
0
0
0
0
0
0
0
0
0
0
0
0
0
0
0
0
0
0
0
0
0
0
0
0
0
0
0
0
0
0
0
0
0
0
0
0
0
0
0
0
0
0
0
0
0
0
0
0
0
0
0
0
0
0
0
0
0
0
0
0
0
0
0
0
0
0
0
0
0
0
0
0
0
0
0
0
0
0
0
0
0
0
0
0
0
0
0
0
0
0
0
0
0
0
0
0
0
0
0
0
0
0
0
0
0
0
0
0
0
0
0
0
0
0
0
0
0
0
0
0
0
0
0
0
0
0
0
0
0
0
0
0
0
0
0
0
0
0
0
0
0
0
0
0
0
0
0
0
0
0
0
0
0
0
0
0
0
0
0
0
0
0
0
0
0
0
0
0
0
0
0
0
0
0
0
0
0
0
0
0
0
0
0
0
0
0
0
0
0
0
0
0
0
0
0
0
0
0
0
0
0
0
0
0
0
0
0
0
0
0
0
0
0
0
0
0
0
0
0
0
0
0
0
0
0
0
0
0
0
0
0
0
0
0
0
0
0
0
0
0
0
0
0
0
0
0
0
0
0
0
0
0
0
0
0
0
0
0
0
0
0
0
0
0
0
0
0
0
0
0
0
0
0
0
0
0
0
0
0
0
0
0
0
0
0
0
0
0
0
0
0
0
0
0
0
0
0
0
0
0
0
0
0
0
0
0
0
0
0
0
0
0
0
0
0
0
0
0
0
0
0
0
0
0
0
0
0
0
0
0
0
0
0
0
0
0
0
0
0
0
0
0
0
0
0
0
0
0
0
0
0
0
0
0
0
0
0
0
0
0
0
0
0
0
0
0
0
0
0
0
0
0
2.64885535674e-08
-3.0133269496e-09
-2.40985639345e-10
4.75611225849e-08
-8.4183294525e-09
-6.77787668225e-10
4.75611171429e-08
-1.08052234189e-08
-8.76045566067e-10
4.75611117513e-08
-1.07922664589e-08
-8.86965879159e-10
4.75611062766e-08
-1.07793095174e-08
-8.97886180935e-10
4.75611008015e-08
-1.07663525834e-08
-9.08806457308e-10
2.64885434258e-08
-8.37386594469e-09
-7.12386109031e-10
0
-2.99308810051e-09
-2.56747372776e-10
0
0
0
0
0
0
0
0
0
0
0
0
0
0
0
0
0
0
0
0
0
0
0
0
0
0
0
0
0
0
0
0
7.50403488135e-08
-8.54439067746e-09
-6.80633868263e-10
2.24269462103e-07
-3.10302172977e-08
-2.76183083156e-09
3.00282260234e-07
-5.12300013541e-08
-4.81000973227e-09
3.00281656288e-07
-5.74443024812e-08
-5.49824902887e-09
3.00281052227e-07
-5.73749208531e-08
-5.5676830539e-09
3.00280448299e-07
-5.73055395365e-08
-5.63711675189e-09
3.00279844301e-07
-5.72361585971e-08
-5.70655013207e-09
2.24267809144e-07
-5.09776271565e-08
-4.98802794754e-09
7.50402401596e-08
-3.08521924776e-08
-2.84752459746e-09
0
-8.47375197512e-09
-7.29766078254e-10
0
0
0
0
0
0
0
0
0
0
0
0
0
0
0
0
0
0
0
0
0
0
0
0
0
0
2.64813573629e-08
-3.02049686679e-09
-2.35249184942e-10
2.72823441318e-07
-2.55190481201e-08
-2.77687707892e-09
5.82565007128e-07
-6.62329191953e-08
-8.04309461397e-09
7.14951224577e-07
-9.63088163867e-08
-1.19690361653e-08
7.14944133616e-07
-1.05071395212e-07
-1.3074633452e-08
7.14937042668e-07
-1.0494356149e-07
-1.32399136157e-08
7.14929951668e-07
-1.0481572892e-07
-1.34051929845e-08
7.14922860731e-07
-1.04687897479e-07
-1.35704715598e-08
5.8253794206e-07
-9.5864633931e-08
-1.22424739646e-08
2.72817044665e-07
-6.59139805744e-08
-7.98131033431e-09
2.6481340472e-08
-2.5342886664e-08
-2.85086560225e-09
0
-2.98584951004e-09
-2.63143610231e-10
0
0
0
0
0
0
0
0
0
0
0
0
0
0
0
0
0
0
0
0
0
0
0
7.40270746068e-08
-5.42242169637e-09
-6.62306608479e-10
4.50548797367e-07
-3.41604054239e-08
-4.95853329989e-09
8.47065989752e-07
-8.12731491188e-08
-1.23773514431e-08
1.00981334921e-06
-1.14812024469e-07
-1.72605894264e-08
1.00979443412e-06
-1.24468032485e-07
-1.85348776607e-08
1.00977551904e-06
-1.24316153344e-07
-1.87669239897e-08
1.00975660382e-06
-1.24164275776e-07
-1.89989698709e-08
1.00973768881e-06
-1.24012399746e-07
-1.9231015305e-08
8.46986818018e-07
-1.14295629165e-07
-1.75091109275e-08
4.50520076236e-07
-8.09099746738e-08
-1.2011895358e-08
7.40263037498e-08
-3.39412482748e-08
-4.93182448453e-09
0
-5.36217921135e-09
-7.32264270394e-10
0
0
0
0
0
0
0
0
0
0
0
0
0
0
0
0
0
0
0
0
0
0
0
9.50864293552e-08
-5.42241710933e-09
-8.54301668255e-10
5.05478879378e-07
-3.4160290241e-08
-5.71502139227e-09
9.24490166692e-07
-8.12730043166e-08
-1.37206441824e-08
1.09509153937e-06
-1.148122977e-07
-1.88537295126e-08
1.09506681914e-06
-1.24468625789e-07
-2.01652933768e-08
1.09504209897e-06
-1.24316745848e-07
-2.04159426844e-08
1.09501737878e-06
-1.24164867406e-07
-2.06665919853e-08
1.09499265853e-06
-1.24012990549e-07
-2.09172413151e-08
9.24384413792e-07
-1.14296365455e-07
-1.90774025406e-08
5.05436677885e-07
-8.09106395786e-08
-1.32301593682e-08
9.50845605604e-08
-3.39414669978e-08
-5.63264664943e-09
0
-5.36218685787e-09
-9.39230400606e-10
0
0
0
0
0
0
0
0
0
0
0
0
0
0
0
0
0
0
0
0
0
0
0
9.5073531829e-08
-5.42241242579e-09
-8.54862010295e-10
5.05411175106e-07
-3.41601749912e-08
-5.71930654607e-09
9.24367938638e-07
-8.12728595141e-08
-1.37308900254e-08
1.09494752394e-06
-1.14812570898e-07
-1.88662170277e-08
1.09492280449e-06
-1.24469219141e-07
-2.01773618154e-08
1.09489808504e-06
-1.2431733831e-07
-2.04280111314e-08
1.09487336558e-06
-1.24165459095e-07
-2.06786604546e-08
1.09484864617e-06
-1.24013581373e-07
-2.09293097867e-08
9.24262188937e-07
-1.14297101797e-07
-1.90871725801e-08
5.05368974893e-07
-8.09113044268e-08
-1.32356748593e-08
9.50716630652e-08
-3.3941685672e-08
-5.63498303055e-09
0
-5.36219444912e-09
-9.39719175871e-10
0
0
0
0
0
0
0
0
0
0
0
0
0
0
0
0
0
0
0
0
0
0
0
9.50606342388e-08
-5.42240781684e-09
-8.55422355041e-10
5.05343470462e-07
-3.41600597856e-08
-5.72359133527e-09
9.24245709415e-07
-8.12727147511e-08
-1.37411350154e-08
1.09480350675e-06
-1.14812844095e-07
-1.88787040546e-08
1.09477878811e-06
-1.24469812437e-07
-2.01894302494e-08
1.09475406944e-06
-1.24317930854e-07
-2.04400795743e-08
1.09472935078e-06
-1.24166050797e-07
-2.06907289091e-08
1.09470463215e-06
-1.24014172219e-07
-2.09413782555e-08
9.24139963112e-07
-1.14297838026e-07
-1.90969430956e-08
5.05301271611e-07
-8.09119693083e-08
-1.32411911837e-08
9.50587654563e-08
-3.39419043985e-08
-5.63731971803e-09
0
-5.36220210855e-09
-9.40207985038e-10
0
0
0
0
0
0
0
0
0
0
0
0
0
0
0
0
0
0
0
0
0
0
0
9.50477366306e-08
-5.42240318798e-09
-8.55982682324e-10
5.05275765463e-07
-3.41599445619e-08
-5.72787578463e-09
9.24123478965e-07
-8.12725699112e-08
-1.37513791401e-08
1.09465948795e-06
-1.14813117303e-07
-1.8891190592e-08
1.09463477007e-06
-1.24470405752e-07
-2.02014986958e-08
1.09461005219e-06
-1.24318523316e-07
-2.04521480214e-08
1.09458533433e-06
-1.2416664249e-07
-2.07027973501e-08
1.09456061646e-06
-1.24014763097e-07
-2.09534466655e-08
9.2401773595e-07
-1.14298574381e-07
-1.91067140448e-08
5.05233567942e-07
-8.09126342538e-08
-1.32467083205e-08
9.50458680291e-08
-3.39421232429e-08
-5.63965677414e-09
0
-5.36220974746e-09
-9.40696768858e-10
0
0
0
0
0
0
0
0
0
0
0
0
0
0
0
0
0
0
0
0
0
0
0
7.39832168693e-08
-3.02048819493e-09
-6.65049177793e-10
4.50308412166e-07
-2.55186024301e-08
-4.99133419103e-09
8.4665575982e-07
-6.62321933575e-08
-1.24807402534e-08
1.00933927324e-06
-9.63098898444e-08
-1.74162756363e-08
1.00931604402e-06
-1.05073933385e-07
-1.87011531642e-08
1.00929281488e-06
-1.04946096115e-07
-1.89314014235e-08
1.00926958567e-06
-1.04818260066e-07
-1.91616500478e-08
1.00924635649e-06
-1.04690425012e-07
-1.9391899132e-08
8.46556861203e-07
-9.58678259529e-08
-1.7645267128e-08
4.50269747025e-07
-6.59167908052e-08
-1.20891451733e-08
7.39816617e-08
-2.53436908231e-08
-4.95506030651e-09
0
-2.9858637004e-09
-7.3469179941e-10
0
0
0
0
0
0
0
0
0
0
0
0
0
0
0
0
0
0
0
0
0
0
0
2.64613508449e-08
0
-2.36468899452e-10
2.72656235061e-07
-8.54429847977e-09
-2.80740952851e-09
5.82279417887e-07
-3.10298063752e-08
-8.17230673337e-09
7.14627541198e-07
-5.1230273654e-08
-1.21912716023e-08
7.14612937066e-07
-5.74453153225e-08
-1.33217115803e-08
7.14598332936e-07
-5.73759323028e-08
-1.34838616223e-08
7.14583728772e-07
-5.73065495159e-08
-1.3646012397e-08
7.14569124646e-07
-5.72371671239e-08
-1.38081639421e-08
5.82219547918e-07
-5.0978969031e-08
-1.24421874019e-08
2.72636374838e-07
-3.08532336255e-08
-8.08668120166e-09
2.64609812592e-08
-8.47390417371e-09
-2.8751111809e-09
0
0
-2.64269983002e-10
0
0
0
0
0
0
0
0
0
0
0
0
0
0
0
0
0
0
0
0
0
0
0
0
0
0
7.49713595277e-08
0
-6.86719560905e-10
2.24102933767e-07
-3.01331257512e-09
-2.80325275496e-09
3.00075583036e-07
-8.41831504309e-09
-4.90079897203e-09
3.00071883255e-07
-1.08052682588e-08
-5.60580365292e-09
3.00068183471e-07
-1.07923111775e-08
-5.67394805714e-09
3.00064483729e-07
-1.07793542347e-08
-5.74209279407e-09
3.00060783923e-07
-1.07663972292e-08
-5.81023784484e-09
2.24089695823e-07
-8.37393611873e-09
-5.07084267591e-09
7.49689859104e-08
-2.99311181925e-09
-2.88286444629e-09
0
0
-7.35062366187e-10
0
0
0
0
0
0
0
0
0
0
0
0
0
0
0
0
0
0
0
0
0
0
0
0
0
0
0
0
0
0
0
0
2.6454084941e-08
0
-2.42794694386e-10
4.75013301812e-08
0
-6.83806826482e-10
4.75012110044e-08
0
-8.84230321959e-10
4.75010918523e-08
0
-8.95103263219e-10
4.75009726722e-08
0
-9.05976216395e-10
4.75008536255e-08
0
-9.16849202302e-10
2.64538631867e-08
0
-7.18104339061e-10
0
0
-2.58453078541e-10
0
0
0
0
0
0
0
0
0
0
0
0
0
0
0
0
0
0
0
0
0
0
0
0
0
0
0
0
0
0
0
0
0
0
0
0
0
0
0
0
0
0
0
0
0
0
0
0
0
0
0
0
0
0
0
0
0
0
0
0
0
0
0
0
0
0
0
0
0
0
0
0
0
0
0
0
0
0
0
0
0
0
0
0
0
0
0
0
0
0
0
0
0
0
0
0
0
0
0
0
0
0
0
0
0
0
0
0
0
0
0
0
0
0
0
0
0
0
0
0
0
0
0
0
0
0
0
0
0
0
0
0
0
0
0
0
0
0
0
0
0
0
0
0
0
0
0
0
0
0
0
0
0
0
0
0
0
0
0
0
0
0
0
0
0
0
0
0
0
0
0
0
0
0
0
0
0
0
0
0
0
0
0
0
0
0
0
0
0
0
0
0
0
0
0
0
0
0
0
0
0
0
0
0
0
0
0
0
0
0
0
0
0
0
0
0
0
0
0
0
0
0
0
0
0
0
0
0
0
0
0
0
0
0
0
0
0
0
0
0
0
0
0
0
0
0
0
0
0
0
0
0
0
0
0
0
0
0
0
0
0
0
0
0
0
0
0
0
0
0
0
0
0
0
0
0
0
0
0
0
0
0
0
0
0
0
0
0
0
0
0
0
0
0
0
0
0
0
0
0
0
0
0
0
0
0
0
0
0
0
0
0
0
0
0
0
0
0
0
0
0
0
0
0
0
0
0
0
0
0
0
0
0
0
0
0
0
0
0
0
0
0
0
0
0
0
0
0
0
0
0
0
0
0
0
0
0
0
0
0
0
0
0
0
0
0
0
0
0
0
0
0
0
0
0
0
0
0
0
0
0
0
0
0
0
0
0
0
0
0
0
0
0
0
0
0
0
0
0
0
0
0
0
0
0
0
0
0
0
0
0
0
0
0
0
0
0
0
0
0
0
0
0
0
0
4.75730375288e-08
-5.41575411334e-09
-4.28645813255e-10
1.50028139376e-07
-2.24673312183e-08
-1.81182943407e-09
1.97845868439e-07
-3.95428294472e-08
-3.17790827063e-09
1.97845773988e-07
-4.49502215766e-08
-3.61963713085e-09
1.9784567958e-07
-4.48960321369e-08
-3.66535755022e-09
1.97845585174e-07
-4.48418428983e-08
-3.71107770512e-09
1.97845490736e-07
-4.47876538998e-08
-3.75679770103e-09
1.50027813594e-07
-3.93442015278e-08
-3.31504717863e-09
4.75729938587e-08
-2.23324848012e-08
-1.88848549215e-09
0
-5.36842402474e-09
-4.64388189289e-10
0
0
0
0
0
0
0
0
0
0
0
0
0
0
0
0
0
0
0
0
0
0
0
0
0
0
1.09146995864e-07
-1.24352120741e-08
-9.8296846819e-10
4.32331850802e-07
-5.61518193562e-08
-5.0711616859e-09
8.17179474815e-07
-1.19541246551e-07
-1.14888760558e-08
9.87497659632e-07
-1.65663520272e-07
-1.58040465472e-08
9.87491242722e-07
-1.7957681738e-07
-1.69476479543e-08
9.87484825782e-07
-1.7935657814e-07
-1.71681358485e-08
9.87478408864e-07
-1.79136341731e-07
-1.73886210152e-08
9.87471991921e-07
-1.78916108147e-07
-1.76091035364e-08
8.17153356132e-07
-1.64982306492e-07
-1.60749744896e-08
4.32324014098e-07
-1.19113688893e-07
-1.11854182869e-08
1.0914670851e-07
-5.58485130834e-08
-5.049295535e-09
0
-1.23099975182e-08
-1.06663985131e-09
0
0
0
0
0
0
0
0
0
0
0
0
0
0
0
0
0
0
0
0
4.75601267398e-08
-5.42858024055e-09
-4.18403381618e-10
4.93921214452e-07
-4.91663027367e-08
-5.1155981995e-09
1.31192400922e-06
-1.48905423632e-07
-1.70198824035e-08
2.09822888978e-06
-2.67680140888e-07
-3.01149331564e-08
2.42038716016e-06
-3.48105573055e-07
-3.66989081883e-08
2.42033715068e-06
-3.70950892512e-07
-3.79507646642e-08
2.42028714118e-06
-3.70489304061e-07
-3.84495412339e-08
2.42023713177e-06
-3.70027725077e-07
-3.89483108391e-08
2.42018712223e-06
-3.69566155564e-07
-3.94470734821e-08
2.0979947802e-06
-3.46970557557e-07
-3.63949246858e-08
1.31179087073e-06
-2.67422449826e-07
-2.72783707314e-08
4.93899819842e-07
-1.48621083731e-07
-1.52439225688e-08
4.75600612748e-08
-4.8848990064e-08
-5.05083303147e-09
0
-5.35537655687e-09
-4.75922901443e-10
0
0
0
0
0
0
0
0
0
0
0
0
0
0
0
0
0
1.97546302044e-07
-1.71043505239e-08
-1.77951801374e-09
1.05221510529e-06
-9.28175899952e-08
-1.21514715198e-08
2.35869289697e-06
-2.37865132273e-07
-3.18873416151e-08
3.51139009889e-06
-3.98238333035e-07
-4.99296522932e-08
3.96077252072e-06
-5.01264966981e-07
-5.73698088787e-08
3.96062171403e-06
-5.30028144639e-07
-5.81773888329e-08
3.96047090733e-06
-5.29362500886e-07
-5.89351407331e-08
3.9603201007e-06
-5.28696874064e-07
-5.96928844811e-08
3.960169294e-06
-5.2803126409e-07
-6.04506200652e-08
3.5106480466e-06
-4.99912948046e-07
-5.57838157742e-08
2.35818405241e-06
-3.98538734452e-07
-4.27755605639e-08
1.05206418216e-06
-2.38049679075e-07
-2.62735091573e-08
1.97541864922e-07
-9.24536163223e-08
-1.08901459613e-08
0
-1.69034847578e-08
-1.93949291737e-09
0
0
0
0
0
0
0
0
0
0
0
0
0
0
0
0
0
3.47815083934e-07
-2.25463820116e-08
-3.20668861498e-09
1.45759620924e-06
-1.12109781618e-07
-1.7735409315e-08
3.06335840436e-06
-2.74276296303e-07
-4.20784015233e-08
4.41138235456e-06
-4.49117701803e-07
-6.28255781355e-08
4.92818883297e-06
-5.60009082769e-07
-7.04627281443e-08
4.9279214888e-06
-5.90840611007e-07
-7.08387929881e-08
4.92765414468e-06
-5.9009625813e-07
-7.17402505261e-08
4.92738680059e-06
-5.89351925387e-07
-7.26417044146e-08
4.92711945648e-06
-5.88607612633e-07
-7.35431546542e-08
4.41004113856e-06
-5.58611816641e-07
-6.77760711511e-08
3.06237102944e-06
-4.49733470972e-07
-5.22578320686e-08
1.45724266475e-06
-2.74750765209e-07
-3.31366292194e-08
3.47789934661e-07
-1.11781777285e-07
-1.50604468593e-08
0
-2.23001385434e-08
-3.36291793322e-09
0
0
0
0
0
0
0
0
0
0
0
0
0
0
0
0
0
3.9561680615e-07
-2.25463020835e-08
-3.68049893884e-09
1.58023473432e-06
-1.12108782313e-07
-1.94672081302e-08
3.2634416346e-06
-2.74273886752e-07
-4.51252270078e-08
4.6617885265e-06
-4.49116609491e-07
-6.6656998499e-08
5.19590583221e-06
-5.6001329201e-07
-7.43517425416e-08
5.19558627414e-06
-5.90848277559e-07
-7.45952090462e-08
5.19526671605e-06
-5.90103913994e-07
-7.55306534907e-08
5.19494715806e-06
-5.89359570543e-07
-7.64660978992e-08
5.1946275999e-06
-5.88615247137e-07
-7.74015423684e-08
4.66017773323e-06
-5.58621669001e-07
-7.12936439838e-08
3.26223513851e-06
-4.49744477666e-07
-5.50066254608e-08
1.5797826045e-06
-2.74757637029e-07
-3.51008992759e-08
3.9557802833e-07
-1.11783746728e-07
-1.62838464258e-08
0
-2.23002704647e-08
-3.80847824068e-09
0
0
0
0
0
0
0
0
0
0
0
0
0
0
0
0
0
3.95563643844e-07
-2.25462221273e-08
-3.68329825984e-09
1.58002886934e-06
-1.12107782959e-07
-1.94856335112e-08
3.26302800738e-06
-2.74271477099e-07
-4.51697546709e-08
4.66120828368e-06
-4.49115517155e-07
-6.67175889461e-08
5.19526315655e-06
-5.60017501203e-07
-7.44059443743e-08
5.19494360849e-06
-5.90855944159e-07
-7.46402569812e-08
5.19462406046e-06
-5.90111569874e-07
-7.55757014217e-08
5.19430451238e-06
-5.89367215782e-07
-7.651114584e-08
5.19398496444e-06
-5.88622881643e-07
-7.74465902975e-08
4.65959754093e-06
-5.58631521426e-07
-7.1325544184e-08
3.26182154914e-06
-4.49755484367e-07
-5.50173937521e-08
1.57957675374e-06
-2.74764508924e-07
-3.5103014873e-08
3.95524867188e-07
-1.11785716167e-07
-1.62861175592e-08
0
-2.2300402513e-08
-3.81003977586e-09
0
0
0
0
0
0
0
0
0
0
0
0
0
0
0
0
0
3.95510481256e-07
-2.25461421065e-08
-3.68609738851e-09
1.57982300136e-06
-1.12106783647e-07
-1.95040560562e-08
3.26261437002e-06
-2.74269067535e-07
-4.52142748995e-08
4.66062802286e-06
-4.49114424849e-07
-6.67781706986e-08
5.19462045946e-06
-5.60021710471e-07
-7.44601422764e-08
5.1943009214e-06
-5.90863610668e-07
-7.4685304898e-08
5.19398138338e-06
-5.9011922578e-07
-7.56207493315e-08
5.19366184543e-06
-5.89374860999e-07
-7.6556193793e-08
5.19334230746e-06
-5.88630516187e-07
-7.7491638182e-08
4.65901733078e-06
-5.58641373814e-07
-7.1357448231e-08
3.26140794968e-06
-4.4976649107e-07
-5.50281706828e-08
1.57937089988e-06
-2.74771380741e-07
-3.51051378548e-08
3.95471705815e-07
-1.11787685603e-07
-1.62883915407e-08
0
-2.2300534463e-08
-3.81160153355e-09
0
0
0
0
0
0
0
0
0
0
0
0
0
0
0
0
0
3.9545731849e-07
-2.25460621877e-08
-3.6888963167e-09
1.57961713034e-06
-1.12105784356e-07
-1.95224757731e-08
3.26220072261e-06
-2.74266657914e-07
-4.52587877917e-08
4.66004774405e-06
-4.49113332571e-07
-6.68387438109e-08
5.19397774095e-06
-5.60025919706e-07
-7.45143363443e-08
5.19365821298e-06
-5.90871277282e-07
-7.47303528315e-08
5.19333868501e-06
-5.90126881697e-07
-7.56657972732e-08
5.1930191571e-06
-5.89382506198e-07
-7.66012417211e-08
5.19269962912e-06
-5.88638150695e-07
-7.75366861497e-08
4.65843710258e-06
-5.58651226221e-07
-7.13893562148e-08
3.26099434009e-06
-4.49777497744e-07
-5.50389563583e-08
1.57916504309e-06
-2.74778252649e-07
-3.51072682464e-08
3.95418544274e-07
-1.11789655098e-07
-1.62906682962e-08
0
-2.23006664699e-08
-3.81316350281e-09
0
0
0
0
0
0
0
0
0
0
0
0
0
0
0
0
0
3.47625858218e-07
-1.71040746275e-08
-3.22605015982e-09
1.45702092205e-06
-9.28131041437e-08
-1.79121618144e-08
3.06254932556e-06
-2.37853446084e-07
-4.26207038665e-08
4.41056452879e-06
-3.98232669966e-07
-6.37609313329e-08
4.92737059145e-06
-5.01285989461e-07
-7.15834981484e-08
4.92705063655e-06
-5.30066789085e-07
-7.19676304898e-08
4.92673068159e-06
-5.2940109147e-07
-7.2854342115e-08
4.92641072662e-06
-5.28735410796e-07
-7.37410573577e-08
4.92609077176e-06
-5.28069746882e-07
-7.46277762727e-08
4.40895710876e-06
-4.9996252409e-07
-6.8725892344e-08
3.06135940191e-06
-3.9859334879e-07
-5.28948404839e-08
1.45658716019e-06
-2.38082490083e-07
-3.34424747428e-08
3.47590686843e-07
-9.24622929767e-08
-1.51523754185e-08
0
-1.69039401457e-08
-3.37625155262e-09
0
0
0
0
0
0
0
0
0
0
0
0
0
0
0
0
0
1.97419993273e-07
-5.42854322243e-09
-1.79704625927e-09
1.0519124012e-06
-4.91640395888e-08
-1.23891658175e-08
2.3588505121e-06
-1.48897744582e-07
-3.27781851333e-08
3.5123704087e-06
-2.67675443006e-07
-5.1645392599e-08
3.9620873243e-06
-3.48120776032e-07
-5.95772894593e-08
3.96182417726e-06
-3.70979838157e-07
-6.04673053928e-08
3.96156103025e-06
-3.70518209349e-07
-6.11921118699e-08
3.96129788318e-06
-3.70056589926e-07
-6.19169265458e-08
3.96103473619e-06
-3.69594980035e-07
-6.26417494148e-08
3.5110686617e-06
-3.470074873e-07
-5.77344228838e-08
2.35793833552e-06
-2.67461188254e-07
-4.41113907428e-08
1.05162102213e-06
-1.486413748e-07
-2.68940642326e-08
1.97403353167e-07
-4.88530408077e-08
-1.1046945791e-08
0
-5.35543757319e-09
-1.95318745157e-09
0
0
0
0
0
0
0
0
0
0
0
0
0
0
0
0
0
4.75137110235e-08
0
-4.2164792542e-10
4.93670484805e-07
-1.24349684619e-08
-5.22119104671e-09
1.31187279777e-06
-5.61494698287e-08
-1.75984115658e-08
2.09884396774e-06
-1.19538982229e-07
-3.14404938923e-08
2.42130894457e-06
-1.65668643958e-07
-3.8535248516e-08
2.42117281378e-06
-1.79587666817e-07
-3.98951291466e-08
2.42103668302e-06
-1.79367412471e-07
-4.03658563428e-08
2.42090055228e-06
-1.79147160957e-07
-4.08365905091e-08
2.42076442159e-06
-1.78926912316e-07
-4.13073316859e-08
2.09819696916e-06
-1.64996038444e-07
-3.80362050847e-08
1.31148013345e-06
-1.1912655349e-07
-2.83470559817e-08
4.93580740045e-07
-5.58535324963e-08
-1.56718127623e-08
4.75122810781e-08
-1.2310399433e-08
-5.12771983484e-09
0
0
-4.78787299134e-10
0
0
0
0
0
0
0
0
0
0
0
0
0
0
0
0
0
0
0
0
1.09026140307e-07
0
-9.95062955879e-10
4.32061931675e-07
-5.41569854019e-09
-5.20007825232e-09
8.16930618688e-07
-2.24669261739e-08
-1.19225777383e-08
9.87296951001e-07
-3.95430128371e-08
-1.65051909453e-08
9.87262993937e-07
-4.49511522709e-08
-1.77188590103e-08
9.87229036911e-07
-4.48969615129e-08
-1.79286616253e-08
9.87195079946e-07
-4.484277097e-08
-1.81384669049e-08
9.87161122931e-07
-4.47885805776e-08
-1.83482748518e-08
8.16782401152e-07
-3.93454630877e-08
-1.67071319962e-08
4.31995535112e-07
-2.23333958292e-08
-1.15433870959e-08
1.09019866978e-07
-5.36851566954e-09
-5.14976879966e-09
0
0
-1.07664793884e-09
0
0
0
0
0
0
0
0
0
0
0
0
0
0
0
0
0
0
0
0
0
0
0
0
0
0
4.75005754557e-08
0
-4.32955614544e-10
1.4983339557e-07
0
-1.84036751558e-09
1.97608092594e-07
0
-3.242082783e-09
1.97606032165e-07
0
-3.69663717906e-09
1.97603971843e-07
0
-3.74153875187e-09
1.97601911411e-07
0
-3.78644051965e-09
1.97599851037e-07
0
-3.83134253784e-09
1.49826286312e-07
0
-3.37405161438e-09
4.74996222519e-08
0
-1.91304777504e-09
0
0
-4.68285568035e-10
0
0
0
0
0
0
0
0
0
0
0
0
0
0
0
0
0
0
0
0
0
0
0
0
0
0
0
0
0
0
0
0
0
0
0
0
0
0
0
0
0
0
0
0
0
0
0
0
0
0
0
0
0
0
0
0
0
0
0
0
0
0
0
0
0
0
0
0
0
0
0
0
0
0
0
0
0
0
0
0
0
0
0
0
0
0
0
0
0
0
0
0
0
0
0
0
0
0
0
0
0
0
0
0
0
0
0
0
0
0
0
0
0
0
0
0
0
0
0
0
0
0
0
0
0
0
0
0
0
0
0
0
0
0
0
0
0
0
0
0
0
0
0
0
0
0
0
0
0
0
0
0
0
0
0
0
0
0
0
0
0
0
0
0
0
0
0
0
0
0
0
0
0
0
0
0
0
0
0
0
0
0
0
0
0
0
0
0
0
0
0
0
0
0
0
0
0
0
0
0
0
0
0
0
0
0
0
0
0
0
0
0
0
0
0
0
0
0
0
0
0
0
0
0
0
0
0
0
0
0
0
0
0
0
0
0
0
0
0
0
0
0
0
0
0
0
0
0
0
0
0
0
0
0
0
0
0
0
0
0
0
0
0
0
0
0
0
0
0
0
0
0
0
0
0
0
0
0
0
0
0
0
0
0
0
0
0
0
0
0
0
0
0
0
0
0
0
0
0
0
0
0
0
0
4.75849415705e-08
-5.41549027645e-09
-4.28374007034e-10
1.50065602755e-07
-2.24662211056e-08
-1.81066223708e-09
1.97895224546e-07
-3.95408542279e-08
-3.1759667426e-09
1.97895130055e-07
-4.49479673215e-08
-3.61752813813e-09
1.97895035548e-07
-4.4893778108e-08
-3.66324833813e-09
1.97894941062e-07
-4.48395890611e-08
-3.70896831929e-09
1.97894846575e-07
-4.47854002392e-08
-3.75468812064e-09
1.50065276678e-07
-3.93422282646e-08
-3.31326534959e-09
4.7584897799e-08
-2.23313764986e-08
-1.88751328726e-09
0
-5.36816040116e-09
-4.64138202758e-10
0
0
0
0
0
0
0
0
0
0
0
0
0
0
0
0
0
0
0
0
0
0
0
2.88562870671e-09
-3.29355836627e-10
-2.51267691543e-11
1.97868718127e-07
-2.28489907078e-08
-1.83430328934e-09
6.42591410951e-07
-9.00691933496e-08
-7.48752689942e-09
1.15180091265e-06
-1.813536625e-07
-1.50158742216e-08
1.3656074477e-06
-2.46693578675e-07
-1.96902969998e-08
1.36560472422e-06
-2.65609366638e-07
-2.08535436698e-08
1.36560200079e-06
-2.65282757525e-07
-2.11301998538e-08
1.36559927723e-06
-2.64956153094e-07
-2.14068513657e-08
1.36559655381e-06
-2.64629553328e-07
-2.16834982032e-08
1.15178859741e-06
-2.4578579372e-07
-1.99222542994e-08
6.42585133777e-07
-1.80937780712e-07
-1.43730937432e-08
1.97867773539e-07
-8.97113736327e-08
-7.26391190948e-09
2.88562850969e-09
-2.26514226625e-08
-1.92947530099e-09
0
-3.24665397311e-10
-2.90634718861e-11
0
0
0
0
0
0
0
0
0
0
0
0
0
0
0
0
0
2.00728760453e-07
-2.25454251298e-08
-1.81514176607e-09
1.04912166838e-06
-1.19063880635e-07
-1.11837907896e-08
2.35690444982e-06
-2.96060595196e-07
-2.88122021587e-08
3.50769712952e-06
-4.84045066001e-07
-4.52402818879e-08
3.95628281489e-06
-6.02093042855e-07
-5.21376708729e-08
3.95623519197e-06
-6.34808605641e-07
-5.29608665612e-08
3.95618756902e-06
-6.3401407446e-07
-5.3684280057e-08
3.95613994607e-06
-6.33219562007e-07
-5.44076768082e-08
3.95609232316e-06
-6.32425068368e-07
-5.51310567606e-08
3.50746280372e-06
-6.00680780942e-07
-5.0934003444e-08
2.35674377764e-06
-4.84878096658e-07
-3.91035898573e-08
1.04907405259e-06
-2.96709263641e-07
-2.40127647459e-08
2.00727433571e-07
-1.18756135759e-07
-1.01225011688e-08
0
-2.22987611533e-08
-1.95340626377e-09
0
0
0
0
0
0
0
0
0
0
0
0
0
0
4.75655753989e-08
-5.43472950719e-09
-4.13010377689e-10
7.92931715602e-07
-7.30264591834e-08
-7.68644230522e-09
2.61379263517e-06
-2.66672480872e-07
-3.03094466773e-08
4.85234778724e-06
-5.48387418248e-07
-6.12148751782e-08
6.60617673258e-06
-8.14309674636e-07
-8.44528733352e-08
7.2617405891e-06
-9.74694433339e-07
-9.06804218808e-08
7.26152226341e-06
-1.01863278133e-06
-8.97404476443e-08
7.26130393767e-06
-1.01734074635e-06
-9.09705570607e-08
7.26108561207e-06
-1.01604875088e-06
-9.22006387985e-08
7.26086728643e-06
-1.01475679498e-06
-9.34306927925e-08
6.60505121717e-06
-9.7343563189e-07
-8.58761828014e-08
4.85143558043e-06
-8.18352014417e-07
-6.66660978516e-08
2.61337939451e-06
-5.52392579348e-07
-4.43836772256e-08
7.92871868457e-07
-2.67662659333e-07
-2.32561893587e-08
4.75654989967e-08
-7.25994993546e-08
-7.23704209602e-09
0
-5.34858918087e-09
-4.81440211322e-10
0
0
0
0
0
0
0
0
0
0
0
1.97569260136e-07
-1.71233675595e-08
-1.75771030368e-09
1.59746652398e-06
-1.30637717035e-07
-1.65593745271e-08
4.27064866597e-06
-3.96098070194e-07
-5.21315254089e-08
7.19305269602e-06
-7.45552843011e-07
-9.34853086249e-08
9.37823480821e-06
-1.060977249e-06
-1.20838097803e-07
1.01794168401e-05
-1.24814822803e-06
-1.24829181941e-07
1.01788860333e-05
-1.29924078351e-06
-1.21647583753e-07
1.01783552263e-05
-1.29757961445e-06
-1.23282460732e-07
1.01778244195e-05
-1.29591850315e-06
-1.24917311317e-07
1.01772936126e-05
-1.29425744959e-06
-1.2655213552e-07
9.37543578041e-06
-1.24734770341e-06
-1.15668030629e-07
7.19060154715e-06
-1.06841321653e-06
-8.95083762388e-08
4.26931952512e-06
-7.53478929266e-07
-6.11867924312e-08
1.59714998886e-06
-3.99229706454e-07
-3.52347100879e-08
1.97564083206e-07
-1.30382277628e-07
-1.36877861892e-08
0
-1.68816850141e-08
-1.96305472056e-09
0
0
0
0
0
0
0
0
0
0
0
3.4785701289e-07
-2.25712292283e-08
-3.16934878669e-09
2.17122098887e-06
-1.54769933586e-07
-2.34053388692e-08
5.3005538422e-06
-4.46447009559e-07
-6.67951746925e-08
8.58135258501e-06
-8.1915977257e-07
-1.14157743735e-07
1.09883123458e-05
-1.1514063684e-06
-1.43607213696e-07
1.18631898133e-05
-1.34764145754e-06
-1.45970530646e-07
1.18623150432e-05
-1.4011627372e-06
-1.41317947079e-07
1.1861440273e-05
-1.39936656734e-06
-1.43150338291e-07
1.18605655029e-05
-1.39757046229e-06
-1.4498271868e-07
1.18596907327e-05
-1.39577442208e-06
-1.46815088329e-07
1.09836527377e-05
-1.34708029478e-06
-1.33806183881e-07
8.57713397565e-06
-1.16029944485e-06
-1.0319948611e-07
5.29809446238e-06
-8.2883610717e-07
-7.09815926249e-08
2.17051849586e-06
-4.50648886829e-07