/*--------------------------------*- C++ -*----------------------------------*\
| =========                 |                                                 |
| \\      /  F ield         | OpenFOAM: The Open Source CFD Toolbox           |
|  \\    /   O peration     | Version:  3.0.1                                 |
|   \\  /    A nd           | Web:      www.OpenFOAM.org                      |
|    \\/     M anipulation  |                                                 |
\*---------------------------------------------------------------------------*/
FoamFile
{
    version     2.0;
    format      ascii;
    class       surfaceVectorField;
    location    "5.7";
    object      Uf;
}
// * * * * * * * * * * * * * * * * * * * * * * * * * * * * * * * * * * * * * //

dimensions      [0 1 -1 0 0 0 0];

internalField   nonuniform List<vector> 
22672
(
(0.00154546463508 0.000379289538832 -0.001228807526)
(0.000403990017885 0.00150010816761 -0.00122977611067)
(0.00101671441201 0.00099099801693 -0.00304559968056)
(0.00388149964247 4.44214207587e-06 -0.00123536364983)
(0.00233294466095 0.00103649978732 -0.00224516092071)
(0.00321848456831 0.000971152313563 -0.00337255616107)
(0.00624070370935 -8.47403457443e-05 -0.00106137135133)
(0.00523384380455 0.000994521575667 -0.00253281988859)
(0.00584290253915 0.00110758426111 -0.00335374728896)
(0.00799978366066 7.6941917976e-05 -0.000804220697632)
(0.00753194483981 0.00132405585406 -0.00241341073436)
(0.00790505721395 0.00144049266561 -0.00308315521083)
(0.00879509936621 0.000447012328076 -0.000562811681977)
(0.00896855891366 0.00197385945268 -0.00219719253571)
(0.00917537390911 0.00194089458562 -0.00276919257931)
(0.00850352474729 0.000858534331432 -0.000386728454497)
(0.00919026425698 0.00278278753575 -0.00197888393293)
(0.0092837250027 0.00252338740474 -0.00249122916158)
(0.00731806857754 0.0012390825295 -0.000274231797712)
(0.00840746218508 0.00348593213751 -0.00182954863538)
(0.00846952033569 0.00298540897628 -0.00230049176526)
(0.00536549324084 0.0015796189599 -0.000206797219604)
(0.00670592922815 0.00411944314354 -0.00172359162348)
(0.00675297240477 0.00342291660126 -0.00216688382593)
(0.00291650246963 0.00179617063411 -0.000184004676735)
(0.00435091209799 0.00456881880567 -0.00168134927064)
(0.00438277715634 0.00373350277449 -0.00211984465068)
(0.000237281923863 0.00187035207872 -0.000179637794517)
(0.00164794823399 0.00479713585138 -0.00167481921692)
(0.00166034660152 0.00389087695422 -0.00211793254295)
(-0.00244862934972 0.00180048202385 -0.000180809450954)
(-0.00116856445289 0.00480115049841 -0.00167309724398)
(-0.00117736208261 0.0038938203087 -0.00211525688402)
(-0.00491734026958 0.0015868832654 -0.000199669376975)
(-0.00388672557221 0.00457959208032 -0.00167561493111)
(-0.00391430113828 0.00374149548709 -0.00211089890939)
(-0.00690093871643 0.00124750179339 -0.000262347611397)
(-0.00626991272563 0.00413385568384 -0.00171338611557)
(-0.00631168217304 0.00343379307272 -0.00215027472874)
(-0.00812664961832 0.000864993884505 -0.000370931404378)
(-0.00801000131888 0.00350104540431 -0.0018149555271)
(-0.00806636656812 0.00299716165542 -0.00227535152526)
(-0.00846336069783 0.000453734437174 -0.000543328795842)
(-0.00883576413201 0.00279687890598 -0.00196201155779)
(-0.00892375704544 0.00253268299434 -0.00246018450567)
(-0.00772485985863 8.65009969461e-05 -0.000781966788485)
(-0.00866658033424 0.00199340626976 -0.00217780769604)
(-0.00886892744746 0.00195690700845 -0.00273192405128)
(-0.00602830741557 -7.29652434377e-05 -0.00103851501389)
(-0.00728924590708 0.00134738391334 -0.00239357175425)
(-0.00766080075506 0.00145860850872 -0.00304395458133)
(-0.00373757879834 1.94920386274e-05 -0.00121263154329)
(-0.00505759041882 0.00102328884563 -0.00251374157296)
(-0.00566699009597 0.00112959070923 -0.00331403866278)
(-0.00147291648183 0.00039758689587 -0.00120663384124)
(-0.00222330374547 0.00106882129999 -0.00222608104824)
(-0.00311323482266 0.000994749599924 -0.00333351030118)
(-0.000362355026471 0.00153440315638 -0.00120638990811)
(-0.00097992427057 0.00101416331636 -0.0030073399551)
(0.00107887349182 0.00226766432899 -0.00224612950537)
(2.91394895308e-05 0.00379729806938 -0.00124219650496)
(0.000995047321057 0.00315187432071 -0.00337608433891)
(0.00379323983764 0.00215393585656 -0.00354261715948)
(0.00221713749787 0.00371326581279 -0.00354468316219)
(0.00332795333763 0.00326375033927 -0.00539115006011)
(0.00660231056566 0.00255516300675 -0.00388485927162)
(0.00567947617076 0.00414432282685 -0.0042672573017)
(0.00615299394814 0.0037367295376 -0.00595888964207)
(0.00860405215067 0.00341422608238 -0.00380638257244)
(0.00833762117939 0.00514755844124 -0.00419901944588)
(0.00828824497392 0.00463556251867 -0.00582525997835)
(0.00946109883963 0.00455323889649 -0.00361326478666)
(0.0098973437681 0.00658951339416 -0.00390348348415)
(0.00949784517592 0.00584152182066 -0.00547271503645)
(0.00914628094881 0.00569930543441 -0.00342170411381)
(0.0101316123071 0.00818318421072 -0.00358057655589)
(0.00959432030713 0.00712774460162 -0.00508559256267)
(0.00779315066555 0.00669277291885 -0.00327890846115)
(0.00917558441512 0.009608411733 -0.00333064916935)
(0.00866453164205 0.00826476467522 -0.00476936315804)
(0.00567388927158 0.00746637312575 -0.00319814367452)
(0.00725571423373 0.0107929911362 -0.00317506896495)
(0.00686306220658 0.00920818370625 -0.00455430101816)
(0.00307038106536 0.00794742492343 -0.00317216381082)
(0.00467619315133 0.0116257558211 -0.00311606540164)
(0.00444084112419 0.00986908138632 -0.00445344404291)
(0.000242345382868 0.00811241688465 -0.00316827866638)
(0.00175835605341 0.0120512215477 -0.00310868347342)
(0.00168165348032 0.0102067833081 -0.0044260660235)
(-0.00259363235231 0.00795827098094 -0.00316790272413)
(-0.00126650747421 0.0120597929308 -0.00310604438707)
(-0.00118823109107 0.010214380992 -0.00442268122608)
(-0.0052200770975 0.00748489574375 -0.00318933166971)
(-0.00420311219744 0.0116486621204 -0.00310792867337)
(-0.00396401832612 0.00988961952157 -0.00444264194089)
(-0.00737367761791 0.00671450325502 -0.00326599403127)
(-0.00681595677802 0.0108233505092 -0.00316240309406)
(-0.00641662705721 0.00923607426984 -0.00453591064386)
(-0.00876815884039 0.00572238248481 -0.00340603568051)
(-0.00877729437184 0.00963970660732 -0.00331485800532)
(-0.00825811767368 0.00829474514884 -0.00474419577454)
(-0.00913202558947 0.00458058295994 -0.003596490458)
(-0.00977719355839 0.00821617069737 -0.00356287956116)
(-0.00923281767415 0.00716021016338 -0.00505544049279)
(-0.00833038626378 0.00344850108599 -0.00378941266181)
(-0.00959449055168 0.00663069660965 -0.00388489740324)
(-0.00919011674663 0.00588169395904 -0.00543894557982)
(-0.00639171111219 0.00259686914547 -0.00386879831331)
(-0.00809329723702 0.00519775187592 -0.00417976994655)
(-0.00804167131448 0.00468429009915 -0.00578906085871)
(-0.00364954006261 0.0022016454141 -0.00352719107791)
(-0.0055020875993 0.00420412343762 -0.00424899939442)
(-0.0059751846483 0.00379376657419 -0.00592302709111)
(-0.00100426353495 0.00231749509715 -0.00222583711512)
(-0.0021051043776 0.00377814950254 -0.0035261582975)
(-0.00321800569665 0.00332410173375 -0.00535463178835)
(1.57182122774e-05 0.00386030397341 -0.00121462634994)
(-0.000954505252044 0.00320826193481 -0.00333018471162)
(0.0010373500916 0.00513676683879 -0.00254075016177)
(-5.98955181115e-05 0.00612970847447 -0.00107322047928)
(0.00113168671773 0.00574281585213 -0.00336978061084)
(0.00422299267027 0.00558526653606 -0.00426932330441)
(0.00261732981305 0.00649332523049 -0.00389150875761)
(0.00380041893219 0.0060558483727 -0.00596571844766)
(0.00749083607249 0.00660317782303 -0.00458141747596)
(0.00669550450846 0.00738381874307 -0.00458380739838)
(0.00696995646643 0.00687475605069 -0.00650735553088)
(0.00975313975721 0.00816083530057 -0.00429612035759)
(0.00976900586726 0.00896356351545 -0.00424220923412)
(0.00928833962968 0.00825356756268 -0.00607832346815)
(0.0106619184299 0.0100127150977 -0.00387079525338)
(0.0114861156742 0.0110212228732 -0.00360978449859)
(0.0105226450264 0.0100034761328 -0.00534050188516)
(0.0102228098122 0.0118340853331 -0.00348952161144)
(0.011653090429 0.0132063039851 -0.00298189242276)
(0.0105340602057 0.0118430246433 -0.00458402460431)
(0.0086376905183 0.0134007249529 -0.00322680967315)
(0.0104460443012 0.0151674900395 -0.00250118857135)
(0.00941607179977 0.0134967518909 -0.00397397273284)
(0.00623700954121 0.014600341028 -0.00309299069207)
(0.00817845604888 0.0167660094394 -0.00221043156275)
(0.00739159052263 0.0148435458864 -0.00357235168381)
(0.00335121439817 0.0153482589849 -0.00305258506424)
(0.00522531676604 0.0178834984558 -0.00209542683529)
(0.00475190750744 0.0157853770956 -0.00337196265173)
(0.000249869426796 0.0156070898391 -0.00304644919412)
(0.00194453375332 0.0184553664561 -0.00207145162257)
(0.001788285388 0.0162707233024 -0.00330281585614)
(-0.00286195735897 0.0153681643573 -0.00304607033631)
(-0.0014344782834 0.0184686241289 -0.00206663446225)
(-0.00128158525685 0.016283384715 -0.00329702082839)
(-0.00577677592881 0.0146338907703 -0.00308100009772)
(-0.00474055522258 0.0179186951835 -0.00208190726262)
(-0.00426662341472 0.0158192656159 -0.00335523094589)
(-0.00821683495437 0.0134393668132 -0.0032112670681)
(-0.0077356328158 0.0168110883108 -0.00219185819251)
(-0.00694288133929 0.0148883277481 -0.00354769475287)
(-0.00984485162155 0.011874323197 -0.00347170188597)
(-0.0100484887625 0.0152118343313 -0.00248088642049)
(-0.00900988973437 0.0135433703073 -0.00394412628404)
(-0.0103308441279 0.0100584746869 -0.0038512865064)
(-0.0112979852258 0.0132510273001 -0.00296004205843)
(-0.0101719415585 0.0118918566948 -0.00454887888519)
(-0.00947522243227 0.00821651753531 -0.00427525468799)
(-0.0111776950028 0.0110746140526 -0.00358537354395)
(-0.0102105857084 0.0100608358783 -0.00529955459754)
(-0.00727523015881 0.00666998885078 -0.00455997102766)
(-0.00951683482069 0.00902975066637 -0.00421499606824)
(-0.00903531075447 0.00832254921717 -0.00603200894752)
(-0.004075483151 0.00566062887704 -0.00424796661401)
(-0.0065109855019 0.00746304682528 -0.00455590891048)
(-0.00678588006766 0.00695526754391 -0.00645869286451)
(-0.000960486657709 0.00521318134342 -0.00251494753231)
(-0.00250015691483 0.00657944801728 -0.00386382525477)
(-0.00368510278524 0.00614231241033 -0.00591632385088)
(0.000107691031361 0.00621136031672 -0.00103806762798)
(-0.00108814566324 0.00582552155523 -0.00331156476263)
(0.00136543861468 0.00741091187359 -0.00242397907512)
(0.000101611755097 0.00786790375766 -0.000817359416204)
(0.00146432922363 0.00777908864364 -0.00310365016006)
(0.00522448443558 0.00821840633921 -0.00420599285158)
(0.00347528978124 0.00847434524653 -0.00381588704289)
(0.00469795819163 0.0081644303833 -0.0058400787242)
(0.00906873660494 0.00965179301886 -0.00424459915654)
(0.00825233658611 0.00962571611206 -0.00430274015734)
(0.00834729760042 0.00916656227742 -0.00608616259818)
(0.0116524118271 0.0116907152536 -0.00355587337512)
(0.0118066782535 0.0115283950037 -0.00355760607726)
(0.0109438388825 0.0108243664283 -0.00514851907579)
(0.0125919623453 0.014028543604 -0.00272088166797)
(0.01370397877 0.0139214405719 -0.00245621296809)
(0.0122324179017 0.0128893917503 -0.00383978040698)
(0.0119383093264 0.0163014608983 -0.00199355938268)
(0.0137576438397 0.0164178021352 -0.00139270480429)
(0.0120987845347 0.0150359955186 -0.00255785762383)
(0.00998770456348 0.0182511035046 -0.00148481046095)
(0.012217828817 0.0186473258034 -0.000559945981517)
(0.0106941961712 0.0169671991307 -0.00152924406765)
(0.00714459938582 0.0197341143766 -0.00121286770597)
(0.00948654684308 0.0204606698709 -2.48677235271e-05)
(0.00830887336771 0.0185315282368 -0.000851569029279)
(0.00380558309069 0.0206546547785 -0.00111429339362)
(0.00601628325694 0.0217279719069 0.0002288399945)
(0.00529476539721 0.0196219886034 -0.000505471696013)
(0.000260747749252 0.020973819261 -0.0010916368907)
(0.00221592330643 0.0223788954085 0.000312338968169)
(0.0019727847751 0.0201837549956 -0.000378708852109)
(-0.00329840135051 0.0206827934399 -0.00110247138856)
(-0.0016796347417 0.0223963961467 0.00032138545386)
(-0.00144695378429 0.0202010716415 -0.000368638565515)
(-0.00667623017648 0.0197803050378 -0.00119276535741)
(-0.00551609302835 0.0217737872143 0.000252832424795)
(-0.00479859710954 0.0196680052402 -0.000477278702499)
(-0.00956691155109 0.0183015491412 -0.00146147754489)
(-0.00904250286971 0.0205165335413 4.64212928571e-06)
(-0.00785984976836 0.0185902729473 -0.000814778568143)
(-0.0115610964939 0.0163499966563 -0.00196922659295)
(-0.0118253871628 0.018697264795 -0.000532642984434)
(-0.0102921785938 0.0170244368066 -0.0014912591434)
(-0.0122564834397 0.0140802720949 -0.00269412909598)
(-0.0134038450906 0.0164628944448 -0.00136677706479)
(-0.0117375286175 0.0150906447529 -0.00251649321245)
(-0.0113651691089 0.0117534431883 -0.0035251149242)
(-0.0133881658124 0.0139725916181 -0.00242584926289)
(-0.0119143480703 0.0129499654206 -0.00378930575768)
(-0.00884240562665 0.00972870989755 -0.00421093395106)
(-0.0115423649511 0.0115941770524 -0.00351990678419)
(-0.0106803368514 0.0108979926679 -0.00508720672051)
(-0.00506830310507 0.00830638073698 -0.00417176755125)
(-0.00805656267137 0.00970734805114 -0.00426140635326)
(-0.00815253143985 0.00925451051782 -0.00601842601718)
(-0.00128342452652 0.00750007541097 -0.00238694535044)
(-0.00335071867026 0.0085646991964 -0.00377441914147)
(-0.00457423706484 0.00826080764479 -0.00577015909371)
(-5.07614953206e-05 0.00795384846886 -0.000772348543873)
(-0.00141631648485 0.00787252640624 -0.00302593483915)
(0.00201556467044 0.00882962433141 -0.00220926738398)
(0.000472187622289 0.0086482692022 -0.000578791089139)
(0.00196491451202 0.00903187204577 -0.00279594244171)
(0.00666622964423 0.0097608707214 -0.00391263434866)
(0.00461498450786 0.00931600313108 -0.00362557365564)
(0.00590346093644 0.00935555221244 -0.00549233239325)
(0.0111262868089 0.0113534758691 -0.00361574707806)
(0.0101060567534 0.010520655238 -0.00388078334797)
(0.0100971235371 0.0103830139869 -0.0053550067224)
(0.0140434611389 0.0135753959411 -0.00245794567024)
(0.0141466677362 0.0124566866042 -0.00272407134847)
(0.0130081451298 0.0120972559269 -0.00384547678646)
(0.0149958281114 0.0161011335029 -0.00112803610442)
(0.0162289918822 0.0148657082633 -0.00112583717849)
(0.0143527754316 0.0142210683969 -0.0018966463978)
(0.014086666645 0.0185432074594 4.09085968712e-05)
(0.0161245648969 0.0173470274003 0.000413819516231)
(0.0140441356462 0.016428969698 -2.00765932732e-05)
(0.0117000719394 0.0206312558918 0.000899996755911)
(0.0142148175759 0.0195529927343 0.00162489968903)
(0.0123088750566 0.0184176121764 0.00148091404393)
(0.0083245050542 0.0222248938209 0.00141683997694)
(0.0109703614919 0.0213520101189 0.00243036415313)
(0.00950146544808 0.0200332979142 0.00248421214299)
(0.00441150806741 0.023220669952 0.00165547235628)
(0.00691886023733 0.022613951172 0.0028445551734)
(0.00602269177622 0.0211661885616 0.00302700256258)
(0.000276064080908 0.0235694344731 0.00172536131273)
(0.00252749571213 0.0232669471736 0.00299589633477)
(0.0022253966047 0.0217546456542 0.0032473765331)
(-0.00388025237236 0.0232558396126 0.00167668926722)
(-0.00195959277085 0.0232877822727 0.00301100167189)
(-0.00167348317506 0.0217764080116 0.00326491448614)
(-0.00784754912673 0.0222806965005 0.00145023991149)
(-0.00640248591649 0.022668827015 0.00288327479497)
(-0.00551348288362 0.0212236377153 0.00307224165811)
(-0.0112840389604 0.0206873576949 0.000933476689746)
(-0.0105306510566 0.0214166433556 0.00247220874602)
(-0.00905683629124 0.0201038322955 0.00253636604479)
(-0.0137162224987 0.0185909158616 6.98065437312e-05)
(-0.0138345418107 0.0196043926943 0.00165425004032)
(-0.0119194781549 0.0184797652094 0.00152504327728)
(-0.014658696995 0.016146755011 -0.0010984972317)
(-0.0157765796801 0.0173874178629 0.000436161741563)
(-0.0136907132185 0.0164817091831 1.79396133878e-05)
(-0.0137456209911 0.013629979882 -0.00242064112287)
(-0.0159065132036 0.0149060532747 -0.00109766088441)
(-0.0140307706612 0.0142737019788 -0.0018465500811)
(-0.0108864597564 0.0114237373374 -0.00357037918638)
(-0.0138677262981 0.0125102368799 -0.0026815452024)
(-0.0127326022859 0.0121616489094 -0.00377523696498)
(-0.00649962509402 0.00984418698342 -0.00386405794348)
(-0.00989650235963 0.0105907531698 -0.00382896123806)
(-0.00988937085582 0.0104631432923 -0.00527026175952)
(-0.00192845318413 0.00891571468444 -0.0021598223349)
(-0.00448196453285 0.00939517210992 -0.00357279177313)
(-0.00577041971982 0.00944542089574 -0.0054016743446)
(-0.0004179384853 0.00872435615767 -0.000525845982599)
(-0.00191304622096 0.0091200183878 -0.00269898310542)
(0.00282550328737 0.00903937786763 -0.0019950973608)
(0.000884179473427 0.00834681236278 -0.000405397274149)
(0.00254813768741 0.00912976632743 -0.00252405527294)
(0.00826269868103 0.00998336931006 -0.00359372265496)
(0.00576297655365 0.008990767552 -0.003437887786)
(0.0071909558691 0.00943994067832 -0.00511196651112)
(0.0133156833052 0.0115102443446 -0.00298910761838)
(0.0119317232497 0.010070609428 -0.00350147989898)
(0.0119396767474 0.0103823602455 -0.00460294732535)
(0.0165429722749 0.0136214015159 -0.00139196285672)
(0.0164250130359 0.0117919978093 -0.00199435231189)
(0.015157842551 0.0119529651452 -0.00256261042066)
(0.0174772367728 0.0159921781505 0.000416018442157)
(0.0186738697601 0.0139459577046 4.99589782377e-05)
(0.0165608655507 0.0139036805097 -1.45262928509e-05)
(0.0162780580067 0.0182510492714 0.00199781060839)
(0.0183833777501 0.0161392157237 0.00200386594507)
(0.0160631234096 0.0159252089581 0.00240697616649)
(0.0134345862282 0.0201803064824 0.00315526708625)
(0.0161196563623 0.0180841280959 0.00352066792315)
(0.0139958231136 0.0177487399353 0.00431232076247)
(0.00951170902133 0.0216577374163 0.0038580793496)
(0.0123781912819 0.019688105265 0.00454158418788)
(0.0107507411458 0.0192386098776 0.00558676553166)
(0.00501704419311 0.022583799977 0.00418497915189)
(0.00776634639471 0.0208293120722 0.00507459890532)
(0.00678434734702 0.0202881763163 0.00627928682464)
(0.000291773124547 0.0229113095612 0.00428153669393)
(0.00281848427529 0.0214311506118 0.00527327622026)
(0.00249029376012 0.020838448669 0.00656105022004)
(-0.00446215837575 0.022624370433 0.00421758719964)
(-0.00221763568971 0.0214536707071 0.00529515716283)
(-0.00190807963627 0.0208637855977 0.00658802587107)
(-0.00903090593701 0.0217216332101 0.00390524362949)
(-0.00723454424725 0.0208900715739 0.00512926202872)
(-0.00626174100102 0.0203556195923 0.00634748689869)
(-0.0130308990976 0.020240899573 0.00319298209659)
(-0.0119480826847 0.0197587192721 0.00459301633317)
(-0.010316829417 0.0193200274919 0.00565790313733)
(-0.0159195561417 0.0182961129312 0.00202060523815)
(-0.0157570085383 0.0181376293078 0.00354416564017)
(-0.0136271610672 0.0178152077662 0.00435540857299)
(-0.0171420636429 0.0160288240892 0.000436998088849)
(-0.0180449894172 0.0161766809052 0.00201479302008)
(-0.015723674333 0.015974908414 0.00243323386948)
(-0.0162340253305 0.0136624841913 -0.00135856496393)
(-0.0183472915863 0.0139791877156 6.81017781152e-05)
(-0.0162385573305 0.0139470867515 1.88156919151e-05)
(-0.0130598713095 0.0115646952723 -0.00294012725407)
(-0.016132291266 0.0118332896235 -0.0019550818651)
(-0.0148698867859 0.0120028691154 -0.00249722211824)
(-0.00808353988888 0.0100498048886 -0.00353769506771)
(-0.0117082938619 0.0101252352994 -0.00344520863956)
(-0.0117172122715 0.0104461130925 -0.00451083541224)
(-0.00273180554999 0.00910876907839 -0.00193881542083)
(-0.00562165476166 0.00905314132388 -0.00337875134284)
(-0.00704772775997 0.0095118086073 -0.00500973316767)
(-0.000827667480053 0.00840792069771 -0.000348802265876)
(-0.00249009303859 0.0091994556201 -0.00241539224973)
(0.00352996707803 0.00824768747378 -0.00184818769935)
(0.00126471819351 0.00715396199112 -0.000294681289752)
(0.00301097486347 0.00830765480994 -0.00233712220002)
(0.00969171463779 0.00901738571694 -0.00334564503003)
(0.00675728583409 0.00762888895173 -0.00329754490019)
(0.0083295670039 0.00850091941074 -0.00479987298257)
(0.015282559728 0.010291418988 -0.00250672459249)
(0.0135012840628 0.00847382342511 -0.00323993589759)
(0.0135970722084 0.00925312145583 -0.00399406586597)
(0.0187771329387 0.0120682189791 -0.000552430476931)
(0.0183790995725 0.00982536038903 -0.00148287239907)
(0.0170925659481 0.0105347138816 -0.00152794562065)
(0.0196853030327 0.0140690687792 0.00163780648115)
(0.0207649472629 0.0115398717056 0.00091688088136)
(0.0185501061597 0.012153317768 0.00149790272615)
(0.0182231065243 0.0159755742111 0.00352672325983)
(0.020314454932 0.0132744569279 0.00317405585233)
(0.0178857803302 0.0138430287942 0.00432693928339)
(0.014970411527 0.0176209854163 0.00490698502478)
(0.0177652814774 0.0148089221995 0.00491742931002)
(0.0155300900265 0.0153786805095 0.00652788293908)
(0.0105562863007 0.0189009870464 0.0057581037436)
(0.0135938993449 0.0160900666532 0.00612859849445)
(0.0118918204782 0.0166552331743 0.00801214476048)
(0.00554739023846 0.0197046388555 0.00616289597369)
(0.00849027638313 0.01700928496 0.00674752018965)
(0.007481321746 0.0175703684436 0.00882890354198)
(0.000307761087725 0.0199869718361 0.00628689668915)
(0.00306973831653 0.0174999738104 0.00685925133736)
(0.00273518779114 0.0180523606474 0.00917078617234)
(-0.00496796260852 0.0197447048773 0.0062068319919)
(-0.00243906599306 0.0175200414231 0.00688062804203)
(-0.00211719947008 0.0180781735444 0.0092093337761)
(-0.0100725015968 0.0189667413436 0.00581703473239)
(-0.00794535982361 0.0170685117996 0.00679471611124)
(-0.00694103849057 0.0176403063804 0.00892608121054)
(-0.0145814215314 0.0176845736609 0.00494419987674)
(-0.0131706708644 0.0161599076622 0.00618985314002)
(-0.0114678301554 0.0167412523969 0.00810771662208)
(-0.0178804368367 0.0160214998863 0.00353835342209)
(-0.0174203088744 0.0148636580652 0.00493403656035)
(-0.0151836007361 0.0154485019178 0.00657297446953)
(-0.0193551968798 0.0141030102581 0.00164589670935)
(-0.0199874566956 0.0133127139723 0.00317399651367)
(-0.0175629811265 0.0138934564979 0.00433871653917)
(-0.018461793717 0.0121019951075 -0.000528415123057)
(-0.0204383968409 0.0115702562636 0.000924533433239)
(-0.0182318031877 0.0121929699706 0.00151551696299)
(-0.0150138115356 0.0103338254553 -0.0024601632506)
(-0.0180777428597 0.00986023139881 -0.00144885660169)
(-0.0167969318324 0.0105757049011 -0.00147493924648)
(-0.0095021272488 0.00906865086041 -0.0032862649147)
(-0.0132690111839 0.00851587795156 -0.00318289548528)
(-0.0133629288022 0.00930247380806 -0.00390234892982)
(-0.00343248850523 0.00830210644875 -0.00178873818789)
(-0.00661123647028 0.00767576045548 -0.00323562705259)
(-0.00817883364179 0.0085554912796 -0.00469228764197)
(-0.00120821500436 0.00720049880147 -0.000237997319672)
(-0.00295116963091 0.00836104403833 -0.00222508871737)
(0.00416283767823 0.00653920212002 -0.00174403849059)
(0.00160398069314 0.00519710737212 -0.000228469962323)
(0.00344764499919 0.00658537162749 -0.00220598505954)
(0.0108766797933 0.00708741641561 -0.00319183576775)
(0.00752844928036 0.00550334298299 -0.00321871737218)
(0.00927174754577 0.00669153122899 -0.00458829716674)
(0.0168829451838 0.00800829008687 -0.00221608370417)
(0.0146985635111 0.00606216209814 -0.00310844906609)
(0.0149436217723 0.00721662293998 -0.00359460859845)
(0.0205930412755 0.00931494371978 -1.35610407816e-05)
(0.0198603679852 0.00696372770225 -0.00121258955319)
(0.0186569761172 0.00813115365761 -0.000848472112033)
(0.0214863598978 0.0107971407143 0.00245313025254)
(0.0223563077668 0.00813770430163 0.00143460943662)
(0.0201650558062 0.00932208865378 0.00250883562538)
(0.019828755885 0.0122022043249 0.00456476190252)
(0.0217887942442 0.00931735788685 0.00388181804897)
(0.0193752888196 0.010569187774 0.0056146861671)
(0.0162540492166 0.0134145423678 0.00613904277969)
(0.0190414949702 0.0103531236555 0.00577781232096)
(0.0168069507265 0.0117061868331 0.00803048576131)
(0.0114258947004 0.0143586911448 0.00711801494049)
(0.0145371275387 0.0112153966637 0.00711838955409)
(0.012853207959 0.0126627549971 0.00970280358847)
(0.00596778800132 0.0149885364066 0.00744387555332)
(0.00908337357928 0.0118325083651 0.00755282913706)
(0.00807386770002 0.0133567994718 0.0106348615949)
(0.000319528489042 0.0152376604348 0.00745298269023)
(0.0032704309613 0.0121902857801 0.00760301579568)
(0.00295031411549 0.0137494409234 0.0109579257301)
(-0.00537255037172 0.015031141475 0.00746851216137)
(-0.00261699667831 0.0122078902214 0.00762369582607)
(-0.0022955050058 0.0137725652047 0.0110042090524)
(-0.0109340672729 0.0144222151027 0.00716753451887)
(-0.00852466130522 0.0118813324528 0.00759639802703)
(-0.00751302353033 0.0134210639504 0.010748677297)
(-0.0158753284111 0.0134732321157 0.00617968982363)
(-0.0141219724795 0.0112710002316 0.00716361668)
(-0.0124305328802 0.0127383773125 0.00983015278518)
(-0.0195001762926 0.0122481923281 0.00456967965193)
(-0.0187066596256 0.0104020231576 0.00579534230583)
(-0.0164767581658 0.0117713204793 0.00808647024107)
(-0.0211641649456 0.0108310119301 0.00245263323756)
(-0.0214710292208 0.00935362146958 0.00387845509086)
(-0.0190674164737 0.0106173348444 0.00562307050228)
(-0.0202761264482 0.00934619954854 4.09195460141e-06)
(-0.0220321124974 0.00816685334984 0.00143795660555)
(-0.0198530125055 0.00935926123101 0.00251535292682)
(-0.0166088037336 0.00804312489873 -0.00217158883638)
(-0.0195561201678 0.0069949372793 -0.00117962252978)
(-0.0183587838872 0.00816767268353 -0.000802044129821)
(-0.0106832792843 0.00712581471465 -0.00313225762317)
(-0.01446406469 0.006095025113 -0.00305126366667)
(-0.0147052109376 0.00725520124607 -0.00350469391055)
(-0.00406455469662 0.00657916667343 -0.00168488618437)
(-0.00738190305477 0.00553777541866 -0.00315713615423)
(-0.00911913650965 0.00673112033955 -0.00448076956303)
(-0.00154826588259 0.00523174189701 -0.000173306038822)
(-0.00338768816719 0.00662338573396 -0.00209581992826)
(0.00460908822208 0.0041806954387 -0.00170314884391)
(0.00181821888684 0.00274826643301 -0.000206348459017)
(0.00375564420198 0.0042126355264 -0.00216024536674)
(0.0117044960415 0.00450105319813 -0.00313533067051)
(0.00800400975669 0.00289859765324 -0.00319428085048)
(0.00992732098892 0.00426506789266 -0.00449065986541)
(0.0179944293915 0.00504200318472 -0.00210495491511)
(0.0154386891771 0.00317156881206 -0.00307163470141)
(0.0158786085546 0.00456848257013 -0.00339934139331)
(0.0218537797209 0.00582280199633 0.000235580924208)
(0.0207711558622 0.00361417228242 -0.00111967866185)
(0.0197390312388 0.0051016645904 -0.000509801198289)
(0.0227401944067 0.00671373928437 0.00286329723305)
(0.0233406881829 0.00420712510617 0.00166474232076)
(0.0212880915743 0.00581926557939 0.00304415294954)
(0.0209609685339 0.00754791052854 0.0050948684674)
(0.0227014704014 0.00479762619426 0.00419725379892)
(0.0204136814033 0.00656876491364 0.006298941534)
(0.017166447421 0.00825955165567 0.00675715909536)
(0.0198324753397 0.00531212057559 0.00616876677939)
(0.017711913112 0.00725061381993 0.00883550501916)
(0.0120404135586 0.00884677576122 0.00755320375066)
(0.0151578930907 0.00572093457292 0.00743526712005)
(0.0135434105909 0.00782942839005 0.0106204747932)
(0.00631071785138 0.00924843410693 0.00771196937941)
(0.0094838017949 0.00605995884692 0.00770253320584)
(0.00852460954492 0.00827486949264 0.0115022229606)
(0.00032932436945 0.00939233800807 0.00777372893152)
(0.00340342040709 0.00624982621762 0.00782985349382)
(0.00310509678851 0.00850783825942 0.0119218305956)
(-0.00569923454625 0.00927391672969 0.00775158169173)
(-0.00273275489275 0.00625991257496 0.00785417755816)
(-0.00242080654903 0.00852277371289 0.0119765149504)
(-0.0115485347962 0.00889199957397 0.00759248018816)
(-0.00891031866251 0.00608772301585 0.00776115555942)
(-0.00794043213678 0.00831514073646 0.0116428902086)
(-0.0167918007656 0.00830710661146 0.0067792691622)
(-0.0147433128601 0.00575784476451 0.00746857363216)
(-0.0131193198027 0.00788379780578 0.0107564053263)
(-0.020640753643 0.00758522221179 0.00510411774476)
(-0.0194987623042 0.00534156013318 0.00619416910163)
(-0.0173869001433 0.00729838906477 0.00890940323367)
(-0.0224236485899 0.00674353451888 0.00286377845885)
(-0.022387846288 0.00482232953815 0.00419809626074)
(-0.0201141037403 0.00660662772836 0.0063141761253)
(-0.0215378881954 0.0058503654295 0.000254242121171)
(-0.0230181784389 0.00422878582522 0.00166986574253)
(-0.0209805654182 0.00585017405297 0.00305229547934)
(-0.0177203397766 0.00507018777715 -0.00205929736007)
(-0.0204670391741 0.00363798542368 -0.00108474662338)
(-0.0194419579508 0.00513176759563 -0.000460612353843)
(-0.0115116757003 0.00452949435857 -0.00307614219772)
(-0.0152046839883 0.00319538515033 -0.0030133994345)
(-0.0156410443709 0.00459766530078 -0.00330904670979)
(-0.00451200740601 0.00420970632051 -0.00164555600868)
(-0.00785863432088 0.00292304258128 -0.0031335803306)
(-0.00977621145311 0.00429346280887 -0.00438496569972)
(-0.00176365260987 0.00277326663938 -0.000152593817098)
(-0.0036972100944 0.00423982587526 -0.0020535543361)
(0.00483279252507 0.00147960075015 -0.00169748046559)
(0.00188991694974 7.43004893684e-05 -0.000202478261996)
(0.00390953129522 0.00149229966462 -0.00215882038636)
(0.0121215402362 0.00158370147198 -0.00313058488137)
(0.00816271708894 7.57316184934e-05 -0.0031916452293)
(0.0102572217307 0.00150774226509 -0.00446587485478)
(0.0185544064694 0.00175906824428 -0.00208635844815)
(0.0156876658025 7.5302773217e-05 -0.00306913566186)
(0.0163526041506 0.00160521349782 -0.00333659743281)
(0.022490251541 0.00201588316351 0.000309482734697)
(0.0210768655816 7.47389734796e-05 -0.00110389491985)
(0.0202856551267 0.0017772180018 -0.000396414317668)
(0.0233760648096 0.00231025436298 0.00299869888663)
(0.0236730053155 7.514015332e-05 0.00172213789847)
(0.0218581220362 0.00201473314843 0.00324616340296)
(0.0215450651151 0.00258277841653 0.00527115211091)
(0.0230098440924 7.55510011109e-05 0.00427403865377)