/*--------------------------------*- C++ -*----------------------------------*\
| =========                 |                                                 |
| \\      /  F ield         | OpenFOAM: The Open Source CFD Toolbox           |
|  \\    /   O peration     | Version:  3.0.1                                 |
|   \\  /    A nd           | Web:      www.OpenFOAM.org                      |
|    \\/     M anipulation  |                                                 |
\*---------------------------------------------------------------------------*/
FoamFile
{
    version     2.0;
    format      ascii;
    class       volVectorField;
    location    "6";
    object      U;
}
// * * * * * * * * * * * * * * * * * * * * * * * * * * * * * * * * * * * * * //

dimensions      [0 1 -1 0 0 0 0];

internalField   nonuniform List<vector> 
7968
(
(0.00210762735961 0.00211037879134 -0.00340438955986)
(0.00650997709434 0.00122752679216 -0.00336472782986)
(0.0116361188775 0.000671077736505 -0.00284576066537)
(0.0154263751558 0.000399993744928 -0.00194360187367)
(0.017446458196 0.000530397511976 -0.000839863754599)
(0.0170044628593 0.000822693027763 -0.000219811627194)
(0.0151388983667 0.00125372444984 0.000242182635316)
(0.0117615574301 0.0017704093746 0.000488558478273)
(0.00735782960946 0.00223789292327 0.0005349477533)
(0.00250117167622 0.00250775227953 0.000504097376383)
(-0.00248290725017 0.00250825597035 0.000504295858411)
(-0.00734125130079 0.00223929703039 0.00053529086492)
(-0.0117479386351 0.00177232447729 0.000488947289543)
(-0.015129144544 0.00125561310702 0.000242658167328)
(-0.0169985195617 0.000824223599547 -0.000219942257776)
(-0.0174432967404 0.00053230667694 -0.000839481721153)
(-0.0154262718784 0.000401487170306 -0.00194459252515)
(-0.0116365657496 0.000672621077737 -0.00284734044029)
(-0.00651036114873 0.00122925184381 -0.00336701013323)
(-0.0021075733994 0.00211219342674 -0.00340689087299)
(0.00122553871259 0.00651323293991 -0.0033638522516)
(0.00602674170083 0.00602759837645 -0.00657509603443)
(0.0120892274158 0.00589641629526 -0.00735205463143)
(0.0165419336147 0.00623454063009 -0.00682961675726)
(0.0188984525581 0.00709619598051 -0.00575046443543)
(0.0185723046749 0.00814725734717 -0.00478750754674)
(0.0165035699154 0.00912072403008 -0.00404179349037)
(0.0127853201468 0.0100468404499 -0.00347962890105)
(0.00797991047493 0.0107678111652 -0.00318057343892)
(0.00270904476037 0.0111578631688 -0.00308521028395)
(-0.0026850667147 0.0111578784951 -0.00308457132408)
(-0.00795747689749 0.0107679422265 -0.00317871269923)
(-0.0127660379904 0.0100472200001 -0.00347677589337)
(-0.016488891713 0.0091213370945 -0.00403856649487)
(-0.0185623187794 0.00814783950464 -0.00478486764225)
(-0.0188927238815 0.00709796697316 -0.00574795391784)
(-0.016539737146 0.00623633304379 -0.00682895197135)
(-0.0120886463788 0.00589882462897 -0.00735265060479)
(-0.00602677257976 0.0060309218149 -0.00657680562847)
(-0.00122549861699 0.00651760470317 -0.00336607943917)
(0.00066972355574 0.0116374240792 -0.00284439053791)
(0.00589715391832 0.0120861092795 -0.00735121111918)
(0.0126734786806 0.0126676249021 -0.00835189739557)
(0.0176386845026 0.0137204566061 -0.00765873726927)
(0.0202453711358 0.0152881871303 -0.00635113410797)
(0.0200403518073 0.0169865662004 -0.00510800965388)
(0.0178171468685 0.0184700771154 -0.00416750026345)
(0.013838147022 0.0198085363013 -0.00348729090534)
(0.00866667730425 0.0208159065792 -0.00311516657405)
(0.00294884244166 0.0213480780346 -0.0029813309748)
(-0.00291939300878 0.0213479296354 -0.00298058118214)
(-0.00863909879447 0.0208154997116 -0.00311292188061)
(-0.013814395095 0.0198079813 -0.00348367414296)
(-0.017798788469 0.0184694892696 -0.00416312254142)
(-0.0200273515007 0.0169860959682 -0.00510382198508)
(-0.0202377105361 0.0152889951752 -0.00634745662109)
(-0.0176350222437 0.0137216946198 -0.00765686864665)
(-0.0126720762776 0.0126701087919 -0.00835146096468)
(-0.00589687786134 0.0120902818416 -0.00735200493609)
(-0.00066981423502 0.0116440965745 -0.00284628295011)
(0.000398974774207 0.0154247830927 -0.00194169883186)
(0.00623638021594 0.0165338035696 -0.00682834587467)
(0.013728295587 0.0176270464582 -0.00765870283271)
(0.0192323908531 0.0192181611331 -0.00662459521932)
(0.0221063835206 0.0212972034047 -0.00495451363525)
(0.0219350700575 0.023446785033 -0.00338307422502)
(0.0194776201139 0.0252755041404 -0.00220553634607)
(0.0151156893059 0.0268809164719 -0.00139707910526)
(0.00946129084217 0.0280651736367 -0.000970464579191)
(0.00321711147059 0.0286805557886 -0.000827536280137)
(-0.00318362941337 0.0286801927739 -0.000826704552422)
(-0.00942973308879 0.028064118921 -0.000967869513521)
(-0.0150882631259 0.0268792549838 -0.00139259810513)
(-0.0194562193962 0.0252732563128 -0.00220004591744)
(-0.02191970197 0.0234445377651 -0.00337762330431)
(-0.0220971435034 0.0212963845842 -0.00494972134148)
(-0.0192276356745 0.0192180806605 -0.00662160243783)
(-0.0137262952365 0.0176288370708 -0.0076572281248)
(-0.00623595933439 0.0165381174747 -0.00682824535348)
(-0.000399269052993 0.0154332958484 -0.00194332788336)
(0.000530401711127 0.0174383419023 -0.00083655589661)
(0.00709893158297 0.0188840272749 -0.00574924788775)
(0.0152975758815 0.0202275676003 -0.00635221298519)
(0.0213133489457 0.0220857941199 -0.00495605322892)
(0.0244408930812 0.0244178582845 -0.002864430532)
(0.0242589426113 0.0268364363124 -0.000876710129612)
(0.0215131100371 0.0288741643969 0.000681494511196)
(0.0166711686828 0.0306031720814 0.0018384108251)
(0.0104209352338 0.031858054527 0.00251677259734)
(0.00354027336459 0.0325097536968 0.00278174679727)
(-0.00350414579621 0.0325087747661 0.00278304677019)
(-0.0103869443979 0.031855207008 0.0025207349158)
(-0.0166418176823 0.0305987834955 0.00184477886284)
(-0.0214903924672 0.0288687759277 0.000688917512565)
(-0.024242829265 0.0268311720469 -0.000869829704384)
(-0.0244311083843 0.0244139904943 -0.00285806832464)
(-0.0213083661971 0.0220830992568 -0.00495168052378)
(-0.0152955195473 0.02022730993 -0.00634926853653)
(-0.00709866933654 0.0188869210175 -0.00574747123574)
(-0.000531368391751 0.0174465046097 -0.000836779210846)
(0.00082236024526 0.0169935713699 -0.000218189679666)
(0.00814971123114 0.0185547635066 -0.00478868159506)
(0.0169962315656 0.0200194962686 -0.00511189982719)
(0.0234632531665 0.021911483279 -0.00338791042588)
(0.0268600333124 0.0242321636923 -0.000880535678738)
(0.0265913101843 0.0265636732979 0.00160857384702)
(0.0235351407728 0.0284692414131 0.00356581293482)
(0.0181954752215 0.0300448806974 0.00503191466258)
(0.0113449920822 0.0311732229209 0.00588929661278)
(0.00384567295583 0.0317518743923 0.00622763879167)
(-0.00380939825324 0.0317502722226 0.0062287885066)
(-0.0113105456656 0.0311685232936 0.00589288254259)
(-0.0181653602032 0.0300374129398 0.00503796824089)
(-0.0235114697875 0.0284597713516 0.00357329620104)
(-0.0265740514436 0.0265537797832 0.00161619601729)
(-0.0268495149261 0.024224090001 -0.000873429070846)
(-0.0234573859937 0.0219046633889 -0.00338284811411)
(-0.0169932939753 0.020015745689 -0.00510827681291)
(-0.00814852647489 0.0185550639516 -0.0047863648155)
(-0.000823082522299 0.0170004793605 -0.000218367284999)
(0.00125464349856 0.0151255190584 0.000243919421673)
(0.00912460651345 0.0164852468482 -0.00404441114375)
(0.0184811888164 0.0177965039249 -0.00417380297425)
(0.0252928248805 0.0194550449382 -0.00221363857518)
(0.0288988200588 0.0214874215158 0.000672939271092)
(0.0284980518554 0.0235084377598 0.00356093686346)
(0.0251650566934 0.0251373351829 0.00582414089433)
(0.0193979284204 0.026472242819 0.00754300617628)
(0.0120359090445 0.0273744429419 0.00863239705505)
(0.00406632502576 0.0278637068397 0.00892175924767)
(-0.00403201091815 0.0278617440515 0.00892218841657)
(-0.0120031838954 0.0273681801201 0.00863572956307)
(-0.0193694502559 0.0264622133398 0.00754877192262)
(-0.0251427579931 0.025124365858 0.00583120505572)
(-0.0284817025483 0.0234942821438 0.00356842619247)
(-0.0288886377311 0.021474624036 0.000680494643039)
(-0.0252871721065 0.0194438204658 -0.00220843546166)
(-0.0184781160167 0.0177888385903 -0.00416971750506)
(-0.00912324494932 0.0164822291001 -0.00404111144433)
(-0.00125575645961 0.0151299891141 0.000244673339132)
(0.00177201901266 0.0117469502117 0.000490543482421)
(0.0100521450899 0.0127693661967 -0.0034836694241)
(0.0198210620152 0.0138218188627 -0.00349551407355)
(0.0268986739402 0.0150991348625 -0.00140774624151)
(0.0306284321226 0.0166526312473 0.00182502830818)
(0.0300749952126 0.018176304422 0.00502145842575)
(0.0265018170076 0.0193784460223 0.00753770943982)
(0.0203627141686 0.0203417514107 0.00935826732514)
(0.012616639157 0.0210535213885 0.00984424258886)
(0.0042437364486 0.0214047114577 0.00998609811931)
(-0.00421396535018 0.0214024870162 0.00998644468091)
(-0.0125886020344 0.0210466194976 0.00984563331877)
(-0.0203390306952 0.0203303578433 0.0093604016249)
(-0.0264832253936 0.0193624295943 0.00754340773052)
(-0.0300615441635 0.0181581066625 0.00502726481999)
(-0.0306198574279 0.0166349276278 0.00183127638383)
(-0.0268938662511 0.0150832470794 -0.00140352051577)
(-0.0198181508517 0.013809740544 -0.00349187421452)
(-0.0100505940113 0.0127624274579 -0.00348018334416)
(-0.00177329965541 0.0117478005119 0.000491903665568)
(0.00223940851588 0.00734218477033 0.000538180945727)
(0.0107740076589 0.00796807410816 -0.00318450831772)
(0.0208291190153 0.00865760121205 -0.00312341836217)
(0.0280828905879 0.00945437901146 -0.00098094636633)
(0.0318828556953 0.0104142986616 0.00250161533334)
(0.0312033071553 0.0113382730022 0.00587613006886)
(0.0274052810853 0.0120295419363 0.00862376971737)
(0.0210768990453 0.012608440806 0.00984522521437)
(0.0130094109271 0.0129985220224 0.0103297870283)
(0.00435736020999 0.013200881951 0.0104769197721)
(-0.00433334129951 0.0131986823561 0.0104773808132)
(-0.0129873906377 0.0129915550777 0.0103311601986)
(-0.0210589601641 0.0125963436626 0.00984716366085)
(-0.0273919207329 0.0120125173373 0.00862682766685)
(-0.031193984096 0.0113182655339 0.00587880380688)
(-0.0318767027244 0.0103937634944 0.00250463641519)
(-0.0280791870229 0.00943563355684 -0.000978975564469)
(-0.0208268466032 0.00864243033696 -0.00312127830186)
(-0.0107726891597 0.00795805177629 -0.00318191226405)
(-0.002240427007 0.00733922167188 0.000539784402706)
(0.00250927201194 0.00248240367661 0.00050848664111)
(0.0111637414304 0.0026995696575 -0.00308749225356)
(0.0213605683703 0.00294594245473 -0.00298772580592)
(0.028696992745 0.00321879075845 -0.000835527392182)
(0.0325321162839 0.00354468883509 0.00276922035279)
(0.0317792497071 0.00385051441607 0.00621588247045)
(0.0278895527938 0.00407025489458 0.00892399971456)
(0.0214256167059 0.0042452380872 0.00998941253798)
(0.0132119048959 0.00435547403101 0.0104784402354)
(0.00441667922186 0.00441289289705 0.0106257064331)
(-0.00439813403201 0.00441083369804 0.0106260990762)
(-0.0131954061148 0.00434902811232 0.0104795596577)
(-0.0214131145948 0.00423413949969 0.00999078021121)
(-0.0278812910231 0.00405474061857 0.00892481419368)
(-0.0317740661366 0.00383202170949 0.00621486351357)
(-0.0325284881618 0.00352506715762 0.0027680588177)
(-0.0286944268694 0.00320053594795 -0.000836400157816)
(-0.0213591703269 0.0029305681294 -0.00298787959264)
(-0.011162980983 0.00268855260531 -0.00308672102341)
(-0.00250967882616 0.00247691730311 0.000509775927994)
(0.00251032231006 -0.00250663230002 0.000507971710007)
(0.0111621816833 -0.00269441860743 -0.00308548474332)
(0.0213580675449 -0.00291887808581 -0.00298506670832)
(0.0286935305824 -0.00317675326034 -0.000832038441335)
(0.0325265454954 -0.00349256080503 0.00277435268218)
(0.0317719186602 -0.00379690665268 0.00622008967875)
(0.0278820764458 -0.00402118450508 0.0089248115355)
(0.0214187706058 -0.00420725015668 0.00998947835812)
(0.0132069755319 -0.00433095907708 0.0104780988058)
(0.00441385608866 -0.00439901348024 0.0106250599066)
(-0.00439918250877 -0.0044005596791 0.0106252739517)
(-0.0131944058711 -0.00433589719477 0.0104787826123)
(-0.0214101556564 -0.00421593842633 0.00999025556363)
(-0.0278772750449 -0.00403319231867 0.00892460971115)
(-0.0317697176863 -0.00381085360047 0.0062161190652)
(-0.0325247774782 -0.00350739299188 0.0027697044163)
(-0.0286918077416 -0.00319083818626 -0.00083544934733)
(-0.0213573233616 -0.00293107745517 -0.00298742886227)
(-0.0111618756098 -0.00270374498995 -0.00308666718906)
(-0.00251022776673 -0.00251234411598 0.000508612556478)
(0.0022418816649 -0.0073683876715 0.000536701503306)
(0.0107699154421 -0.00796619971523 -0.00317930320416)
(0.0208222228836 -0.00863629130523 -0.00311624457098)
(0.0280732111492 -0.00941943408539 -0.000971386120257)
(0.0318670548046 -0.0103704695529 0.00251561499385)
(0.0311821614191 -0.011291897753 0.00588747224635)
(0.0273819524476 -0.01198644473 0.00863093994572)
(0.0210556236006 -0.0125747244555 0.00984602019449)
(0.0129936500398 -0.0129766701812 0.0103286708423)
(0.00434819754025 -0.0131878972702 0.0104747035056)
(-0.00433635086204 -0.0131887429464 0.0104748546416)
(-0.0129839058542 -0.0129793021268 0.0103290263628)
(-0.0210496774165 -0.0125795143548 0.00984579880798)
(-0.0273795686489 -0.011993174814 0.00862719577753)
(-0.0311812318138 -0.0112990119942 0.0058819056147)
(-0.03186599461 -0.010377744172 0.00250911202857)
(-0.0280717015241 -0.00942651687967 -0.000976298291121)
(-0.0208215455426 -0.00864264367062 -0.00311994705512)
(-0.0107695506652 -0.00797143730184 -0.00318175319844)
(-0.0022415748279 -0.00737210597229 0.00053654166491)
(0.00177431116566 -0.0117755165752 0.000488166696923)
(0.0100466990944 -0.0127731033008 -0.00347729630904)
(0.0198111587588 -0.0138099753315 -0.00348599464097)
(0.026884193502 -0.0150758963151 -0.00139452639083)
(0.0306049330483 -0.0166224164062 0.00184350924823)
(0.030042960109 -0.0181419043744 0.00503650196815)
(0.0264662094897 -0.0193454916351 0.00754677966379)
(0.0203295993757 -0.0203150294046 0.00935950846874)
(0.0125914688426 -0.0210355865142 0.00984244885377)
(0.00422881052505 -0.0213920263642 0.00998355145974)
(-0.00421904863458 -0.0213920992858 0.00998355313149)
(-0.0125833757443 -0.0210357735976 0.00984242047045)
(-0.0203244203585 -0.0203154458589 0.00935867999017)
(-0.0264638235603 -0.019345788654 0.00754328037285)
(-0.0300416919492 -0.0181413252367 0.00503134115251)
(-0.0306034104264 -0.0166212326907 0.00183770855718)
(-0.0268823987871 -0.0150749942877 -0.00139915341707)
(-0.0198100910338 -0.0138094264412 -0.0034895863529)
(-0.0100458968822 -0.0127728667075 -0.00347975117491)
(-0.00177409357298 -0.0117758283024 0.000487504220854)
(0.00125608006074 -0.0151545458132 0.000240923393028)
(0.00911902970845 -0.016494377749 -0.0040387623345)
(0.018469840946 -0.0177940694337 -0.00416428309837)
(0.0252750428961 -0.0194439066333 -0.0022003741687)
(0.028870949354 -0.0214712478119 0.000690895861878)
(0.0284598437323 -0.0234870776783 0.00357595243798)
(0.0251220918488 -0.0251155032267 0.00583326981854)
(0.0193568995092 -0.0264538485286 0.00754415811367)
(0.0120042868413 -0.0273615231313 0.00862535767723)
(0.0040466655465 -0.0278524154263 0.00892100583781)
(-0.00403819895137 -0.0278519181531 0.00892073696378)
(-0.0119968145185 -0.027359892881 0.00862521271456)
(-0.0193511363889 -0.0264510475483 0.00754330772226)
(-0.0251180280614 -0.0251110113518 0.00583142644687)
(-0.0284567303761 -0.0234807094705 0.00357317199981)
(-0.028868105555 -0.0214638616151 0.000688119839956)
(-0.0252727799577 -0.0194370289031 -0.00220275778549)
(-0.0184682431345 -0.017788111297 -0.00416635331752)
(-0.00911777239255 -0.0164895001721 -0.00404004274912)
(-0.0012559301655 -0.0151516941662 0.000240440344556)
(0.000823162756254 -0.0170207174257 -0.000221433986403)
(0.0081442328358 -0.0185670894722 -0.00478472242017)
(0.0169840045263 -0.0200235711778 -0.00510401372246)
(0.0234435629253 -0.0219093881222 -0.00337666977426)
(0.0268306660297 -0.024226729498 -0.000866154412196)
(0.0265513436617 -0.0265528880363 0.00162132835987)
(0.0234899888216 -0.0284566838896 0.00357369024815)
(0.0181516128256 -0.0300332819124 0.00503261447774)
(0.0113098853633 -0.0311639424047 0.00588307757382)
(0.00382403772336 -0.0317448085785 0.00621670353636)
(-0.00381573992345 -0.0317439463809 0.00621669742385)
(-0.0113017872462 -0.0311614135734 0.00588302622102)
(-0.0181440146674 -0.0300289547395 0.00503254344754)
(-0.0234833000071 -0.028450138452 0.0035736458563)
(-0.0265456285763 -0.0265441109209 0.0016214477167)
(-0.0268260981112 -0.0242169143888 -0.000865478938086)
(-0.0234404679241 -0.0218999869149 -0.00337640372705)
(-0.0169817896425 -0.02001511425 -0.00510402222487)
(-0.00814267684264 -0.0185599357369 -0.00478441444378)
(-0.000822978130637 -0.0170162208537 -0.00022132325151)
(0.000529386225257 -0.0174628143221 -0.000841661607856)
(0.00709229776723 -0.0188971894763 -0.00574741934237)
(0.0152842601509 -0.0202354347612 -0.00634672388337)
(0.021292879735 -0.0220900908275 -0.00494784579609)
(0.0244115228416 -0.0244198346531 -0.00285392724693)
(0.0242211194629 -0.0268347266218 -0.000867519176823)
(0.0214706502447 -0.0288700064856 0.000687746035982)
(0.0166295943455 -0.0305977855579 0.00183945952638)
(0.0103870965003 -0.0318524388596 0.00251226615607)
(0.00351899732797 -0.0325041572699 0.0027736284107)
(-0.00351044931167 -0.0325032300315 0.00277353280348)
(-0.0103780133863 -0.0318496680847 0.00251224539564)
(-0.0166200670837 -0.0305931420626 0.00184015599212)
(-0.0214615631483 -0.028863353652 0.000689617998444)
(-0.0242132719937 -0.0268262406004 -0.000864584541065)
(-0.0244056620091 -0.0244106507174 -0.00285036049158)
(-0.0212890073348 -0.0220808058197 -0.00494504647895)
(-0.0152815975667 -0.0202267946811 -0.00634460087936)
(-0.00709057705856 -0.0188897475716 -0.00574562423408)
(-0.000529002070127 -0.0174579980801 -0.000841243139911)
(0.000396303187654 -0.0154405543395 -0.00194562763539)
(0.00622736327729 -0.0165442662558 -0.00682772897599)
(0.0137127136884 -0.0176351229127 -0.00765563622848)
(0.019210192733 -0.0192246776756 -0.00661988369147)
(0.0220768141381 -0.0213026790954 -0.00494886073302)
(0.0218990419843 -0.0234492256475 -0.00337867942599)
(0.0194385861081 -0.0252761291312 -0.00220354669989)
(0.0150780740287 -0.026880228191 -0.00139808361136)
(0.00943081960525 -0.0280635977424 -0.000974357885981)
(0.00319798367545 -0.0286784098269 -0.000833201058266)
(-0.00318924204764 -0.0286777549144 -0.000833286411439)
(-0.0094211299103 -0.0280615926625 -0.000974263296166)
(-0.0150674099056 -0.0268768961461 -0.00139708834923)
(-0.0194280003933 -0.0252714168569 -0.00220122761231)
(-0.0218896430941 -0.0234432039007 -0.00337523026755)
(-0.02206945641 -0.0212961590561 -0.00494456635476)
(-0.0192052125152 -0.0192178983989 -0.00661588831255)
(-0.0137094049159 -0.0176287766719 -0.00765218091798)
(-0.00622546078584 -0.0165389175939 -0.00682486014644)
(-0.000395873600962 -0.015437213531 -0.00194447615829)
(0.000665645891118 -0.0116463722849 -0.00284686588518)
(0.00588638441523 -0.0120926781946 -0.00735075620673)
(0.0126566740099 -0.0126737876045 -0.00835015064306)
(0.017616418501 -0.013726432245 -0.00765618829577)
(0.0202173859655 -0.015293807372 -0.00634812696438)
(0.0200080601395 -0.0169900291702 -0.00510606027429)
(0.0177829338535 -0.0184723471805 -0.00416707801179)
(0.0138054880806 -0.0198100630863 -0.00348923082567)
(0.00864036429886 -0.020817050079 -0.00311959828497)
(0.00293251072732 -0.0213489817774 -0.00298758350786)
(-0.00292353852077 -0.0213486008709 -0.00298782973587)
(-0.00863017994062 -0.0208158083587 -0.00311992593014)
(-0.0137939692852 -0.019807899427 -0.00348876042099)
(-0.0177711623534 -0.0184692504885 -0.00416528810515)
(-0.0199972691958 -0.0169860804814 -0.00510306959595)
(-0.0202085070742 -0.0152897054536 -0.00634412544961)
(-0.0176101214582 -0.0137222794152 -0.00765206847434)
(-0.0126524971959 -0.012670115083 -0.00834650842451)
(-0.00588406414963 -0.0120898527792 -0.00734786116639)
(-0.000664968973764 -0.011644924979 -0.00284566135718)
(0.00122066231282 -0.00651600010849 -0.00336503750177)
(0.00601513550691 -0.00603032486775 -0.00657449940621)
(0.0120723747746 -0.00590006269561 -0.00735128209424)
(0.0165209937105 -0.00623891990896 -0.00682866041462)
(0.0188732722529 -0.00710083590142 -0.00574925992532)
(0.0185448244748 -0.00815040650776 -0.00478706841775)
(0.0164751921171 -0.00912318110549 -0.00404200667818)
(0.012758941986 -0.0100488485089 -0.00348175127829)
(0.00795942179687 -0.0107695973942 -0.00318482719992)
(0.00269693477744 -0.0111594599234 -0.00309101268392)
(-0.0026871653888 -0.0111593545335 -0.00309154014982)
(-0.00794830059901 -0.0107691805643 -0.00318558294993)
(-0.0127463500135 -0.0100480745105 -0.00348190555727)
(-0.0164621703247 -0.00912203145396 -0.00404094926439)
(-0.0185326548318 -0.00814888155606 -0.00478488201802)
(-0.0188627908031 -0.00709946936229 -0.00574599618841)
(-0.0165133183365 -0.00623762927387 -0.00682522681295)
(-0.0120671582629 -0.00589920346527 -0.00734835723588)
(-0.00601212282962 -0.00602998867409 -0.00657232441275)
(-0.00121952934437 -0.00651610708476 -0.00336381767887)
(0.00210343189168 -0.00211032335377 -0.00340443416741)
(0.00650011984928 -0.00122840281756 -0.00336499226344)
(0.0116222817035 -0.000672981946464 -0.00284727717767)
(0.0154106634859 -0.000402827962397 -0.00194617841724)
(0.0174284913219 -0.000534241034442 -0.000842836184823)
(0.0169860950079 -0.000826512009419 -0.000223355956998)
(0.01512055045 -0.00125789340374 0.000238645215601)
(0.0117446452877 -0.00177441146728 0.000484712149984)
(0.00734477196133 -0.00224083354501 0.00053106921904)
(0.00249388828126 -0.0025094069832 0.000500255906301)
(-0.0024827596953 -0.0025093160735 0.000499815885253)
(-0.00733211390422 -0.00224063837303 0.000530093179619)
(-0.011730147973 -0.00177424850358 0.000483909970802)
(-0.0151053742468 -0.00125792533595 0.000238600041248)
(-0.0169717254677 -0.000826776654782 -0.000222875112983)
(-0.0174154216045 -0.000534560664493 -0.000841970555848)
(-0.0154005731903 -0.000403496773824 -0.00194469138819)
(-0.0116152995771 -0.000673754916543 -0.00284605543326)
(-0.00649590232599 -0.00122925110358 -0.0033640927584)
(-0.00210159510443 -0.00211092530485 -0.00340304033593)
(0.00342006803839 0.00342344310519 -0.0134760970502)
(0.00953591437297 0.00438102995061 -0.0138373875401)
(0.0147033470388 0.00509295787048 -0.0125727954531)
(0.018099268942 0.00579593656864 -0.0104427079321)
(0.0194787424823 0.00648562943716 -0.00807502208193)
(0.0186600915892 0.00703825901662 -0.00619770794303)
(0.0162543542919 0.00750494378579 -0.00496072236179)
(0.0124395814299 0.00794664494082 -0.00422865369887)
(0.00770268848787 0.00832165442507 -0.00399859004245)
(0.00260202561278 0.00854053584496 -0.00402297058251)
(-0.00258071807021 0.00854032989085 -0.00402194413355)
(-0.00768280454782 0.00832100851208 -0.00399588899232)
(-0.0124225551418 0.00794557090673 -0.00422464607836)
(-0.0162414474247 0.00750348529517 -0.00495588695652)
(-0.0186514072875 0.0070365673429 -0.00619356832235)
(-0.0194732574909 0.00648407786914 -0.00807210585704)
(-0.0180960430877 0.0057946062908 -0.0104419478949)
(-0.0147012632445 0.00509224345217 -0.0125743741779)
(-0.00953455806442 0.00438107559197 -0.0138410011916)
(-0.00341930870626 0.00342413921486 -0.0134801804268)
(0.00438078237518 0.00953734099381 -0.0138340812519)
(0.0107862629646 0.0107826215866 -0.0167869983411)
(0.0156195900713 0.0119125980797 -0.0163422980556)
(0.0186859005756 0.0132754304464 -0.0145008258868)
(0.01979061996 0.0147385684026 -0.0122044972958)
(0.0189554910185 0.0160937698054 -0.0101122179171)
(0.0164803335663 0.0172772852874 -0.00848753795445)
(0.0126379025284 0.0183024764103 -0.0073582619879)
(0.00788304639906 0.0190840465351 -0.00675531212876)
(0.00268126021325 0.0195044113533 -0.00654226634995)
(-0.00265265385146 0.0195036141496 -0.00654076535423)
(-0.00785596222444 0.0190817028094 -0.0067508870896)
(-0.0126138417422 0.0182988472826 -0.007351339619)
(-0.0164606348836 0.0172727961822 -0.00847917593273)
(-0.0189405727011 0.016089084203 -0.0101040116702)
(-0.0197799801125 0.0147344488686 -0.0121977057487)
(-0.0186788611265 0.0132722775076 -0.014496438843)
(-0.0156152690058 0.0119107227948 -0.0163406302553)
(-0.0107839444656 0.0107821799438 -0.0167879080198)
(-0.00438001473484 0.00953869042124 -0.0138374114522)
(0.00509444348843 0.0147006367702 -0.012568017499)
(0.0119187195466 0.0156109869921 -0.016341177218)
(0.0169582839924 0.0169468705583 -0.015815353084)
(0.0200027210038 0.0187101768284 -0.0135647233641)
(0.0209987286134 0.0206665137947 -0.0107602005656)
(0.0200579243779 0.0225436616717 -0.00810467096741)
(0.0174136046906 0.0241901381956 -0.00595322623059)
(0.0133777719491 0.0255475554961 -0.00438875220093)
(0.00838368098623 0.0265383660859 -0.00344818318865)
(0.00286327316022 0.0270615007658 -0.00304134650421)
(-0.00282974545902 0.0270605326415 -0.00303957172958)
(-0.00835189102371 0.0265355309855 -0.00344289151575)
(-0.0133493631987 0.0255431424368 -0.00438034866175)
(-0.0173899228389 0.0241845127553 -0.00594289780194)
(-0.0200395063461 0.022537829144 -0.00809411799936)
(-0.0209852632057 0.020661228495 -0.0107510013479)
(-0.0199934667128 0.0187059669092 -0.013557959886)
(-0.0169524399507 0.0169441957659 -0.0158113863437)
(-0.01191537096 0.015610286721 -0.0163399650506)
(-0.00509329903268 0.0147032411751 -0.0125700139845)
(0.00579854246558 0.018090631384 -0.0104365127318)
(0.0132833225212 0.0186723915493 -0.0144997866003)
(0.0187235112906 0.0199870077643 -0.0135654563203)
(0.0218608432174 0.0218436665104 -0.0106814661136)
(0.0227701899213 0.0239241967082 -0.00718011278707)
(0.0216460375016 0.0259495662314 -0.00387296165801)
(0.0187130252691 0.0277226163703 -0.00117199206809)
(0.0143344505683 0.0291481713996 0.000822509885826)
(0.00897896173308 0.0301530689448 0.00204957632395)
(0.00306778902203 0.0306730060134 0.00259909119146)
(-0.003031256519 0.0306717230274 0.0026011721596)
(-0.00894423950568 0.0301493335843 0.00205580120217)
(-0.0143033349857 0.0291423760832 0.00083246190089)
(-0.0186867496847 0.0277154384253 -0.00115960503209)
(-0.0216252742071 0.0259418304934 -0.00386030660488)
(-0.0227549031209 0.0239169282063 -0.00716878427295)
(-0.0218501468324 0.0218377242233 -0.0106725295176)
(-0.0187166131503 0.0199829657248 -0.0135593220598)
(-0.0132791200496 0.018670973908 -0.0144964535434)
(-0.00579713092197 0.0180940462244 -0.0104367766345)
(0.00648947133891 0.0194630913181 -0.00806998953453)
(0.0147481419601 0.0197728593606 -0.0122057121934)
(0.0206815533864 0.0209800132154 -0.0107638017115)
(0.0239427326 0.0227508475815 -0.00718322569101)
(0.0247628508123 0.0247427259028 -0.00296146967583)
(0.0234033991422 0.0267066779712 0.00105153137217)
(0.0201601575798 0.0284140238772 0.00432275943651)
(0.0154134119184 0.0297752843191 0.00669177322977)
(0.00963620207779 0.0307166526412 0.00813504668953)
(0.00328734704319 0.0311988831941 0.00877665328993)
(-0.00324965657115 0.0311972899521 0.00877889001584)
(-0.00960037851081 0.0307119985602 0.00814178863652)
(-0.015381251431 0.0297680213678 0.00670265840628)
(-0.0201331465594 0.0284050779405 0.00433635562189)
(-0.0233819788421 0.0266968494204 0.00106587044919)
(-0.024746860905 0.0247332309354 -0.00294840791616)
(-0.023931340378 0.0227425524755 -0.00717233675777)
(-0.0206741404789 0.0209739156523 -0.0107556019005)
(-0.0147433552459 0.0197698964566 -0.012200204755)
(-0.00648803994263 0.0194659659404 -0.00806811111599)
(0.00704296502725 0.0186402712353 -0.00619683996453)
(0.0161051253615 0.018935567563 -0.0101177536005)
(0.0225604355489 0.020038251969 -0.00811302097647)
(0.0259694644927 0.0216267524765 -0.003881272171)
(0.0267276687425 0.0233836931762 0.00104607410926)
(0.025171680715 0.0251515688205 0.00569882662174)
(0.0216274713657 0.0266929464218 0.00946431415622)
(0.0164984696887 0.0279001717141 0.0121518390606)
(0.0102942732632 0.0287323694273 0.013763152865)
(0.00350656769077 0.0291641273735 0.0144696385556)
(-0.00346962155204 0.0291622089991 0.0144716983683)
(-0.0102591623991 0.0287267085822 0.0137694725029)
(-0.0164669481526 0.0278912062508 0.0121623535654)
(-0.0216009646607 0.0266815959282 0.00947793270136)
(-0.0251507846881 0.0251391170704 0.00571386573274)
(-0.0267120901306 0.0233711751323 0.00106040704407)
(-0.0259583316062 0.0216151932943 -0.00386909963094)
(-0.0225529989229 0.0200292147601 -0.00810336680794)
(-0.0160999899882 0.0189301377975 -0.0101105121996)
(-0.00704133471785 0.0186414202061 -0.00619294005054)
(0.0075111164262 0.0162330371978 -0.00496363916462)
(0.0172909641473 0.016461024629 -0.00849777638778)
(0.024209059041 0.0173957877346 -0.00596680057244)
(0.0277440534122 0.0186964661301 -0.00118656315121)
(0.0284360074924 0.0201436600355 0.00431028529204)
(0.0267138783051 0.0216110794741 0.00945706924837)
(0.0229018999391 0.022885233089 0.0135738794822)
(0.0174408385708 0.0239033663926 0.016489031526)
(0.01087263155 0.0246352951215 0.0182362558229)
(0.00369988772148 0.0250000659143 0.0190651307969)
(-0.00366547675285 0.024997899707 0.0190670042971)
(-0.0108400865133 0.0246290089402 0.0182415947224)
(-0.0174118064942 0.0238931516358 0.0164980633814)
(-0.0228776151625 0.0228717049739 0.0135857967551)
(-0.0266948840038 0.0215956818506 0.00947075515762)
(-0.028422145181 0.0201277640495 0.00432383491536)
(-0.027734069101 0.0186812934066 -0.0011746362014)
(-0.024202161192 0.0173831327128 -0.00595702419181)
(-0.0172860384263 0.016452171318 -0.00848965900948)
(-0.00750953089926 0.0162308404061 -0.00495784788135)
(0.00795422845984 0.0124205831523 -0.00423487669797)
(0.0183181314288 0.0126225783197 -0.00737212258087)
(0.0255680800484 0.0133649401937 -0.00440614955061)
(0.0291710236335 0.0143236227825 0.000803405496663)
(0.0297986113362 0.0154035032189 0.00667328504972)
(0.0279224189742 0.0164891500555 0.012138250161)
(0.023921127839 0.0174316192883 0.0164832054093)
(0.0182246682964 0.0182147846304 0.0196842510052)
(0.0113519944541 0.018763503946 0.0217645688557)
(0.00385887381365 0.0190447921528 0.0226644683356)
(-0.00382826936473 0.0190425762123 0.0226660980719)
(-0.0113233246557 0.0187568942589 0.0217696339177)