/*--------------------------------*- C++ -*----------------------------------*\
| =========                 |                                                 |
| \\      /  F ield         | OpenFOAM: The Open Source CFD Toolbox           |
|  \\    /   O peration     | Version:  3.0.1                                 |
|   \\  /    A nd           | Web:      www.OpenFOAM.org                      |
|    \\/     M anipulation  |                                                 |
\*---------------------------------------------------------------------------*/
FoamFile
{
    version     2.0;
    format      ascii;
    class       volScalarField;
    location    "0.6";
    object      k;
}
// * * * * * * * * * * * * * * * * * * * * * * * * * * * * * * * * * * * * * //

dimensions      [0 2 -2 0 0 0 0];

internalField   nonuniform List<scalar> 
7968
(
0.0153131782283
0.0155866134638
0.0157191993697
0.0157591815787
0.0157687504949
0.0157705401757
0.0157703232942
0.0157694980484
0.0157685286794
0.0157678322909
0.0157679022152
0.015768681062
0.015769672374
0.0157704919951
0.0157706913325
0.0157688778922
0.015759263558
0.0157192514047
0.015586680076
0.0153132004045
0.0155866182731
0.0176151981105
0.0185842022393
0.0189060649274
0.0189916042378
0.0190086282197
0.0190094664828
0.0190076992558
0.0190064647222
0.0190060102673
0.0190060948677
0.0190066997044
0.0190080447594
0.0190098784912
0.0190090473617
0.0189920110769
0.0189063949765
0.018584450705
0.0176154430033
0.0155866598088
0.015719248246
0.018584277037
0.0201170389184
0.0206895284589
0.0208619101937
0.0209019322741
0.0209061958795
0.0209040428673
0.0209026584456
0.0209024467586
0.0209025411841
0.0209029294085
0.0209044511168
0.0209066975919
0.0209024562098
0.0208624168425
0.0206899306784
0.0201173283396
0.0185844568453
0.0157192530263
0.0157592440925
0.0189062060695
0.020689539186
0.0213955324903
0.0216191246674
0.0216706008161
0.0216732131574
0.0216678676967
0.021665028281
0.0216646320573
0.0216647459436
0.0216653537238
0.0216683571026
0.0216738120284
0.0216712369863
0.0216197149427
0.0213960165471
0.0206898649665
0.0189063840397
0.0157592301067
0.0157688350917
0.0189916505522
0.0208619982386
0.021619128647
0.0218591125129
0.021908285581
0.0219110263926
0.0219097442496
0.0219082285422
0.0219078382917
0.0219078946589
0.0219083954048
0.0219099904053
0.0219113279202
0.021909078572
0.0218598546818
0.0216197120075
0.0208623844335
0.0189918392242
0.0157688081799
0.0157706255722
0.0190087548544
0.0209019783992
0.0216705882347
0.0219082609037
0.0219668855279
0.0219750456458
0.021971325306
0.0219683688037
0.021967528076
0.0219675974553
0.0219685768769
0.0219716441708
0.0219754182476
0.0219672775597
0.0219091942416
0.0216713430126
0.0209024811552
0.0190090101007
0.0157706063152
0.0157704154554
0.0190095264049
0.0209061839916
0.0216731206395
0.0219109991143
0.0219750078662
0.02197943681
0.0219723063248
0.0219674925757
0.0219659931948
0.0219660890079
0.0219677826434
0.0219727484847
0.0219799477861
0.0219754947162
0.0219114213674
0.0216740716701
0.0209068407518
0.0190098978319
0.0157704212049
0.0157695840163
0.0190077031186
0.0209039246165
0.0216676346033
0.0219096578315
0.021971206501
0.0219722116862
0.0219622425875
0.0219556093524
0.0219532956557
0.021953433846
0.0219560117229
0.0219628375113
0.0219728739185
0.0219718291541
0.0219101693691
0.0216688065458
0.020904750923
0.0190081877558
0.0157696058116
0.0157685889916
0.0190063668863
0.0209024148862
0.0216646496529
0.0219080620001
0.0219681498151
0.021967265902
0.021955447858
0.0219472621493
0.0219439688691
0.0219441670081
0.0219477939491
0.021956196908
0.0219680583075
0.0219688823291
0.0219086652765
0.0216660022692
0.020903371623
0.0190069312105
0.015768629729
0.0157678262062
0.0190058128905
0.0209020840534
0.0216640997686
0.0219075960486
0.0219672108816
0.021965636671
0.0219529585798
0.0219437491047
0.0219395123605
0.021939779124
0.0219444006124
0.0219538153212
0.0219665072771
0.0219680012635
0.0219082387819
0.0216655482591
0.0209031153926
0.0190064250369
0.0157678793503
0.0157678112112
0.0190058122867
0.0209020859214
0.0216640985036
0.0219075941822
0.0219672055373
0.0219656258761
0.0219529411566
0.0219437299086
0.021939492684
0.0219397585228
0.0219443829145
0.0219537975088
0.0219664931425
0.0219679904535
0.0219082276408
0.0216655319938
0.0209030962125
0.0190064062469
0.0157678392993
0.015768549865
0.0190063644358
0.020902421426
0.0216646561101
0.0219080635403
0.0219681434823
0.021967253457
0.0219554282265
0.0219472377403
0.0219439487062
0.0219441468006
0.0219477700484
0.0219561655393
0.0219680281904
0.0219688537059
0.0219086367623
0.0216659551004
0.0209033216175
0.019006877112
0.0157685354259
0.0157695296286
0.01900769477
0.0209039330587
0.021667641349
0.0219096528531
0.0219711949906
0.0219721911937
0.0219622127377
0.0219555776536
0.0219532697195
0.0219534070101
0.0219559753646
0.021962790591
0.0219728260977
0.0219717834922
0.0219101169202
0.021668714542
0.0209046569345
0.0190080862104
0.0157694764867
0.01577036311
0.0190095297936
0.0209062037431
0.0216731347271
0.0219109935824
0.0219749955882
0.0219794148741
0.0219722723075
0.0219674536022
0.0219659577923
0.0219660498712
0.0219677367639
0.0219726947027
0.0219798922948
0.0219754371075
0.0219113528422
0.0216739540238
0.0209067189173
0.0190097687808
0.0157702710864
0.0157705729255
0.0190087498998
0.0209020028846
0.0216706138832
0.0219082653104
0.0219668793906
0.0219750312641
0.0219713021818
0.0219683395878
0.0219674977739
0.021967563285
0.0219685381429
0.0219715975366
0.0219753641322
0.0219672112889
0.0219090638051
0.0216711981133
0.0209023276563
0.0190088483302
0.0157704561162
0.015768791515
0.0189916730797
0.0208620535017
0.0216191691986
0.0218591193639
0.021908272192
0.0219110148581
0.0219097250784
0.0219082013637
0.0219078062375
0.0219078571222
0.0219083566665
0.0219099392618
0.0219112668855
0.021908949928
0.0218596988371
0.0216195430924
0.0208621981436
0.0189916454849
0.0157686568619
0.0157592014038
0.018906222406
0.0206896055888
0.0213955944123
0.0216191445208
0.0216705859345
0.0216731754895
0.0216678145803
0.0216649564415
0.0216645514423
0.0216646537812
0.0216652557604
0.0216682431024
0.021673682549
0.0216710876528
0.0216195465781
0.0213958219308
0.0206896290716
0.0189061119597
0.0157590692931
0.0157192167056
0.0185843193133
0.0201171162495
0.0206895938656
0.0208619171368
0.020901906925
0.0209061425459
0.0209039750418
0.0209025741934
0.0209023528232
0.020902435872
0.0209028169418
0.0209043228116
0.0209065503528
0.0209022941809
0.0208622290446
0.0206897037903
0.0201170734719
0.0185841890315
0.015719106054
0.0155866491068
0.0176153607808
0.0185843229091
0.0189061458287
0.0189916151231
0.0190085940349
0.0190094223027
0.0190076275607
0.0190063790754
0.0190059075551
0.019005982365
0.019006587163
0.0190079278734
0.019009745522
0.0190089008686
0.0189918458865
0.0189062065319
0.0185842713751
0.0176151896471
0.0155865521994
0.0153131956594
0.0155866590251
0.0157192244289
0.0157591881449
0.0157687421641
0.0157705197843
0.0157702908873
0.0157694437734
0.0157684606933
0.0157677380158
0.0157677867672
0.0157685651518
0.0157695577638
0.0157703771837
0.0157705786806
0.0157687661613
0.015759157978
0.0157191592965
0.0155865854981
0.0153131445143
0.0155835403004
0.0175897715484
0.0185513752257
0.0188712701637
0.0189567517644
0.0189745616221
0.0189760834578
0.0189745654497
0.0189730732507
0.0189722887689
0.0189723479291
0.0189732311969
0.0189747835085
0.0189763235634
0.0189748003365
0.0189569618347
0.0188714310553
0.0185514809542
0.0175898585022
0.0155835377717
0.017589748932
0.0296741378745
0.0335528378513
0.0349120080828
0.0353276644549
0.0354274843489
0.0354391139956
0.0354326084317
0.0354260685622
0.0354228413024
0.0354229498377
0.0354263895183
0.0354331017687
0.0354397302287
0.0354281645958
0.0353283557797
0.0349126182256
0.0335533010404
0.0296744857283
0.0175898250593
0.0185514141453
0.0335530398208
0.0386352440205
0.0405806949215
0.0412502476115
0.0414417648304
0.0414809793962
0.0414819583271
0.0414779018314
0.0414757326029
0.0414758443212
0.0414782288544
0.0414824607881
0.0414815990369
0.0414424284387
0.0412508844642
0.0405812120278
0.038635571083
0.0335531431024
0.0185514363966
0.0188713545524
0.0349123257432
0.040580836419
0.0428579358422
0.0436873429291
0.043940369981
0.0439973360352
0.0440016556509
0.043998310028
0.0439966424773
0.0439967702466
0.0439986823608
0.0440022245647
0.043998022628
0.0439410678258
0.0436879673671
0.0428584006678
0.0405810774743
0.0349123286446
0.0188713479792
0.0189568681469
0.0353280450134
0.0412504575426
0.0436874163944
0.0445961125169
0.0448761391438
0.0449362528804
0.0449359136904
0.0449298082272
0.0449276054789
0.0449277869264
0.0449303378233
0.0449367255533
0.0449372167644
0.0448770277629
0.0445968436141
0.0436879277815
0.0412507049503
0.0353280233965
0.0189568471086
0.0189746836953
0.0354278382728
0.0414419702139
0.0439404384929
0.0448761242951
0.0451564285433
0.0452037622405
0.0451940631935
0.0451836373089
0.0451803738556
0.0451806124743
0.0451843494663
0.0451951905417
0.0452051134607
0.0451577441329
0.0448771284868
0.0439411098431
0.0414423225339
0.0354278986284
0.0189746819085
0.0189761948032
0.0354394097775
0.0414811166667
0.0439973196764
0.0449361111144
0.0452036133587
0.0452373300058
0.0452183828462
0.0452038698832
0.0451996015674
0.0451999181332
0.045204819089
0.0452199014294
0.0452391610604
0.0452054094294
0.0449375722258
0.0439982357289
0.0414816313978
0.0354395887973
0.0189762365444
0.0189746464594
0.035432808196
0.0414819827642
0.0440014948117
0.0449355719174
0.045193623668
0.0452180448216
0.0451929772578
0.0451757763655
0.0451708570887
0.0451712807461
0.0451770079399
0.0451949267168
0.0452203493423
0.0451958814071
0.0449374004149
0.0440026533645
0.0414826685934
0.0354331116024
0.0189747319316
0.0189731021164
0.0354261561545
0.0414777895778
0.0439979762679
0.044929200183
0.0451828651287
0.0452031086019
0.0451752951274
0.045156971392
0.0451517360099
0.0451522464899
0.0451584470541
0.0451776305128
0.0452057928826
0.0451854697923
0.0449313211232
0.0439993313288
0.0414786152637
0.0354265643524
0.0189732291748
0.018972246534
0.0354228072893
0.0414754858469
0.0439961430672
0.0449267594474
0.0451792770633
0.0451984324575
0.0451698692721
0.0451511722206
0.0451458252444
0.0451464242292
0.045152839994
0.0451724635418
0.0452013519672
0.0451820766573
0.0449290249907
0.0439976000602
0.0414763845939
0.0354232691461
0.0189724010516
0.0189722394805
0.0354228094728
0.0414754898644
0.0439961462667
0.0449267565902
0.0451792687494
0.0451984163725
0.0451698430947
0.0451511450825
0.0451458072574
0.045146404555
0.0451528231739
0.0451724460767
0.0452013422048
0.0451820654285
0.0449290085451
0.0439975862307
0.0414763685832
0.0354232500341
0.018972383487
0.0189730842039
0.0354261685122
0.0414778060785
0.0439979911523
0.0449292073999
0.0451828634593
0.0452030943067
0.0451752789036
0.0451569683233
0.0451517625179
0.045152278332
0.0451584792074
0.0451776276679
0.0452057752451
0.0451854391459
0.044931279518
0.0439992878011
0.0414785669317
0.035426506411
0.0189731809402
0.0189746192042
0.0354328359018
0.0414820120906
0.0440015179226
0.0449355795164
0.0451936203687
0.0452180307126
0.0451929617565
0.0451757813678
0.0451708964465
0.0451713195163
0.0451770327659
0.0451949116406
0.0452203139087
0.0451958270609
0.0449373218488
0.0440025784051
0.0414825884815
0.0354330222351
0.0189746576168
0.0189761689052
0.0354394526923
0.041481162988
0.0439973594052
0.0449361370998
0.0452036176944
0.0452373190631
0.0452183629899
0.0452038658345
0.0451996327572
0.0451999492465
0.0452048328958
0.0452198806515
0.0452391187852
0.0452053386761
0.0449374766512
0.0439981383914
0.0414815231932
0.0354394714025
0.0189761437702
0.0189746616239
0.0354278998967
0.0414420420051
0.0439405060359
0.0448761759157
0.0451564590432
0.0452037717558
0.0451940634526
0.0451836451324
0.0451804011405
0.0451806386738
0.0451843611935
0.0451951714285
0.0452050655309
0.045157670606
0.0448770358778
0.0439409946204
0.0414421792415
0.0354277373919
0.0189745835826
0.0189568553278
0.0353281436871
0.041250567577
0.0436875180438
0.044596194949
0.0448761977437
0.0449362795416
0.0449359212084
0.0449298113805
0.0449276111323
0.0449277867271
0.0449303286759
0.0449366893932
0.0449371591117
0.044876959425
0.0445967450676
0.043687784933
0.0412505114648
0.0353277982126
0.0189567324667
0.0188713584156
0.0349124629043
0.0405809815331
0.0428580641117
0.0436874447221
0.0439404480052
0.0439973908068
0.0440016940261
0.0439983387931
0.0439966654961
0.0439967840187
0.0439986837499
0.0440022047735
0.0439979798961
0.0439409946123
0.0436878427048
0.0428582037749
0.0405807923
0.0349119606263
0.0188712077423
0.0185514459541
0.0335532209964
0.0386354278202
0.040580844389
0.0412503530364
0.0414418412336
0.0414810326999
0.0414819948592
0.0414779292514
0.0414757526197
0.0414758538198
0.0414782233846
0.0414824365892
0.0414815505723
0.0414423375149
0.0412507228983
0.0405809498357
0.0386351823731
0.0335526220716
0.0185512842297
0.0175898349303
0.0296744773765
0.0335530822171
0.0349121939223
0.0353277803618
0.0354275742705
0.0354391756473
0.0354326515071
0.0354261075917
0.0354228746231
0.0354229737527
0.0354263965571
0.0354330961927
0.0354397068167
0.0354280962848
0.0353282032742
0.0349123386341
0.0335528570466
0.0296738191596
0.0175896567741
0.0155835279674
0.0175898109544
0.0185513915007
0.0188712791028
0.0189567387426
0.0189745385247
0.0189760493466
0.0189745136317
0.0189730101997
0.0189722148336
0.0189722661523
0.0189731498781
0.0189747040793
0.0189762441081
0.0189747158504
0.0189568616104
0.0188713063911
0.0185513186251
0.0175896482326
0.0155834571808
0.015714694113
0.018545319939
0.0200636801971
0.0206306151665
0.0208021420775
0.0208435342672
0.020849624816
0.0208482692006
0.0208464470975
0.0208455157093
0.0208455681675
0.0208466011213
0.02084849772
0.020849888728
0.0208438044207
0.0208023989088
0.0206308209285
0.0200638088255
0.018545396417
0.0157146986425
0.0185452898937
0.0335246382265
0.0385937165304
0.0405285982136
0.0411892444237
0.0413733983958
0.0414065776109
0.0414026603033
0.0413949071777
0.0413907036104
0.041390831254
0.041395283491
0.0414032445607
0.041407315162
0.0413742081088
0.0411900714612
0.0405293165978
0.0385942283492
0.0335249025223
0.018545366743
0.0200637060991
0.0385939581703
0.0450543742183
0.0476959068364
0.0486952424934
0.0490194334532
0.0491021684174
0.0491141273796
0.0491115887003
0.049109133955
0.0491092526216
0.0491119372347
0.0491146719858
0.0491028482139
0.0490201587739
0.0486959232371
0.0476964296991
0.045054641608
0.0385938899653
0.0200637311433
0.0206307058084
0.0405290042373
0.0476960909524
0.0507471680574
0.051964031723
0.0523861197572
0.0525052031789
0.0525284710068
0.0525294018715
0.0525281290045
0.0525282519648
0.0525297632167
0.0525290370381
0.0525058935678
0.0523868072534
0.0519646168942
0.0507475522453
0.0476961909789
0.0405287600215
0.0206306847389
0.0208022725505
0.0411897421132
0.0486955270345
0.0519641375674
0.0533019770002
0.0537777274235
0.0539137067389
0.0539387611542
0.0539388541018
0.0539372227976
0.0539373938564
0.0539393443578
0.0539395132661
0.0539146178914
0.0537785659424
0.053302609282
0.0519645099842
0.0486955864329
0.0411894459104
0.0208022355633
0.0208436682423
0.0413738851066
0.0490197235018
0.0523862368885
0.0537777346695
0.0542711541817
0.054405784513
0.0544259660384
0.054422224463
0.0544189112257
0.0544191126628
0.0544228238822
0.0544268568566
0.0544068536135
0.0542723081483
0.0537786199485
0.0523867414004
0.0490198712646
0.0413736726718
0.0208436668888
0.0208497380173
0.0414069930598
0.0491023846285
0.0525052325384
0.0539135812927
0.054405711848
0.0545329834369
0.0545451363134
0.0545355589899
0.0545294958765
0.0545297291049
0.0545362453521
0.0545461279188
0.054534122258
0.0544070321037
0.0539148981123
0.0525059802989
0.0491026977841
0.0414069041358
0.0208497836321
0.0208483412458
0.0414029524594
0.0491142115579
0.0525283442309
0.0539384628355
0.054425766551
0.0545450197336
0.0545488282404
0.0545328003133
0.0545234798562
0.0545237706482
0.0545336300943
0.0545499985659
0.054546311099
0.0544272378578
0.0539400470188
0.052529333216
0.0491147026406
0.0414029978082
0.0208484443055
0.0208464590764
0.0413950621838
0.0491115222401
0.0525290987891
0.0539383385727
0.0544218087804
0.0545352071318
0.0545325521984
0.0545112057106
0.0544989810087
0.0544993221514
0.0545121858173
0.0545339635207
0.0545367280348
0.0544234938792
0.0539401387475
0.0525302717283
0.0491121588446
0.0413952354162
0.0208466153685
0.0208454588439
0.0413907234185
0.0491089257459
0.0525276668942
0.0539364942944
0.0544182274444
0.054528839191
0.0545228718981
0.0544985872054
0.0544848020838
0.0544852093487
0.0544996861258
0.0545244648312
0.0545305398407
0.0544200717387
0.0539384176558
0.0525289317442
0.0491096343017
0.0413909560936
0.0208456493733
0.0208454536953
0.0413907262717
0.04910893022
0.0525276709097
0.0539364970088
0.0544182298707
0.0545288375055
0.0545228659324
0.0544985761131
0.0544847918663
0.0544852012251
0.0544996856336
0.0545244686899
0.0545305466966
0.0544200743335
0.0539384127649
0.0525289205634
0.0491096174101
0.0413909311435
0.0208456354807
0.0208464492823
0.0413950749102
0.0491115385822
0.052529114071
0.053938354768
0.0544218222592
0.0545352088168
0.0545325501629
0.0545112094466
0.054498995991
0.0544993434387
0.0545122228619
0.0545339860989
0.0545367453734
0.0544234993924
0.0539401221287
0.0525302360586
0.0491121065393
0.0413951601876
0.0208465760639
0.020848332386
0.0414029832833
0.0491142428284
0.0525283718857
0.0539384931883
0.0544257946831
0.0545450344229
0.0545488414146
0.0545328292567
0.0545235285347
0.0545238157314
0.0545336697642
0.0545500175645
0.0545463244055
0.0544272388612
0.0539400149743
0.0525292749879
0.0491146213743
0.0414028859808
0.0208483851958
0.0208497281739
0.0414070360554
0.0491024358597
0.0525052808624
0.0539136340863
0.0544057617536
0.0545330226606
0.0545451699064
0.0545356072913
0.0545295668312
0.0545297960447
0.0545362957944
0.054546154375
0.0545341400321
0.0544070278969
0.053914854916
0.0525059038781
0.0491025909985
0.0414067631017
0.0208497114498
0.0208436621301
0.0413739494159
0.0490198048017
0.0523863160583
0.0537778093253
0.0542712290524
0.054405854074
0.0544260340938
0.0544223002135
0.0544189981413
0.0544191944614
0.0544228885339
0.0544268969505
0.0544068724341
0.0542722951813
0.0537785681827
0.0523866466137
0.0490197283361
0.0413734720944
0.0208435832508
0.0208022871641
0.0411898561949
0.0486956430578
0.0519642415994
0.0533020639743
0.0537778040099
0.0539137707739
0.0539388146774
0.0539389050763
0.0539372741851
0.0539374393976
0.0539393783558
0.053939527195
0.0539146087955
0.0537785277097
0.053302528421
0.0519643766242
0.0486953890086
0.0411891896915
0.0208021420749
0.0206307437616
0.0405291529982
0.0476962235741
0.0507472703327
0.0519641056981
0.0523861697371
0.0525052293222
0.0525284781043
0.0525294000089
0.0525281224775
0.05252823827
0.0525297379212
0.0525289946906
0.0525058326759
0.0523867152615
0.0519644714759
0.0507473322883
0.0476958771644
0.0405283452987
0.0206305553914
0.0200637679363
0.0385941224656
0.0450544997144
0.0476959778683
0.0486952697957
0.0490194284963
0.0491021346655
0.0491140692205
0.0491115196806
0.0491090582814
0.0491091682739
0.0491118389233
0.049114557858
0.0491027152995
0.0490199828442
0.0486956735049
0.0476960739309
0.0450541513354
0.0385932468949
0.0200635566907
0.0185453710732
0.0335248604682
0.0385938140821
0.0405286099277
0.0411891969247
0.0413733222888
0.0414064639527
0.0414025089797
0.0413947497785
0.041390541043
0.0413906586372
0.0413950868891
0.0414030296223
0.0414070996249
0.0413739443486
0.0411897094927
0.0405288060247
0.038593534666
0.0335239725013
0.0185451357572
0.0157146813894
0.0185453301027
0.0200636726646
0.0206306024479
0.0208021138354
0.0208435047709
0.0208495771105
0.0208482071014
0.0208463764232
0.020845442108
0.0208454886695
0.0208465134504
0.0208484080173
0.0208498061849
0.0208437173313
0.0208022799216
0.020630652402
0.0200635741117
0.0185450989909
0.0157146320554
0.0157551145956
0.018864054039
0.0206288561993
0.021328334323
0.0215540453355
0.0216128355492
0.0216233305707
0.0216228447328
0.0216212042434
0.0216203632972
0.0216204169835
0.0216213638513
0.0216230842882
0.0216236176594
0.0216131280193
0.0215543313641
0.0213285607254
0.0206289859277
0.0188640901688
0.0157551083592
0.0188640257282
0.0348786742577
0.0405229842044
0.0427814206064
0.0435976556737
0.0438425598684
0.0438945197512
0.0438950081723
0.0438879126027
0.0438837484188
0.0438839032389
0.0438883566174
0.0438957015029
0.0438954113068
0.0438435266809
0.0435986203941
0.042782239654
0.0405235454794
0.0348788974607
0.0188640619
0.0206288715782
0.0405232504981
0.0476771580823
0.0507181088505
0.0519284033854
0.0523474056142
0.0524656171115
0.052488589687
0.0524887051426
0.0524866339283
0.0524867680017
0.0524891024723
0.0524892258061
0.0524664246461
0.0523482579336
0.0519291830297
0.0507186930785
0.0476774439331
0.0405231451593
0.0206288954109
0.0213284211113
0.0427818701559
0.0507183122477
0.0542176888136
0.0556832669228
0.056225981966
0.0563947005816
0.0564350692103
0.0564402921869
0.0564394689633
0.0564395812087
0.0564406263508
0.0564355671392
0.0563953051995
0.0562266778196
0.0556839085874
0.0542180990895
0.0507184046189
0.0427815732277
0.0213284027391
0.0215541752668
0.0435982132667
0.0519287147191
0.0556833774187
0.0572986537724
0.0579153342503
0.0581107010035
0.0581565317666
0.058160656918
0.0581584355945
0.0581585363438
0.0581609443582
0.0581569140383
0.0581110888266
0.057915688936
0.0572991160251
0.0556837728471
0.0519287767957
0.0435978733204
0.0215541510913
0.0216129637249
0.0438431035361
0.0523477016722
0.0562261121585
0.0579154812737
0.0585616513868
0.0587624764891
0.0588025978974
0.058798877832
0.0587918564942
0.0587918925801
0.0587989657405
0.0588026397035
0.0587624036792
0.0585615542712
0.0579155539053
0.0562265474099
0.0523479123982
0.0438428873863
0.0216129886599
0.0216234220122
0.0438949461621
0.0524657856233
0.0563948541824
0.0581111093086
0.0587627963907
0.0589551245937
0.0589799520007
0.0589613288075
0.058945735959
0.0589457035807
0.0589611854326
0.0589796052454
0.0589545299611
0.0587621257144
0.0581107542576
0.0563951847788
0.0524662626235
0.0438949375329
0.0216235192556
0.0216228775119
0.0438952337752
0.052488551965
0.0564352442304
0.058157115167
0.0588031372019
0.0589801809449
0.0589841133477
0.0589458892404
0.0589191857288
0.0589191276684
0.0589456408781
0.0589835766402
0.0589792913281
0.0588021182059
0.0581564296288
0.0564354427586
0.0524893015843
0.0438954543339
0.0216230606609
0.0216211689563
0.0438879479841
0.052488462096
0.0564403753349
0.0581611907181
0.0587994256235
0.0589615970817
0.0589459365104
0.0588894772603
0.0588524424314
0.0588523795341
0.0588892079628
0.0589454009144
0.0589606923938
0.0587983876838
0.0581605108254
0.0564406073675
0.0524894129218
0.0438883774363
0.0216214295989
0.0216202458559
0.0438836164582
0.0524862196663
0.056439401418
0.058158825644
0.05879231036
0.0589459547208
0.0589191746048
0.0588523579687
0.0588094709064
0.058809441188
0.0588521287545
0.0589187083092
0.0589451246433
0.0587913552782
0.0581582411253
0.0564397205846
0.0524872653066
0.0438841298108
0.0216205525923
0.0216202431699
0.0438836186721
0.0524862222944
0.0564394009756
0.0581588213958
0.0587922918843
0.0589459068351
0.0589190952773
0.0588522535685
0.0588093511802
0.058809334684
0.0588520432709
0.0589186454392
0.0589450858174
0.0587913414819
0.0581582429975
0.0564397177108
0.0524872491808
0.0438840993438
0.0216205387971
0.021621161024
0.0438879540165
0.0524884723905
0.0564403754564
0.058161180671
0.058799371428
0.0589614548027
0.0589457142174
0.0588892082251
0.0588521545495
0.0588521163385
0.0588889984591
0.0589452330748
0.058960580543
0.0587983462749
0.0581605118419
0.0564405952205
0.0524893621833
0.0438882839985
0.0216213905754
0.0216228690165
0.043895241118
0.0524885728326
0.0564352483936
0.0581571117755
0.0588030724474
0.058979994232
0.058983829222
0.0589455753116
0.058918873299
0.0589188128088
0.0589453500373
0.0589833183904
0.058979122357
0.0588020579716
0.0581564277664
0.0564354139784
0.0524892248566
0.0438953225731
0.0216230011524
0.0216234088844
0.0438949594228
0.0524658259419
0.0563948859642
0.0581111394678
0.0587627751541
0.0589549911502
0.0589797274295
0.05896108495
0.0589455083518
0.0589454681039
0.0589609479205
0.0589793892481
0.0589543969967
0.0587620884628
0.0581107562816
0.0563951411233
0.0524661608997
0.0438947753648
0.0216234557763
0.0216129493499
0.0438431350311
0.0523477731577
0.0562261854857
0.0579155554725
0.0585617074499
0.0587624746525
0.0588025428487
0.0587988111471
0.0587917974991
0.0587918263413
0.0587988887062
0.0588025656536
0.0587623673948
0.0585615553471
0.0579155541645
0.0562264822026
0.0523477736767
0.0438426515477
0.0216129022888
0.0215541919847
0.0435982897537
0.0519288130779
0.0556834685201
0.0572987261562
0.0579154084057
0.0581107540977
0.0581565595831
0.0581606730796
0.0581584469029
0.0581585368289
0.0581609298847
0.058156887545
0.0581110647211
0.0579156680321
0.0572990523629
0.0556836575001
0.0519285859991
0.0435975902048
0.0215540616415
0.021328459199
0.0427819755545
0.0507184102754
0.0542177565217
0.0556833044523
0.0562259895256
0.0563946670978
0.0564350035411
0.0564402253027
0.056439396141
0.0564394978163
0.0564405259815
0.0564354439755
0.0563951916904
0.0562265635841
0.0556837572485
0.0542178818375
0.0507180964096
0.0427811474628
0.0213282814907
0.0206289214617
0.0405233455696
0.0476772164184
0.0507181096065
0.0519283608135
0.052347319529
0.05246549073
0.0524884282728
0.0524885289367
0.0524864528659
0.0524865837812
0.0524889123015
0.0524890308961
0.0524662240208
0.0523480265966
0.0519288908723
0.050718307977
0.0476769407338
0.0405224925449
0.0206287303223
0.0188640641804
0.0348787584621
0.0405229624673
0.0427813066923
0.0435974946115
0.0438423424016
0.0438942489119
0.0438946787315
0.0438875759541
0.0438834026128
0.0438835526644
0.0438879959794
0.0438953331999
0.0438950573479
0.0438431330307
0.0435981480642
0.0427816363439
0.0405227994417
0.0348779580755
0.0188638500417
0.0157550922171
0.0188640070736
0.0206288126593
0.0213282900401
0.021553993931
0.0216127793276
0.0216232514222
0.0216227503811
0.0216211090766
0.0216202608053
0.0216203118209
0.021621252645
0.0216229644891
0.0216235138507
0.0216130190633
0.021554188829
0.0213283687769
0.0206287372852
0.0188637954381
0.0157550646462
0.0157663895232
0.0189540759552
0.0208061178935
0.0215603460822
0.0218115562081
0.0218800561991
0.0218940157248
0.0218950198023
0.0218941332073
0.021893668776
0.0218937312095
0.0218943113864
0.0218952809529
0.0218943493581
0.0218803962388
0.0218118732804
0.0215605870751
0.020806260306
0.0189541209089
0.0157663806121
0.0189540509222
0.0353113871075
0.0412030690783
0.0436188078519
0.0445180434263
0.0447993089566
0.0448652220657
0.0448709810352
0.0448660156767
0.0448626952361
0.044862894958
0.0448665867923
0.044871875637
0.0448663893689
0.0448005482882
0.0445192132627
0.0436197704841
0.0412037317645
0.0353116690906
0.0189540986035
0.0208061262577
0.0412033520067
0.0486848164046
0.051935761109
0.0532652845706
0.0537420566431
0.0538843444111
0.0539159030841
0.0539183012429
0.0539165604747
0.0539167241804
0.0539187946335
0.0539166529432
0.053885271166
0.053743128649
0.0532663017742
0.0519365168985
0.0486852305769
0.0412033407363
0.0208061706867
0.0215604205356
0.043619267904
0.0519359623925
0.05568014037
0.0572904980487
0.0579072589353
0.0581072730016
0.0581573972079
0.0581630518457
0.0581608359255
0.0581609452624
0.0581633759112
0.0581578217195
0.0581076618383
0.0579076501965
0.0572910434923
0.0556807546528
0.0519362310161
0.0436190982486
0.0215604485534
0.0218116785954
0.0445186061227
0.0532655610326
0.0572906606139
0.0590687382173
0.0597685442892
0.0599964485858
0.0600469871714
0.0600446604764
0.0600364886897
0.0600364921543
0.0600446406446
0.0600468276952
0.0599959905161
0.0597678123716
0.0590681604533
0.0572908441839
0.0532659369481
0.0445184732364
0.0218117159208
0.0218801474572
0.0447998099883
0.0537422972111
0.0579079253436
0.0597694054878
0.0605009881608
0.0607270638935
0.0607570573275
0.0607309023406
0.0607082469086
0.0607081565499
0.0607305408886
0.0607562267398
0.0607254437822
0.0604985355227
0.0597669411929
0.0579069354963
0.0537428475436
0.0447999969248
0.0218802885939
0.0218940333993
0.0448654614052
0.0538845991416
0.0581087665542
0.0599985145333
0.0607282668025
0.0609267861112
0.0609130605692
0.0608436961929
0.0607961217781
0.0607960321801
0.0608432442153
0.0609119019697
0.0609243003856
0.0607241674761
0.0599938975471
0.0581061317538
0.0538849997607
0.0448661470433
0.0218943309353
0.02189492701
0.0448708227558
0.0539161612394
0.0581594659717
0.0600498274841
0.0607589691632
0.0609136589051
0.0608394729859
0.0607122772486
0.0606322570498
0.0606322153931
0.0607119437622
0.0608383920312
0.0609109019677
0.0607539899229
0.060043862404
0.0581556999039
0.0539163633841
0.0448720183063
0.0218953931332
0.0218939547511
0.0448655382458
0.0539183699477
0.0581651432759
0.060047653172
0.0607329696925
0.0608443486428
0.0607122145114
0.0605302404238
0.0604200555257
0.0604199921004
0.0605299144074
0.0607112608986
0.0608416335909
0.0607278188307
0.0600413841507
0.0581612020037
0.0539186914314
0.0448671089715
0.0218945363895
0.0218933857118
0.0448619655694
0.0539163767275
0.0581627367324
0.0600394072821
0.0607103092107
0.0607967180647
0.0606319662383
0.0604197129748
0.0602927340443
0.0602927064427
0.0604194210849
0.0606311267163
0.0607940949371
0.0607052060193
0.0600332050708
0.0581589342152
0.0539168699961
0.0448637014574
0.0218940325414
0.0218933817541
0.0448619647974
0.0539163657533
0.0581627189648
0.0600393748117
0.0607102494295
0.0607966186792
0.0606318079608
0.0604195108685
0.0602925041276
0.0602925171493
0.0604192931367
0.0606310343138
0.0607940118531
0.0607051510253
0.0600331904331
0.0581589423345
0.0539168632269
0.0448636649633
0.0218940178576
0.0218939515707
0.0448655373406
0.0539183431692
0.058165093756
0.0600475617045
0.0607327967802
0.0608440464628
0.0607117666624
0.0605296892321
0.0604194438709
0.0604194678872
0.0605295436604