/*--------------------------------*- C++ -*----------------------------------*\
| =========                 |                                                 |
| \\      /  F ield         | OpenFOAM: The Open Source CFD Toolbox           |
|  \\    /   O peration     | Version:  3.0.1                                 |
|   \\  /    A nd           | Web:      www.OpenFOAM.org                      |
|    \\/     M anipulation  |                                                 |
\*---------------------------------------------------------------------------*/
FoamFile
{
    version     2.0;
    format      ascii;
    class       volScalarField;
    location    "4.3";
    object      alpha.water;
}
// * * * * * * * * * * * * * * * * * * * * * * * * * * * * * * * * * * * * * //

dimensions      [0 0 0 0 0 0 0];

internalField   nonuniform List<scalar> 
7968
(
0.999999998479
0.999999992006
0.99999999672
1.00000000187
1.0000000007
1.00000002097
1.00000002696
1.00000000482
0.999999993755
1.00000000102
1.0000000018
1.00000000218
1.0000000688
1.00000007989
1.00000002054
1.00000000034
0.999999999883
1.00000000054
1.00000000006
1.00000000125
0.999999998845
0.999999993406
1.00000000042
1.00000003591
1.00000010891
1.00000018029
1.00000020277
1.00000005437
1.00000000351
0.99999999613
0.999999994482
1.00000000423
1.00000006936
1.00000012232
1.00000009908
1.00000000542
1.00000000117
0.999999999974
1.0000000018
1.00000000019
0.999999990631
0.999999999545
1.00000012974
1.00000015195
1.0000001761
1.0000002021
1.00000011678
1.00000000718
0.999999995363
0.999999991822
0.999999989972
1.00000000206
1.00000000266
1.00000001772
1.00000000408
1.00000000593
1.00000000025
1.00000000463
1.00000000205
1.00000000225
0.999999978997
0.999999986188
1.00000009048
1.00000012753
1.00000008235
1.00000007377
1.00000004819
1.00000000119
0.999999995068
0.999999992595
0.99999999252
0.999999996051
1.00000001019
1.00000000381
1.00000001276
1.00000000034
1.000000009
1.00000000264
1.00000000906
1.00000000267
0.999999977913
0.99999997896
1.00000000182
1.00000001337
1.00000003666
1.00000002609
1.00000001666
1.00000001991
0.999999992805
0.999999993772
0.99999999257
0.999999993774
1.00000002895
1.00000002669
1.00000000439
1.0000000181
1.00000000021
1.00000001561
1.00000000369
1.00000000561
0.99999998313
0.999999986784
0.999999998364
1.00000000512
1.0000000001
1.0000000106
1.00000001097
1.00000000487
1.00000000034
1
0.999999990341
0.999999985988
1.00000006669
1.00000002928
1.00000003505
1.00000000146
1.00000001201
1.00000000038
1.00000001054
1.0000000007
0.9999999907
0.999999992597
0.999999993175
1.00000000198
1.00000001302
1.0000000298
1.00000003096
1.00000008338
1.00000005991
1.00000000014
1.00000000009
1.0000000131
1.00000002418
1.00000005394
1.00000000955
1.00000002755
0.999999994809
1.00000000021
0.999999999215
1.00000000268
1.00000000127
0.99999999668
1
1.00000000792
1.00000002
1.00000004397
1.00000004655
1.00000002538
1.00000001947
1.00000000061
1.00000000432
1.00000000288
1.00000002451
1.00000000845
1.00000003191
0.999999998436
0.999999985904
0.999999985374
0.999999989841
0.999999999962
1.00000000152
0.999999999706
1.00000000079
1.00000000148
1.00000001785
1.00000002194
1.00000002912
1.00000001478
1.0000000062
1.00000000199
1.00000000187
1.00000001514
1.00000000137
1.0000000206
0.999999999585
0.999999984259
0.99999999471
0.999999982831
0.999999980295
0.999999994345
1
1.00000000146
1
1.000000003
0.999999998325
1.00000002534
0.999999999218
1.00000001362
1.0000000016
1.00000001052
1.00000000425
1.00000000051
1.00000001279
1.0000000001
1.00000000191
1
0.999999987262
0.999999988117
0.99999997612
0.999999975264
1.00000000056
1
1.0000000031
0.999999995043
0.999999994972
0.9999999999
1.00000000515
1.00000000138
1.00000001139
1.00000000353
0.999999999204
1.00000000053
0.999999997813
1.0000000009
0.999999999031
0.999999999205
0.999999999411
0.999999986507
0.999999985084
0.999999976708
0.999999999577
0.999999999993
0.999999990653
0.999999990653
0.999999999999
1.00000000036
0.999999999581
0.99999999906
0.999999999834
1.00000000339
1.00000000054
1.00000000145
0.999999992132
0.999999993038
0.999999999344
1
0.999999999858
0.999999999715
0.999999981334
0.999999987991
0.999999997626
0.99999999977
0.999999991591
0.999999999998
1.00000000005
0.999999998137
1.00000000142
1.00000000666
1.0000000087
1.00000000284
1.00000000531
1.00000000344
1.00000000316
1.0000000032
1.00000000029
1.00000000002
0.999999999998
0.999999984076
0.999999990155
0.999999989531
0.999999997674
0.999999998812
0.999999996452
0.999999995964
0.999999999642
0.99999999741
1.00000000459
1.00000000255
1.00000000988
1.00000000999
1.00000001076
1.00000001863
1.0000000075
1.00000000425
1.00000000044
1
0.999999999858
0.999999987203
0.9999999848
0.999999995107
1.00000000115
1.00000000201
1.00000000138
0.999999999178
0.999999999059
1.00000000282
1.00000000267
1.00000000127
1.00000000314
1.00000001202
1.00000001425
1.00000001116
1.00000001022
1.00000000288
1
1
0.999999994992
0.999999995166
0.999999982087
0.999999986651
1.00000000142
1.00000000316
1.000000004
1.00000000035
1.00000000028
1.00000000066
1.00000000197
1.00000002398
1.00000001331
1.00000000525
1.00000000641
1.00000000663
1.00000000292
1.00000000001
1.00000000029
0.999999999714
0.999999999745
0.999999981814
0.999999981814
0.999999982674
1.00000000043
1.0000000059
1.00000000452
1.00000000964
0.999999993594
1.00000000292
1.0000000678
1.00000007999
1.00000012444
1.00000007834
1.00000008786
1.00000007753
1.00000010913
1.00000006578
1.00000003729
1
0.999999999965
0.999999995695
0.999999981814
0.999999989296
1.00000000264
1.00000000034
1.00000001004
0.999999996414
0.99999999599
1.00000014918
1.00000016449
1.00000017034
1.00000017463
1.00000022775
1.00000017264
1.00000021247
1.00000016994
1.0000001775
1.0000001575
1.0000000583
0.999999999144
0.99999998622
0.999999986543
0.999999990333
1.00000000011
1.00000000706
0.999999999364
0.999999999209
0.999999996777
1.00000005019
1.0000002334
1.00000029157
1.0000003194
1.00000032437
1.00000035575
1.00000032066
1.00000035111
1.00000029717
1.00000026407
1.0000000003
1
0.999999998121
0.999999997551
0.999999999936
1
1.00000000011
1.00000000977
0.999999998712
1.00000000049
1.00000000168
1.00000000189
1.00000020565
1.00000026916
1.00000028766
1.00000027799
1.00000027601
1.00000021795
1.00000007329
1
1
1
0.999999995561
0.999999996111
0.999999999936
0.999999999515
0.999999991528
0.9999999902
1.00000000055
0.999999994916
0.999999990245
0.999999985921
0.999999986624
1.00000000045
0.999999981166
1.00000000066
0.99999999962
0.999999999468
0.999999998182
0.999999999278
1
1.00000000104
0.999999999179
1.00000000149
1
0.999999999625
0.999999999912
0.9999999902
0.999999997553
0.999999996855
0.999999993883
0.999999985984
0.99999998369
0.999999989314
0.999999995324
0.999999998088
0.999999991735
0.999999991877
1.00000000341
1.00000000011
1.00000000196
1
1.00000000081
1.00000000003
1.00000000249
0.999999989796
0.999999979454
0.999999999999
1.00000000101
1.00000000001
0.999999997678
0.999999998687
0.999999984818
0.999999986507
0.999999991925
0.999999993956
0.999999990262
0.999999990584
0.999999994187
1.00000000043
1.00000000006
1.00000000136
1.00000000018
1.00000000372
1.00000000097
0.999999973386
0.999999996782
1
0.999999999936
1.00000000055
1.00000000016
1.0000000016
0.999999990752
0.999999989628
0.999999992485
0.999999995679
0.999999994045
1.00000000063
0.999999996388
1.00000000039
1.00000000431
1.00000000033
1.00000000533
1.00000000123
1.00000000369
0.999999981473
0.999999989133
0.99999999173
0.999999997884
1.00000000011
1.0000000035
1.00000000132
0.999999995079
0.999999996397
1.00000000049
0.999999992716
1.00000000083
1.0000000007
1.00000000004
1.00000000627
1.00000000059
1.00000001252
1.00000000416
1.00000000856
1.0000000027
0.999999982808
0.999999981012
0.999999988524
0.999999991086
1.00000000845
1.00000000137
1.00000001218
1.00000000782
1.00000000133
1.00000000008
1
1.00000000112
1.00000000007
1.00000000983
1.00000000053
1.00000002524
1.00000000039
1.00000001126
1.00000000644
1.00000000188
0.999999983814
0.999999988364
0.999999992489
0.999999993834
1.00000000616
1.00000003333
1.0000000285
1.00000004449
1.00000000035
1.00000000031
1.00000000199
1.0000000006
1.00000001634
1.00000000239
1.00000003407
1.00000000012
1.00000000462
0.999999998725
1.00000000874
1.0000000024
1.00000000474
0.999999996295
0.999999994732
0.999999999164
1.0000000076
1.00000000642
1.00000003327
1.0000000235
1.00000000168
1.00000000139
0.999999999046
1.00000002127
1.00000000127
1.00000003462
1.0000000007
1.00000001604
0.999999999381
0.999999995266
0.999999999523
1.00000000701
0.999999999776
0.999999999634
0.99999999977
0.99999999345
1.00000000059
1.00000001178
1.00000000255
1.00000001336
1.00000000117
1.00000000793
0.999999995973
1.00000000138
1.00000003055
1.00000000001
1.0000000137
0.99999999994
0.999999989612
0.999999990384
0.999999997624
1.00000000027
0.999999998054
1.00000000015
0.999999999833
1
1.00000000479
0.999999999662
1.000000017
1.0000000039
1.00000004548
1.00000001784
0.999999996385
1.00000000106
0.999999995772
1.00000000534
0.999999999941
1.00000000092
0.999999999931
0.99999997711
0.999999968176
0.999999971702
0.999999999762
1.000000003
1.00000000027
1.00000000327
1.00000000001
1.00000000548
0.99999999995
1.000000019
0.999999996306
0.999999997661
1.00000000191
0.999999995849
0.999999991239
0.999999990604
0.999999999888
0.999999999999
0.999999989748
0.999999993253
0.999999975378
0.999999980823
1.00000000305
0.999999999411
1.00000000041
1
1.00000000174
0.999999998855
0.999999991501
0.999999990475
0.999999992482
1.00000000016
1.00000000504
1.00000000102
0.999999994181
0.999999990715
0.999999996992
0.999999999821
0.999999999999
0.999999984541
0.999999993029
0.999999946184
0.999999997602
0.999999998602
0.999999999954
1.00000000035
0.999999996926
0.999999989044
1.00000000182
1.00000000639
1.00000000339
1.00000000497
1.00000000083
1.00000000449
0.999999999309
0.999999995778
0.99999999167
0.999999997336
0.999999983313
0.999999984297
0.999999999498
0.999999996238
0.999999999361
1.00000000048
1.00000000078
0.999999997894
0.999999997261
0.999999997627
1.00000000563
1.00000001277
1.00000001331
1.00000000209
1.0000000069
1.0000000089
1.00000000987
0.999999998781
0.999999992056
0.999999997273
0.999999983576
0.999999982157
0.99999999761
0.999999999481
0.999999999966
1.00000000475
0.999999999959
0.999999999527
0.999999999124
1.0000000023
1.00000000797
1.00000000982
1.00000000833
1.00000000004
1.00000000469
1.00000001212
1.000000007
1.0000000049
1.0000000007
1
0.999999998047
0.999999981821
0.999999988353
0.999999998693
1.00000000069
1.00000000304
1.00000000212
1.00000001054
1.00000000174
1.00000000285
1.0000000054
1.0000000044
1.00000000287
1.00000000009
1.00000000149
1.00000000304
1.0000000023
1.00000000111
1.00000000006
0.999999999381
0.999999982215
0.99999998465
0.99999998211
0.999999990454
1.00000000177
1.00000000137
1.00000000425
1.00000000234
1.00000000099
1.00000000013
1.00000000128
1.00000000477
1.00000000323
0.999999998751
1.00000000068
1.00000000123
1.00000000034
1.00000000005
1.00000000001
0.999999995899
0.999999997825
0.999999981893
0.999999984645
0.999999981845
1.00000000007
1.00000000327
1.00000000033
1.00000000554
0.999999999311
0.999999998869
1.00000000155
1.00000000168
1.00000000146
1.00000000191
1.00000000081
1.00000000007
1.00000000019
0.999999995557
1
0.999999983752
0.999999988476
0.999999989816
0.999999985207
0.999999990058
1.00000000041
1.00000000018
1.00000000581
1.00000000164
1.00000000158
0.999999997448
0.999999998115
0.999999998428
1.00000000073
1.00000000033
0.999999998967
1.00000000003
1
0.999999993946
0.999999983297
0.999999987678
0.999999999042
0.999999988623
0.9999999981
0.999999978969
1.00000000001
1.00000000185
1.00000000028
1.00000000744
1.00000000736
0.99999999914
0.999999997588
0.99999999789
1.00000000062
1.00000000045
0.999999988647
0.999999985355
0.999999985225
0.999999993428
0.999999987648
0.999999990835
0.999999988808
0.999999996118
0.999999992046
0.999999999905
0.999999993065
0.999999995685
0.999999994947
0.999999996092
0.999999997506
0.999999996384
0.999999995453
1.00000000309
1.00000000013
0.99999998067
1.00000000013
0.999999999114
0.999999997271
0.999999997542
0.999999997376
0.999999998576
0.999999999857
1.00000000019
0.999999996468
1.0000000009
1.00000000149
0.999999995531
0.999999990944
1.00000000106
0.99999999955
0.99999999721
0.999999994496
1.0000000008
1.00000000238
0.999999999735
1.00000000259
1.00000000989
0.999999995264
0.999999990581
0.999999995062
0.999999998153
0.999999999546
1.00000000001
1.00000000087
1.00000000254
0.999999982107
0.999999999316
0.999999993631
0.999999999605
0.999999997569
0.999999996608
1.00000000913
1.00000001395
1.00000000834
1.00000000075
1.00000000014
1.00000001495
1.00000001125
1.00000000758
0.999999998215
1.00000000042
1.00000000044
1.00000000071
1.00000000004
1.00000000017
0.999999978319
0.999999980992
0.999999999999
1.00000000101
1.00000000044
0.999999997901
1.00000000163
1.00000000761
1.00000000802
1.00000000218
1.00000000521
1.00000000675
0.999999975258
0.999999994555
0.999999998344
1.00000000209
1.00000000151
1.00000000075
1.00000000424
1.00000000294
0.999999979958
0.999999997787
1.00000000007
1.00000000033
1.00000000223
1.00000000041
0.99999999926
0.999999982938
0.999999997175
1.00000000244
1.00000000126
0.999999969703
0.999999999861
0.999999994874
1.00000000038
1.000000005
1.0000000037
1.0000000049
1.00000001344
1.00000000317
0.99999999087
0.999999987974
1.00000000124
1.00000000061
1.00000000135
1.00000001614
1.00000000619
1.0000000089
1.00000000177
1.00000000571
1.00000002192
1.00000000004
1.00000000325
1.00000000002
1.00000001184
1.00000000354
1.00000000701
1.00000000952
1.00000000701
1.00000000587
0.999999986903
1.00000000009
0.999999996159
1.00000000057
0.999999892846
1.00000000631
1.00000002624
1.00000000106
1.00000000771
1.00000000257
0.999999997053
1.00000001037
1.00000000079
1.00000002663
1.00000000025
1.00000001762
1.00000000191
0.999999999255
1.00000000547
1.00000000436
1.00000000057
1.00000001063
1.00000000238
0.999999931594
1
1.00000000952
1.00000000326
1.00000001762
1.00000000274
1.00000000511
0.999999994998
1.00000000242
1.00000005351
1.00000000002
1.00000002385
1
1.00000000681
1.00000000188
1.0000000062
1.0000000033
1.00000000537
1.0000000031
1.00000000099
1
1.00000000115
1.00000000004
1.00000002442
1.00000000476
1.00000006893
0.999999992727
0.999999993471
1.00000001703
0.99999999516
1.00000002365
1.00000000092
1.00000000447
0.999999999112
1.00000000366
1.00000000187
1.00000000677
0.999999998114
1.00000001404
1.00000000044
1.00000000358
1.00000000001
1.00000000737
1.00000000323
1.00000004699
0.999999999578
1.000000005
0.999999997644
0.999999999507
0.999999995602
0.999999993135
1.00000001092
1.00000000088
0.999999996511
0.999999991591
0.999999990368
0.999999983553
0.999999998686
1.00000000662
1.00000000951
1.00000000179
1.00000000539
1
1.0000000126
0.999999991547
0.999999995055
1.00000000172
1.00000000198
0.999999997012
0.999999994093
0.999999992279
0.999999999565
1.00000000309
1.00000000026
0.999999988963
0.999999983035
0.999999978866
1.00000000132
1.00000000551
1.00000000574
1.00000000565
0.999999949514
1.00000000454
0.999999999284
0.999999990813
0.999999991138
1.00000000537
1.00000000172
1.00000000474
0.999999996052
0.999999997839
0.999999962339
0.999999905636
1.00000000126
1.00000000099
0.999999985185
0.999999946184
0.999999996706
0.999999998557
1.0000000004
1.00000000031
0.999999845323
0.999999999322
0.999999995752
0.999999992409
1.0000000014
0.99999999836
1.0000000054
1.00000000003
1.00000000082
0.999999988668
1.00000000006
0.999999834968
1.00000000025
1.00000000076
1.00000000003
0.999999987531
0.999999998248
1.0000000072
1.00000000098
1.00000000205
0.999999997967
0.999999989096
0.99999999253
1.00000001817
1.00000000765
1.00000000508
1.00000000054
1.00000000479
1.00000000325
0.999999989014
1.00000000028
0.999999963076
0.999999998934
1.0000000036
1.00000000041
1.00000000214
1.00000002297
1.00000000207
1.00000000083
0.999999999344
0.999999998802
0.999999999467
1.00000001103
1.00000000923
1.00000000671
1.00000000064
1.00000000383
1.00000000279
1.000000006
1.00000000218
1.00000000226
1.00000000009
0.999999989471
0.99999999271
1.00000000553
1.0000000002
1.00000000174
1.00000000749
0.999999998663
0.999999999665
0.999999999572
0.999999999265
1.00000000562
0.999999885632
0.999999908248
1.00000000156
1.00000000019
0.999999988491
0.999999920474
1.00000000112
1.00000000051
0.999999989989
0.999999996697
0.999999982282
0.999999998985
0.999999997234
0.999999999076
1.00000000243
0.999999999513
1.00000000223
1.0000000048
0.999999998689
1.00000000423
1.00000000141
1.00000000214
1.0000000023
1.00000000236
1.00000000007
0.999999995608
0.999999999987
0.999999993664
0.999999993851
0.999999987054
0.99999998365
0.999999992241
0.999999995692
0.999999999977
0.999999998901
0.999999999341
1.00000000265
1.00000000257
0.99999999839
1.00000000013
1.00000000009
0.999999999837
1.00000000073
0.99999999982
0.999999999069
0.999999998951
0.999999990778
0.999999995795
0.99999998699
0.999999994793
0.999999982748
0.999999988482
0.999999981944
1.00000000027
1.00000000161
1.00000000053
1.00000000381
1.00000000722
0.999999997437
0.999999998993
0.999999998474
1.000000003
1.00000000317
0.999999998895
0.999999998836
0.999999991762
0.99999999236
0.999999984717
0.999999992875
0.999999985
0.999999984751
0.999999983741
0.999999978418
1.00000000001
1.00000000031
1.0000000087
1.0000000048
1.00000000867
1.00000000696
0.999999996796
0.99999999856
1.00000000083
1.00000000234
0.999999989309
0.999999989152
0.99999999272
0.999999989493
0.999999986723
0.999999982914
0.999999992608
0.999999982067
0.999999988772
0.999999978418
0.999999993065
0.999999995099
0.999999998216
1.00000002024
1.00000001248
0.99999999514
1.00000000144
1.00000000302
1.0000000005
1
1.00000000084
1.00000000722
1.00000000442
1.00000000003
0.999999997985
0.999999996607
0.999999998758
0.999999998924
1.00000000144
1.00000000063
0.99999999512
0.999999998547
1.00000000176
1.00000000361
1.00000000937
1.00000000397
1.00000001195
1.00000001518
1.00000001856
0.999999989972
0.999999999595
1.00000004463
1.00000002609
1.00000001284
0.999999994088
0.999999995577
0.999999998623
0.999999999189
1
1.00000000084
0.999999999476
0.999999999844
0.999999995597
1.00000000467
1.00000000346
1.00000001276
1.00000001929
1.00000001676
1.00000000104
0.999999999985
1.0000000007
1.00000000362
1.00000002285
1.00000002313
1.00000001916
1.00000000771
1.0000000054
1.0000000004
0.999999999677
1.00000000372
1.00000000765
0.999999997604
0.999999996657
1.00000000017
1.00000001227
1.00000000484
1.00000001507
0.999997665141
0.999998510228
1.00000000036
1.0000000001
0.999998312566
0.999997620732
1.00000001357
1.00000000967
1.00000000915
1.00000000432
1.00000000292
1.00000001494
1.00000000335
1.00000000994
0.999999994913
1.00000000103
1.00000000166
1.0000000025
0.999999995887
0.999999982707
0.999997585029
0.99999763487
0.999998124701
0.999999226824
0.999997565659
0.999997565659
0.999999986662
0.999999975829
1.00000000611
1.00000000533
1.00000000704
1.00000000123
1.00000001078
1.00000000553
1.00000000154
1.00000000044
1.00000000438
1.00000001138
1.00000000533
1.00000000847
1.0000000003
1.00000000132
0.999999998025
1.00000000008
1.0000000001
0.999999998757
1.00000000748
1.00000000185
1.00000001719
1.00000001804
1.00000000359
1.00000001102
1.00000000162
0.999999995376
1.00000000494
1.00000000505
1.00000000334
0.999998560879
1.00000001015
1.00000000254
1.00000001576
1.00000000271
1.00000000217
1.00000000143
1.00000000043
1.00000002709
1.00000000042
1.00000001512
0.999999703596
1.00000000694
1.0000000108
0.999999999936
1.00000000237
1.00000000918
1.00000001392
1.00000000958
0.999997826063
0.999997989853
1.00000000103
1.00000002284
1.00000000312
1.00000005802
0.999999994208
0.999999995919
1.00000004269
1.00000000039
1.00000004617
1.00000000001
0.999998005452
0.999997827286
1.00000001254
1.00000001428
1.00000000215
1.00000000262
1.00000002153
1.00000000503
0.999997690036
0.999998678058
1.00000000569
1.00000000436
1.00000008185
1.00000003637
0.999999993976
0.999999995552
0.999999993531
0.999999994469
0.999999991324
1.00000001482
0.999998536
0.999997576385
1.00000000663
1.0000000311
1.00000000005
1.00000001617
1.00000000659
1.00000001539
1.00000000403
1.00000000655
1.00000000068
1.00000002224
0.999999997891
0.999999998214
0.999999997719
1.00000000018
0.999999996574
0.999999999292
0.999999994529
0.999999999871
1.00000000594
1.00000000293
1.00000001557
1.00000000958
1.00000002241
1.00000001413
1.00000001786
1.00000000961
1.00000001732
0.99999999762
1.00000001552
0.999999999864
0.999999995582
0.999999999505
1.00000000088
1.00000000347
1.00000000202
0.999999997286
0.99999999829
1.00000001122
0.999999888644
1.00000001253
1.00000000588
1.00000001141
1.00000001006
1.00000000185
1.00000002077
1.00000001111
0.999996853897
0.999993283092
0.999999886356
0.999999971359
1
0.999999994995
0.999999998632
1.00000003564
1.00000000232
1.00000000084
0.999999950057
0.999999889606
0.999992951816
0.999999776139
1.00000000718
0.999999989874
0.999999996579
0.999999991517
1.00000001662
1.00000001036
0.99999729486
0.999993283099
0.999999892775
0.999999999728
0.999999992374
0.999999994616
0.999999998127
0.99999999961
1.00000000707
1.00000000002
1.00000000096
0.999999922951
0.999992951816
0.999998380851
1.00000000406
1.00000000018
0.999999997956
1.00000001052
1.00000000483
1.00000001015
1.00000000306
0.999998575251
0.999999999999
0.999999990863
0.999999988236
1.00000000609
0.999999999475
1.00000000287
1
1.00000000347
1
0.999999995625
0.999999008056
1.00000000772
1.00000000131
1.00000000177
1.00000000053
1.00000000843
1.00000001681
1.00000000362
1.00000001858
1
1.00000000278
0.999999994587
0.999999695059
0.999999765763
0.999999999938
0.999999999618
0.999999970872
0.999999993853
0.999999995863
1.00000000168
1.00000000394
1.00000000026
1.00000000404
1.00000000044
1.00000000428
1.00000002261
1.00000000742
1.00000000625
0.999999998264
1.00000000203
1.00000000055
0.999997905294
0.999990607293
0.999990607293
0.999995035313
0.999993902991
0.999991361311
0.999991361311
0.99999727678
0.999999999652
0.999999999701
0.999999995853
0.999999999762
1.00000000364
0.999999999639
1.00000000154
1.00000000506
0.999999998934
0.999999999063
1.00000000331
1.00000000792
0.99999999861
0.999997808512
0.999996447086
0.999999997895
0.999999997608
0.999996954794
0.999998398113
0.999999991644
0.999999999497
0.999999993494
0.99999999576
1.00000000212
1.00000000008
0.999999996035
0.999999998999
0.999999998556
1.00000000195
1.00000000124
1.00000000399
1.00000000363
1.00000000334
1.00000000453
1.00000000619
1.00000000499
1.00000000469
1.00000000002
1.00000000072
0.99999999724
0.999999988077
0.999999994415
0.999999986452
0.999999992983
1.00000000409
0.999999989021
0.999999998297
0.999999997261
1.00000000153
1.00000000582
1.00000000705
1.00000001231
1.00000000328
1.0000000148
1.0000000211
1.00000000447
1.00000000272
1.00000000951
1.00000000151
0.999999989463
0.999999987567
0.999999995435
0.999999988486
0.999999991249
0.999999997377
0.999999981262
1.00000000001
1.00000000248
1.00000000515
1.00000000738
1.00000000832
1.00000000963
1.00000000738
0.999999996851
0.999999999765
1.00000000574
1.00000000667
1.00000000009
1.00000000062
0.999999987332
0.999999986154
0.999999991526
0.999999993285
0.999999983779
0.999999986687
0.999999978418
0.999999994092
0.999999996983
1.00000002534
1.00000001043
1.00000000123
1.00000000733
1.00000000567
1.00000001825
1.00000001157
0.999999974382
0.99999999915
1.00000007664
1.00000003804
1.00000002379
1.00000000759
1.0000000026
1.00000001491
1.00000000453
0.99999999906
1.00000000183
0.999999997645
1.00000000413
1.00000000361
1.00000000416
1.00000000327
1.00000001081
1.00000002051
1.00000003377
1.00000000063
0.999999988093
1.0000000004
1.00000000032
1.00000004913
1.0000000408
1.00000002319
0.999999997747
0.999999997489
0.999999998752
0.999999998962
1.00000000275
1.00000000463
1.0000000018
1.00000000257
1.00000000207
1.00000000606
1.00000001144
1.00000001596
1.00000000024
1.0000000001
0.999999997144
0.999999999111
0.999999998585
0.999999999352
1.00000001249
1.00000001388
1.00000000988
1.00000000617
1.00000000649
1.00000000022
1.00000000079
1.00000001376
1.00000000253
1.00000000226
1.00000000115
1.00000000079
0.999999998834
0.999999999544
0.999944187512
0.999944056357
0.999944039818
0.999944033761
0.999944032884
0.999944032884
0.999999995888
0.99999999556
1.00000000046
1.00000000066
1.00000000119
1.00000000494
1.00000000918
1.00000000731
1.00000000377
1.00000000068
1.00000000096
1.00000000038
0.999876513157
0.99987651317
0.999998113824
1.00000000001
1
1
0.999999959194
0.999998073827
0.999879291583
0.999879291576
1.00000000012
1.00000000003
1.00000000037
1.00000000053
1.00000000134
1.00000000549
1.00000000142
1.00000000042
1.00000000042
0.999880953365
0.999954809595
1.00000000057
1.00000000175
1.00000000026
1.00000000001
1.00000000042
1.00000000001
1.00000000125
1.00000000031
0.99995509223
0.999876670795
1.00000000029
1.00000000031
1.00000000298
1.00000000254
1.00000000661
1.00000000166
1.00000000053
0.999999999215
0.999863279876
1.00000000034
1.00000001316
1.00000000115
1.00000001479
1.00000000778
1.00000000023
1.00000001018
1.00000000146
1.00000002916
0.999999999448
0.999867380363
0.999999997501
1.00000000013
1.00000000485
0.999999996594
1.00000003489
1.00000000606
1.00000000085
0.999935664507
0.999998454332
1.00000000457
1.00000000345
1.00000007189
1.00000004737
1.00000000236
1.00000000324
1.00000000813
1.00000004235
1.00000000088
1.00000001422
0.999997898673
0.99993311803
0.999999998584
1.00000000346
0.99999999641
1.00000001506
1.00000001428
0.999999998321
0.999935664507
0.999999999606
1.00000000028
1.00000001568
1.00000000762
1.00000001149
1
1
1.00000000977
1
1.00000000998
1.00000000126
0.999999999691
0.99993311803
0.999999995497
1.00000000517
1.00000003065
1.0000000029
1.00000002135
1.00000000231
0.999940011395
1.00000000331
1.00000000944
1
1.00000000881
1.00000000006
1.00000007635
1.0000000826
1.00000000005
1.00000000435
1.00000000005
1.00000000777
1.00000000115
0.99994677898
1.00000000165
1.00000002097
1.00000000584
1.00000001393
1.00000000982
1.00000000637
0.999938315227
1.00000000458
1.00000000001
1.00000000682
1.00000000002
1.00000000165
1.00000020086
1.00000018833
1.00000000048
1.00000000001
1.0000000007
1
1.00000000073
0.999944972661
1.00000000983
1.00000000812
1.00000002322
1.00000003802
1.00000001263
0.999999993214
0.999930921212
0.999999995521
1.00000000019
1
1
1
1.00000000122
1.00000000199
1.00000002435
1.00000000002
1
1
0.999999993292
0.999934803835
0.999999995141
1.0000000165
1.00000001392
1.00000002227
1.00000002312
0.999999989666
0.999930921213
0.999997879579
1
1.00000000002
1
1.00000000517
1
1.00000002305
1.00000000004
1.00000000502
1.00000000001
1.00000000001
0.999997226793
0.999934803835
0.999999972453
0.99999997631
0.999999996308
0.999999997726
1.00000002202
1.00000000296
0.999999995444
0.999863063196
0.999999999452
1
1.00000000416
1.00000000027
1.00000000369
1
1.00000000112
1
1.00000000196
0.999999999916
0.999851267075
0.999999984929
1.00000000193
1.00000000086
1.00000000142
1.000000012
1.00000000407
1.00000000794
1.00000000307
0.999873658093
0.999954726571
0.999999999051
1
1.00000000002
1
1.00000000002
1
1.00000000002
0.999999998606
0.999953383794
0.999878861127
1.00000000839
1.00000000199
1.00000000287
1.00000000135
1.00000002053
1.00000001031
1.00000000348
1.00000000976
1.00000000168
0.99987337078
0.999857562679
0.99999860973
0.999999987832
0.99999999769
0.999999997415
0.999999990618
0.999998534514
0.999854005752
0.999873191954
1.00000000041
1.00000000053
1.00000000142
1.00000000022
1.0000000034
1.00000001626
1.00000000788
1.00000000451
0.99999999848
1.00000000557
1.00000000543
0.999999989251
0.999932237543
0.999931724252
0.99993172425
0.999931728089
0.999931733459
0.999933249289
0.999999996666
1.00000000112
1.0000000006
0.999999998254
1.00000000023
1.00000000272
1.00000000183
1.0000000081
1.00000001352
1.0000000018
1.00000000195
1.00000000391
1.00000001041
1.000000004
1.00000001094
1.00000000036
0.999999999778
0.999999999308
1.00000000001
1.00000000425
0.999999999994
1.0000000016
0.999999996442
1.00000000053
1.00000000063
1.00000000125
1.00000000338
1.00000000152
1.00000000289
1.00000000968
1.00000000268
1.00000000735
1.00000000644
1.00000002069
1.00000001894
1.00000000476
1.00000000672
1.00000000444
1.00000000723
1.00000001465
0.999999997278
1.000000004
1.00000000232
1.00000000221
1.00000000053
1.00000000413
0.999999990303
1.0000000058
1.00000000449
1.00000000499
1.00000000997
1.00000001563
1.00000001416
1.00000000789
1.00000001935
1.0000000116
1.00000000268
1.00000000328
1.00000000642
1.00000000572
0.999999999655
0.999999997335
1.00000000688
0.999999999392
1.00000000179
0.999999994733
0.999999981691
0.999999993254
1.00000000525
1.00000000904
1.000000001
1.00000000508
1.00000000413
1.000000022
1.00000003817
1.0000000007
0.999999982724
0.999999985244
1.00000000035
1.00000004956
1.0000000461
1.00000002093
1.00000001112
1.00000000566
1.00000002882
1.00000000337
1.00000000106
0.999999998788
1.00000001718
1.00000000278
1.00000000613
1.00000001017
1.00000002466
1.00000003874
1.00000000061
1.00000000224
0.999999993473
0.999999993662
1.00000000211
1.00000000022
1.00000002883
1.00000003212
1.00000002204
1.00000001323
1.00000000174
1.00000002776
1.00000000105
1.00000000992
1.0000000009
1.00000000778
1.00000000036
1.00000000481
1.00000001069
1.00000000017
1.00000000063
0.999999995873
0.999999993392
0.999999995731
0.999999996088
1.00000000122
0.999999998346
1.00000000851
1.00000000941
1.00000000368
1.00000000856
1.00000000168
1.00000000923
1.00000001188
1.00000000655
1.00000000182
1.00000000029
0.999999999815
0.99999977237
1
0.999999996066
0.999999990725
0.999999980216
0.999999977195
0.999999975089
0.999999994319
0.999999998534
0.999997496324
0.999999999548
0.999999999772
1.00000000242
1.00000000755
1.00000000045
1.00000000638
1.00000000135
1.00000000183
1.00000000003
0.999819193455
0.999956467026
0.999925460985
0.999703399262