/*--------------------------------*- C++ -*----------------------------------*\
| =========                 |                                                 |
| \\      /  F ield         | OpenFOAM: The Open Source CFD Toolbox           |
|  \\    /   O peration     | Version:  3.0.1                                 |
|   \\  /    A nd           | Web:      www.OpenFOAM.org                      |
|    \\/     M anipulation  |                                                 |
\*---------------------------------------------------------------------------*/
FoamFile
{
    version     2.0;
    format      ascii;
    class       volScalarField;
    location    "4.3";
    object      ddt0(k);
}
// * * * * * * * * * * * * * * * * * * * * * * * * * * * * * * * * * * * * * //

dimensions      [0 2 -3 0 0 0 0];

internalField   nonuniform List<scalar> 
7968
(
-0.000301800405107
-0.0003243935868
-0.000341098496403
-0.000350634181264
-0.000356091799789
-0.000359174366743
-0.000360963545846
-0.000362345300456
-0.000363468856619
-0.000364290480475
-0.000364298624774
-0.000363483314817
-0.000362363096192
-0.000360983698545
-0.00035919334949
-0.000356109742084
-0.000350646661008
-0.000341105477786
-0.000324399086873
-0.000301801947406
-0.000324392035707
-0.000437863938948
-0.000512277618725
-0.000555575685219
-0.000580542861513
-0.000594193461859
-0.000601312887013
-0.000605704254794
-0.00060893035379
-0.000610930051995
-0.000610938385579
-0.000608951992026
-0.000605735769642
-0.000601349182567
-0.000594232086532
-0.000580588298616
-0.000555620048157
-0.000512313076613
-0.000437888743338
-0.000324398691294
-0.000341091371121
-0.000512268688575
-0.000624963823302
-0.000691833187005
-0.00073105094632
-0.000752888912914
-0.000764442314693
-0.000771290128527
-0.000775965753915
-0.000778836977923
-0.00077884391952
-0.000775982809085
-0.000771311506107
-0.000764466371864
-0.000752918029814
-0.000731090277209
-0.000691877652963
-0.000625005107372
-0.000512299293862
-0.000341100542769
-0.000350613856695
-0.000555545215632
-0.000691817753877
-0.000772419855475
-0.000818401687423
-0.000842318586515
-0.000853906029358
-0.000859983040794
-0.000863199238876
-0.000865856312518
-0.000865864087008
-0.000863206786123
-0.000859966462883
-0.000853907582586
-0.000842320940003
-0.000818417211592
-0.000772448499547
-0.000691850976276
-0.000555572496766
-0.000350624679405
-0.000356053424169
-0.0005804942789
-0.000731037724329
-0.000818420050816
-0.000864817483295
-0.000885331057142
-0.000894442046143
-0.000901736592439
-0.000905680821404
-0.000907988602365
-0.000907998938752
-0.000905701278257
-0.000901759594215
-0.000894466250929
-0.000885330133281
-0.000864817162596
-0.000818427676568
-0.000731054298498
-0.000580512238789
-0.000356063691611
-0.000359114783461
-0.000594143777955
-0.000752916330593
-0.000842429238604
-0.000885451411403
-0.000908516255869
-0.000921263479258
-0.000926759231883
-0.000929320067846
-0.000930857036186
-0.000930869882813
-0.000929345873637
-0.000926787966411
-0.000921289334903
-0.000908537898957
-0.000885451869942
-0.000842422547304
-0.000752916275261
-0.000594147117435
-0.000359120260949
-0.000360887701386
-0.000601281391578
-0.000764542749086
-0.000854171372273
-0.000894576713426
-0.000921332358825
-0.000932278717767
-0.000934995262946
-0.000935657192409
-0.000936368025792
-0.000936383596718
-0.000935688902305
-0.000935029693992
-0.000932307012562
-0.000921353369837
-0.000894590881581
-0.000854169647321
-0.000764538607274
-0.000601276962833
-0.000360890124603
-0.000362253273842
-0.00060568374979
-0.000771448363389
-0.000860444141163
-0.000901941367301
-0.000926872501428
-0.000935010316204
-0.000935040675075
-0.000933706311303
-0.000933549180436
-0.000933564980824
-0.000933738683933
-0.000935076909656
-0.000935043777213
-0.000926899905239
-0.000901963117099
-0.000860455211361
-0.000771452201464
-0.000605676420632
-0.000362252408142
-0.000363364455891
-0.000608897829419
-0.000776116737128
-0.000863592837338
-0.000905909488193
-0.000929441855946
-0.00093563281059
-0.000933635052017
-0.000930974067902
-0.000930527763881
-0.000930542992952
-0.000931007868497
-0.000933674802973
-0.000935669979241
-0.000929474110165
-0.000905939459826
-0.000863646937732
-0.000776132798996
-0.000608888770179
-0.000363358500404
-0.000364182813715
-0.000610878148666
-0.000778942060387
-0.00086612832903
-0.000908196846769
-0.000930974747226
-0.000936326919709
-0.000933434437632
-0.000930462757216
-0.000930279440811
-0.000930300324394
-0.000930506350779
-0.000933481263848
-0.000936366603393
-0.000931006490841
-0.000908224313741
-0.000866185205463
-0.000778965201681
-0.000610864557995
-0.000364169486979
-0.000364200561343
-0.000610893201225
-0.000778934791122
-0.000866120630894
-0.000908224000264
-0.000931017017288
-0.000936376476895
-0.000933478801967
-0.000930490058769
-0.000930294025461
-0.000930318828491
-0.000930542418553
-0.00093353091065
-0.000936418800467
-0.000931051168695
-0.000908254230349
-0.000866185463278
-0.000778962431837
-0.000610871662068
-0.000364176859079
-0.000363404627981
-0.000608928687026
-0.000776083862067
-0.000863506340388
-0.000905963310387
-0.000929546011195
-0.000935765312896
-0.000933765439787
-0.000931081392686
-0.000930618297874
-0.000930638917366
-0.000931129635424
-0.000933819467251
-0.000935819007382
-0.000929600881629
-0.000906023344661
-0.000863636952422
-0.000776130698953
-0.000608913076039
-0.000363378349939
-0.00036230301392
-0.000605726918704
-0.000771400442232
-0.000860238427286
-0.000902018437578
-0.000927031683122
-0.000935219148844
-0.00093525638611
-0.000933901484795
-0.000933727883206
-0.000933742785832
-0.000933938488837
-0.000935305206211
-0.000935281269085
-0.000927104621659
-0.000902103604027
-0.000860448036705
-0.000771463310714
-0.000605719184814
-0.00036227878557
-0.000360941396713
-0.000601344053132
-0.000764517840326
-0.000854059315199
-0.000894677108236
-0.000921529945767
-0.000932544722186
-0.000935285188083
-0.000935932192907
-0.00093662190636
-0.000936631464295
-0.000935958521143
-0.000935328558326
-0.000932611011269
-0.00092161713491
-0.000894780825296
-0.00085422584045
-0.000764575976473
-0.000601338079037
-0.000360920899551
-0.000359171094398
-0.000594235572849
-0.000752941755561
-0.000842379244233
-0.000885452868342
-0.000908726409064
-0.000921557681423
-0.000927093606165
-0.000929654649974
-0.000931169658025
-0.000931174614931
-0.000929671707132
-0.000927130025512
-0.00092162414665
-0.0009088316043
-0.000885645728472
-0.000842498376611
-0.000752974245212
-0.000594222906273
-0.000359154663492
-0.000356109207892
-0.000580612165575
-0.000731115962705
-0.000818439191561
-0.000864846828621
-0.000885482729124
-0.000894720672928
-0.000902070328329
-0.000906022289022
-0.000908300778408
-0.000908301563179
-0.000906030686237
-0.000902099154276
-0.000894786179307
-0.000885629813452
-0.000864970418665
-0.000818492367462
-0.000731114016176
-0.000580588571403
-0.000356096310191
-0.000350662566669
-0.000555669844646
-0.000691931049528
-0.000772495940119
-0.000818464000046
-0.000842433211238
-0.000854126117065
-0.000860302062197
-0.000863522095062
-0.000866115734268
-0.000866112330976
-0.000863525844941
-0.000860332987441
-0.000854191520674
-0.000842510690317
-0.000818512959061
-0.000772501743962
-0.000691907532032
-0.000555642331163
-0.000350653811168
-0.000341128846453
-0.000512380752598
-0.000625084414243
-0.000691939986216
-0.000731146016056
-0.000752996029518
-0.00076458551663
-0.000771463202805
-0.00077612908468
-0.000778967168731
-0.000778970406329
-0.000776138244658
-0.000771487681703
-0.0007646263986
-0.000753037638051
-0.000731166137788
-0.000691932399149
-0.00062505984341
-0.000512357876088
-0.00034112250296
-0.000324416473946
-0.000437943743456
-0.000512371521448
-0.000555671752251
-0.000580634141277
-0.0005942825326
-0.000601411807359
-0.000605809539072
-0.000609020832077
-0.000610998386757
-0.00061100324408
-0.000609038028999
-0.000605839553151
-0.000601451425215
-0.000594318784933
-0.000580654819694
-0.000555671728568
-0.000512357555222
-0.000437929106034
-0.000324412002162
-0.000301807194331
-0.000324412520042
-0.000341122262963
-0.000350659043601
-0.000356114636816
-0.000359189511758
-0.000360972561112
-0.000362346847141
-0.000363460820718
-0.000364274913296
-0.000364281260297
-0.00036347469085
-0.000362366012572
-0.000360993391686
-0.000359206518983
-0.00035612461089
-0.000350660499194
-0.000341117304932
-0.000324407826676
-0.000301806016224
-0.000319179058273
-0.000425166865129
-0.000496349324528
-0.000538340014429
-0.000562583251853
-0.000575730855065
-0.000582151043112
-0.000585009541372
-0.000586208439084
-0.00058669559447
-0.000586704029227
-0.000586228496716
-0.000585036936008
-0.000582181483635
-0.000575759581879
-0.000562608326989
-0.000538356404815
-0.000496355228625
-0.000425167678279
-0.000319178293881
-0.000425150970635
-0.000841143960313
-0.00104253105719
-0.00116198462561
-0.00123318825146
-0.00127295531356
-0.00129309608763
-0.00130233412663
-0.00130657164744
-0.0013085270253
-0.00130853553806
-0.00130659369399
-0.00130236721554
-0.00129313802186
-0.00127300740671
-0.00123325266556
-0.00116205029883
-0.00104258291906
-0.000841171449345
-0.000425150118616
-0.000496321212537
-0.0010425005207
-0.00130731050065
-0.0014691193216
-0.00156901552429
-0.00162758027867
-0.00165944247773
-0.00167557045994
-0.00168335906745
-0.00168726217632
-0.00168727086746
-0.00168337870649
-0.00167558314769
-0.00165947040476
-0.0016276170297
-0.00156906620508
-0.00146917593299
-0.00130735945202
-0.00104253286881
-0.000496321966253
-0.000538293870889
-0.00116191246082
-0.00146908446991
-0.00165828354819
-0.00177484048393
-0.00184195966183
-0.00187789571644
-0.00189156271828
-0.00189577175092
-0.00189862980064
-0.00189863763737
-0.00189576940088
-0.00189139621289
-0.00187788804292
-0.00184196630392
-0.00177485934566
-0.00165831217156
-0.00146911309736
-0.00116193320168
-0.000538295980308
-0.000562517764204
-0.00123309362867
-0.00156897604254
-0.00177485107654
-0.00189792032689
-0.00196255611341
-0.0019984136788
-0.00201308832091
-0.00201875858314
-0.00202170222869
-0.00202171361975
-0.00201877818659
-0.00201308160215
-0.00199841361358
-0.00196255735489
-0.00189791234141
-0.00177484690355
-0.00156897580832
-0.00123309240014
-0.00056251752389
-0.000575650599523
-0.00127288044826
-0.00162759565567
-0.00184206689043
-0.00196264391754
-0.00202782068408
-0.00205588671024
-0.00206642064441
-0.00207081734902
-0.00207310464443
-0.00207312381676
-0.00207085681928
-0.00206645663
-0.00205590455386
-0.00202781492028
-0.00196262718756
-0.00184203693415
-0.00162756816934
-0.00127285636354
-0.000575644863351
-0.000582064509777
-0.00129307121535
-0.00165955720639
-0.00187820511751
-0.00199874709269
-0.00205608536602
-0.00207752158875
-0.00208359057948
-0.00208585733636
-0.00208736548932
-0.00208738891987
-0.00208591037503
-0.00208365078274
-0.00207756372909
-0.00205610175565
-0.00199873606256
-0.00187816453597
-0.00165951868906
-0.00129303413064
-0.000582054574092
-0.000584915969019
-0.00130234562694
-0.00167578801242
-0.00189259233119
-0.00201363243941
-0.00206672837573
-0.0020836286106
-0.00208641106475
-0.00208592525034
-0.00208612558356
-0.00208614397766
-0.00208596991955
-0.00208647112681
-0.00208369238227
-0.00206677991731
-0.002013645783
-0.00189241807266
-0.00167575110115
-0.00130230904279
-0.000584902696347
-0.000586104162322
-0.00130657988503
-0.00168352250425
-0.00189610691684
-0.00201924767298
-0.00207109961387
-0.00208577940774
-0.00208577690927
-0.00208395857728
-0.00208426605266
-0.00208428147678
-0.00208400046226
-0.00208583984785
-0.0020858502379
-0.00207117336627
-0.00201930709659
-0.00189608526969
-0.0016835106561
-0.00130654966848
-0.000586084968752
-0.000586588089684
-0.00130851367683
-0.00168738915209
-0.00189887729593
-0.00202214589508
-0.0020733389701
-0.00208721081516
-0.00208585120142
-0.00208411065268
-0.00208523817027
-0.00208526039354
-0.00208416471114
-0.00208592199092
-0.00208728918699
-0.0020734260177
-0.00202222925728
-0.00189888185398
-0.0016873954465
-0.00130849088628
-0.000586558214351
-0.000586619405784
-0.00130853540597
-0.001687395551
-0.00189889497161
-0.00202216682285
-0.00207340015252
-0.00208729840823
-0.00208592954999
-0.00208415948419
-0.00208526939585
-0.00208529933981
-0.00208423334892
-0.00208601906138
-0.00208739882098
-0.0020735173195
-0.00202228726705
-0.00189892441979
-0.00168741924532
-0.00130851858728
-0.000586575722048
-0.000586178796763
-0.00130663223514
-0.0016835279944
-0.00189608197773
-0.00201929082438
-0.00207126448571
-0.00208603394987
-0.00208603026315
-0.00208416513386
-0.00208444021737
-0.00208447138607
-0.00208424676049
-0.00208613790491
-0.00208617030264
-0.0020714395235
-0.00201947531386
-0.00189619187128
-0.00168358402299
-0.00130663493855
-0.000586135227321
-0.000585018818553
-0.00130243610417
-0.00167575975712
-0.00189184882506
-0.00201361871204
-0.00206697513696
-0.00208404132685
-0.00208685422594
-0.00208632773956
-0.00208648945687
-0.00208651806514
-0.0020864051171
-0.00208696971234
-0.00208421667026
-0.00206721167462
-0.00201390485491
-0.00189237213658
-0.00167586971699
-0.00130245481804
-0.000584981095212
-0.000582186910685
-0.00129321969618
-0.001659626434
-0.00187817626918
-0.00199884327645
-0.00205639224448
-0.0020780474992
-0.0020842042231
-0.0020864446299
-0.00208790873766
-0.00208793326461
-0.0020865146788
-0.00208432721889
-0.00207824631135
-0.00205665604395
-0.00199910693493
-0.00187839299215
-0.00165971812892
-0.00129324287334
-0.000582155813343
-0.000575790609435
-0.00127311201454
-0.00162776544368
-0.00184217739379
-0.00196287683866
-0.00202817762849
-0.0020564636647
-0.00206713351154
-0.00207155359888
-0.0020738107361
-0.00207382851638
-0.00207160933329
-0.0020672464222
-0.00205665236522
-0.00202840624863
-0.00196304476152
-0.00184232649057
-0.00162782908608
-0.00127312372614
-0.000575764802267
-0.000562669538303
-0.00123340516227
-0.00156924895694
-0.00177506447959
-0.00189815302533
-0.00196294123401
-0.00199896702236
-0.00201379473287
-0.00201950433847
-0.0020224324528
-0.00202244276496
-0.00201954192167
-0.0020138864981
-0.0019991128939
-0.00196308543911
-0.00189830776385
-0.00177515457471
-0.00156927472464
-0.00123339964511
-0.000562648256677
-0.000538442949873
-0.00116227238501
-0.00146943262317
-0.00165858451329
-0.00177512360093
-0.00184230251628
-0.00187835942009
-0.00189221577578
-0.00189634406061
-0.00189917870775
-0.0018991872598
-0.00189637950723
-0.00189233480565
-0.00187847649574
-0.00184242988486
-0.0017752242753
-0.00165863331264
-0.00146943874609
-0.00116226120589
-0.000538427692582
-0.000496452512078
-0.00104286128468
-0.00130768440918
-0.00146946955036
-0.00156934463394
-0.00162792355083
-0.0016598331285
-0.00167600617848
-0.00168378707565
-0.00168767206394
-0.00168768333097
-0.00168382352688
-0.00167607670334
-0.0016599290471
-0.00162802719285
-0.0015694259654
-0.0014695137703
-0.00130769753456
-0.00104286071622
-0.000496443683218
-0.000425246207002
-0.000841440690288
-0.00104285692453
-0.00116230936372
-0.0012335037806
-0.00127327592768
-0.00129343999234
-0.00130270172999
-0.00130693684019
-0.00130887658553
-0.00130889013767
-0.00130697785277
-0.00130277237071
-0.001293535866
-0.00127337944906
-0.00123359359141
-0.00116236960066
-0.00104288889389
-0.000841454640389
-0.000425242775994
-0.000319211275157
-0.000425265776636
-0.000496468702234
-0.000538463852787
-0.000562707555631
-0.000575855869918
-0.000582280595693
-0.000585139831118
-0.000586328426535
-0.00058680174922
-0.00058680663456
-0.000586345040071
-0.000585167713755
-0.000582315704583
-0.000575890760514
-0.000562734844024
-0.000538478589513
-0.000496473639331
-0.0004252673664
-0.00031921112218
-0.00032278442631
-0.00046720726345
-0.000568381415767
-0.000631819934686
-0.000671216318723
-0.000694627771533
-0.00070684687716
-0.000711253796305
-0.000710928609842
-0.000709269430375
-0.000709281967874
-0.000710962553845
-0.000711303654915
-0.000706903929138
-0.000694682673987
-0.000671263279372
-0.000631852901896
-0.000568399053545
-0.000467215415778
-0.000322783936021
-0.00046717568176
-0.000982159098499
-0.00124150332017
-0.00140466038725
-0.0015093874079
-0.00157422384274
-0.00161160147153
-0.00163123373024
-0.00164071642887
-0.00164439962176
-0.00164441509405
-0.00164075875295
-0.00163129722263
-0.00161167721683
-0.00157431073755
-0.00150948500438
-0.00140475718205
-0.0012415833992
-0.000982207757924
-0.000467176012265
-0.000568329142323
-0.00124145053432
-0.00157514384894
-0.00178936541062
-0.00193023728795
-0.00201970940694
-0.00207307109892
-0.00210299746556
-0.00211999658358
-0.00212764746512
-0.0021276649266
-0.00212004114599
-0.00210306771617
-0.00207312672219
-0.00201976867322
-0.00193030629718
-0.00178943555134
-0.0015752025585
-0.00124149266112
-0.000568329207539
-0.000631745706515
-0.00140455692246
-0.0017893182658
-0.0020359980041
-0.00219693438317
-0.00229699744728
-0.00235432365641
-0.00238319114314
-0.00240177754996
-0.00241003986119
-0.00241005898613
-0.0024018307902
-0.00238334502629
-0.00235436090283
-0.002297010579
-0.00219695389255
-0.00203602247811
-0.00178933932347
-0.00140457406948
-0.000631745411128
-0.000671124424773
-0.00150926115324
-0.00193017815667
-0.00219693002317
-0.00236631816355
-0.00246583579799
-0.00252039616041
-0.00254746684866
-0.00256244162241
-0.00256946585741
-0.00256948332473
-0.00256247855657
-0.00254752698981
-0.00252041205388
-0.0024658184107
-0.00236629080408
-0.00219690621152
-0.0019301585339
-0.001509247805
-0.000671122327583
-0.000694523122222
-0.00157412319836
-0.00201969892499
-0.00229706666005
-0.00246592380952
-0.00256015488866
-0.0026040097625
-0.00262240551435
-0.00263303527906
-0.00263887374227
-0.00263888926102
-0.00263306621192
-0.00262245624405
-0.00260404796552
-0.00256014363207
-0.00246587079234
-0.00229700434094
-0.00201964655463
-0.00157408593128
-0.000694519004607
-0.000706735886933
-0.00161155853295
-0.00207313916118
-0.00235445309154
-0.00252063322187
-0.00260410982957
-0.00263249740299
-0.00264114720271
-0.00264825623481
-0.00265323176256
-0.00265325577737
-0.00264831716424
-0.00264126427505
-0.00263262095087
-0.00260416092999
-0.00252058461805
-0.0023543942099
-0.00207307702507
-0.00161151362993
-0.000706733419447
-0.000711132207533
-0.00163121830281
-0.00210303373741
-0.0023828916178
-0.0025476672148
-0.00262247399866
-0.00264110559248
-0.00264479890667
-0.00265027971802
-0.00265510660334
-0.00265513726345
-0.00265037122128
-0.00264498835719
-0.00264132194811
-0.0026226152368
-0.00254768505023
-0.00238295098047
-0.00210299910323
-0.00163118390922
-0.000711131694842
-0.000710792194127
-0.00164067742612
-0.00212004903657
-0.0024019027257
-0.00256266925196
-0.00263305083835
-0.00264815873049
-0.00265024471602
-0.00265601479324
-0.00266171733977
-0.00266175228139
-0.0026561132329
-0.00265043071611
-0.00264837259755
-0.00263320582419
-0.00256270986455
-0.00240190142466
-0.00212003402055
-0.00164065989488
-0.000710786763953
-0.000709134548628
-0.0016443250942
-0.00212767207776
-0.00241019303118
-0.00256966192638
-0.00263890094504
-0.00265319595899
-0.00265513245161
-0.00266178531966
-0.00266833601391
-0.00266836517119
-0.00266187294796
-0.00265527240679
-0.00265334969975
-0.00263901595931
-0.00256970506417
-0.0024102049542
-0.00212768094387
-0.00164432371815
-0.000709115077566
-0.000709180972276
-0.00164434849771
-0.00212768312312
-0.00241021617702
-0.00256971974357
-0.00263907617329
-0.00265350255661
-0.00265549119484
-0.0026621355703
-0.0026686756004
-0.00266870933322
-0.00266221998948
-0.00265560567405
-0.00265361731861
-0.00263916514307
-0.00256977346717
-0.00241024389583
-0.0021277088775
-0.00164435793228
-0.000709144746089
-0.000710909068666
-0.00164073742376
-0.00212007635893
-0.00240200589908
-0.0025628124686
-0.00263353002638
-0.002649041878
-0.00265130271895
-0.00265704135063
-0.00266268577025
-0.00266272489774
-0.00265713983838
-0.00265143063104
-0.0026491593017
-0.00263363469107
-0.00256290070508
-0.00240203247046
-0.00212012432352
-0.00164076647811
-0.00071087064694
-0.000711294229592
-0.00163132299508
-0.00210313102779
-0.00238347572795
-0.00254788384419
-0.00262303691906
-0.00264224167154
-0.00264623342304
-0.00265167877416
-0.00265641686858
-0.00265646338415
-0.00265180779231
-0.00264640852395
-0.00264241687546
-0.00262320493699
-0.00254800492133
-0.0023833252417
-0.00210317673783
-0.00163136755091
-0.000711262719185
-0.000706928112693
-0.00161173903523
-0.00207323995157
-0.00235456216549
-0.00252074086387
-0.00260449693359
-0.00263337423596
-0.00264234165709
-0.00264945670134
-0.00265436399276
-0.00265441293427
-0.00264959948587
-0.00264254672854
-0.0026336000413
-0.0026047298737
-0.00252095915321
-0.00235469548555
-0.00207333073466
-0.00161178907987
-0.000706906859697
-0.000694746121484
-0.00157442846351
-0.00201992861258
-0.00229721885185
-0.00246611184476
-0.00256047975794
-0.00260455214283
-0.00262311250834
-0.00263377206882
-0.00263957968903
-0.0026396175977
-0.0026338885612
-0.002623289399
-0.00260475954194
-0.00256070026254
-0.00246631150033
-0.00229736318108
-0.0020199995317
-0.00157446484041
-0.000694735000467
-0.000671376250886
-0.00150969791723
-0.00193056150761
-0.0021972242862
-0.00236658556929
-0.00246620486674
-0.00252092173522
-0.00254808252309
-0.00256308791428
-0.00257008407542
-0.00257010258099
-0.00256315100502
-0.00254818427272
-0.00252107253782
-0.00246638250092
-0.00236674804609
-0.0021973133331
-0.00193059524334
-0.00150971409034
-0.000671373758662
-0.000632012149788
-0.00140509355545
-0.00178983053204
-0.00203643102058
-0.00219730785814
-0.00229739287185
-0.00235479203161
-0.00238364912111
-0.00240230817737
-0.00241055472146
-0.00241056907134
-0.00240235261281
-0.00238370204718
-0.00235492382749
-0.00229754641
-0.00219742509978
-0.00203649560407
-0.00178985555356
-0.00140510749589
-0.000632019595234
-0.000568588310476
-0.00124202646394
-0.00157572595532
-0.00178989881144
-0.00193071526159
-0.00202016830143
-0.00207354263
-0.00210345714646
-0.00212043846527
-0.00212807176983
-0.0021280925149
-0.00212050028744
-0.00210355844146
-0.00207367997365
-0.00202031716553
-0.0019308395607
-0.00178998358255
-0.00157577764855
-0.0012420628663
-0.000568606479722
-0.000467389544816
-0.000982682707651
-0.00124205742921
-0.00140520006966
-0.00150990051786
-0.00157472648714
-0.00161211531106
-0.00163175878523
-0.00164122678904
-0.00164488832074
-0.00164491258996
-0.00164129579483
-0.00163187431462
-0.00161226956499
-0.00157489864938
-0.00151006005946
-0.00140532637988
-0.00124214959146
-0.000982748055933
-0.000467412657913
-0.000322878259576
-0.000467428023979
-0.000568633562248
-0.000632074607496
-0.00067147149717
-0.000694889593367
-0.000707122734391
-0.000711539663327
-0.000711208697693
-0.000709538650818
-0.000709548405342
-0.00071123971917
-0.000711594243081
-0.000707196361307
-0.000694971893658
-0.000671548202623
-0.000632136111153
-0.000568680043784
-0.000467461495392
-0.000322890578405
-0.000303777549259
-0.000450984508998
-0.000560900339995
-0.000633536250218
-0.000679932073657
-0.000707277489423
-0.000718521807365
-0.000715635072608
-0.000704194933685
-0.000693970944643
-0.000693986363249
-0.000704242544841
-0.000715710761201
-0.000718612270785
-0.000707363377168
-0.000680001941909
-0.00063358672212
-0.000560936071556
-0.000451011231927
-0.000303779244381
-0.000450932866936
-0.000998541491404
-0.00129015225532
-0.0014854305433
-0.00161951399919
-0.001709820891
-0.00176640376753
-0.001797372044
-0.00181050880333
-0.00181400038806
-0.00181402825272
-0.00181058973125
-0.00179749138696
-0.00176653532913
-0.00170994672703
-0.00161963327005
-0.00148553740204
-0.001290235366
-0.000998602771645
-0.00045093639213
-0.000560818735251
-0.00129008776653
-0.00166804508855
-0.00192569484112
-0.0021059613674
-0.00222881414315
-0.00230768832419
-0.00235645493039
-0.00238308103523
-0.00239450118497
-0.00239453590855
-0.00238316598191
-0.00235657006088
-0.00230779562307
-0.00222890442605
-0.00210604010838
-0.00192575712001
-0.00166808158279
-0.00129010062407
-0.00056081091609
-0.000633429480786
-0.00148531474109
-0.00192564298763
-0.0022228587893
-0.00242716154038
-0.00256019957021
-0.00263263416065
-0.00268123609185
-0.00270801028794
-0.00272037457652
-0.00272039375873
-0.00270804617495
-0.00268130078201
-0.0026327035686
-0.00256022704834
-0.00242716618262
-0.00222285395351
-0.00192562090401
-0.00148528058086
-0.000633408827938
-0.000679819417511
-0.00161938073923
-0.00210588901725
-0.00242713871595
-0.00263684611689
-0.00275379141558
-0.00280895665523
-0.00283865338592
-0.00285915358614
-0.00287027105012
-0.00287027678128
-0.00285916209186
-0.00283870150501
-0.00280903068632
-0.00275381070685
-0.00263679934185
-0.00242707064988
-0.00210581890131
-0.00161931099075
-0.00067979281094
-0.000707162606975
-0.00170971440973
-0.00222876950552
-0.00256023671463
-0.00275382142444
-0.00284095500598
-0.00287221318351
-0.00288961929385
-0.00290540366187
-0.00291500675811
-0.00291502533337
-0.00290544383035
-0.0028897608313
-0.00287245694663
-0.00284114504655
-0.0027538322548
-0.00256012272518
-0.00222867507495
-0.00170963514914
-0.000707139957598
-0.000718400690133
-0.00176634224825
-0.00230768033955
-0.00263269434072
-0.0028090430786
-0.00287224618588
-0.00289046300095
-0.00290214757621
-0.00291504663097
-0.00292318627485
-0.00292323549753
-0.0029151711413
-0.00290244692486
-0.00289094616285
-0.00287270068099
-0.0028092247258
-0.00263261285155
-0.00230759535096
-0.00176628489465
-0.000718393006907
-0.000715506689722
-0.00179730355266
-0.00235639450506
-0.00268121975578
-0.00283869054254
-0.00288954260307
-0.0029019385672
-0.00290987822711
-0.00292177390619
-0.00293037746279
-0.00293044512921
-0.00292195219873
-0.00291029338378
-0.0029026211577
-0.00289023639055
-0.00283907634118
-0.00268126180584
-0.00235635185604
-0.00179728505001
-0.000715509378285
-0.000704070665899
-0.00181037721884
-0.00238294172621
-0.00270795777151
-0.0028591929041
-0.00290538942825
-0.00291484239793
-0.00292169475508
-0.00293615655155
-0.00294684956202
-0.00294691937467
-0.00293632867642
-0.00292208041856
-0.00291547872618
-0.0029060743482
-0.00285961057041
-0.00270804112216
-0.00238293174612
-0.0018103914278
-0.000704067844049
-0.000693871000185
-0.00181381455695
-0.00239431987544
-0.00272032701268
-0.00287049146585
-0.00291539755257
-0.00292342133209
-0.00293070647919
-0.00294726333759
-0.00295886849724
-0.00295891130211
-0.00294741804805
-0.00293097273762
-0.00292382888822
-0.00291588442475
-0.00287082561033
-0.00272039978473
-0.00239433359436
-0.00181385428027
-0.000693851267314
-0.000693930478009
-0.00181383983491
-0.00239433495024
-0.0027204093731
-0.00287084780645
-0.00291608320457
-0.00292432844365
-0.00293166579932
-0.00294822421608
-0.00295985658476
-0.00295992166653
-0.00294837301872
-0.00293185550905
-0.00292456739738
-0.00291639316513
-0.00287107296629
-0.00272046141972
-0.00239435577141
-0.00181389098344
-0.000693895550346
-0.000704233734189
-0.00181045039748
-0.00238297983796
-0.00270817427101
-0.00286015849661
-0.00290736323677
-0.00291749618466
-0.00292450640569
-0.00293887327266
-0.00294951064581
-0.00294958714699
-0.00293904344127
-0.00292471002121
-0.00291769138096
-0.00290758616893
-0.00286031257744
-0.00270821447293
-0.00238300782258
-0.00181050972502
-0.000704195229347
-0.000715735804243
-0.00179742976692
-0.00235647425073
-0.0026814894139
-0.00283984748859
-0.00289209238638
-0.00290550084839
-0.00291371248523
-0.00292546651181
-0.00293395301034
-0.00293405271682
-0.00292572825882
-0.00291404241307
-0.00290581780142
-0.00289240323382
-0.00284007140431
-0.0026815605829
-0.00235650659498
-0.00179748822242
-0.000715703551792
-0.000718663219964
-0.00176654523409
-0.00230782059822
-0.00263285635264
-0.00280985730486
-0.00287441633387
-0.00289374367176
-0.00290578195408
-0.00291858545793
-0.00292663280282
-0.00292676127836
-0.00291895090505
-0.00290626605667
-0.00289422516028
-0.00287486309739
-0.00281015906022
-0.00263296814025
-0.00230787019475
-0.00176659899832
-0.000718643345567
-0.000707454957492
-0.00171005959182
-0.00222905423322
-0.00256039811877
-0.00275423373047
-0.00284229875249
-0.00287458266057
-0.00289240670797
-0.00290821328719
-0.00291781517975
-0.0029179398771
-0.00290858500797
-0.002892914192
-0.002875080017
-0.00284270325296
-0.00275447594116
-0.00256051403126
-0.00222908948237
-0.00171009427688
-0.000707450411807
-0.000680148685955
-0.00161989711955
-0.00210636062092
-0.00242748765302
-0.00263712184358
-0.00275434965347
-0.0028101049679
-0.00284018879143
-0.00286077251529
-0.00287190149063
-0.00287198770065
-0.00286104510749
-0.00284055515409
-0.0028104468607
-0.00275459938686
-0.00263726252508
-0.00242752226525
-0.00210635534025
-0.00161990078396
-0.00068015693037
-0.000633788035331
-0.00148598319747
-0.00192629647829
-0.00222339972407
-0.00242759099817
-0.00256063780663
-0.00263317157746
-0.00268179151526
-0.00270855206426
-0.00272088359929
-0.00272092605851
-0.00270868381978
-0.0026819662018
-0.00263331958693
-0.0025607828819
-0.00242767393424
-0.00222342928
-0.00192629234108
-0.0014859843086
-0.000633812162601
-0.000561186693117
-0.00129084427285
-0.00166881992166
-0.00192639876086
-0.00210656607435
-0.00222935395028
-0.00230817691416
-0.00235684439206
-0.00238337957532
-0.00239477085433
-0.00239480420857
-0.00238347267301
-0.00235698489498
-0.00230833411869
-0.00222951453697
-0.00210669018826
-0.0019264773072
-0.00166886524129
-0.00129088332077
-0.000561229974911
-0.000451269881611
-0.000999253397412
-0.00129092067728
-0.0014861741576
-0.0016202122414
-0.00171048579601
-0.00176705411761
-0.00179800237533
-0.00181109625778
-0.00181455280752
-0.0018145916675
-0.00181119701311
-0.00179816144451
-0.00176725499453
-0.00171070503578
-0.00162040970536
-0.00148633009939
-0.00129103914456
-0.00099934735424
-0.000451321556076
-0.000303956356409
-0.000451320653922
-0.000561269753591
-0.00063391244434
-0.000680322947441
-0.000707698931946
-0.000718987322784
-0.000716145510714
-0.000704731987917
-0.000694517569247
-0.000694537520108
-0.000704788427582
-0.000716239686184