/*--------------------------------*- C++ -*----------------------------------*\
| =========                 |                                                 |
| \\      /  F ield         | OpenFOAM: The Open Source CFD Toolbox           |
|  \\    /   O peration     | Version:  3.0.1                                 |
|   \\  /    A nd           | Web:      www.OpenFOAM.org                      |
|    \\/     M anipulation  |                                                 |
\*---------------------------------------------------------------------------*/
FoamFile
{
    version     2.0;
    format      ascii;
    class       volScalarField;
    location    "4.3";
    object      nut;
}
// * * * * * * * * * * * * * * * * * * * * * * * * * * * * * * * * * * * * * //

dimensions      [0 2 -1 0 0 0 0];

internalField   nonuniform List<scalar> 
7968
(
0.000152202416041
0.000162845779825
0.000170489191334
0.000174738340964
0.000176627513493
0.000177025825176
0.000176614138337
0.00017576574009
0.00017487072074
0.00017418210839
0.00017418150659
0.000174869643898
0.000175764995136
0.000176614380647
0.00017702758927
0.000176630983548
0.000174742929538
0.000170494225805
0.000162850860754
0.000152205371512
0.000162843526986
0.00019728382005
0.000216628498994
0.000226568017591
0.000230866454781
0.000231769404217
0.000230884014885
0.00022922361098
0.000227691944823
0.000226795821989
0.000226793335694
0.000227685581347
0.000229214843888
0.000230875020974
0.000231762925298
0.000230864348895
0.00022657032585
0.000216633852133
0.000197290681533
0.000162848022016
0.000170484317332
0.000216624723586
0.000241273705848
0.000253897439579
0.000259535029579
0.000260943747842
0.000260055155251
0.000258229779613
0.000256556801619
0.000255606313696
0.000255602600893
0.000256546940926
0.000258215236145
0.000260038810855
0.000260929631699
0.000259526190279
0.000253894410264
0.000241275211986
0.000216629272431
0.000170488713093
0.000174730163156
0.000226561068196
0.000253895346585
0.000267786122297
0.00027386078281
0.000275169336148
0.000273935558054
0.000271742598526
0.000269873095627
0.000268859597871
0.000268854935454
0.0002698602743
0.000271722478685
0.000273911849053
0.000275147401776
0.000273844467723
0.0002677764496
0.000253891318405
0.000226561495808
0.000174733714388
0.000176616593139
0.000230859874936
0.000259535991512
0.000273865534098
0.000279682532017
0.000280413737621
0.000280234907731
0.000279395640608
0.000278272445146
0.00027752190102
0.000277518383022
0.000278262945849
0.000279381197398
0.000280216921175
0.00028038666575
0.000279659220349
0.000273848867364
0.000259525603434
0.000230854847039
0.000176618134445
0.000177014627479
0.000231769414732
0.000260955832164
0.000275189758461
0.000280431832636
0.000283281017589
0.000284216647645
0.000283677413713
0.000282598297716
0.000281808884927
0.000281805644608
0.000282589607324
0.000283664381607
0.000284200778472
0.000283261872175
0.000280404871701
0.0002751675848
0.000260940041119
0.000231759465256
0.000177013583572
0.000176603890386
0.000230893935433
0.000260084058579
0.00027398005371
0.000280262368485
0.000284231887412
0.000285402600964
0.000284720721291
0.000283397807147
0.000282424343763
0.000282421379413
0.000283389939836
0.000284709071883
0.000285388738026
0.000284216618468
0.00028024493316
0.000273956984727
0.000260066217313
0.000230880926969
0.00017660012876
0.000175756526872
0.000229242185326
0.000258272629526
0.000271807297799
0.000279438378767
0.000283708327805
0.000284736029549
0.00028368854542
0.000281963070953
0.000280698706276
0.00028069620756
0.000281956689928
0.000283679636151
0.000284726169127
0.000283698044794
0.000279426927706
0.000271790769484
0.00025825860217
0.000229230186816
0.000175751158312
0.000174860261314
0.000227712018038
0.000256602376556
0.00026994086559
0.000278321859962
0.000282638255095
0.000283422200709
0.000281971325711
0.000279742833689
0.000278093524555
0.000278091994415
0.000279739483523
0.000281967629044
0.000283419326134
0.00028263623566
0.000278319980169
0.000269937779217
0.000256598181849
0.000227705773377
0.000174855122725
0.000174168986713
0.000226810086441
0.000255643692632
0.000268916643154
0.000277567191564
0.000281848181998
0.000282449895763
0.000280708720666
0.000278095488529
0.000276108063853
0.000276108630958
0.000278097470239
0.000280712806862
0.000282456551958
0.000281857019284
0.000277577664793
0.000268930657819
0.000255653404789
0.000226813421084
0.000174166429519
0.000174171106323
0.000226800753378
0.000255627939973
0.000268896535984
0.00027755366852
0.000281838002253
0.000282443520546
0.000280706841628
0.000278098194372
0.000276115073046
0.000276118472356
0.000278106898671
0.000280720045472
0.000282460880493
0.000281858557182
0.000277576957939
0.000268927218279
0.000255651728708
0.000226814560311
0.000174173022106
0.000174862656484
0.00022768885876
0.000256562411816
0.00026988820437
0.000278288054039
0.000282614097453
0.000283408688443
0.000281969808192
0.000279753454506
0.000278114712909
0.000278119103175
0.000279764945242
0.000281987521403
0.000283432014195
0.000282641481872
0.000278319023581
0.000269929261226
0.000256594221256
0.000227708627816
0.00017486679329
0.000175760169956
0.000229214580217
0.000258221710039
0.000271736557286
0.000279394845795
0.000283679232697
0.000284722601552
0.000283692212794
0.000281983621054
0.000280732907109
0.00028073721232
0.000281995169106
0.000283710500903
0.000284747063125
0.000283708020574
0.000279427457267
0.000271780079588
0.000258254234636
0.000229234712043
0.000175764204432
0.000176610632307
0.000230871575797
0.000260037014165
0.000273911553231
0.000280218196608
0.000284204590369
0.000285393578649
0.000284731628202
0.000283427525865
0.000282468306937
0.000282472182378
0.000283438095491
0.000284748460327
0.000285415733748
0.000284230337763
0.000280246772981
0.000273947052262
0.000260062911315
0.000230886940605
0.000176612644141
0.000177024981345
0.000231758665259
0.000260923271362
0.00027513757244
0.000280373935635
0.000283254820529
0.000284212296575
0.000283693781286
0.00028263360558
0.000281858057012
0.000281861510087
0.000282642969677
0.00028370831348
0.00028423078664
0.000283276132079
0.000280400225351
0.000275158995649
0.000260938151544
0.000231766485312
0.000177024356109
0.000176629588542
0.000230862400258
0.000259521000609
0.000273834177727
0.000279642678412
0.000280383489062
0.000280233429249
0.00027941529309
0.000278310453248
0.000277573120738
0.000277576418911
0.000278319153037
0.000279427984387
0.000280248313941
0.000280399790129
0.000279655090424
0.000273842324954
0.000259525498341
0.000230863145518
0.000176626846719
0.000174742447542
0.000226573463588
0.00025389530673
0.000267773479625
0.00027384056059
0.000275153125196
0.000273936340416
0.000271766488022
0.000269917891316
0.0002689191619
0.00026892285211
0.000269927224708
0.000271778958043
0.000273948603169
0.000275162251799
0.000273845043682
0.000267774475875
0.000253893920833
0.000226570151871
0.000174738898924
0.000170494073901
0.000216641914657
0.000241283233804
0.000253897913958
0.000259529418303
0.000260939519249
0.000260061149924
0.000258251334786
0.000256593945411
0.000255655774555
0.000255659792465
0.000256603617748
0.000258263097055
0.000260071607949
0.000260946335394
0.000259531840408
0.00025389696347
0.000241280178774
0.000216637787925
0.000170490842007
0.000162850330541
0.000197300345942
0.000216641630574
0.000226575609104
0.000230869605309
0.000231772620984
0.00023089269816
0.000229242326542
0.000227721615748
0.000226834715933
0.000226838661078
0.000227730805134
0.00022925331781
0.000230902268015
0.000231778866282
0.000230872198453
0.000226574906502
0.000216639064423
0.000197297196178
0.000162847941913
0.000152204973898
0.000162853565076
0.000170498201891
0.000174746926993
0.000176635111408
0.000177032929816
0.000176622066168
0.000175776457234
0.000174884984206
0.000174200293464
0.000174203325831
0.000174891144689
0.000175783124162
0.000176627393847
0.000177036004877
0.000176636127234
0.000174746060582
0.000170496650611
0.000162852161495
0.000152203600798
0.00016129154819
0.000188718780072
0.000206726026879
0.000217266610115
0.000222913682479
0.000225407420744
0.000225976906463
0.000225509199393
0.000224758850486
0.000224228826366
0.00022422738383
0.000224755386612
0.000225504826743
0.000225972879104
0.000225405166789
0.000222914114181
0.000217269461587
0.000206730528697
0.000188724058921
0.000161294913331
0.000188714872791
0.00057251111291
0.000748916300585
0.000834201040454
0.000871508973669
0.000882112218269
0.000878763681022
0.000869564055039
0.000860472901313
0.000855052377721
0.000855041689335
0.000860444712858
0.000869523602473
0.000878720820895
0.000882081642465
0.000871501352775
0.000834216549244
0.000748944582631
0.000572537477377
0.00018871888735
0.00020671941623
0.000748884312483
0.00102461561161
0.00116741130747
0.00123713004663
0.00126411786556
0.00126719425243
0.00125936512854
0.00124991765176
0.0012439208589
0.00124390165145
0.00124986466113
0.00125928374066
0.00126709944458
0.00126403467965
0.00123707566612
0.00116739059414
0.00102462164079
0.000748902919612
0.000206721982369
0.000217257341275
0.000834141891181
0.00116738515757
0.00134658982107
0.00143811369833
0.0014767566597
0.00148408265315
0.00147710153888
0.00146996061164
0.00146510998973
0.00146508837312
0.00146989797822
0.00147699430234
0.00148393390516
0.00147662330237
0.0014380068973
0.00134652093106
0.00116735288993
0.000834136644679
0.000217257351561
0.000222904084053
0.000871451921695
0.00123711748277
0.00143813522113
0.00154225191491
0.00158638416712
0.00158808420029
0.0015702895577
0.00155327836841
0.00154382226743
0.00154377936644
0.0015531547522
0.00157009368285
0.00158785903295
0.00158624717512
0.0015421087882
0.00143802242989
0.00123704515561
0.00087141733691
0.000222900688134
0.000225401228585
0.000882097373183
0.0012641717277
0.00147686441059
0.00158646661176
0.00161538094414
0.00159951890799
0.0015703339941
0.00154593304976
0.00153298462061
0.00153293881904
0.00154579992166
0.00157012026449
0.00159926012491
0.0016151455441
0.00158633177821
0.00147672690317
0.00126407204485
0.000882041326577
0.00022539438264
0.000225976936205
0.000878810928996
0.00126734726044
0.00148433647824
0.00158847247023
0.0015997922613
0.00157019226534
0.00153129720119
0.00150074802973
0.00148485849761
0.00148481819156
0.00150063002523
0.00153110553194
0.00156995692934
0.00159955531764
0.00158827450207
0.0014841986227
0.00126724813744
0.000878751265455
0.000225967724389
0.000225515402039
0.000869659357232
0.00125958952871
0.00147740633794
0.00157089097883
0.00157084650895
0.00153151547479
0.00148520701868
0.00145080494308
0.00143307844494
0.00143304539123
0.0014507101149
0.00148506133607
0.00153135552604
0.00157069677163
0.00157076740209
0.00147733683756
0.00125953304613
0.000869623357539
0.000225506469448
0.000224766976341
0.000860578361351
0.00125015052101
0.00147024586693
0.00155394291147
0.00154653920669
0.00150103841139
0.00145084519007
0.00141319336759
0.00139400626478
0.00139398244784
0.00141313295693
0.00145077170703
0.00150098902319
0.00154652776634
0.00155395816586
0.00147026502812
0.00125017076893
0.000860589941497
0.000224761698041
0.000224233831492
0.00085513406656
0.00124411740954
0.00146536015583
0.00154442476655
0.00153354392863
0.00148512090157
0.0014330985375
0.00139398647913
0.00137427898031
0.00137427502607
0.00139398372834
0.00143311956336
0.0014851999321
0.00153369116027
0.00154460289379
0.00146547546656
0.00124423187891
0.000855207098203
0.000224235234591
0.00022422821021
0.000855083233513
0.00124403156369
0.00146527389524
0.00154425777243
0.00153339590954
0.00148503591495
0.00143308030453
0.00139401732808
0.00137434690598
0.00137436724067
0.0013940823979
0.00143320354045
0.00148524692637
0.00153369551715
0.00154458447537
0.00146547985008
0.00124423546364
0.000855216640281
0.000224237183428
0.000224753588271
0.00086045055303
0.00124992486743
0.00147000935966
0.00155349227653
0.00154615104121
0.00150083462873
0.001450831616
0.00141332955651
0.00139425065463
0.00139428603888
0.00141343845931
0.00145102761701
0.0015011458439
0.00154656001159
0.00155391804534
0.00147027978563
0.00125018610417
0.00086062247978
0.000224766709753
0.000225500457424
0.000869501395521
0.00125928402213
0.0014770377173
0.00157027515014
0.0015703341175
0.00153127654297
0.00148524446613
0.00145107386689
0.00143350967327
0.00143355194837
0.00145120191569
0.00148547340434
0.00153163299936
0.00157078639039
0.00157073692444
0.00147735491815
0.00125956619658
0.00086968537139
0.000225513744154
0.0002259664556
0.000878679017038
0.00126705013953
0.0014839055293
0.00158788006384
0.00159929147027
0.00156998645906
0.00153142293193
0.001501150154
0.00148544753731
0.00148549133408
0.0015012824681
0.00153165662226
0.00157032812835
0.00159970511072
0.00158828434051
0.00148422127315
0.00126730628645
0.000878846338098
0.000225976633008
0.000225398974961
0.00088204006889
0.00126396417305
0.00147654771442
0.00158619874283
0.00161503824468
0.00159939871171
0.00157053162408
0.00154641441514
0.00153365918156
0.00153369983011
0.00154653602456
0.00157073776968
0.00159967895358
0.00161534249688
0.00158643661382
0.00147677881804
0.00126415762683
0.000882168098825
0.00022540447374
0.000222910140473
0.000871491885913
0.00123703163842
0.0014379429575
0.00154203607422
0.00158627817858
0.00158807177538
0.00157052385786
0.0015537522122
0.0015444701745
0.00154450789222
0.00155386174269
0.00157069552038
0.00158828035667
0.00158647134326
0.00154221409124
0.00143809951813
0.00123716036194
0.000871576482755
0.00022291142792
0.000217269053733
0.000834271154423
0.00116741650788
0.00134652729751
0.00143801344992
0.00147670389436
0.00148414366842
0.00147731153338
0.00147029549355
0.00146554626497
0.00146558231035
0.0014703960829
0.00147746267992
0.00148431974749
0.00147686889611
0.00143815309035
0.00134664110911
0.00116750423949
0.000834325772561
0.000217268059374
0.000206733333251
0.000749064485587
0.00102472772422
0.0011674503562
0.00123713480719
0.00126414853029
0.00126730815715
0.00125959126375
0.00125025394896
0.00124434962017
0.00124438825719
0.0012503586117
0.0012597401948
0.00126747325419
0.00126430375614
0.00123726477949
0.0011675516612
0.00102480020491
0.000749106356075
0.000206731797343
0.000188727123993
0.000572670775027
0.000749041487374
0.00083428388187
0.000871569244247
0.000882185772114
0.000878884640888
0.000869751168497
0.000860727879298
0.000855366142874
0.000855396925087
0.000860810908129
0.000869870123719
0.00087901944465
0.00088231715854
0.000871684517941
0.00083437475395
0.000749104780059
0.0005727052716
0.000188725569409
0.000161294361342
0.00018873632271
0.000206744145755
0.000217281114972
0.00022292454026
0.000225417059589
0.00022598913269
0.000225527630927
0.000224784612624
0.000224261253385
0.000224264850787
0.000224793079848
0.000225538114061
0.000225999180004
0.000225425151384
0.000222930118126
0.000217284301598
0.000206745675032
0.000188736568871
0.000161292522536
0.000168515948175
0.000204152606944
0.000227314918503
0.000241080401692
0.000248750271895
0.000252490499676
0.000253832540144
0.000253938205618
0.000253674626256
0.000253479975872
0.000253478008911
0.000253669715615
0.000253931607846
0.000253825841343
0.000252485821965
0.000248749196169
0.000241082916098
0.000227320192142
0.000204159236351
0.000168519691004
0.000204148526433
0.000697196254189
0.000942583619847
0.00106297572134
0.00111576690824
0.00113108946113
0.00112687713268
0.00111473485525
0.0011026048301
0.00109532440131
0.00109531161338
0.00110257207017
0.0011146888396
0.00112682827776
0.00113105759793
0.00111576855921
0.00106301018383
0.000942635645391
0.000697243829004
0.000204154033627
0.000227308033159
0.000942523151324
0.00135906940365
0.00158744274238
0.00170404906515
0.00175297440279
0.00176312931781
0.00175509425335
0.0017423054117
0.00173367922785
0.0017336520021
0.00174223291139
0.00175499002953
0.00176300997558
0.00175287107882
0.00170398843734
0.00158742926616
0.0013590913583
0.000942558207192
0.000227311221426
0.000241070978698
0.0010628699376
0.00158738836536
0.00189427694872
0.00206297390569
0.00214325822244
0.00216934099846
0.00217020602402
0.0021593901226
0.00215092928168
0.00215088787553
0.00215927838208
0.00217004589586
0.00216915157284
0.00214307932396
0.00206284006666
0.00189419785778
0.00158735837491
0.00106287302088
0.000241070262705
0.000248741753421
0.00111566027574
0.00170399831479
0.00206298344297
0.00226790073708
0.00237017163687
0.0024013563784
0.00239805000114
0.00238393568664
0.00237351320787
0.00237345774968
0.00238378115906
0.00239781914709
0.00240108834766
0.00236992485702
0.00226770276321
0.00206284211607
0.00170391340751
0.00111562468776
0.000248736472555
0.00025248750378
0.00113104011652
0.00175300648884
0.00214337225028
0.00237030570465
0.00247329963542
0.00250057368492
0.00249095389693
0.0024708337065
0.00245682695178
0.00245676570433
0.00247066021324
0.0024906879805
0.00250026061055
0.00247300207012
0.00237006496637
0.00214319064397
0.00175288291115
0.00113097522244
0.000252477895452
0.000253838838525
0.00112691718981
0.0017632935143
0.0021696235205
0.00240173696241
0.0025008513684
0.00252171927629
0.00250431987389
0.00247680846762
0.00245841685303
0.00245835937569
0.00247664440941
0.00250406551908
0.00252141915537
0.00250056467868
0.00240150527457
0.00216945557626
0.00176317475292
0.00112685078698
0.000253826776051
0.000253953339067
0.00111484313878
0.00175536484029
0.00217063295009
0.00239866053049
0.00249150331956
0.00250458408128
0.00247840573678
0.00244329859502
0.00242064415343
0.0024205969337
0.00244316567434
0.00247820653441
0.00250436468358
0.00249131103927
0.00239852371127
0.00217054959154
0.00175531068385
0.00111481546416
0.000253942575769
0.000253692203344
0.0011027299958
0.00174262049885
0.00215991099006
0.00238466563022
0.00247151950808
0.00247718975733
0.00244339125433
0.00240233441546
0.00237660032874
0.0023765699748
0.0024022554903
0.00244328869265
0.0024771076403
0.00247149199733
0.00238469439851
0.00215996521592
0.00174268037755
0.00110277427839
0.000253687109598
0.000253492171664
0.0010954129015
0.00173394855292
0.00215141011046
0.0023742027077
0.00245748749381
0.00245878562863
0.0024207312595
0.00237660291415
0.00234944152625
0.00234943910954
0.00237660493487
0.00242075877078
0.00245887456035
0.00245766218786
0.0023744380816
0.00215164207824
0.00173415264599
0.00109554784842
0.000253496100727
0.000253482003954
0.00109533655452
0.00173381645952
0.00215123783862
0.00237400046649
0.00245730808094
0.00245867383781
0.00242070077619
0.00237664378911
0.00234953671975
0.00234956757108
0.00237673849526
0.00242086867151
0.00245893767706
0.00245767739672
0.0023744269631
0.00215163502686
0.00173415596547
0.00109555774819
0.000253495232787
0.000253666902534
0.00110253517387
0.00174227842578
0.00215946403485
0.0023841331836
0.00247105395374
0.00247691839253
0.00244335051844
0.00240249913233
0.0023769188571
0.00237697289109
0.00240265969805
0.00244362144703
0.00247731008214
0.00247155530276
0.00238467821867
0.00215995821033
0.00174269872841
0.00110280927476
0.000253685277157
0.000253922075695
0.00111459666207
0.00175492285162
0.00217006545648
0.00239796323766
0.00249089987378
0.00250426366284
0.00247842504848
0.00244362359184
0.00242119354782
0.00242125840843
0.00244381524131
0.00247874558377
0.00250471316182
0.0024914490811
0.00239853615614
0.00217056854421
0.00175535805587
0.00111488415932
0.000253940717614
0.000253811039622
0.00112669346467
0.00176285527064
0.0021690354296
0.00240103719344
0.00250025878499
0.00252144321821
0.0025044366375
0.00247728173806
0.00245914729698
0.00245921358011
0.00247747710397
0.00250475913624
0.0025218815353
0.00250077358025
0.00240155827761
0.00216949729778
0.00176325205204
0.00112695668463
0.00025382579598
0.000252469932886
0.00113091011696
0.00175267667018
0.0021428888805
0.00236975365364
0.00247283689445
0.00250039987912
0.00249116337658
0.00247140429657
0.00245766110733
0.00245772398801
0.00247158800693
0.002491457453
0.0025007809773
0.0024732593582
0.00237015997073
0.00214325348073
0.0017529872073
0.00113111534272
0.000252478438556
0.000248735738704
0.00111565926192
0.00170383134734
0.00206267356195
0.00226753787873
0.00236989215607
0.00240130636827
0.00239831912186
0.00238452197999
0.00237433958683
0.00237440022777
0.00238469494361
0.00239858186105
0.0024016250731
0.00237021951194
0.00226783616774
0.00206293497546
0.0017040485633
0.00111579852065
0.000248738412491
0.000241074253514
0.00106299151312
0.0015873797902
0.00189414218418
0.0020627902354
0.00214314159724
0.0021694084879
0.00217051330167
0.00215994263353
0.0021516735476
0.00215173577145
0.00216011453364
0.00217076203396
0.00216969713474
0.00214342343264
0.0020630346751
0.00189434538633
0.00158753770339
0.00106308550352
0.000241073660229
0.000227316842178
0.000942722236515
0.00135917538826
0.00158744913017
0.00170401483447
0.00175298915828
0.00176328135023
0.00175542363367
0.00174281435122
0.00173433530202
0.00173439817571
0.00174298568296
0.00175566832131
0.00176355790651
0.00175325631815
0.00170424449287
0.00158763296163
0.00135930851413
0.000942794960562
0.00022731534616
0.000204158040315
0.000697385562537
0.000942724460775
0.00106305935697
0.00111582521305
0.00113117621296
0.00112704474408
0.00111500534042
0.00110297712933
0.00109578308354
0.00109583095459
0.00110310699679
0.00111519278114
0.00112725995407
0.00113138948752
0.00111601465034
0.00106321342402
0.000942834906356
0.000697444508264
0.000204156214134
0.000168514000544
0.000204168881203
0.000227330923647
0.000241091037864
0.00024875556675
0.000252493420471
0.000253838069185
0.000253950788591
0.000253695144163
0.000253507242228
0.000253511143778
0.000253704462582
0.000253962486573
0.000253849393443
0.000252502600457
0.000248761746069
0.00024109459137
0.000227332518809
0.000204168687033
0.000168511130893
0.000175120985089
0.00021737088155
0.000244350719122
0.000260367720128
0.00026945246029
0.000274142172164
0.000276305994162
0.000277364618812
0.000278116460167
0.000278623300102
0.000278620603107
0.000278109397702
0.000277354562648
0.000276295008821
0.00027413336898
0.00026944844105
0.000260368766469
0.000244355811472
0.000217378037698
0.000175124731148
0.000217368218012
0.000786801920471
0.00107155823379
0.00120651630784
0.00126133223068
0.00127305831601
0.00126360114221
0.0012467950829
0.00123161701316
0.00122296311088
0.00122294412875
0.00123156726006
0.001246722392
0.00126351931404
0.00127299478459
0.00126131353198
0.00120654349511
0.00107161401013
0.00078685869594
0.000217375074157
0.000244345581708
0.00107147634365
0.00157390621582
0.00185067386528
0.00199137766309
0.00204993027119
0.00206210417573
0.00205228260057
0.00203719464511
0.00202715915643
0.00202712288824
0.00203709694838
0.00205214077292
0.00206194559539
0.00204978876418
0.00199129125126
0.00185064812024
0.00157392732709
0.00107151564956
0.000244349474336
0.0002603603504
0.00120638428164
0.0018506030854
0.00223861599942
0.00245764161793
0.00256684686221
0.00260942438567
0.00261446251024
0.00260462483493
0.00259577770034
0.00259572669071
0.00260448648127
0.00261426322451
0.00260921488194
0.00256663637082
0.00245748639097
0.00223852388697
0.00185056705308
0.001206385712
0.000260359242892
0.00026944716807
0.00126121069016
0.00199130882484
0.00245763870496
0.00273647981093
0.00288679805465
0.00295080093172
0.00296536679129
0.00295803279302
0.00294912525202
0.00294906374789
0.00295785984698
0.00296510852272
0.00295050385615
0.00288651735422
0.00273626247205
0.00245748358901
0.00199121065465
0.00126116495069
0.000269440369844
0.000274144314418
0.0012730218126
0.00204996158497
0.00256694540697
0.00288692303926
0.0030611720656
0.00313874907991
0.00315737044668
0.00314839987866
0.00313726103425
0.00313719449628
0.00314820997632
0.00315707890916
0.00313840197199
0.00306083442478
0.00288664861255
0.00256674539394
0.00204981628697
0.001272937283
0.000274132041216
0.00027631996668
0.00126369405708
0.00206229998891
0.00260968309812
0.0029511557472
0.00313900768783
0.00322204940993
0.00323869799313
0.00322425779134
0.00320909352363
0.0032090311215
0.003224076664
0.00323841551498
0.0032217065651
0.00313866863892
0.00295088177651
0.00260950762456
0.00206216161464
0.00126360838947
0.000276304525069
0.000277388786862
0.00124698548913
0.00205262738038
0.00261494265628
0.00296596676006
0.00315789435608
0.0032389573709
0.00324897913151
0.00322696281772
0.00320708562312
0.00320703543696
0.00322681660604
0.00324875357264
0.0032386865145
0.00315763360983
0.00296577019682
0.00261482992186
0.00205256463415
0.00124695333716
0.000277374762957
0.000278141231034
0.00123182295297
0.00203758711592
0.00260519988059
0.00295875927114
0.00314906136926
0.00322463468335
0.00322706220698
0.00319816771186
0.00317447457377
0.00317444482611
0.00319808264234
0.00322693405302
0.00322449768296
0.00314895927395
0.00295872686453
0.00260524165735
0.00203766643807
0.00123188786467
0.000278133761131
0.000278638818644
0.00122310799865
0.00202748418652
0.00259630144616
0.00294981827265
0.00313790647588
0.0032094584336
0.00320717315761
0.00317447512639
0.00314886971779
0.00314886805436
0.00317447138569
0.00320717584561
0.00320949487857
0.0031380087424
0.00295000199982
0.00259654859048
0.0020277412982
0.00122329230559
0.000278641415713
0.000278624372959
0.00122299446664
0.00202730978587
0.00259609522687
0.00294960443398
0.00313771978238
0.00320933361004
0.00320712475174
0.00317449909954
0.0031489476812
0.00314897918304
0.00317458762843
0.00320726837541
0.00320954671229
0.00313801909155
0.00294998736283
0.00259653185574
0.00202773201774
0.00122328986533
0.000278636761023
0.000278103139394
0.00123152353666
0.00203712490763
0.00260465325182
0.00295818641809
0.00314857215286
0.00322432332912
0.00322696531025
0.00319827455203
0.00317473595855
0.00317479257916
0.00319843363484
0.00322721633591
0.00322466478459
0.00314900429838
0.00295869392243
0.00260520400228
0.00203764659462
0.00123188705336
0.000278121344369
0.000277337733916
0.00124658234133
0.00205200590949
0.00261422120461
0.00296520303896
0.00315724748181
0.00323856977251
0.00324891123532
0.00322719255308
0.00320754140679
0.00320761044066
0.00322738860239
0.00324921986108
0.00323897522991
0.00315773441588
0.00296574730519
0.00261479157689
0.00205254724729
0.00124696302775
0.000277356741426
0.000276268841388
0.00126328948539
0.00206166784905
0.002608989553
0.00295037577514
0.00313835311968
0.00322169190754
0.00323871649084
0.00322463077513
0.00320973188843
0.00320980387025
0.0032248367579
0.00323903844731
0.0032221037054
0.00313882666151
0.00295088221106
0.00260948654892
0.00206215323542
0.00126363644754
0.000276283695344
0.000274103572021
0.00127271333013
0.00204942647245
0.00256628911758
0.00288623322011
0.00306061236846
0.00313848637587
0.00315749306038
0.00314889196622
0.00313803321301
0.00313810414751
0.00314909487052
0.00315780349388
0.00313886905492
0.00306103242595
0.00288666288356
0.00256670447924
0.00204980621578
0.00127298071787
0.000274110830148
0.000269419738283
0.00126104781255
0.00199094276544
0.00245714055623
0.00273595305786
0.00288637900639
0.00295064577926
0.00296555868914
0.00295856745794
0.00294992624017
0.00294999715811
0.00295876911175
0.00296585650684
0.0029509945369
0.00288673867416
0.00273628875747
0.00245744477292
0.00199120609261
0.00126122376897
0.000269419519209
0.000260344140432
0.00120636345148
0.00185040593891
0.0022382855087
0.00245727380796
0.00256656963495
0.0026093835234
0.00261470447968
0.00260515246703
0.00259653086912
0.00259660622863
0.00260536038606
0.00261500215818
0.00260971628018
0.00256689904009
0.00245756045517
0.00223852543906
0.00185059520717
0.00120647714502
0.000260339687437
0.000244336584899
0.00107155968401
0.00157384884125
0.00185049965507
0.00199116653351
0.00204979278984
0.0020621533877
0.00205256201566
0.00203769808832
0.00202784304138
0.00202792004974
0.00203790741166
0.0020528589761
0.00206248499459
0.0020501115704
0.00199143801643
0.00185071625486
0.00157400434284
0.00107164143235
0.000244331056833
0.000217362211103
0.000786917112772
0.00107159476352
0.0012064813914
0.00126127118955
0.00127304256233
0.00126370335127
0.00124703816462
0.0012319905973
0.00122344343144
0.00122350204385
0.00123214820802
0.00124726307589
0.00126395809389
0.00127329215788
0.00126148864842
0.00120665751294
0.00107171969402
0.000786979291081
0.000217356634441
0.000175106143171
0.000217372340861
0.000244350814386
0.000260361217516
0.000269438254341
0.000274122216901
0.000276285316972
0.000277348072732
0.000278104652803
0.000278615583928
0.000278618619104
0.000278111520323
0.000277355921166
0.000276291745483
0.000274125956314
0.000269438694471
0.000260359336934
0.000244347477284
0.000217367824232
0.000175100326896
0.000183262788926
0.000233451985524
0.000264559403906
0.000283106647208
0.000294105717804
0.00030045527865
0.000304410265492
0.000307606826502
0.000310452202557
0.000312279797624
0.000312276892678
0.000310444239746
0.000307594826209
0.00030439624102
0.000300443101679
0.00029409895602
0.000283105824429
0.000264563239246
0.000233458175235
0.000183266344882
0.000233452221855
0.000888649860343
0.00120486903903
0.00134399795396
0.00139199639567
0.00139346800335
0.0013747638173
0.0013520257051
0.00133445902138
0.00132544237853
0.0013254104435
0.00133437202411
0.0013518965928
0.00137461536672
0.00139334122409
0.00139193034154
0.00134399632452
0.00120491439021
0.000888708117116
0.000233459965035
0.000264558003713
0.00120477241578
0.00177709875378
0.00208285565205
0.00223137936787
0.00228823403537
0.00229607773879
0.00228217871215
0.00226421177385
0.0022528399639
0.00225278742957
0.00226406668946
0.0022819622516
0.00229582931826
0.0022880135921
0.00223123536437
0.00208279407984
0.00177710765516
0.00120481823469
0.000264562977662
0.000283103468509
0.00134385838161
0.00208277867843
0.0025255185656
0.0027749293959
0.00290109432848
0.0029514164495
0.00295825625066
0.00294783926534
0.00293820790334
0.00293814276775
0.00294765814401
0.00295798375295
0.00295110114113
0.00290080633858
0.00277472251951
0.00252539520779
0.00208272994007
0.0013438649969
0.00028310365817
0.000294104274064
0.00139189101228