/*--------------------------------*- C++ -*----------------------------------*\
| =========                 |                                                 |
| \\      /  F ield         | OpenFOAM: The Open Source CFD Toolbox           |
|  \\    /   O peration     | Version:  3.0.1                                 |
|   \\  /    A nd           | Web:      www.OpenFOAM.org                      |
|    \\/     M anipulation  |                                                 |
\*---------------------------------------------------------------------------*/
FoamFile
{
    version     2.0;
    format      ascii;
    class       surfaceVectorField;
    location    "1.5";
    object      Uf;
}
// * * * * * * * * * * * * * * * * * * * * * * * * * * * * * * * * * * * * * //

dimensions      [0 1 -1 0 0 0 0];

internalField   nonuniform List<vector> 
45932
(
(0.00138084150402 0.000247654151689 -0.000604895807936)
(0.000671544486441 0.000526211863845 -0.000755707026159)
(0.000792068035245 0.000363591825472 -0.00121662383648)
(0.00256876659065 0.000406022822799 -0.000583614088474)
(0.00217641017959 0.00065886518376 -0.000890732538211)
(0.00222125409896 0.000518926876711 -0.00125281246608)
(0.00264682398566 0.000735739291899 -0.000575440044679)
(0.00303909464454 0.00127855269964 -0.000964659510337)
(0.00301781037181 0.00095699989569 -0.00131755478827)
(0.00145973695461 0.00101117263419 -0.000578546225539)
(0.00237141144502 0.00196901325679 -0.00101455509949)
(0.00234198851972 0.00142514111516 -0.00137542918434)
(-0.000364663274338 0.00111176615455 -0.000569446823865)
(0.000653487707417 0.00233043094038 -0.00105037237983)
(0.000643780220457 0.00166884116278 -0.00141817973103)
(-0.00231347002563 0.00102570202304 -0.00052986557594)
(-0.00139206635304 0.002343405545 -0.00101936255771)
(-0.00137915342761 0.0016747781204 -0.00136895083668)
(-0.00382427970718 0.000760128625294 -0.000470411662618)
(-0.00332334353088 0.00199397780133 -0.00092677841859)
(-0.00328893983102 0.00143408798971 -0.00123853339873)
(-0.00433475904947 0.000406931914966 -0.000399971863837)
(-0.00443096136833 0.00131539528194 -0.000796355719451)
(-0.00438949622645 0.000972525342677 -0.00106013303456)
(-0.00386270253261 0.000125031634671 -0.00032092089995)
(-0.00433115617227 0.00061252063733 -0.000634371885704)
(-0.00431095723411 0.00048684862218 -0.000848538897522)
(-0.00296736056151 -1.89166972124e-05 -0.000240239603764)
(-0.00347548866111 0.000181509769365 -0.000460997905218)
(-0.00347840079428 0.000178699659885 -0.000629175314284)
(-0.00209195723517 -6.36078683908e-05 -0.000169000078097)
(-0.00250949398493 -9.5859798055e-07 -0.000309905250999)
(-0.00252354658142 3.42721314549e-05 -0.000436737822278)
(-0.00137735705549 -6.32839935515e-05 -0.000112631289345)
(-0.00168505728795 -6.75516237565e-05 -0.000202132688016)
(-0.00169974142221 -1.71034883303e-05 -0.000289744018431)
(-0.000859236338243 -5.16321767027e-05 -7.12058891988e-05)
(-0.0010671570898 -7.41602943742e-05 -0.000127746867876)
(-0.00107776967134 -3.06079288333e-05 -0.000184898488254)
(-0.000507598754988 -3.88394652848e-05 -4.26011096728e-05)
(-0.000641933739241 -6.2015269753e-05 -7.71618948968e-05)
(-0.000648239182729 -2.93764146597e-05 -0.000113805324879)
(-0.000281183963668 -2.91950421064e-05 -2.31123572168e-05)
(-0.000363588646121 -4.77888209875e-05 -4.42717260111e-05)
(-0.000366373175974 -2.51445287139e-05 -6.54224789131e-05)
(-0.00014125558514 -2.26995436038e-05 -1.03689459271e-05)
(-0.000189187483557 -3.66369647018e-05 -2.3326758417e-05)
(-0.000190248086893 -2.10563251447e-05 -3.33315807144e-05)
(-5.61630444292e-05 -1.85661399094e-05 -3.09095268931e-06)
(-8.26269218166e-05 -2.90163934031e-05 -1.064897071e-05)
(-8.33310193717e-05 -1.80106333134e-05 -1.35337594616e-05)
(2.87071509567e-07 -1.59052949365e-05 -7.14864638411e-08)
(-1.59232015051e-05 -2.44393163592e-05 -4.32876416666e-06)
(-1.69840252247e-05 -1.5974177756e-05 -3.78900617562e-06)
(4.53539850736e-05 -1.40923744139e-05 1.65327349876e-07)
(3.24411468917e-05 -2.1473927947e-05 -2.22809604342e-06)
(3.09321202281e-05 -1.45538019499e-05 -1.06234384351e-06)
(8.94692600278e-05 -1.27832137561e-05 -1.04266907891e-06)
(7.61763596453e-05 -1.94040026575e-05 -2.51269177092e-06)
(7.44113434863e-05 -1.35176968859e-05 -2.6561966589e-06)
(0.000136939393773 -1.17535622862e-05 -2.63667925592e-06)
(0.000121581484563 -1.78323245255e-05 -3.74314677309e-06)
(0.000119836705494 -1.27182881615e-05 -5.90527604514e-06)
(0.000187944979094 -1.08973743558e-05 -3.82215720183e-06)
(0.000170527944545 -1.64890093828e-05 -4.92640811609e-06)
(0.000169081842931 -1.20253267932e-05 -9.01653165585e-06)
(0.000239992782836 -1.01849514807e-05 -4.16467348026e-06)
(0.000221711569103 -1.53284491997e-05 -5.3467762486e-06)
(0.000220752054755 -1.14364845754e-05 -1.06985634192e-05)
(0.000289704401754 -9.58104778423e-06 -3.61438269096e-06)
(0.000272182552597 -1.43262192296e-05 -4.82870888933e-06)
(0.000271736528417 -1.092686665e-05 -1.05330667194e-05)
(0.000333722600831 -9.07806136007e-06 -2.24233052628e-06)
(0.000318579433724 -1.34808762296e-05 -3.50306258425e-06)
(0.000318629482642 -1.05053862448e-05 -8.53200696037e-06)
(0.000369333965245 -8.69143625864e-06 -4.06581426793e-08)
(0.000357850160341 -1.27828233753e-05 -1.42580079691e-06)
(0.000358412812912 -1.01860967516e-05 -5.02693043029e-06)
(0.000394682196485 -8.40474126038e-06 2.7472039579e-06)
(0.000387738269434 -1.22588766913e-05 1.37421765378e-06)
(0.000388693099095 -1.00531909208e-05 -4.19641814259e-07)
(0.000409338363722 -8.20601958713e-06 5.62996546033e-06)
(0.000407124332171 -1.18301198015e-05 4.49706955236e-06)
(0.00040823354308 -9.89427162378e-06 4.49722241782e-06)
(0.000413155709565 -8.10021645637e-06 8.37700196005e-06)
(0.000415731757559 -1.15585115727e-05 7.47767245122e-06)
(0.000416880382608 -9.7871927546e-06 9.64451257699e-06)
(0.000406749742736 -8.07107612425e-06 1.09362442961e-05)
(0.000413816925693 -1.14085586534e-05 1.02532724875e-05)
(0.000414967341271 -9.73942014941e-06 1.4605605732e-05)
(0.000391038960388 -8.10525832258e-06 1.32498405695e-05)
(0.00040215293413 -1.13582391455e-05 1.27652091571e-05)
(0.000403268839797 -9.73673650509e-06 1.92070859304e-05)
(0.000367147773347 -8.19785109574e-06 1.52664377225e-05)
(0.00038175505388 -1.13888498345e-05 1.49642246702e-05)
(0.000382806697458 -9.7680391875e-06 2.33275180255e-05)
(0.000336411044063 -8.33342429479e-06 1.69719153867e-05)
(0.000353882718193 -1.15009272983e-05 1.68008857433e-05)
(0.000354850985435 -9.83759949209e-06 2.68624592615e-05)
(0.000300063964473 -8.5262400995e-06 1.8307780887e-05)
(0.000319721646168 -1.16534455703e-05 1.83030022613e-05)
(0.000320596176367 -9.90662990639e-06 2.98208647736e-05)
(0.000259841858388 -8.71647339401e-06 1.94007689894e-05)
(0.000281027377939 -1.18911126747e-05 1.93104520323e-05)
(0.00028181678293 -1.00363282194e-05 3.19974132293e-05)
(0.000216023854522 -8.90551447777e-06 2.00743819286e-05)
(0.000238172916124 -1.206063461e-05 2.02766724642e-05)
(0.000238870312017 -1.00636965637e-05 3.39667917194e-05)
(0.000171082453221 -8.99612995343e-06 2.08464537925e-05)
(0.000194008423039 -1.22273702005e-05 2.03715803928e-05)
(0.000194625757823 -1.01031158602e-05 3.4697001344e-05)
(0.00012182264346 -9.25917041481e-06 2.22227744765e-05)
(0.000146226101355 -1.22407808185e-05 2.16220802873e-05)
(0.000146844457026 -9.99956296691e-06 3.68695157424e-05)
(6.84638365271e-05 -1.056181082e-05 2.61829678233e-05)
(9.61193372844e-05 -1.29120394509e-05 2.30111640409e-05)
(9.66887468055e-05 -1.04700642827e-05 3.95863205828e-05)
(4.04575918705e-05 -1.56161205903e-05 2.79850441935e-05)
(4.3035056009e-05 -1.2770486652e-05 4.98376635822e-05)
(0.00140447869611 0.00102315184377 -0.00104154375643)
(0.000686173455161 0.0013441851817 -0.000918447323737)
(0.000779279270982 0.00103838358978 -0.00152020353157)
(0.00279635396579 0.00166590416368 -0.00127177796007)
(0.00248626305702 0.00188157764797 -0.00129564139366)
(0.00238908245233 0.00152391515077 -0.00191863277148)
(0.00292088468926 0.00270716867686 -0.00140377456515)
(0.00352717746001 0.0033437714429 -0.00142064779985)
(0.00326339588304 0.00267168557657 -0.00212745114236)
(0.00162857508897 0.00352656177524 -0.00148638125378)
(0.00275452191579 0.00485195080657 -0.00145904702673)
(0.00253982468421 0.00384865400425 -0.00223672986946)
(-0.000348157779732 0.00381419097876 -0.00150028811368)
(0.000792864875784 0.00562526806215 -0.0014993681007)
(0.000721162919823 0.00445452803721 -0.00230640191391)
(-0.00244795523902 0.00354804788724 -0.00141627540036)
(-0.00150269476995 0.00563919999462 -0.00146081900538)
(-0.00143112300112 0.00446373740155 -0.00224582492852)
(-0.00407454327219 0.00274164469186 -0.00125272247542)
(-0.00367686450241 0.0048693178262 -0.00134817588566)
(-0.0034595530493 0.00385809463857 -0.00206199013711)
(-0.00458560911906 0.00165099310349 -0.00103075574132)
(-0.00491432222126 0.00337116108424 -0.00120383490424)
(-0.00462108793071 0.00268829850326 -0.00180020029969)
(-0.00401392605152 0.00073949527068 -0.000774448890971)
(-0.00472179514288 0.00177667124146 -0.000994392872173)
(-0.00448906046033 0.00144048303075 -0.00144997815472)
(-0.0030174325139 0.000223783591528 -0.000530663552453)
(-0.00367946106734 0.000733310621695 -0.000723549910858)
(-0.00355979822069 0.000610723032959 -0.00105004176446)
(-0.00207933238074 4.22653813953e-06 -0.000343037860918)
(-0.00257667873118 0.000225801281313 -0.000473393163266)
(-0.00253191422885 0.000198941348534 -0.000695805542846)
(-0.00134825356931 -6.59214936204e-05 -0.000217248266548)
(-0.00168828344675 1.32694496297e-05 -0.000298954773134)
(-0.00167770172673 2.59212320889e-05 -0.000446356997867)
(-0.000827822095449 -7.58573846911e-05 -0.000133702873574)
(-0.00104875514384 -5.46065720876e-05 -0.000185446364906)
(-0.00104964790214 -3.33435781732e-05 -0.000279768707632)
(-0.000479444773859 -6.59276181962e-05 -7.8832511235e-05)
(-0.000619408332331 -6.74488402793e-05 -0.000111622138602)
(-0.00062196445113 -4.63122274396e-05 -0.0001687575581)
(-0.000257670071969 -5.29312667817e-05 -4.44861272112e-05)
(-0.000343420006908 -6.07437178627e-05 -6.46856134093e-05)
(-0.000344587329245 -4.36621124571e-05 -9.79368445491e-05)
(-0.000121532244273 -4.26752674216e-05 -2.36067831999e-05)
(-0.000172895366882 -5.11367083116e-05 -3.62897377587e-05)
(-0.00017234795313 -3.78956319036e-05 -5.35738386267e-05)
(-3.83151119619e-05 -3.56327375661e-05 -1.18867821873e-05)
(-6.94734642668e-05 -4.34627814324e-05 -1.96602638045e-05)
(-6.81197271577e-05 -3.29298484462e-05 -2.71662578679e-05)
(1.63688034136e-05 -3.09870514715e-05 -6.48537374625e-06)
(-4.8774412493e-06 -3.78782733338e-05 -1.1309423055e-05)
(-3.29411022171e-06 -2.92890140077e-05 -1.39064055355e-05)
(6.06284830087e-05 -2.78334521577e-05 -4.90611516422e-06)
(4.22187224129e-05 -3.43526468623e-05 -8.06142224423e-06)
(4.3916103534e-05 -2.6857406715e-05 -9.25403651538e-06)
(0.000104182294119 -2.54685025251e-05 -5.21316946511e-06)
(8.52395708146e-05 -3.16793627605e-05 -7.65848090702e-06)
(8.71172342481e-05 -2.4986739538e-05 -9.50418004249e-06)
(0.000151180561207 -2.35513166294e-05 -6.03287563326e-06)
(0.000130178993569 -2.95565327293e-05 -8.34379113812e-06)
(0.0001324613991 -2.34801839922e-05 -1.17775462197e-05)
(0.000201643909519 -2.19115126054e-05 -6.45102716285e-06)
(0.000178738060252 -2.77428610265e-05 -9.00473384883e-06)
(0.000181612311789 -2.21568242574e-05 -1.39807253069e-05)
(0.000253080610046 -2.05116329154e-05 -6.01081165766e-06)
(0.000229502964591 -2.61779565379e-05 -8.91573359956e-06)
(0.000233058208855 -2.1006381263e-05 -1.48722025367e-05)
(0.000302097629481 -1.93432031694e-05 -4.71738878262e-06)
(0.000279496266675 -2.48545790634e-05 -7.8875244086e-06)
(0.000283676268001 -2.00177271436e-05 -1.39839665015e-05)
(0.000345312277731 -1.84043290609e-05 -2.68653285487e-06)
(0.00032535212755 -2.38178673687e-05 -6.04634458677e-06)
(0.000330023009235 -1.92085940915e-05 -1.12745302043e-05)
(0.000380019290437 -1.76833300959e-05 -1.09250004502e-08)
(0.000364037709798 -2.30522785115e-05 -3.55054702991e-06)
(0.000369066173738 -1.86104259219e-05 -7.08858485832e-06)
(0.000404451798981 -1.7111451582e-05 3.12408324824e-06)
(0.000393337665308 -2.2483867063e-05 -5.6644998145e-07)
(0.000398569897562 -1.83282957482e-05 -1.99614420443e-06)
(0.000418120748332 -1.67044649873e-05 6.34477654324e-06)
(0.000412103219826 -2.19401408865e-05 2.67307144762e-06)
(0.000417326259995 -1.81067041241e-05 3.27027289749e-06)
(0.000420948508621 -1.64940505505e-05 9.35394297864e-06)
(0.000420064444121 -2.17025123703e-05 5.87479753014e-06)
(0.000425089624685 -1.7915299758e-05 8.72436395016e-06)
(0.000413557022982 -1.64173659142e-05 1.20822373484e-05)
(0.000417532018459 -2.16062008705e-05 8.78893480479e-06)
(0.000422257655162 -1.7839698896e-05 1.38870265604e-05)
(0.000396868618175 -1.6446389897e-05 1.44795932577e-05)
(0.00040526420576 -2.16144708762e-05 1.1375906283e-05)
(0.00040962731743 -1.78438656512e-05 1.85934441673e-05)
(0.000372013746745 -1.65680193775e-05 1.6498672691e-05)
(0.000384267410186 -2.16992330247e-05 1.35985287167e-05)
(0.00038822219399 -1.79027225698e-05 2.27304122393e-05)
(0.00034031378402 -1.67570715295e-05 1.8131972618e-05)
(0.000355806001856 -2.18573194676e-05 1.54031218303e-05)
(0.000359324189146 -1.80123598485e-05 2.61990430995e-05)
(0.000303049180815 -1.70037948538e-05 1.93056734066e-05)
(0.000321036373318 -2.20394610642e-05 1.68353105364e-05)
(0.000324112082301 -1.81265256362e-05 2.90117295948e-05)
(0.00026184226313 -1.72590788209e-05 2.0186355507e-05)
(0.000281757229024 -2.22546311002e-05 1.77052909554e-05)
(0.000284381645064 -1.82549357956e-05 3.09618567551e-05)
(0.000217290415175 -1.74333496116e-05 2.05738709284e-05)
(0.000238284922501 -2.24155334242e-05 1.85319410203e-05)
(0.000240534976444 -1.83270817407e-05 3.26277575484e-05)
(0.000171406508459 -1.75323427154e-05 2.11472068876e-05)
(0.00019356696714 -2.2431783792e-05 1.84306844968e-05)
(0.000195362033653 -1.8205943685e-05 3.31451214793e-05)
(0.000121468700281 -1.79290489428e-05 2.24104698517e-05)
(0.000145180504616 -2.24656570689e-05 1.96253663431e-05)
(0.000146856659118 -1.81948836564e-05 3.51920574743e-05)
(6.61375986314e-05 -1.99068083283e-05 2.48132404111e-05)
(9.41274700727e-05 -2.31522415997e-05 2.07219877191e-05)
(9.57871242299e-05 -1.88438850148e-05 3.78991933914e-05)
(3.84313021878e-05 -2.58326097657e-05 2.30269994202e-05)
(4.07208091358e-05 -2.19366646429e-05 4.32729885463e-05)
(0.00167633389086 0.00215211645023 -0.00117254496096)
(0.000869592867865 0.00211657145321 -0.000953067434103)
(0.000933643563564 0.00185792103201 -0.00161054462683)
(0.00338621675716 0.00349191093431 -0.00144451123344)
(0.00313204621717 0.00314560356758 -0.0013872976979)
(0.00287266733089 0.00278046500161 -0.0021189474979)
(0.00353527471708 0.00538570026574 -0.00147592026144)
(0.00441646189266 0.00541169263189 -0.00131409297172)
(0.00389269469597 0.00468375969593 -0.00214240696204)
(0.00198187605998 0.00681739086025 -0.00147203387365)
(0.00342216130788 0.00764306735639 -0.00112397338375)
(0.00300965307633 0.00655638241393 -0.00201434301536)
(-0.000335474953924 0.00730573236384 -0.0014598989924)
(0.00102331707048 0.00876433796396 -0.00107164137991)
(0.000886102615195 0.00750481929303 -0.00198029398808)
(-0.00277625684781 0.00682768169461 -0.00139271949068)
(-0.00171472183678 0.00877491264824 -0.00103007419145)
(-0.00157594499693 0.00751149737802 -0.00191521516659)
(-0.00467096292278 0.00539776391004 -0.00129928831448)
(-0.00432481466353 0.00764019667104 -0.00100238742581)
(-0.00390522103007 0.00654646744964 -0.00182343907849)
(-0.00521606378583 0.00343477310911 -0.00116747203509)
(-0.00580425464396 0.00541264662413 -0.00106139503213)
(-0.00523187830875 0.00466850658148 -0.00176888283313)
(-0.00444989016982 0.00173845925667 -0.00094349389206)
(-0.00548008271592 0.00299057493455 -0.00104018308752)
(-0.00500796524435 0.00262146078165 -0.00159696809891)
(-0.00322834761352 0.000719138123531 -0.000666279521671)
(-0.0041202278487 0.00135245788617 -0.000824362433166)
(-0.00385795873537 0.00121189053738 -0.00122991133089)
(-0.00215679796017 0.000229005504934 -0.000429310075482)
(-0.00277397762478 0.000518482688253 -0.000550969092741)
(-0.00265851166805 0.000479029849759 -0.000828452989034)
(-0.00136246309935 2.53381913954e-05 -0.000267152871492)
(-0.00175918666 0.000142540637066 -0.000346369867555)
(-0.00171622232997 0.000141502520511 -0.000526436251669)
(-0.000819625283851 -4.38530131639e-05 -0.000163365629934)
(-0.00106412050256 3.20844660028e-07 -0.000212400562121)
(-0.00105098489208 9.1294166596e-06 -0.000326345972916)
(-0.000466150880851 -5.96471501364e-05 -9.7475240776e-05)
(-0.000615496440672 -4.6326144906e-05 -0.000128836405657)
(-0.000611910473658 -3.55210853302e-05 -0.000197862216192)
(-0.000245801682767 -5.67904753649e-05 -5.64892239568e-05)
(-0.000334797713146 -5.50132356104e-05 -7.59281920649e-05)
(-0.000333440900629 -4.50630242668e-05 -0.000115909054772)
(-0.000112822019084 -5.01634122619e-05 -3.23432183633e-05)
(-0.000165188402125 -5.16741441249e-05 -4.41772212337e-05)
(-0.000163587413035 -4.3707217504e-05 -6.59565560634e-05)
(-3.30475898923e-05 -4.43944268926e-05 -1.90829046722e-05)
(-6.3836725204e-05 -4.64454681231e-05 -2.61287667322e-05)
(-6.18224771606e-05 -4.01845791737e-05 -3.69080868737e-05)
(2.07117071839e-05 -4.01688605176e-05 -1.2885471553e-05)
(-9.52450840504e-07 -4.237711934e-05 -1.70425807482e-05)
(1.16507365438e-06 -3.69104242466e-05 -2.23836848802e-05)
(6.39848030157e-05 -3.70660465397e-05 -1.0813787987e-05)
(4.50543234519e-05 -3.90232898543e-05 -1.34611745736e-05)
(4.72272217167e-05 -3.44895594241e-05 -1.69682780617e-05)
(0.000106891793281 -3.46340397926e-05 -1.078910258e-05)
(8.74375001834e-05 -3.63963465931e-05 -1.2809377822e-05)
(8.9848638928e-05 -3.24791812657e-05 -1.67385845441e-05)
(0.000153451134554 -3.26139147788e-05 -1.13156493537e-05)
(0.000131984004814 -3.42139591165e-05 -1.33038723499e-05)
(0.00013485357352 -3.07725243384e-05 -1.8624321064e-05)
(0.000203555167207 -3.08786471007e-05 -1.14694402855e-05)
(0.000180263564035 -3.23208829388e-05 -1.37643601673e-05)
(0.000183767117741 -2.92603431233e-05 -2.04764108881e-05)
(0.000254656306282 -2.94062769332e-05 -1.07924463505e-05)
(0.000230777395192 -3.06982557355e-05 -1.35114422905e-05)
(0.000234982999069 -2.7948968925e-05 -2.10332155242e-05)
(0.000303329550642 -2.82202610596e-05 -9.21648021275e-06)
(0.0002805121802 -2.93478685793e-05 -1.23278519846e-05)
(0.000285357567414 -2.6859335821e-05 -1.98467955396e-05)
(0.000346232969242 -2.73398723577e-05 -6.91035876181e-06)
(0.000326100554676 -2.83183514219e-05 -1.02825466363e-05)
(0.000331431813162 -2.6019705667e-05 -1.69551081302e-05)
(0.000380673450966 -2.67196798606e-05 -4.10607201091e-06)
(0.000364545276638 -2.76256448593e-05 -7.63386214832e-06)
(0.000370175983354 -2.54448514099e-05 -1.26511075007e-05)
(0.000404927234924 -2.62424596279e-05 -1.01746178207e-06)
(0.00039366823759 -2.71750421948e-05 -4.61910784198e-06)
(0.00039939699658 -2.5124960386e-05 -7.44027628644e-06)
(0.000418302834065 -2.5890402194e-05 2.20309243452e-06)
(0.000412271981343 -2.68172991404e-05 -1.45657423681e-06)
(0.000417947430545 -2.49422562177e-05 -1.81553453916e-06)
(0.000420927799354 -2.57320141946e-05 5.30978935629e-06)
(0.000420044044489 -2.65292599893e-05 1.7394027475e-06)
(0.000425522853097 -2.48354217799e-05 3.5089773941e-06)
(0.000413354762441 -2.57221823823e-05 8.0826037394e-06)
(0.000417349302181 -2.65089042848e-05 4.71680005213e-06)
(0.000422481508664 -2.48019407857e-05 8.68342910197e-06)
(0.000396494202923 -2.57887498784e-05 1.0494841742e-05)
(0.000404954866388 -2.65706193631e-05 7.33530586839e-06)
(0.000409660433163 -2.48432162226e-05 1.33800914815e-05)
(0.00037145947537 -2.59115371788e-05 1.2502977856e-05)
(0.000383833946036 -2.66771622511e-05 9.57018837087e-06)
(0.000388067530295 -2.49227834362e-05 1.74886180972e-05)
(0.000339562033502 -2.60644185489e-05 1.41064597487e-05)
(0.000355244943108 -2.68167838876e-05 1.13695500684e-05)
(0.000358977010148 -2.50259110416e-05 2.09016689443e-05)
(0.000302076703508 -2.6218901228e-05 1.52349280852e-05)
(0.000320329582407 -2.6952052366e-05 1.27934789942e-05)
(0.000323558119329 -2.51106013634e-05 2.36495861851e-05)
(0.000260596438981 -2.63443545161e-05 1.60508764686e-05)
(0.000280880572635 -2.70561395079e-05 1.36523742608e-05)
(0.000283584127623 -2.51499443981e-05 2.55375823745e-05)
(0.000215798596014 -2.63464058373e-05 1.63887545886e-05)
(0.000237234379704 -2.71152286875e-05 1.44497181343e-05)
(0.000239515671401 -2.51335225854e-05 2.7096803889e-05)
(0.000169535141105 -2.62814034727e-05 1.69088439523e-05)
(0.000192294600182 -2.69554519337e-05 1.43877703823e-05)
(0.000194013613046 -2.49000606226e-05 2.76555569119e-05)
(0.000119137842794 -2.65521735889e-05 1.79368842105e-05)
(0.000143631556348 -2.68651389808e-05 1.55458536236e-05)
(0.00014518857605 -2.48635715542e-05 2.95977177299e-05)
(6.37047234681e-05 -2.77354477023e-05 1.89357467282e-05)
(9.2108813702e-05 -2.7268111687e-05 1.64490720495e-05)
(9.35910266976e-05 -2.56081546697e-05 3.18266344335e-05)
(3.76139547557e-05 -2.80202841048e-05 1.77332560815e-05)
(3.91081198855e-05 -2.76604971198e-05 3.40278717059e-05)
(0.00220658194464 0.00306696785503 -0.00116782017104)
(0.00118822246389 0.00267455157146 -0.000977722114151)
(0.00124691952914 0.00252704075546 -0.00166126313276)
(0.00437763520024 0.00499434033704 -0.00125687943619)
(0.00409367437724 0.00409320311303 -0.0013060239676)
(0.00369857515202 0.00381500769356 -0.00203310176352)
(0.00451481010338 0.00755100795258 -0.000962146094037)
(0.00566108347338 0.00691446328134 -0.000835958583234)
(0.00491147483834 0.00629326431051 -0.00157129804539)
(0.00252976362191 0.0094327139734 -0.000723580890011)
(0.00433457002982 0.00959507375258 -0.000257027839134)
(0.00374905124812 0.00865460524182 -0.000959374885617)
(-0.000329060029401 0.0100620761175 -0.000641816578963)
(0.00133002862401 0.0109127527809 -4.83967208681e-05)
(0.00113579430849 0.0098256488991 -0.000718852898366)
(-0.00331225116854 0.00942979361319 -0.000639742126587)
(-0.00201506777159 0.0109201492843 -5.72421317976e-06)
(-0.00181616648573 0.00982873981698 -0.000653478861077)
(-0.00564253455946 0.00753642646959 -0.000764494143466)
(-0.0052284792557 0.00956744587397 -0.000132757278062)
(-0.00462898285241 0.00862017070971 -0.000761972790726)
(-0.00626641944201 0.00489936376171 -0.000934106084555)
(-0.00705555529246 0.00688185057235 -0.000549581971421)
(-0.00623475105678 0.00623650577184 -0.00115717822133)
(-0.00521359789938 0.00257444565493 -0.000921051628624)
(-0.00657501465467 0.00389801800405 -0.000893692341931)
(-0.00588985074962 0.00358206434659 -0.00143381756988)
(-0.00363756034837 0.00114327015413 -0.000709052004236)
(-0.00478532711407 0.00183492482757 -0.000841525598451)
(-0.00439765660977 0.00171194454064 -0.00127047560168)
(-0.00233840834154 0.000432362245311 -0.000468028884814)
(-0.00309587733311 0.000762919546131 -0.000587485116553)
(-0.0029185916218 0.000721104933942 -0.000894010877059)
(-0.0014295100102 0.000119455837755 -0.000291617558184)
(-0.00189477062666 0.000261417508213 -0.000372644320497)
(-0.00182294674554 0.00025161190273 -0.000573325107888)
(-0.000837784522972 -4.11776976517e-07 -0.000177871337844)
(-0.00111178362198 5.80474565308e-05 -0.00022729043772)
(-0.00108580465856 5.79276068861e-05 -0.000353589440586)
(-0.000466775167056 -3.99626213218e-05 -0.000107289356946)
(-0.000628237454179 -1.70171665271e-05 -0.000137345928684)
(-0.000618613298177 -1.43144490286e-05 -0.0002148155918)
(-0.00024166880486 -4.85449149555e-05 -6.36161893418e-05)
(-0.000335192427638 -4.01297916327e-05 -8.22563027157e-05)
(-0.000331065316168 -3.66801464432e-05 -0.00012743982988)
(-0.00010864436664 -4.7005647327e-05 -3.79627696025e-05)
(-0.000162338147924 -4.40321938682e-05 -4.86884907677e-05)
(-0.00015969556737 -4.08475349539e-05 -7.41574679106e-05)
(-2.89906370394e-05 -4.3606680732e-05 -2.40884428081e-05)
(-6.10735061013e-05 -4.22397129439e-05 -3.00161804814e-05)
(-5.864006601e-05 -3.97660135472e-05 -4.40353410383e-05)
(2.29234502393e-05 -4.04688557218e-05 -1.76182837688e-05)
(1.13170604741e-06 -3.97097579706e-05 -2.06010190777e-05)
(3.41698894669e-06 -3.76299257788e-05 -2.86264736479e-05)
(6.55842343039e-05 -3.7751848345e-05 -1.54567644085e-05)
(4.66454468189e-05 -3.72329204001e-05 -1.70200106882e-05)
(4.88364864333e-05 -3.55452174438e-05 -2.31223104869e-05)
(0.000108121442658 -3.54494997353e-05 -1.53241475918e-05)
(8.86803373632e-05 -3.49808991884e-05 -1.62629957345e-05)
(9.10925905226e-05 -3.36019747418e-05 -2.26852889143e-05)
(0.000154429193638 -3.3456067133e-05 -1.57525831635e-05)
(0.000133001455325 -3.29563881352e-05 -1.66990630153e-05)
(0.000135883612596 -3.18315071414e-05 -2.44127166417e-05)
(0.000204324616584 -3.1730988218e-05 -1.58063621722e-05)
(0.000181105631016 -3.11564989309e-05 -1.70831385863e-05)
(0.000184641304525 -3.02313840602e-05 -2.61137752902e-05)
(0.000255226676504 -3.02834411776e-05 -1.50468479246e-05)
(0.000231449398122 -2.96141019121e-05 -1.67624832565e-05)
(0.000235700469395 -2.88511429971e-05 -2.65374706057e-05)
(0.000303683943302 -2.91401910058e-05 -1.33939184082e-05)
(0.000281001820023 -2.83600939939e-05 -1.55212299798e-05)
(0.000285899376113 -2.77340862987e-05 -2.52192719643e-05)
(0.000346372098706 -2.8323903153e-05 -1.10060500229e-05)
(0.000326395689789 -2.74237836182e-05 -1.34344525409e-05)
(0.000331782258559 -2.69142327759e-05 -2.22419611218e-05)
(0.00038065005429 -2.77977511398e-05 -8.14689797939e-06)
(0.000364664860062 -2.6805808016e-05 -1.07348088374e-05)
(0.000370341967931 -2.63872699549e-05 -1.79624809436e-05)
(0.000404822615844 -2.74595243577e-05 -5.05822029671e-06)
(0.000393665271543 -2.64417471073e-05 -7.69504697805e-06)
(0.000399424656957 -2.60971828749e-05 -1.28235297506e-05)
(0.000418134208738 -2.72239000803e-05 -1.92026392383e-06)
(0.000412191562913 -2.6237338134e-05 -4.54878661435e-06)
(0.000417856370752 -2.59340811522e-05 -7.2399592972e-06)
(0.000420599030664 -2.70941414572e-05 1.14641344334e-06)
(0.000419886744273 -2.61237639762e-05 -1.45344397063e-06)
(0.000425335535038 -2.59135234671e-05 -1.64237711151e-06)
(0.000412958231296 -2.7103007239e-05 3.96950218113e-06)
(0.000417099653558 -2.60090704978e-05 1.52047743997e-06)
(0.000422224744764 -2.59131618775e-05 3.31573441525e-06)
(0.000396043249104 -2.71964296329e-05 6.41065249727e-06)
(0.000404638534758 -2.61040872623e-05 4.18054740682e-06)
(0.000409330456934 -2.59830305057e-05 7.98572295471e-06)
(0.000370952729869 -2.73080664651e-05 8.43676058322e-06)
(0.000383479212593 -2.62071065031e-05 6.43731742755e-06)
(0.000387673740852 -2.60738763769e-05 1.20697567836e-05)
(0.000338994680731 -2.74168278609e-05 1.00565693139e-05)
(0.000354852597459 -2.63058760855e-05 8.25629868607e-06)
(0.000358520661844 -2.61603384593e-05 1.54629499647e-05)
(0.000301442014552 -2.74885728812e-05 1.12109251698e-05)
(0.000319900084757 -2.63788424896e-05 9.702747301e-06)
(0.000323040873792 -2.62118989798e-05 1.81989351508e-05)
(0.000259870832167 -2.75125109713e-05 1.20512159264e-05)
(0.000280395633572 -2.63840167484e-05 1.06059772614e-05)
(0.000282976394156 -2.6182172435e-05 2.01110563305e-05)
(0.000215021028098 -2.73996273945e-05 1.2448733928e-05)
(0.000236722616115 -2.63579149065e-05 1.14221846612e-05)
(0.000238856224738 -2.61120217696e-05 2.16676265965e-05)
(0.000168614296679 -2.71986534945e-05 1.30247800536e-05)
(0.000191722925461 -2.61100758295e-05 1.14589323491e-05)
(0.000193219837357 -2.58239584847e-05 2.23601900946e-05)
(0.000118113897544 -2.72147910574e-05 1.40580414626e-05)
(0.000142982019532 -2.59004988013e-05 1.2643069442e-05)
(0.000144250255183 -2.57244279128e-05 2.42871862814e-05)
(6.27970436355e-05 -2.71625086041e-05 1.52465814027e-05)
(9.15541100084e-05 -2.60123816818e-05 1.36359995272e-05)
(9.2599810886e-05 -2.62600701631e-05 2.6398595535e-05)
(3.7573210032e-05 -2.5198906771e-05 1.56173524095e-05)
(3.85261263185e-05 -2.6709943025e-05 2.85660232683e-05)
(0.0029348465636 0.003633934182 -0.0011159259107)
(0.0015929089189 0.00292775087552 -0.00101339652634)
(0.00167157544729 0.00293375948471 -0.00172061471767)
(0.00565664829277 0.00590522758775 -0.000885103114641)
(0.00524412202763 0.00452757764026 -0.00114779442124)
(0.00476735789135 0.00443974452436 -0.00179524329491)
(0.00573954712795 0.008796868346 -0.000130840328331)
(0.00709617840763 0.00753299183608 -0.000179906150703)
(0.00618552286703 0.0071943750075 -0.000659892883273)
(0.00320186766597 0.0108745694062 0.000418156330009)
(0.00536468938429 0.0102905976762 0.000853124344161)
(0.00465367677279 0.00974385227199 0.000573472568898)
(-0.00032798847101 0.0115575480652 0.000587695644915)
(0.00166861297768 0.0116146679646 0.00123010146157)
(0.00143418200303 0.0109777673795 0.00106323193464)
(-0.00398480910703 0.0108579775646 0.000501260635345)
(-0.00235669746154 0.0116200639345 0.0012732700527)
(-0.00211546977234 0.010978044539 0.00112873378433)
(-0.00686542837125 0.00875245112077 8.21548939823e-05)
(-0.00625932018704 0.0102437731915 0.000972797959636)
(-0.00552739583128 0.00968466697585 0.000764181931046)
(-0.00761045461104 0.00577473342904 -0.000509168228797)
(-0.00849974129624 0.00746808101065 0.00013410926628)
(-0.00749553138934 0.00709374267691 -0.000213591806885)
(-0.00621728907417 0.00310147791525 -0.000814166311758)
(-0.00786551403465 0.00430647491357 -0.000661074769275)
(-0.00702478239893 0.00414587074248 -0.00110498386303)
(-0.00419612453578 0.00142832171094 -0.000719958710768)
(-0.00558879503067 0.00207650999873 -0.00082965211168)
(-0.00511334409545 0.00202402232144 -0.00125215255652)
(-0.00260130810312 0.000581522416245 -0.000492100552235)
(-0.00349832692642 0.000901568006891 -0.00061147207445)
(-0.00327901396599 0.000885720843146 -0.00093605593248)
(-0.00153824365576 0.000196508189571 -0.000308317200034)
(-0.00207437383115 0.000338720014566 -0.00039233932637)
(-0.00198286688175 0.000335042139039 -0.000608835735319)
(-0.000877110037028 4.06102116505e-05 -0.00018676502856)
(-0.00118229445339 0.000101831616802 -0.000238177423935)
(-0.00114724915593 0.000100785298555 -0.000374351922997)