/*--------------------------------*- C++ -*----------------------------------*\
| =========                 |                                                 |
| \\      /  F ield         | OpenFOAM: The Open Source CFD Toolbox           |
|  \\    /   O peration     | Version:  3.0.1                                 |
|   \\  /    A nd           | Web:      www.OpenFOAM.org                      |
|    \\/     M anipulation  |                                                 |
\*---------------------------------------------------------------------------*/
FoamFile
{
    version     2.0;
    format      ascii;
    class       volScalarField;
    location    "3.5";
    object      ddt0(k);
}
// * * * * * * * * * * * * * * * * * * * * * * * * * * * * * * * * * * * * * //

dimensions      [0 2 -3 0 0 0 0];

internalField   nonuniform List<scalar> 
7968
(
-0.000529090968084
-0.000559213450792
-0.000580017534203
-0.000590427591759
-0.000594820332054
-0.000596439274869
-0.000597031789198
-0.000597536988454
-0.000598088963159
-0.000598629421714
-0.00059874619877
-0.000598346381097
-0.00059785852796
-0.000597373834978
-0.000596767052826
-0.000595101088645
-0.000590638068117
-0.000580141799856
-0.000559269548877
-0.000529089981688
-0.000559202800125
-0.000719620111288
-0.000823727088868
-0.000882970644798
-0.000915474072339
-0.000932290622919
-0.000940338165107
-0.000944370644563
-0.000946602744612
-0.000947793541183
-0.000947964593393
-0.000947082186477
-0.000945071535835
-0.000941164167248
-0.000933156460044
-0.000916302465667
-0.000883684745111
-0.000824262908906
-0.000719937879235
-0.000559277382118
-0.00058000713814
-0.00082375230243
-0.000985156752258
-0.00108024573237
-0.00113440601082
-0.00116330940694
-0.00117740298659
-0.0011840391016
-0.00118735335353
-0.00118894176035
-0.00118915906568
-0.0011879702251
-0.00118492608696
-0.0011784401961
-0.00116440659033
-0.00113546553843
-0.00108119656504
-0.000985915050546
-0.000824215069299
-0.000580149328698
-0.000590413448188
-0.000883010777426
-0.00108023190944
-0.00119833526789
-0.00126619023701
-0.00130197070941
-0.00131898052849
-0.00132653229789
-0.0013301974805
-0.00133156635849
-0.00133180996086
-0.00133096254249
-0.00132755225908
-0.00132012953227
-0.00130316089389
-0.00126737152234
-0.00119946411098
-0.00108119232907
-0.000883638241969
-0.000590641981154
-0.000594804706311
-0.000915471529486
-0.00113437775306
-0.00126614247255
-0.00134124035509
-0.0013798290487
-0.00139777760546
-0.00140735346713
-0.0014115513744
-0.00141330654601
-0.00141358105692
-0.0014122718716
-0.00140829922028
-0.00139879293158
-0.00138105250404
-0.0013424939459
-0.0012674131509
-0.00113551645197
-0.000916267888042
-0.000595122364157
-0.000596412025358
-0.000932279746415
-0.00116325230696
-0.00130193094904
-0.00137985798277
-0.00142283433051
-0.0014448133496
-0.00145406994738
-0.00145785034767
-0.00145952572036
-0.0014598634714
-0.00145869372102
-0.00145515394056
-0.00144591300139
-0.00142386714155
-0.00138108356784
-0.00130327343515
-0.00116452340938
-0.000933221869078
-0.000596812158822
-0.000596995702075
-0.000940285069708
-0.00117730242788
-0.00131893573475
-0.00139784922007
-0.00144483117414
-0.00146640456262
-0.00147476675113
-0.00147812900942
-0.0014797926903
-0.00148021178201
-0.00147917011542
-0.00147609249574
-0.00146770349586
-0.00144595015064
-0.00139882193955
-0.0013203273385
-0.00117866173154
-0.000941310381428
-0.000597447373153
-0.000597489258545
-0.000944248246573
-0.00118384981588
-0.00132641487726
-0.00140737336077
-0.00145401250243
-0.00147466334933
-0.00148225993485
-0.00148538460965
-0.00148710998877
-0.00148762414138
-0.00148667484607
-0.00148389280725
-0.0014762255464
-0.00145530801199
-0.0014084300304
-0.00132787936332
-0.00118528710325
-0.00094533323942
-0.000597968810776
-0.000598016096171
-0.000946374698677
-0.00118702024915
-0.00132994907022
-0.00141142746436
-0.00145760170203
-0.00147776732936
-0.00148505473868
-0.00148819363826
-0.00149029578319
-0.00149089744273
-0.00148973323393
-0.00148696722964
-0.00147956195021
-0.00145906936429
-0.00141259558767
-0.00133148017599
-0.00118852437534
-0.000947500104497
-0.000598510472054
-0.000598501059008
-0.000947433195309
-0.00118839807949
-0.00133084617981
-0.00141290695645
-0.00145898735258
-0.00147905296303
-0.00148626853332
-0.00148967237168
-0.00149216108764
-0.00149285173528
-0.00149135349999
-0.00148832679177
-0.00148095757136
-0.00146054598861
-0.00141418239654
-0.00133260686379
-0.0011899625891
-0.000948585263426
-0.000599011598512
-0.000598545046189
-0.000947484785956
-0.00118844457026
-0.00133087027291
-0.00141294210515
-0.00145901565064
-0.00147907378143
-0.00148628389664
-0.00148968903191
-0.00149218340624
-0.00149287481319
-0.00149136976207
-0.00148834040175
-0.00148097854762
-0.0014605769653
-0.00141422132866
-0.00133262930725
-0.00119001110858
-0.000948641330598
-0.000599062129719
-0.000598104855921
-0.000946514608067
-0.00118715493508
-0.00133005644835
-0.00141153400804
-0.00145768428131
-0.00147782866034
-0.00148509290954
-0.00148822862639
-0.00149034136927
-0.00149093634452
-0.00148975662188
-0.00148699691544
-0.0014796183379
-0.00145915410107
-0.00141270829545
-0.00133157799251
-0.00118865772104
-0.000947644373846
-0.000598609395717
-0.000597601733838
-0.000944462462069
-0.00118406691858
-0.00132658125758
-0.00140755158069
-0.00145416262162
-0.00147479000829
-0.00148235754847
-0.00148546719375
-0.00148720503415
-0.00148771407442
-0.00148675280478
-0.00148399066293
-0.00147634778184
-0.00145545814561
-0.00140861133623
-0.00132802308724
-0.00118549035531
-0.000945543357315
-0.000598091520507
-0.000597116927851
-0.000940553701046
-0.00117759480685
-0.00131918522783
-0.00139810516182
-0.00144505647157
-0.00146660319319
-0.00147494471146
-0.00147830149077
-0.00147997552585
-0.00148039364131
-0.0014793487502
-0.00147628140236
-0.0014679029134
-0.00144616998902
-0.00139907274264
-0.00132053703409
-0.00117892667465
-0.000941566410027
-0.000597577468751
-0.000596524453664
-0.000932586501964
-0.00116359887753
-0.00130225349474
-0.00138015127023
-0.00142314073665
-0.0014450874395
-0.0014543328391
-0.00145811656201
-0.00145979089021
-0.00146013023917
-0.00145897009237
-0.00145543072364
-0.00144619190767
-0.00142416430388
-0.00138132543749
-0.00130354581721
-0.00116483509241
-0.000933502284702
-0.00059693274753
-0.000594893003952
-0.000915759221187
-0.00113474415042
-0.00126651645398
-0.00134160204131
-0.00138022095703
-0.00139814567293
-0.00140771189935
-0.00141192297959
-0.00141361779564
-0.00141389474067
-0.00141265534527
-0.0014086697006
-0.00139916195689
-0.00138137253226
-0.00134280256744
-0.00126774215666
-0.00113586118138
-0.000916555655799
-0.000595218554298
-0.00059047384603
-0.000883257466224
-0.00108057397881
-0.00119872044869
-0.00126658917206
-0.00130238729653
-0.00131941140897
-0.00132696243352
-0.00133068830316
-0.00133174098489
-0.00133199621091
-0.00133142602502
-0.00132797344336
-0.00132053382775
-0.00130354268179
-0.00126774749289
-0.00119982965902
-0.00108152633563
-0.00088389127234
-0.000590704791381
-0.00058003422844
-0.000823936503088
-0.000985428689468
-0.00108058431491
-0.00113479539219
-0.0011637320149
-0.0011778418658
-0.00118448218354
-0.00118780745007
-0.00118936799764
-0.001189586683
-0.00118842398091
-0.00118536784946
-0.00117886968117
-0.00116481231168
-0.00113584937634
-0.00108153390497
-0.000986193527714
-0.00082440644778
-0.000580177141741
-0.000559210503147
-0.000719723091619
-0.000823885917863
-0.000883188931118
-0.000915751100075
-0.000932612304117
-0.000940686751811
-0.000944736243259
-0.000946983389896
-0.000948183995943
-0.000948359334826
-0.000947473761831
-0.000945450234044
-0.000941521450033
-0.000933485132808
-0.000916589674762
-0.000883911297795
-0.000824430532516
-0.000720035282255
-0.000559277556104
-0.000529084706759
-0.000559222651553
-0.000580042039297
-0.00059047471081
-0.000594896214529
-0.00059654697717
-0.000597164020523
-0.000597689390954
-0.000598258185505
-0.000598811151927
-0.000598935537086
-0.000598528004549
-0.000598026762182
-0.000597521280404
-0.000596889606128
-0.000595189551273
-0.000590692441785
-0.00058017118325
-0.000559275128014
-0.000529078819945
-0.000559158862927
-0.000721074590114
-0.000824797888308
-0.000882211807356
-0.000912246550469
-0.000926577692518
-0.000932505429569
-0.000934684869346
-0.000935516294121
-0.000935933567126
-0.000936081710203
-0.000935917176347
-0.000935256698587
-0.000933160945581
-0.000927238620021
-0.000912841462705
-0.000882681335764
-0.000825096861284
-0.000721201456478
-0.000559168710033
-0.000721015022105
-0.00140269834242
-0.0017110775455
-0.00188439496309
-0.00198145140221
-0.00203230927859
-0.00205594277151
-0.00206548427187
-0.00206880262489
-0.00206987581279
-0.00207015321167
-0.00206957906853
-0.00206662404066
-0.00205730385682
-0.00203376497639
-0.00198290129888
-0.00188571564535
-0.00171212507534
-0.00140329559287
-0.000721281651795
-0.00082474925779
-0.00171117108373
-0.00211676514816
-0.00235259768783
-0.00249009143178
-0.00256592213359
-0.00260407524654
-0.00262120205547
-0.00262821120162
-0.00263057042155
-0.00263091030595
-0.00262918779906
-0.00262260944488
-0.00260573862103
-0.00256768239095
-0.00249183685444
-0.00235421533058
-0.00211809344503
-0.00171197577489
-0.000825167378192
-0.00088218307686
-0.00188452631804
-0.00235263436978
-0.0026307189958
-0.00279609399383
-0.00288882414052
-0.00293664581813
-0.00295824373153
-0.00296733132154
-0.00296787165516
-0.00296822060455
-0.00296850777553
-0.00295985208251
-0.00293849874245
-0.00289072090256
-0.00279796422973
-0.00263248794154
-0.00235414649675
-0.00188550348942
-0.000882729004376
-0.000912231505729
-0.00198158511942
-0.00249013065863
-0.00279610017036
-0.00297920364649
-0.00308072574876
-0.00313495158206
-0.00315903130105
-0.00316917814503
-0.00317287946027
-0.00317341072379
-0.00317061590698
-0.00316097273154
-0.00313705196907
-0.00308262128494
-0.00298112724156
-0.00279795070431
-0.00249176190031
-0.00198269362101
-0.000912888339191
-0.000926563112121
-0.00203242913032
-0.00256594867315
-0.00288883466085
-0.0030807511106
-0.00318977871443
-0.00324377233554
-0.00326772679722
-0.00327795236351
-0.00328222077177
-0.00328292710859
-0.00327977317995
-0.00327012743007
-0.00324625714712
-0.00319207065735
-0.00308261558708
-0.00289073542429
-0.00256765109549
-0.00203361175389
-0.000927308274421
-0.000932478031067
-0.00205601645293
-0.00260404458499
-0.00293660364579
-0.00313490371922
-0.00324369961251
-0.00329658066928
-0.00331952272316
-0.00332954409816
-0.00333411551018
-0.00333500401914
-0.00333184480968
-0.00332254252255
-0.00329962722869
-0.0032464091859
-0.00313720613308
-0.00293862030239
-0.00260581351849
-0.00205724924107
-0.000933280605778
-0.000934623310221
-0.00206545358721
-0.00262102343438
-0.00295802031523
-0.00315875543276
-0.00326737235738
-0.00331916886567
-0.00334106378527
-0.00335088457413
-0.00335542613289
-0.00335648557544
-0.00335367666268
-0.00334476201547
-0.00332287259846
-0.00327056508124
-0.00316137398737
-0.00296018009539
-0.00262288113979
-0.00206673692781
-0.000935461919613
-0.000935390160351
-0.00206860700777
-0.00262779985834
-0.00296683280929
-0.00316848512881
-0.00327706003702
-0.00332848717916
-0.00335001536563
-0.00335942132945
-0.00336471851625
-0.00336592818917
-0.00336273288298
-0.00335432683609
-0.00333275524544
-0.00328069310433
-0.00317141353316
-0.00296914953113
-0.00262975498307
-0.00206993910095
-0.000936251660346
-0.000935715416117
-0.00206946024391
-0.00262979774342
-0.00296680837675
-0.00317157071497
-0.00328061840968
-0.00333210599768
-0.00335331433459
-0.00336323678402
-0.00336924953146
-0.0033705997294
-0.00336680839422
-0.00335795884689
-0.0033366392836
-0.00328446297829
-0.00317471622112
-0.00296916762503
-0.00263186303621
-0.00207083437246
-0.000936593461199
-0.000935766892742
-0.00206953662439
-0.00262987162154
-0.0029668600892
-0.0031715912399
-0.00328060921482
-0.003332067844
-0.00335324318014
-0.00336314365407
-0.0033691428979
-0.00337049313232
-0.00336670805122
-0.00335787658964
-0.00333659620082
-0.00328445217798
-0.00317473086326
-0.00296920369022
-0.00263193093181
-0.00207090921476
-0.000936651266813
-0.000935528686007
-0.00206882534639
-0.00262802138859
-0.00296702329411
-0.00316856812331
-0.00327706282391
-0.00332841491146
-0.00334984610052
-0.00335920390157
-0.0033644817001
-0.0033656612797
-0.00336246054533
-0.00335411714086
-0.00333265221071
-0.00328067793022
-0.00317147768432
-0.00296930681445
-0.00262995839693
-0.00207014575134
-0.000936401843408
-0.000934827403195
-0.00206580438443
-0.00262138786742
-0.00295831066897
-0.00315893565085
-0.00326745535227
-0.00331916017664
-0.00334094037951
-0.00335066178578
-0.00335519591839
-0.00335623300965
-0.00335342354355
-0.00334462405354
-0.00332282824539
-0.00327061352771
-0.00316151349818
-0.00296042235244
-0.00262320402046
-0.00206705793985
-0.000935676721974
-0.000932722555393
-0.00205648548587
-0.00260455308211
-0.00293703958157
-0.00313522245252
-0.00324391539211
-0.00329670011466
-0.00331954170531
-0.00332949392146
-0.00333404757754
-0.00333493239981
-0.00333179681277
-0.0033225701665
-0.00329972071251
-0.00324657314871
-0.00313746579371
-0.00293898617183
-0.00260625971067
-0.00205767006972
-0.000933532629729
-0.000926819503467
-0.00203298648971
-0.00256657868628
-0.00288941348151
-0.00308123330196
-0.00319014010151
-0.00324404892942
-0.00326792471283
-0.0032780987971
-0.0032823317569
-0.00328303934853
-0.00327993019333
-0.00327033809771
-0.00324651048196
-0.00319238145871
-0.00308305208452
-0.0028912359596
-0.00256820850048
-0.00203411119924
-0.000927572073518
-0.0009124720367
-0.00198219092563
-0.00249083404109
-0.0027967827933
-0.002979817243
-0.0030812392504
-0.00313539249958
-0.00315939853237
-0.00316949646282
-0.00317304852849
-0.00317358774602
-0.00317092163975
-0.00316133799236
-0.00313746241183
-0.00308310012484
-0.00298166931192
-0.00279855656746
-0.00249239872982
-0.00198324650761
-0.000913136355411
-0.000882383843241
-0.00188510860367
-0.00235333894035
-0.00263144196115
-0.00279678351416
-0.00288945506873
-0.00293720377608
-0.0029587162838
-0.0029678319324
-0.00296787044922
-0.00296824249109
-0.00296811547707
-0.00296032175969
-0.00293902491645
-0.00289130057872
-0.00279859235359
-0.0026331506155
-0.00235479892862
-0.00188603940338
-0.000882932833191
-0.000824888629137
-0.00171165856501
-0.00211738437575
-0.00235327277402
-0.00249077525246
-0.00256658167798
-0.00260468937295
-0.00262176209385
-0.00262874569848
-0.00263099226782
-0.00263133910713
-0.00262971302028
-0.00262316475099
-0.00260632750073
-0.00256830384809
-0.00249247829266
-0.00235484844602
-0.00211867136675
-0.00171241581182
-0.000825304759417
-0.000721086890109
-0.00140301812235
-0.00171150681726
-0.00188489392926
-0.00198198903183
-0.0020328557797
-0.00205647731206
-0.00206600114988
-0.00206931503329
-0.00207037421317
-0.00207065495945
-0.00207009574995
-0.0020671398536
-0.00205782610118
-0.00203428964392
-0.00198341165635
-0.00188618134991
-0.00171251196803
-0.00140355698155
-0.000721339612695
-0.000559156341873
-0.000721163028365
-0.000824949616195
-0.00088241726714
-0.000912498259931
-0.000926867691304
-0.000932822470727
-0.000935022805557
-0.000935874522369
-0.000936306969198
-0.000936462465989
-0.000936292265267
-0.000935616897988
-0.00093349987754
-0.000927549147059
-0.00091311035127
-0.000882897180835
-0.000825251834258
-0.000721282252202
-0.000559163360391
-0.000579282014287
-0.000822785089597
-0.000981009424117
-0.00107187473977
-0.00112201716583
-0.0011476091536
-0.0011590302979
-0.00116324111267
-0.00116440138404
-0.00116464860867
-0.00116482866606
-0.00116490132299
-0.00116398095579
-0.00115991183024
-0.0011485312433
-0.00112288309448
-0.00107259436437
-0.000981502943603
-0.000823017681827
-0.000579297540049
-0.000822685374142
-0.00170579862202
-0.00210851424676
-0.00234116034981
-0.00247543422532
-0.00254830639327
-0.00258374675696
-0.00259857713822
-0.0026036687982
-0.00260511794879
-0.00260547713727
-0.00260467127716
-0.00260006854198
-0.00258556065884
-0.00255028726454
-0.00247745386728
-0.00234306400082
-0.00211010615643
-0.00170681258757
-0.000823161121896
-0.000980916246152
-0.0021086261834
-0.00262169176924
-0.00292573881958
-0.0031077559791
-0.00321139206508
-0.00326543257274
-0.00329033787812
-0.0033006873053
-0.00330460421925
-0.00330505559712
-0.00330190523948
-0.00329211637741
-0.00326756532309
-0.00321367132594
-0.00311003992077
-0.00292790585436
-0.00262356676596
-0.00210990680333
-0.000981642537111
-0.00107180876861
-0.00234131084295
-0.00292577841084
-0.00327807194206
-0.00349322647106
-0.00361823646388
-0.00368474848694
-0.00371444038889
-0.00372798171098
-0.00373511617569
-0.00373565971402
-0.00372936158655
-0.00371642262048
-0.00368713897304
-0.00362071288059
-0.00349563755719
-0.00328035037894
-0.00292779744762
-0.00234277017587
-0.00107270800723
-0.00112196637746
-0.00247557747409
-0.00310778403627
-0.00349321744997
-0.00373084903068
-0.00386936978524
-0.00394208709701
-0.00397790827968
-0.00399457171507
-0.00400068235386
-0.00400134629153
-0.00399634282963
-0.00398275894821
-0.00394786612321
-0.00387220945818
-0.0037334313311
-0.00349559771997
-0.00310989998903
-0.00247714856295
-0.0011229976351
-0.00114755466049
-0.00254841085036
-0.0032113661224
-0.00361817717925
-0.00386929594159
-0.0040113758804
-0.0040854100255
-0.00412695523253
-0.00414730426472
-0.00415342623019
-0.00415416520283
-0.00414928983409
-0.00413850600574
-0.00410569827412
-0.00402311558876
-0.00387226462754
-0.00362070877544
-0.00321357403528
-0.00255003655368
-0.00114868092737
-0.00115895290246
-0.00258376420543
-0.00326527957735
-0.0036845283157
-0.00394173841324
-0.00407878948516
-0.00415321263867
-0.00419959910289
-0.00422256494699
-0.00422848628798
-0.0042292214024
-0.00422455202238
-0.00421787562018
-0.00419263055999
-0.00411067455276
-0.00394816593651
-0.00368728966404
-0.00326760557966
-0.00258543068588
-0.00116013718394
-0.00116311251707
-0.00259843367165
-0.00328994915963
-0.003713930981
-0.00397368623735
-0.00410632542561
-0.00418135417361
-0.004228916041
-0.00425235285044
-0.00425790918232
-0.00425868565973
-0.00425444198619
-0.00425091437945
-0.00423147610945
-0.0041539472744
-0.00398597868658
-0.00371681843616
-0.00329241452259
-0.00260014851017
-0.00116432685657
-0.0011641913294
-0.00260330241896
-0.0032999965948
-0.00372706724449
-0.00398698968236
-0.00411857512562
-0.00419304998277
-0.00423994234223
-0.00426323742613
-0.0042687662682
-0.00426967549691
-0.0042657420052
-0.00426346638437
-0.00424645773567
-0.004170803551
-0.00400216955261
-0.00373022646442
-0.0033025883665
-0.00260506046708
-0.00116541395435
-0.00116433210468
-0.00260449320014
-0.00330358291504
-0.00373370303747
-0.00399240305491
-0.00412380090927
-0.00419789852329
-0.00424429880343
-0.00426741040866
-0.00427302100831
-0.00427405934155
-0.00427024851755
-0.00426828313233
-0.00425176445847
-0.0041763994924
-0.00400787122668
-0.00373720278106
-0.00330623862127
-0.00260627112886
-0.00116555689578
-0.00116439403562
-0.00260458756235
-0.00330367052884
-0.00373375978097
-0.00399241253622
-0.0041237429013
-0.00419776852221
-0.00424411530449
-0.00426719583728
-0.00427279800168
-0.00427383142579
-0.00427001890352
-0.00426809129685
-0.0042516402833
-0.00417634762945
-0.00400787907799
-0.00373726045532
-0.00330632320618
-0.00260636306579
-0.0011656263856
-0.00116436834002
-0.00260357867623
-0.00330025172951
-0.00372723911313
-0.00398702683813
-0.0041184263066
-0.00419269585553
-0.00423943436984
-0.00426267206946
-0.00426817244992
-0.00426902696124
-0.00426510528894
-0.00426293179012
-0.00424610538736
-0.00417065946357
-0.00400218912443
-0.00373038155093
-0.00330281943752
-0.0026053165334
-0.00116560376643
-0.00116338806124
-0.00259888913834
-0.00329037619101
-0.00371423315871
-0.00397345357727
-0.00410488360661
-0.00417860584517
-0.0042253838371
-0.00424856217131
-0.00425408997011
-0.00425483709268
-0.00425061208965
-0.00424736003925
-0.00422869443016
-0.00415248346295
-0.00398570615897
-0.00371707906794
-0.00329278566122
-0.00260055505643
-0.0011646121882
-0.00115929956385
-0.0025843884573
-0.00326588317272
-0.0036849896233
-0.00394156700018
-0.00407625593784
-0.00414753840657
-0.00419207939279
-0.00421448519832
-0.0042203535222
-0.00422108542517
-0.00421644948893
-0.00421030468622
-0.00418687436938
-0.00410808515243
-0.0039479305138
-0.00368766921424
-0.00326812235977
-0.00258597575039
-0.00116048899598
-0.0011479371175
-0.00254917176026
-0.00321212681304
-0.0036188064082
-0.00386973905105
-0.00401034397017
-0.00408119385353
-0.00412022789747
-0.00413985110819
-0.00414595208406
-0.00414668407473
-0.00414182093282
-0.00413174209223
-0.00410142988874
-0.00402203206661
-0.00387263347651
-0.00362123887644
-0.00321422926432
-0.00255069763456
-0.00114906788277
-0.00112234565309
-0.00247642615931
-0.00310865421755
-0.00349398171435
-0.00373146600431
-0.0038698138966
-0.00394190558958
-0.00397676165131
-0.00399301302627
-0.00399916605357
-0.00399982521507
-0.0039948159374
-0.00398161210748
-0.00394765631354
-0.00387259156997
-0.00373395676973
-0.00349625758237
-0.00311066421091
-0.00247789770586
-0.00112338298283
-0.00107214653944
-0.00234215878715
-0.0029266848414
-0.00327891322214
-0.00349395720415
-0.00361883728127
-0.00368520483325
-0.00371473448869
-0.00372828384201
-0.00373559221552
-0.00373615461154
-0.00373045104692
-0.00371675192243
-0.00368756002836
-0.00362124534297
-0.00349627994379
-0.0032810978177
-0.00292861339871
-0.00234352977957
-0.00107305005896
-0.00098117528896
-0.00210937613711
-0.00262254195436
-0.00292658139625
-0.00310853687394
-0.00321208091358
-0.00326601689504
-0.00329083143942
-0.00330117959257
-0.00330516902847
-0.00330561472622
-0.00330241706264
-0.0032926022252
-0.00326811182788
-0.00321429676132
-0.00311074414831
-0.0029286718229
-0.00262434559472
-0.00211058170572
-0.000981898955948
-0.000822835106401
-0.00170633795677
-0.00210917518053
-0.00234186773469
-0.00247613939178
-0.00254897039409
-0.00258434916098
-0.00259912244986
-0.00260419749601
-0.00260566163631
-0.00260602106544
-0.00260519685213
-0.0026006037835
-0.00258613085134
-0.00255089799608
-0.00247809654726
-0.00234370734263
-0.00211070230672
-0.00170727145722
-0.00082329255494
-0.000579283931883
-0.000822967222354
-0.000981298110918
-0.00107223795651
-0.00112243393286
-0.00114806311371
-0.00115950665032
-0.00116373265659
-0.00116491170619
-0.0011651764565
-0.00116536474274
-0.00116543204298
-0.00116450026506
-0.00116041474644
-0.00114900927706
-0.00112332047594
-0.00107297150655
-0.000981795182598
-0.000823186756304
-0.000579301758559
-0.00058765303716
-0.000873982250256
-0.00106370660833
-0.00117559458527
-0.00123913089038
-0.00127256306125
-0.00128788288285
-0.00129343784173
-0.00129460036104
-0.00129452199364
-0.00129471937355
-0.00129516284043
-0.00129429772189
-0.00128894509222
-0.00127371667841
-0.00124025620356
-0.00117656777127
-0.00106441864501
-0.000874356245158
-0.000587664134117
-0.000873834402477
-0.00186540630177
-0.00232505432675
-0.00259618889487
-0.0027555586064
-0.00284378336506
-0.00288766568357
-0.00290634956527
-0.00291255401493
-0.00291401979065
-0.00291442771927
-0.00291372509951
-0.00290813944065
-0.00288988663079
-0.00284626355174
-0.00275813565308
-0.00259867731853
-0.00232723714367
-0.00186697215228
-0.000874584606852
-0.00106355107207
-0.00232515429517
-0.00290402908419
-0.00325276325115
-0.0034655641029
-0.00358939027977
-0.0036555466423
-0.0036871478573
-0.00370017944025
-0.00370465220044
-0.0037051926601
-0.0037016925682
-0.00368939715981
-0.00365820672929
-0.00359219941725
-0.00346834910321
-0.00325541181642
-0.00290640995952
-0.00232699979098
-0.00106466272686
-0.00117545712763
-0.00259629370471
-0.00325277355447
-0.00365415196178
-0.00390410976242
-0.00405039774951
-0.00412954646499
-0.00417392819577
-0.00419441838189
-0.00420089490194
-0.00420152284251
-0.00419614385629
-0.00418204913033
-0.00414433386367
-0.00405892072903
-0.00390713722363
-0.00365693863543
-0.0032552803199
-0.00259833260027
-0.00117679814692
-0.00123899122082
-0.00275561694563
-0.00346551159135
-0.00390404660746
-0.00417421219908
-0.00432803175529
-0.00441630824521
-0.00447490313439
-0.00450488032606
-0.00451163343218
-0.00451213981262
-0.00450625286251
-0.00449828914873
-0.00446670887167
-0.00437054634512
-0.00419021231742
-0.00390708852372
-0.00346817949117
-0.0027577892087
-0.00124051103469
-0.00127239486696
-0.00284373729068
-0.00358919567033
-0.00405019969547
-0.00431930746189
-0.00447043829015
-0.00456703811846
-0.00464234327783
-0.00468184309053
-0.00468798386968
-0.00468821932011
-0.00468247004165
-0.00468509718124
-0.00466987077223
-0.00457640742535
-0.00437696391085
-0.00405891146999
-0.00359209419612
-0.00284599840743
-0.001274035872
-0.00128766852343
-0.00288744949709
-0.00365510614695
-0.00412276690582
-0.00438251274593
-0.00452883641552
-0.00463149259137
-0.00472011890224
-0.00476581255601
-0.00477041593187
-0.00477036515616
-0.00476566424999
-0.00477920995653
-0.00478280654912
-0.00469893990307
-0.0044918888014
-0.00414913887304
-0.00365828833117
-0.0028897632631
-0.00128936794381
-0.00129315731921
-0.00290588158135
-0.00368631403687
-0.00415279180536
-0.00440672240284
-0.00454726388961
-0.00465263016457
-0.00474459587817
-0.00479096820766
-0.00479368249536
-0.00479348793044
-0.0047904330746
-0.00481231338658
-0.0048302465479
-0.00475721775239
-0.00454922333817
-0.00419751010376
-0.00368982352084
-0.00290823379027
-0.00129485134655
-0.00129423059371
-0.00291176242323
-0.00369883726192
-0.00416602566729
-0.00441800700514
-0.00455635673374
-0.00465992838
-0.00474988552088
-0.00479435526163
-0.00479555063163
-0.00479538736694
-0.00479402148234
-0.00482026951078
-0.00484474023853
-0.00477709061686
-0.00457103112552
-0.00421704845543
-0.00370260295618
-0.00291413666529
-0.00129587840677
-0.00129404063953
-0.00291288644563
-0.00370278831134
-0.00417172416341
-0.00442381994238
-0.00456163187021
-0.00466383606416
-0.00475201535552
-0.00479490904287
-0.00479531829898
-0.00479528075133
-0.00479486539437
-0.00482285894679
-0.00484919451755
-0.00478295850593
-0.00457750493733
-0.00422314308594
-0.00370668710033
-0.00291526811141
-0.00129565143588
-0.00129410614916
-0.00291297558811
-0.00370285720985
-0.00417172570008
-0.00442368337588
-0.00456132405549
-0.00466342559092
-0.00475155016198
-0.00479441311081
-0.00479480425115
-0.00479476670619
-0.00479435605912
-0.00482239254426
-0.00484881247402
-0.00478269778297
-0.00457739332166
-0.00422314807965
-0.00370675212103
-0.0029153585731
-0.00129572700887
-0.00129442852887
-0.00291204227729
-0.00369905273855
-0.00416604111939
-0.00441761596175
-0.0045554754353
-0.00465871001312
-0.00474849526569
-0.0047929184485
-0.00479407131173
-0.004793850524
-0.0047925042979
-0.00481888085072
-0.00484359939719
-0.00477631797025
-0.00457069673919
-0.00421706048212
-0.00370279171876
-0.00291439831949
-0.00129609120124
-0.00129347884643
-0.00290636667554
-0.00368669775641
-0.0041520442667
-0.00440306547698
-0.00453990596107
-0.00464214772891
-0.00473229797634
-0.00477809434047
-0.00478078199874
-0.00478055411283
-0.00477752385869
-0.00479983687834
-0.00481937808689
-0.00474957519731
-0.00454547769609
-0.00419671806048
-0.00369013942877
-0.0029086631846
-0.00129518122784
-0.00128808464039
-0.00288813572701
-0.00365566726594
-0.00412125725274
-0.00437505811202
-0.00451270956383
-0.00460732599737
-0.00469120956623
-0.00473546020093
-0.00473999710532
-0.00473992586793
-0.00473524845118
-0.00474980070746
-0.00475758742844
-0.00468206734094
-0.00448417461054
-0.00414751277118
-0.00365872938957
-0.00289034407386
-0.00128978264378
-0.00127286535331
-0.00284460080535
-0.00358992578673
-0.00404987285411
-0.00431341558468
-0.00445427694642
-0.00454043959711
-0.00460899738551
-0.00464653977889
-0.00465257981414
-0.00465279043936
-0.00464708302315
-0.00465126006359
-0.00464243066215
-0.00455969189375
-0.00437087639707
-0.00405843617319
-0.0035926576953
-0.00284670406428
-0.00127450236433
-0.0012394695119
-0.00275660973617
-0.00346637166911
-0.00390469038286
-0.00417265001561
-0.00431977034183
-0.00439967193786
-0.00445277954651
-0.0044809755779
-0.00448763955438
-0.00448811575709
-0.00448225201502
-0.00447590124576
-0.00444973410084
-0.00436207174415
-0.0041885029018
-0.00390756702423
-0.00346885257444
-0.00275859819496
-0.00124098908912
-0.00117589821909
-0.00259732160527
-0.00325370548661
-0.00365490563496
-0.00390466743663
-0.00404991833507
-0.00412614702145
-0.00416758210985
-0.00418706083418
-0.00419351292728
-0.00419412292772
-0.00418875155946
-0.00417561561412
-0.00414083292291
-0.00405832500149
-0.00390754524552
-0.00365752658837
-0.0032560423481
-0.00259919470312
-0.00117724292868
-0.00106390958205
-0.00232610542443
-0.00290496172039
-0.00325358837867
-0.00346624301335
-0.00358990424301
-0.00365589743848
-0.00368736624419
-0.00370030770432
-0.00370476541195
-0.00370530279054
-0.00370180949177
-0.00368957206509
-0.00365847621025
-0.00359258828811
-0.00346887325176
-0.00325608518454
-0.00290721657843
-0.00232784686548
-0.00106502734729
-0.000874059858881
-0.00186615331963
-0.00232587360238
-0.00259699630597
-0.00275630455319
-0.00284441275047
-0.00288815403023
-0.00290671126471
-0.00291282236448
-0.00291424803896
-0.00291465591944
-0.00291398276836
-0.00290847054191
-0.00289030995677
-0.0028467841614
-0.00275874046698
-0.00259935500386
-0.00232796848022
-0.0018676388906
-0.000874812189858
-0.000587649877388
-0.000874267331878
-0.00106412584554
-0.00117609299959
-0.00123968210678
-0.00127314406962
-0.00128847253458
-0.00129402462603
-0.00129518220039
-0.00129510386058
-0.0012953107958
-0.0012957660838
-0.00129491157395
-0.00128955584023
-0.00127431320108
-0.00124082302662
-0.00117708020795
-0.00106484952412
-0.000874644500372
-0.000587673607474
-0.000588122815606
-0.0008942523883
-0.00110069953224
-0.00122418490591
-0.00129490286259
-0.00133198170661
-0.00134844666581
-0.00135362521999
-0.00135376909996
-0.00135289365957
-0.00135306517341
-0.00135427964949
-0.00135445347582