/*--------------------------------*- C++ -*----------------------------------*\
| =========                 |                                                 |
| \\      /  F ield         | OpenFOAM: The Open Source CFD Toolbox           |
|  \\    /   O peration     | Version:  3.0.1                                 |
|   \\  /    A nd           | Web:      www.OpenFOAM.org                      |
|    \\/     M anipulation  |                                                 |
\*---------------------------------------------------------------------------*/
FoamFile
{
    version     2.0;
    format      ascii;
    class       volVectorField;
    location    "3.5";
    object      ddt0(U);
}
// * * * * * * * * * * * * * * * * * * * * * * * * * * * * * * * * * * * * * //

dimensions      [0 1 -2 0 0 0 0];

internalField   nonuniform List<vector> 
7968
(
(0.00010693011359 9.75545473107e-05 -0.000163439563494)
(0.000439378633009 -1.7403210481e-05 -0.00017812946633)
(0.000914015566088 -7.43048173845e-05 -0.000151008665253)
(0.00129287419535 -8.79236028216e-05 -8.65833181268e-05)
(0.00154085857651 -5.68426857101e-05 -2.04497733017e-05)
(0.00156735628339 9.14724218696e-06 3.7970529025e-05)
(0.00145051164648 5.20580035469e-05 7.44577218965e-05)
(0.00117494752165 0.000112332667832 0.000103426372153)
(0.0007876769841 0.000157665353473 0.000117325589262)
(0.000350200066304 0.000182174367534 0.000123190366915)
(-0.000116192509318 0.00017833872326 0.000120864977745)
(-0.000574803516766 0.000157391833511 0.000119529938873)
(-0.000969932553115 0.000112984915091 0.000108599282949)
(-0.00126000237373 5.28386501026e-05 8.2220794419e-05)
(-0.00139558926776 9.40804512387e-06 4.77838887608e-05)
(-0.00139297861196 -5.58675207394e-05 -8.80866721387e-06)
(-0.0011724336383 -8.63133626634e-05 -7.34772447931e-05)
(-0.000825415763636 -7.15017128865e-05 -0.000137158787564)
(-0.000384600096979 -1.34948912461e-05 -0.000163469310796)
(-8.80247107298e-05 0.000102888795991 -0.000148666250613)
(-8.37530070237e-06 0.000414593711103 -0.000178829658732)
(0.000357668491378 0.000333504516126 -0.000562304519363)
(0.000933001913455 0.00033229170339 -0.000679805524473)
(0.00136670356872 0.000404676942522 -0.000654357162357)
(0.00161898698193 0.000538260815261 -0.000586109270624)
(0.00165372062081 0.000690546990382 -0.000512649253651)
(0.00150710963406 0.000815230613152 -0.000451075807378)
(0.00121187161149 0.000925296832965 -0.000405897871318)
(0.000810708674563 0.00100563789737 -0.000380397529845)
(0.000355534714229 0.00104875306012 -0.000369863626923)
(-0.000123018645824 0.00104376077882 -0.000370125951115)
(-0.000590722623152 0.00100661279561 -0.000377528857402)
(-0.00100376662832 0.000928370118774 -0.000400493336091)
(-0.00131540733563 0.000818739102173 -0.000443630921486)
(-0.0014818967083 0.000695083374255 -0.000503656624268)
(-0.00147149832135 0.000544567041064 -0.000576483083919)
(-0.00124697460475 0.000413297787756 -0.000644181552086)
(-0.000845051231936 0.000343658673168 -0.00066930904729)
(-0.000302490412514 0.000346089632527 -0.000550222358916)
(2.866813179e-05 0.000426766757656 -0.000163586897185)
(-6.51622331394e-05 0.000875650956327 -0.000153496500431)
(0.000356171139303 0.000895224027182 -0.000681379411998)
(0.00100051666095 0.000963212723938 -0.000807077458066)
(0.0014681323979 0.00110302804496 -0.000740892699188)
(0.00171994983994 0.00129198426078 -0.000628417089343)
(0.0017411597585 0.00149024797349 -0.000522543098705)
(0.00157058588008 0.00165788242691 -0.00044497969785)
(0.00125461646116 0.001800186393 -0.000395569759015)
(0.000836563967874 0.00190762682575 -0.000370191943875)
(0.00036343114148 0.00196476602152 -0.000361536750643)
(-0.000129996536864 0.00196466487249 -0.00036030615607)
(-0.000612518494157 0.00191262293236 -0.000365966235288)
(-0.0010448981838 0.00180704345111 -0.000389102163507)
(-0.00137814334738 0.00166502677959 -0.00043684455724)
(-0.00156853562661 0.00149867520898 -0.000512754376676)
(-0.0015707110134 0.0013034262707 -0.000618069)
(-0.00134618389627 0.00111869834405 -0.00073003401523)
(-0.000910635346771 0.000983028513403 -0.000794902497865)
(-0.000299834960226 0.000916819097837 -0.000667863801182)
(8.64177103977e-05 0.000895086160579 -0.000137073615985)
(-7.90223678753e-05 0.00124342332127 -9.03025667562e-05)
(0.000428030784575 0.00131741482903 -0.000657493414824)
(0.00113981131102 0.00141943177929 -0.000743332916242)
(0.00164278565708 0.00159452382891 -0.000617092014741)
(0.00189385537093 0.00181370417435 -0.000449572030539)
(0.00189028891246 0.00203614176672 -0.000309076606622)
(0.00168856361675 0.00222806400752 -0.000210532512639)
(0.0013409925132 0.00239246002524 -0.000151254776238)
(0.000888941556194 0.00251686584232 -0.000118839265965)
(0.000381469613688 0.00258509693064 -0.000113266169289)
(-0.000143620718127 0.00258785146765 -0.000110727028039)
(-0.00066174001414 0.00252495866996 -0.000110956582511)
(-0.00113087004923 0.00240227763982 -0.000142299886376)
(-0.00149619682984 0.00223708750806 -0.000200680938177)
(-0.00171615078819 0.00204577417709 -0.000298203186143)
(-0.00174093735567 0.00182669261597 -0.000437065036326)
(-0.00151626131337 0.00161308232505 -0.000602490085201)
(-0.00104605078843 0.00144318328721 -0.000726792683703)
(-0.000369367768649 0.00134347178778 -0.000639776204185)
(0.000101320948601 0.00126635217786 -7.08698797848e-05)
(-4.8122299046e-05 0.00148249073404 -2.50998001235e-05)
(0.000561571178468 0.00156075936766 -0.000591107920236)
(0.00132894677841 0.00166279543875 -0.000632011722435)
(0.00186194467818 0.00183809567734 -0.0004519208179)
(0.00211274890195 0.00205803074358 -0.000233964471801)
(0.00208725456944 0.00228562724337 -5.33415023377e-05)
(0.00185481726846 0.0024852575428 7.84953134894e-05)
(0.00147228351914 0.0026608225945 0.000169132891915)
(0.000977039835224 0.00279849039075 0.000226856283266)
(0.000415507301331 0.0028780183559 0.000255132628433)
(-0.000171218717807 0.00288211607889 0.000259332621674)
(-0.000746441256367 0.00280907573471 0.000237471406971)
(-0.00126274633275 0.00267224977476 0.000181244771047)
(-0.00166411626994 0.00249331524518 8.9955407963e-05)
(-0.00191249841366 0.00229335020538 -4.16103156698e-05)
(-0.00195571985636 0.0020684212156 -0.000220097524207)
(-0.00172964047382 0.00185460674566 -0.000433643956211)
(-0.00123034437945 0.00168531831216 -0.000610592313068)
(-0.000500469899049 0.00158615469951 -0.000568315574915)
(7.09793526727e-05 0.0015051336465 -2.96585116594e-06)
(1.84223073674e-05 0.00150179258617 3.1528153911e-05)
(0.000714884298721 0.00158851202616 -0.000519107065334)
(0.00152894434733 0.00167728254112 -0.00052769560589)
(0.00208660928879 0.00182896333901 -0.000311194951366)
(0.00234154728769 0.00202848226033 -5.23973069082e-05)
(0.00228630521016 0.00222814444051 0.00016486139094)
(0.00202753220514 0.00240714470177 0.000317161652246)
(0.00161010184344 0.00257206331364 0.00042727039111)
(0.00106802438215 0.00270498857573 0.000501746652378)
(0.000449822985007 0.00278237088304 0.000542051388208)
(-0.000198625852477 0.00278697121144 0.000548423257434)
(-0.000835307615543 0.00271735143809 0.000517186955747)
(-0.00140474091658 0.00258466892392 0.000442273010339)
(-0.00184092227629 0.0024124354777 0.00032656549782)
(-0.00211121019716 0.00223199976308 0.000174033082588)
(-0.00218010501956 0.00203451191136 -4.03000915732e-05)
(-0.00194750254295 0.00184053043765 -0.000292146238382)
(-0.00142455609704 0.00169474047336 -0.000502964050609)
(-0.000650688566465 0.0016086543592 -0.000492499551521)
(5.41230792079e-06 0.0015197866897 5.61141381948e-05)
(6.12733058533e-05 0.00137902313854 6.66594446899e-05)
(0.000840549893909 0.00143557872784 -0.000459151644379)
(0.00169874426011 0.00150019492904 -0.000451160653888)
(0.0022815802788 0.00162068509095 -0.000212086242611)
(0.00254357974135 0.00178972176713 8.20361251489e-05)
(0.00246631023789 0.00196477884394 0.000321076265068)
(0.00219103456678 0.00212902835998 0.000489405706133)
(0.00174145095477 0.00228146171628 0.000620836198072)
(0.00115242193149 0.00240852947569 0.000720873647547)
(0.000480653115315 0.00247951682063 0.000778853470842)
(-0.000223604270385 0.00248344635029 0.000786653166456)
(-0.000918123084977 0.0024201335643 0.000740682964745)
(-0.00154293759771 0.0022943998982 0.000638576310906)
(-0.00201081540161 0.00213426384562 0.000492832460321)
(-0.00229095073384 0.00196584341402 0.000325434197365)
(-0.00237807172743 0.00179235525562 9.13508142873e-05)
(-0.00213653851384 0.00162773696947 -0.000193524565778)
(-0.0015892094344 0.00151205771449 -0.000424827249559)
(-0.000773469568609 0.0014498533694 -0.000430248457181)
(-3.72729970527e-05 0.00139217639231 9.23143726898e-05)
(0.00012155554505 0.00109886785572 9.44088123007e-05)
(0.000950908768231 0.00113468537428 -0.000415291418739)
(0.00184249568612 0.00117733138937 -0.000402844374017)
(0.00244839138512 0.0012649329839 -0.000152503294603)
(0.002722012542 0.00139714017709 0.000174746213033)
(0.00263343264246 0.00153702421165 0.000436597513518)
(0.00234370778576 0.00166697858913 0.000628475383534)
(0.00185771930807 0.00178166164063 0.000787642811471)
(0.00122888762784 0.00188244832258 0.000904704362265)
(0.000511366364514 0.00195872601142 0.00090657444035)
(-0.000249458405256 0.00196201459964 0.000912119644406)
(-0.000993076791702 0.00189535521175 0.000918185795198)
(-0.00166264846652 0.00179386040472 0.000808519889277)
(-0.00217021639316 0.00167333493687 0.000631331467606)
(-0.00246045551664 0.00153618187165 0.000436504361975)
(-0.00255370296894 0.00139756380711 0.000181397379918)
(-0.00229919794319 0.00126823436458 -0.000134520054623)
(-0.00172973497479 0.00118389778996 -0.000375667238795)
(-0.000882511593121 0.00114268731318 -0.000385321514291)
(-9.74379138746e-05 0.0011061260124 0.000120470352694)
(0.000166341265857 0.000709042542821 0.000106978233976)
(0.00103019133501 0.000728884477437 -0.000391187398771)
(0.0019498804074 0.000752693914663 -0.0003790136336)
(0.00257278100768 0.000803263417471 -0.000119494219338)
(0.0028601173689 0.000889783963081 0.000231900706563)
(0.00276476891714 0.00097927726629 0.000512946489903)
(0.00246625170939 0.00105843742427 0.000728124788453)
(0.00195625807714 0.00113006515457 0.000902356240221)
(0.00131374822942 0.00121248330022 0.000902316313397)
(0.000537564397029 0.0012562827737 0.000940286717143)
(-0.000271382033232 0.00125893076743 0.000945279994773)
(-0.00107288731895 0.00121977277091 0.000922412231632)
(-0.00176673524962 0.00113997821435 0.000916889064399)
(-0.00229871627563 0.00106194161272 0.000732081396224)
(-0.00259371342972 0.000977182504211 0.000509673396163)
(-0.0026896658131 0.000888689349197 0.000237975804283)
(-0.00242144140061 0.000803971722459 -0.000102144049376)
(-0.00183540039963 0.000754515238565 -0.000351154180834)
(-0.000961355274817 0.000731153864064 -0.000360925099019)
(-0.000142307857783 0.000710771661297 0.000133064084081)
(0.000188906641483 0.000261667477751 0.000110739993587)
(0.00106987130757 0.000268141989381 -0.000382181613336)
(0.0020039802471 0.000275278318129 -0.000372426137355)
(0.00263837048403 0.000290122307353 -0.000118783243685)
(0.00293691073197 0.00032074989943 0.000255930176673)
(0.00283742719771 0.000350706677769 0.00054801495338)
(0.00253114336949 0.000376670075295 0.000778107173745)
(0.0020267238049 0.000402844614361 0.000895238869487)
(0.00135540572922 0.000425693196857 0.000927327664293)
(0.000553674697661 0.000439378616236 0.000988050012807)
(-0.000283989886436 0.000441089708211 0.000995719962562)
(-0.00111350670728 0.000427064852929 0.000948782693822)
(-0.00183740519763 0.000404301865919 0.000913877988346)
(-0.00236657082488 0.000375528306527 0.000782141351385)
(-0.00266694210466 0.000347490986187 0.000543677197756)
(-0.00276502031995 0.000317433697982 0.000262382776116)
(-0.0024862649884 0.000287462211833 -9.96851521484e-05)
(-0.00188946741509 0.000272355642354 -0.000343869140569)
(-0.00100114750866 0.000265090853996 -0.000351719231341)
(-0.00016503945416 0.00025810436584 0.000136835693007)
(0.000188862496036 -0.000204442851456 0.000110986102931)
(0.00106966006079 -0.000209950045953 -0.000381973623635)
(0.00200393884533 -0.000217491781636 -0.000372473179613)
(0.00263823615505 -0.000233119741033 -0.000118989491827)
(0.00293666689131 -0.000265033710854 0.000255351464371)
(0.00283728446814 -0.000296297280468 0.000546919245816)
(0.00253102442568 -0.000323215238975 0.000776919505043)
(0.00202642492191 -0.000350986682597 0.000893500722757)
(0.00135470228754 -0.000375870569051 0.000925549439268)
(0.000553178516562 -0.000391336517241 0.000985809732785)
(-0.000284202386739 -0.000393931784932 0.000993738111055)
(-0.00111398990518 -0.000380325456797 0.000947211676715)
(-0.00183822933311 -0.000357585253017 0.000912015360376)
(-0.0023672311206 -0.000329010469198 0.000781023634338)
(-0.00266758503539 -0.000301220964179 0.000542804233535)
(-0.00276553812598 -0.000271190068468 0.000261856548275)
(-0.00248660628107 -0.000240786926516 -9.98710927263e-05)
(-0.00188966294979 -0.000225345769214 -0.000343785670661)
(-0.00100103326728 -0.000218238734673 -0.000351337048319)
(-0.000165041255533 -0.000213159179378 0.000137122774029)
(0.000166285255149 -0.000652751032373 0.000107775864275)
(0.0010297602053 -0.000671546080853 -0.000390448197208)
(0.00195014441922 -0.000695434340716 -0.000378908384901)
(0.00257285005117 -0.000746297729985 -0.000118988439693)
(0.00286003568539 -0.00083280238203 0.000230831143295)
(0.00276494102542 -0.000922033465659 0.000510888874844)
(0.00246640085592 -0.00100098046967 0.000725843482297)
(0.00195641902378 -0.00107354756711 0.000897382264674)
(0.00131287396005 -0.00115677913912 0.000897773917408)
(0.000536165652903 -0.00120120856143 0.000935813646328)
(-0.000273251302258 -0.00120510759346 0.000940609551302)
(-0.00107521860921 -0.00116731316608 0.00091713482993)
(-0.00176979148853 -0.00108838809058 0.000911236074172)
(-0.00230129134972 -0.00101147560216 0.00072929672743)
(-0.00259607320031 -0.000928304413981 0.000507623743726)
(-0.00269161138223 -0.000841012553431 0.000236789979335)
(-0.0024228079165 -0.000756930051073 -0.000102081737173)
(-0.00183629075514 -0.000707712423101 -0.000350808347687)
(-0.000961226591534 -0.000684862869053 -0.000359840327761)
(-0.000142363849501 -0.00066637005689 0.000133900963836)
(0.000121631440078 -0.00104480227248 9.58381809187e-05)
(0.000950666990085 -0.00107951078565 -0.000413939878775)
(0.00184331046984 -0.00112164940338 -0.000402479406794)
(0.00244976890066 -0.00120863227703 -0.000152837356969)
(0.00272395508767 -0.00133922017976 0.000174018022955)
(0.00263551003839 -0.00147713989354 0.000435724849503)
(0.00234531971384 -0.00160519784417 0.000627887471622)
(0.00185776719841 -0.00171858873426 0.000786913404803)
(0.00122896032691 -0.00182070149349 0.000898447698429)
(0.000509631297599 -0.00189656555364 0.00090166840131)
(-0.000252823187765 -0.00190076280173 0.00090698791834)
(-0.00099801377838 -0.00183617294568 0.000911659228105)
(-0.00166768405069 -0.00173510717943 0.00080758722161)
(-0.00217624823126 -0.00161801386064 0.000629747318024)
(-0.00246603996939 -0.00148410484249 0.000435098086185)
(-0.00255851461588 -0.00134815231461 0.000180348870202)
(-0.00230260411481 -0.00122091418706 -0.000134911514281)
(-0.00173178492266 -0.00113780489427 -0.000375086246309)
(-0.000882872268117 -0.00109769525139 -0.000383694077977)
(-9.77193999931e-05 -0.00106301632509 0.000121845704212)
(6.16449813977e-05 -0.00132908279527 6.87950677223e-05)
(0.000841005550499 -0.00138429616597 -0.000457345369803)
(0.00170102747722 -0.00144770599634 -0.000450292923514)
(0.00228532095672 -0.00156635747746 -0.000211744401221)
(0.00254853776664 -0.00173293880486 8.2643182388e-05)
(0.00247147633344 -0.00190543091215 0.000322793756178)
(0.00219523933824 -0.00206735319369 0.000492119861181)
(0.00174354741648 -0.00221763923492 0.000623881248614)
(0.00115225087912 -0.00234322258509 0.000724104509494)
(0.000478241619734 -0.00241413669769 0.000782204010829)
(-0.000227957166521 -0.0024191396087 0.000790182231365)
(-0.000924503102821 -0.00235788733132 0.000744199622717)
(-0.00155180420191 -0.0022348984282 0.000641859162429)
(-0.00202106706648 -0.00207791639028 0.000494451607246)
(-0.00230066516376 -0.00191299976222 0.000326006142801)
(-0.00238665641372 -0.00174274059896 9.14608525566e-05)
(-0.00214293462344 -0.00158110594459 -0.000193360162255)
(-0.00159318091882 -0.00146774995398 -0.000423856286669)
(-0.000774804219762 -0.0014073701776 -0.000428159294258)
(-3.79963251652e-05 -0.00135175785352 9.42998129966e-05)
(1.83788354884e-05 -0.0014570865822 3.39437659278e-05)
(0.000716911901468 -0.00154272265008 -0.000516689224525)
(0.00153375978597 -0.00162996395128 -0.000526347651396)
(0.002093722683 -0.00177909176861 -0.00030979113814)
(0.00235014601689 -0.00197578256495 -5.04780336678e-05)
(0.00229447487474 -0.00217233458467 0.000168271006358)
(0.00203442864962 -0.00234902513272 0.000321418919975)
(0.00161467742136 -0.00251183267076 0.000432350185946)
(0.00106902940238 -0.0026436065117 0.00050764278283)
(0.000446895167367 -0.00272171569035 0.000548029319949)
(-0.000204765265217 -0.00272816414375 0.000554601773138)
(-0.00084430404159 -0.00266103085776 0.000523685489029)
(-0.00141652510618 -0.00252945486607 0.00044805913965)
(-0.00185448648731 -0.00235889332587 0.00033063233045)
(-0.0021248880915 -0.00218139469229 0.000176844397231)
(-0.00219304866814 -0.0019873820761 -3.87006925517e-05)
(-0.00195779983068 -0.0017965628403 -0.000290981031725)
(-0.00143150976566 -0.00165366917339 -0.000501537207292)
(-0.000653846610838 -0.00156966178224 -0.000490110298767)
(5.13503444692e-06 -0.00148275713272 5.83347025141e-05)
(-4.71199812437e-05 -0.0014452095589 -2.2357856397e-05)
(0.000565585409156 -0.00152284184791 -0.000589465205224)
(0.00133681201991 -0.00162292117628 -0.000630479737951)
(0.00187270065394 -0.00179548404645 -0.000449705895469)
(0.00212516412773 -0.00201262328523 -0.000230305191339)
(0.00209919409113 -0.00223750786451 -4.78346096589e-05)
(0.0018648046478 -0.002434271988 8.49683546988e-05)
(0.00147952730581 -0.00260771050725 0.000176969299517)
(0.000979133091387 -0.00274369115531 0.000236456722932)
(0.000411402764431 -0.00282468283926 0.000264441138222)
(-0.000180349126973 -0.00283142885705 0.000268672868712)
(-0.000757892283216 -0.00276275413088 0.000245926868937)
(-0.00127603641836 -0.00262454296976 0.000189497326781)
(-0.00168027148168 -0.0024462390341 9.65409592759e-05)
(-0.0019300354153 -0.00224890688052 -3.70467278941e-05)
(-0.00197266379239 -0.00202679500944 -0.0002166583338)
(-0.00174386236826 -0.0018159234203 -0.000431615249599)
(-0.00124060884929 -0.00164971737452 -0.000608593297885)
(-0.000506037671972 -0.00155305774161 -0.000566140945709)
(6.92375655151e-05 -0.00147376702431 -2.91929190826e-07)
(-7.80162439483e-05 -0.00121428760167 -8.74406498409e-05)
(0.000433156773485 -0.00128774627432 -0.000656354177176)
(0.0011497389671 -0.00138808141504 -0.000742049221223)
(0.00165601396669 -0.00156071246128 -0.000614489474195)
(0.00190853888403 -0.00177748468746 -0.000445400732983)
(0.00190427251443 -0.0019978053785 -0.00030324444526)
(0.00170054299951 -0.00218754097087 -0.00020343216913)
(0.00135005297807 -0.00235063214061 -0.000142644371947)
(0.000890766763731 -0.00247433997625 -0.000104479520303)
(0.000374772112281 -0.00254242105298 -0.000103722352979)
(-0.00015642184979 -0.00254623494812 -0.000102502925728)
(-0.000673753934675 -0.00248423198626 -0.000114068354742)
(-0.00114218486618 -0.00236251034088 -0.000134587554093)
(-0.00151291037467 -0.00219862053038 -0.000193150261396)
(-0.00173541128477 -0.00200944119408 -0.000292051723297)
(-0.00176026622315 -0.00179265352915 -0.000432412726871)
(-0.00153319559732 -0.00158160591492 -0.000599220189093)
(-0.00105864088957 -0.00141450505142 -0.00072472340019)
(-0.000376387250846 -0.00131703192735 -0.000637773143526)
(9.94269395322e-05 -0.0012416345281 -6.81193028896e-05)
(-6.38417546261e-05 -0.000855434438042 -0.000150811883371)
(0.000362063067166 -0.000874601204054 -0.000680600375671)
(0.0010117484763 -0.000941225941745 -0.000806191247066)
(0.00148301281674 -0.00107911789607 -0.000738291364565)
(0.00173624427229 -0.00126614183745 -0.0006236755017)
(0.0017564950624 -0.00146265424913 -0.000516177685906)
(0.00158342226159 -0.00162852697055 -0.000437550315029)
(0.00126353531225 -0.00176994745166 -0.000387347499584)
(0.000839408837892 -0.00187744833243 -0.000361088523526)
(0.000358624863459 -0.00193212158608 -0.00035251902134)
(-0.000140732866837 -0.00193294626769 -0.00035089160718)
(-0.000625207924239 -0.00187806842867 -0.000357667238282)
(-0.00105973904831 -0.00177581170587 -0.000380061968158)
(-0.00139688633292 -0.00163614176929 -0.000428555235623)
(-0.00158950676564 -0.00147202559059 -0.00050584889912)
(-0.00159193474779 -0.00127879099015 -0.000612387760788)
(-0.00136507161711 -0.00109618276166 -0.000726352534212)
(-0.000924795828637 -0.000962577470342 -0.00079290436983)
(-0.000307866968627 -0.000898151239652 -0.000666082199688)
(8.41863980263e-05 -0.000877864343669 -0.00013435700431)
(-6.78683808828e-06 -0.000402748405574 -0.000176347037405)
(0.000363404707936 -0.000321346321269 -0.000561507499438)
(0.000944112858779 -0.000319314484303 -0.000679017991097)
(0.00138157780544 -0.000390778502565 -0.000652072563042)
(0.00163547751338 -0.000523511657968 -0.000581719833935)
(0.00166911250605 -0.000674864118222 -0.000506594890185)
(0.00152002438718 -0.000798336422745 -0.000443961040569)
(0.00122090090039 -0.000907658441608 -0.000398070891439)
(0.000814584671826 -0.000987049016464 -0.0003721370218)
(0.000350380336036 -0.00102728824439 -0.000361566399398)
(-0.000133752561349 -0.00102754520242 -0.000360188805185)
(-0.000602837636104 -0.0009876854221 -0.000368125595378)
(-0.00101993509753 -0.000910368136489 -0.000391560665665)
(-0.00133512744959 -0.000802036140022 -0.000435630316906)
(-0.00150347744949 -0.000679869409764 -0.000496764064267)
(-0.00149354938406 -0.000530608437229 -0.000570827386885)
(-0.00126643438935 -0.000400366751184 -0.00064103336378)
(-0.000859491296941 -0.000331666888608 -0.000667359763406)
(-0.000310734315423 -0.000335079354118 -0.000548780030258)
(2.62938871709e-05 -0.000416639146676 -0.000161472510667)
(0.000108296573729 -9.40947626885e-05 -0.000161199984222)
(0.000443629003507 2.13822674088e-05 -0.000176594646339)
(0.000922777097602 7.87556848179e-05 -0.000149454626615)
(0.00130485309799 9.26081626138e-05 -8.45311655226e-05)
(0.00155474679053 6.16706243276e-05 -1.74911782987e-05)
(0.00158031757357 -4.19723606891e-06 4.19559266493e-05)
(0.00146179226118 -4.67646481404e-05 7.88921891662e-05)
(0.00118324729645 -0.000106872921842 0.000108192467413)
(0.000792805904943 -0.000151819695554 0.000122098046644)
(0.000342254649288 -0.000174696132639 0.000126996709244)
(-0.000129367999929 -0.000174889445944 0.000128223536053)
(-0.00058481463041 -0.000152258339931 0.000125670696824)
(-0.000985310387153 -0.00010768190431 0.000114105396744)
(-0.001278744625 -4.77657388771e-05 8.70333623878e-05)
(-0.00141558185761 -4.66125131402e-06 5.21416267283e-05)
(-0.00141330592636 6.01626724974e-05 -5.36671453009e-06)
(-0.00118996504679 9.05091380169e-05 -7.10679023961e-05)
(-0.000838382914677 7.55728025867e-05 -0.000135133843644)
(-0.000391809333383 1.73925618097e-05 -0.000161677215318)
(-9.00183434589e-05 -9.93332866917e-05 -0.0001465269088)
(0.000257648081214 0.000247918988757 -0.000882967030122)
(0.000740045844604 0.000339771636933 -0.000978577806621)
(0.001215039096 0.000423479012957 -0.000961150234798)
(0.00156156547745 0.000518272170606 -0.000856204762211)
(0.0017538303609 0.00061972731974 -0.000728211245708)
(0.00174192722023 0.000715745771076 -0.000608898541429)
(0.00158043234599 0.000777349576797 -0.000512526864186)
(0.00126959705383 0.000837758718517 -0.000441553948223)
(0.000847976802977 0.000881167260827 -0.000404629311161)
(0.000370330785085 0.000903892323784 -0.000389717645684)
(-0.000132535530122 0.000902365985877 -0.000392417059942)
(-0.000624238331069 0.00088238133956 -0.000397971888911)
(-0.00105642857841 0.000840129246084 -0.000427805797704)
(-0.00138305787061 0.000780181272227 -0.000492420616055)
(-0.00156395633812 0.000718975172711 -0.000583241074686)
(-0.00160097033783 0.000625133510702 -0.000697775506579)
(-0.00143806643554 0.000525288275712 -0.000821653427259)
(-0.00112550260559 0.00043208823326 -0.000923806404398)
(-0.000686832106649 0.000348587036419 -0.000939067096333)
(-0.000239990354231 0.000255239563967 -0.000842499219757)
(0.000349353143631 0.000714769512654 -0.000980530729759)
(0.000846475251649 0.000821060403358 -0.00138591553846)
(0.00127182019489 0.000933988115824 -0.00142923646426)
(0.00155846911772 0.00107810308916 -0.00129908678582)
(0.00168980256143 0.00123957089651 -0.00111083005744)
(0.00165774364675 0.00139318919381 -0.000924626925693)
(0.00148139840658 0.00152089437619 -0.000771862990494)
(0.0011824985077 0.00162938192386 -0.000661119221869)
(0.000792963887821 0.00170955295284 -0.000594396735808)
(0.000351053964997 0.00175195016128 -0.000563613471779)
(-0.00011197983182 0.00175081694164 -0.000562604176499)
(-0.00056337451154 0.00171334580607 -0.000586471772514)
(-0.00096561469085 0.00163539702917 -0.000646831416014)
(-0.00128113566103 0.00152792646608 -0.000751883479383)
(-0.00147769163862 0.00140195685857 -0.000899658550657)
(-0.00153456012923 0.00125159212391 -0.00108150369017)
(-0.00143285798847 0.00109395323648 -0.00126590305765)
(-0.00118052026302 0.000953134097156 -0.00139296306437)
(-0.00079085939351 0.000841019884504 -0.0013468548793)
(-0.000329932991421 0.000731404067945 -0.000937027728886)
(0.000432864321725 0.00117503265036 -0.000966772449121)
(0.00095923044793 0.00123221194066 -0.00143293731535)
(0.00137186579372 0.00133262474115 -0.00143393925976)
(0.00162614288927 0.00147582965016 -0.00122370796625)
(0.00172151556808 0.00164198084538 -0.00095188319711)
(0.00166319815503 0.00180701664493 -0.00069482831362)
(0.00146909240048 0.00195344003842 -0.000491265696943)
(0.00116540157692 0.00207835658248 -0.000347631021143)
(0.000780099417246 0.00217319316571 -0.000258958977749)
(0.000346197179025 0.00222020742589 -0.000215026506793)
(-0.000105243077628 0.00222248390758 -0.000211464034736)
(-0.000547977625034 0.0021815626449 -0.000248703522383)
(-0.00094739823643 0.00208830273004 -0.000331107307407)
(-0.00126783448841 0.00196397143303 -0.000469510301436)
(-0.00148137312386 0.00181915523933 -0.000667954452812)
(-0.00156311971564 0.00165764779724 -0.000919755740739)
(-0.00149671758483 0.00149643752747 -0.00118640900696)
(-0.00127707751619 0.00135769793598 -0.00139190407289)
(-0.000900864655287 0.0012592329025 -0.0013876425755)
(-0.000412097427412 0.00119973824436 -0.000918148460138)
(0.000527587591719 0.0015090300293 -0.00086633430499)
(0.00110318184065 0.00150633830388 -0.00130728248602)
(0.00151487045473 0.00157438502834 -0.00122873511461)
(0.00174341774194 0.00169209598429 -0.0009305509956)
(0.00180570442978 0.00183602941935 -0.000581988983152)
(0.00171755463413 0.00198246351214 -0.000273313073759)
(0.00150083601569 0.00211632374036 -4.01290986477e-05)
(0.00118477655293 0.00223172410374 0.000120013310653)
(0.000788261529398 0.00232032155384 0.000220268565534)
(0.000347355084409 0.0023702350849 0.000278444974984)
(-0.000102577538084 0.00237413846897 0.000283448550602)
(-0.000555014155381 0.00233095169381 0.000232755855175)
(-0.00096854313859 0.00224459908326 0.00013945773932)
(-0.00130058931629 0.00212863299244 -1.65154058169e-05)
(-0.00153482608103 0.00199541020804 -0.000245116368179)
(-0.00164381177439 0.00185180796626 -0.000546815608285)
(-0.00160882013073 0.00171316552148 -0.000887030682102)
(-0.00141505656847 0.0016007611336 -0.00117814359401)
(-0.00104094741566 0.00153560207948 -0.00125255089958)
(-0.000505003848848 0.00153681435065 -0.00080847587509)
(0.00062895610963 0.00169223790214 -0.000742575107392)
(0.00126461738707 0.0016279538233 -0.00112398417761)
(0.00168128239203 0.00166010085699 -0.000961552640574)
(0.00188746517823 0.00174541053806 -0.000586793287141)
(0.00191726775343 0.00185797595493 -0.000179893552694)
(0.00179787275536 0.00197841176821 0.000162906790073)
(0.00156208337747 0.00210180560613 0.000409513184564)
(0.00123057255186 0.00221312009378 0.000578501315801)
(0.000822591328163 0.00229954719312 0.00069094758255)
(0.000363324873569 0.00235551552929 0.000753950186048)
(-0.00011695266743 0.00236084864147 0.000762051959106)
(-0.000589687608815 0.00231314473971 0.000711185081114)
(-0.00101736716038 0.00222884491543 0.000602858640608)
(-0.00136561674152 0.0021137590897 0.000434496529469)
(-0.00161599598133 0.00199034076294 0.000190108837748)
(-0.00175251947714 0.00187164703159 -0.000145031288516)
(-0.00174725095299 0.00176394162588 -0.000538764563937)
(-0.00157557841184 0.0016840827646 -0.000902662538032)
(-0.00119796263494 0.00165512291663 -0.00105913995322)
(-0.000604537316426 0.00171835883917 -0.000675926959573)
(0.000725500455546 0.00167350449204 -0.000627963084446)
(0.00141893258316 0.00158844888373 -0.000942108167)
(0.00184766478504 0.00159438562095 -0.000708330466804)
(0.00203536878291 0.00165055437979 -0.000279546363435)
(0.00203801646615 0.00173299420829 0.000163507397709)
(0.00190475087145 0.00184182476636 0.000511240637557)
(0.00165967859194 0.00197419659953 0.000757438129253)
(0.00131167847406 0.00209705480359 0.000934581063546)
(0.00087981018161 0.00219106422896 0.0010651811184)
(0.000386423535947 0.00224823517104 0.00114643621911)
(-0.000136481287085 0.00225463236558 0.00115949835987)
(-0.000648760936492 0.00220817508866 0.00109907738734)
(-0.00110741760546 0.00211455420247 0.000966879998856)
(-0.0014707159593 0.00198118704801 0.000779662221143)
(-0.00172484165359 0.0018502885788 0.000534732093708)
(-0.00187123896265 0.00174352150334 0.000194095522624)
(-0.00188965123385 0.00166497126536 -0.000231348916471)
(-0.00173574145468 0.00161363164243 -0.000644101297148)
(-0.00134759075844 0.00161031002533 -0.000869704941947)
(-0.000698347186717 0.00169378358277 -0.000554084146885)
(0.000787286747438 0.00150615329734 -0.000535469042798)
(0.0015474529541 0.00140575553867 -0.000793303980133)