/*--------------------------------*- C++ -*----------------------------------*\
| =========                 |                                                 |
| \\      /  F ield         | OpenFOAM: The Open Source CFD Toolbox           |
|  \\    /   O peration     | Version:  3.0.1                                 |
|   \\  /    A nd           | Web:      www.OpenFOAM.org                      |
|    \\/     M anipulation  |                                                 |
\*---------------------------------------------------------------------------*/
FoamFile
{
    version     2.0;
    format      ascii;
    class       volScalarField;
    location    "3.5";
    object      epsilon_0;
}
// * * * * * * * * * * * * * * * * * * * * * * * * * * * * * * * * * * * * * //

dimensions      [0 2 -3 0 0 0 0];

internalField   nonuniform List<scalar> 
7968
(
0.00056775574998
0.000664484897541
0.000742169933817
0.000790655159472
0.000817740585095
0.000830465753836
0.000834349011213
0.000833464784554
0.00083085216525
0.000828519807966
0.000828607037978
0.000831052716586
0.00083374673472
0.000834708605936
0.00083089824337
0.000818236137796
0.000791166681943
0.000742624458892
0.000664800391666
0.000567879041969
0.000664521997932
0.00111807994633
0.00145581453582
0.00166539765698
0.00178167018291
0.00183428178619
0.00184905596807
0.00184557304747
0.00183779512638
0.00183265500536
0.0018326354668
0.00183775979085
0.00184562716034
0.00184932482482
0.00183483694934
0.00178253290636
0.00166642515681
0.00145683310801
0.00111880252716
0.000664759631295
0.000742340657924
0.00145604551347
0.00199625841207
0.00233660848873
0.00252854935158
0.0026177271522
0.00264466870898
0.00264219140075
0.00263262248191
0.00262624839843
0.00262602758175
0.00263206298928
0.00264159381179
0.00264436068399
0.00261787559232
0.00252912753371
0.002337490904
0.0019972207858
0.00145674872759
0.000742585864384
0.000790881129123
0.00166581971253
0.00233676546062
0.00275853874643
0.00299129173959
0.00309258234829
0.00311720881949
0.00310798032308
0.00309333525649
0.00308474479004
0.00308424713354
0.0030920104242
0.00310644867799
0.00311610164944
0.00309212841399
0.00299136319634
0.00275895926027
0.00233736100817
0.00166626737311
0.000791038492502
0.000818005863415
0.00178200016017
0.0025286558352
0.00299113735891
0.00323265106664
0.00332539596812
0.00337157229993
0.00338632193921
0.00338343161177
0.00337856129037
0.00337812523742
0.0033823276485
0.00338507054446
0.00337065445717
0.00332473260745
0.0032325626937
0.00299128431473
0.00252889720417
0.00178215567908
0.000818038709928
0.000830730901533
0.00183451775093
0.00261753981289
0.00309191959733
0.00332473205419
0.0034674904031
0.00353478035371
0.00355084867324
0.00354607300642
0.00353963270841
0.00353906273922
0.0035446431631
0.00354926689463
0.00353372590467
0.00346709334456
0.00332503755422
0.00309228813098
0.00261775158775
0.00183460692713
0.000830681968335
0.000834574079297
0.00184902850021
0.00264394704793
0.00311568545628
0.00337076083556
0.00353429227583
0.00360088249936
0.00360981271903
0.00359825740487
0.00358795941557
0.00358721954697
0.00359641895807
0.00360781140561
0.0035996549093
0.00353399581424
0.00337104035504
0.00311667913093
0.00264445335427
0.00184916598372
0.000834502723118
0.000833614006071
0.00184521556267
0.00264092945509
0.00310569119437
0.0033850569123
0.0035499163036
0.00360937054023
0.00360800576329
0.00358742406602
0.00357178528654
0.00357089606556
0.00358523915511
0.00360561010694
0.00360792703989
0.00354966053307
0.00338557280119
0.00310728095184
0.00264183218383
0.00184554965124
0.000833567500931
0.000830899373853
0.00183714331487
0.00263100247977
0.00309071998504
0.00338197163035
0.00354505100164
0.00359779351983
0.00358739445473
0.00355756492174
0.00353566941123
0.00353467217015
0.00355516550791
0.00358470660734
0.00359608243368
0.00354469628767
0.00338258027296
0.00309259666463
0.00263219170043
0.00183766802554
0.000830892093414
0.000828426336564
0.00183178080855
0.00262448354032
0.00308229960247
0.00337719812421
0.00353884402605
0.00358782858492
0.00357205301351
0.00353585627602
0.00350889399545
0.00350785838411
0.00353333408566
0.00356916198
0.00358587383007
0.00353832624104
0.00337775355999
0.00308410906517
0.00262576688763
0.00183238657594
0.000828430319784
0.000828334919796
0.00183161471277
0.00262424162498
0.00308199217868
0.003376920752
0.00353854382731
0.00358747932796
0.00357161933176
0.00353530190904
0.00350822004878
0.00350716995777
0.00353274748156
0.00356869472298
0.00358549413704
0.00353799533964
0.00337743500071
0.00308372196892
0.00262543738179
0.0018321485501
0.00082830203224
0.000830706825431
0.00183667517007
0.00263030340435
0.00308980991604
0.00338118140398
0.00354420835946
0.00359683608723
0.00358624849071
0.00355618039223
0.00353408749242
0.00353304875045
0.00355369988154
0.00358348282741
0.00359504707444
0.00354376758345
0.00338167176192
0.00309145824776
0.00263125630322
0.00183701158526
0.000830619629019
0.000833382244379
0.00184451091039
0.00263983802648
0.00310423012843
0.00338382008506
0.00354860385497
0.00360790302103
0.00360630794425
0.00358549255134
0.00356968725587
0.00356876348017
0.00358324108218
0.00360383732927
0.00360635910298
0.0035482174362
0.00338415190908
0.00310547795411
0.00264039899394
0.00184457955522
0.000833236785833
0.000834349969245
0.00184821694469
0.00264262864478
0.00311384303386
0.00336915724143
0.0035326222805
0.00359903329031
0.00360773333851
0.00359596603342
0.0035855378696
0.00358477378273
0.00359407433057
0.00360565354486
0.00359767870487
0.0035321437066
0.00336918193998
0.00311440990975
0.00264272233857
0.00184803896802
0.00083417374315
0.000830556085362
0.00183377487082
0.00261624181966
0.00308999488572
0.00332228135349
0.00346550117093
0.00353271784026
0.00354856952184
0.00354360593932
0.00353705317714
0.00353645680229
0.00354210668599
0.00354687394656
0.00353148795493
0.00346483999488
0.00332215280437
0.00308987231561
0.00261599277056
0.00183350079679
0.000830406207054
0.000817909783139
0.0017814256439
0.00252761602027
0.0029894752613
0.00323026819578
0.00332253510488
0.00336934692361
0.00338389887699
0.0033808081071
0.00337582953836
0.00337535871898
0.00337959713452
0.0033824703558
0.00336816704169
0.00332139945092
0.00322966686144
0.00298909783314
0.00252739157925
0.00178126177304
0.00081785464205
0.000790876072508
0.00166553639764
0.00233616796072
0.00275742086203
0.00298949219066
0.0030901282325
0.00311418189509
0.00310451191465
0.00308956443786
0.00308094067062
0.00308038391142
0.00308802512843
0.00310264286358
0.00311263244226
0.0030891697132
0.00298903572195
0.00275732607798
0.0023363194068
0.00166568732428
0.000790953357716
0.000742392433689
0.00145605665028
0.00199612639839
0.00233611883796
0.00252754412853
0.00261618547755
0.00264264582937
0.002639794437
0.00262995376536
0.00262341442963
0.00262312232287
0.00262918138888
0.00263885807811
0.00264191050842
0.00261585796736
0.00252763201341
0.0023365414421
0.00199671952595
0.00145650829576
0.000742578168498
0.000664609902735
0.00111825903847
0.00145598415889
0.00166538220631
0.0017813403385
0.00183360696246
0.0018480727841
0.00184433239853
0.00183635582019
0.00183108164618
0.00183100645129
0.00183616125741
0.00184413753696
0.00184803532239
0.00183382778492
0.00178184026208
0.00166610638531
0.00145674875137
0.00111880189959
0.000664806054963
0.000567792449504
0.000664577241463
0.000742284966394
0.00079074607769
0.000817762884252
0.000830397810406
0.000834192017517
0.000833223327839
0.000830535932837
0.000828137611113
0.000828194179878
0.000830666459829
0.000833411438738
0.000834446389837
0.000830725787916
0.000818160378922
0.000791175525438
0.000742675652228
0.000664847379459
0.000567895184044
0.000653879772069
0.00105288065579
0.00136441503735
0.00156719385548
0.00168802363969
0.00175142383079
0.00177787474362
0.00178390280529
0.0017818145414
0.00177904294524
0.00177904894436
0.00178183549377
0.00178397286715
0.00177802872083
0.00175167004829
0.00168834100983
0.00156752023428
0.00136467499982
0.00105304097257
0.000654075300428
0.00105290198743
0.0012789878477
0.00154972341765
0.00174074319193
0.00185989350654
0.00192561165203
0.00195604324774
0.00196631068151
0.00196768490632
0.00196688314486
0.00196686669159
0.00196764588453
0.00196628358833
0.00195605991267
0.00192568035613
0.00186000242775
0.00174086201997
0.00154982449803
0.00127904795385
0.0010529122719
0.00136460935208
0.00154979964018
0.00184551803112
0.00206357340164
0.00220293442071
0.00228099506157
0.00231760970023
0.00233029444709
0.00233228318966
0.00233149343644
0.00233141463258
0.00233207605395
0.00233003759084
0.00231737496442
0.00228080664485
0.0022027737057
0.00206342366077
0.00184538773151
0.00154970010853
0.00136446036244
0.00156754366169
0.00174088664555
0.00206363002665
0.00230706890948
0.00246496309618
0.0025547209297
0.00259828144601
0.00261447832223
0.00261796838161
0.00261772038084
0.00261760244038
0.00261762908204
0.002614051688
0.00259787321259
0.00255436762739
0.0024646300393
0.0023067343865
0.00206332219869
0.00174063577268
0.00156719238786
0.00168846634799
0.00186004933222
0.00220298597485
0.00246494385058
0.00263667090618
0.00273778165337
0.00279525291666
0.00282206057662
0.00283110726043
0.00283286886174
0.00283277348371
0.00283086490594
0.00282175452899
0.00279494141402
0.00273745453285
0.00263633888026
0.00246457826481
0.00220261024098
0.00185970079328
0.00168791465528
0.00175184763353
0.00192570854289
0.00228095568117
0.00255458256132
0.00273768637932
0.00285882085573
0.002929277066
0.00296288736055
0.00297492227962
0.00297764220977
0.00297755427232
0.00297471505269
0.00296262950383
0.00292901005025
0.00285857424838
0.00273747971559
0.0025543479645
0.00228065265774
0.00192536940277
0.00175120056621
0.00177816915209
0.00195601019081
0.00231740215728
0.00259794942566
0.00279510861613
0.00292923713025
0.00300721475765
0.00304402007449
0.00305681159909
0.00305944580636
0.00305935157926
0.00305660876158
0.00304377429986
0.00300693262675
0.00292900995939
0.0027949724505
0.00259792786941
0.00231727215297
0.00195577822077
0.00177756710688
0.00178399950183
0.00196611313291
0.00232990785111
0.0026139705549
0.00282183516882
0.00296282346259
0.00304402768113
0.00308109918303
0.00309286915565
0.00309453260257
0.00309441290793
0.0030926126209
0.00308081009584
0.00304369910963
0.00296257921987
0.00282176916352
0.00261413296732
0.00232996163073
0.00196603386181
0.00178353013036
0.00178168998247
0.00196733128565
0.0023317613059
0.00261735793496
0.00283082372803
0.00297483646518
0.00305679959156
0.00309285083042
0.00310268754532
0.00310272047434
0.0031025679891
0.00310234274343
0.00309247887048
0.00305640642806
0.00297455239594
0.00283078705564
0.00261761988315
0.00233194273347
0.00196738276124
0.00178136072374
0.00177871060768
0.00196640730846
0.00233090220801
0.00261714706419
0.00283256870137
0.0029775457798
0.00305942663775
0.00309451656713
0.00310273775589
0.00310142358135
0.00310123486348
0.00310232334104
0.00309406578211
0.00305896766591
0.00297722168599
0.00283252265538
0.00261738204685
0.00233112697897
0.00196651706998
0.00177844927032
0.00177856483524
0.00196631540923
0.00233079461488
0.00261703158654
0.00283246524981
0.0029774490881
0.00305933305722
0.00309442128832
0.00310263211378
0.00310130718294
0.00310111309137
0.00310221121175
0.00309396627729
0.00305886954177
0.00297711817741
0.00283240675299
0.00261724464421
0.00233098955816
0.00196638942604
0.0017782541051
0.00178128868501
0.00196706900762
0.00233144999011
0.00261701288713
0.00283052848396
0.00297456918578
0.00305654660678
0.0030925966777
0.0031024113084
0.0031024219106
0.0031022664905
0.00310206144305
0.00309221327124
0.00305613421943
0.0029742600239
0.00283045378577
0.00261720910686
0.00233154925573
0.00196702606051
0.00178083373077
0.00178341677197
0.00196571477295
0.00232942235836
0.00261342487042
0.00282137625378
0.00296241908788
0.0030436520965
0.0030807267297
0.00309248518126
0.00309412523585
0.00309400290823
0.00309221973422
0.00308041766716
0.00304329005853
0.00296212833182
0.00282124568568
0.00261348321803
0.0023293531971
0.00196550103379
0.00178277645309
0.00177751298308
0.00195553801093
0.00231679906362
0.00259724675548
0.00279450661368
0.00292871579979
0.00300674424484
0.00304356343008
0.00305634671354
0.00305896340182
0.00305886564036
0.00305613046121
0.00304329046727
0.00300641497817
0.00292842068773
0.00279427649376
0.00259708603842
0.00231651387794
0.00195514467698
0.00177671605047
0.00175123238723
0.0019252392634
0.00228031442702
0.00255379614999
0.00273689643869
0.00285815724315
0.00292868470615
0.00296231407618
0.00297434242483
0.00297705014684
0.00297695695162
0.00297411711456
0.00296201892076
0.00292835367863
0.0028578142144
0.00273655284757
0.00255339030911
0.00227983009517
0.00192472070262
0.00175038163513
0.0016879910893
0.00185964886477
0.0022023866479
0.00246416064216
0.00263576723974
0.00273689915146
0.00279447756717
0.00282128883561
0.00283031557791
0.00283206625113
0.00283196091973
0.00283004020389
0.00282092350789
0.0027940729607
0.00273643154143
0.00263525789273
0.00246359796155
0.00220181312945
0.00185911460086
0.00168723753218
0.00156726462557
0.00174060547053
0.0020631442632
0.00230638742393
0.00246411233853
0.00255374552716
0.00259721046391
0.00261334169038
0.00261677646674
0.00261658093207
0.00261644637441
0.00261637862825
0.0026128144336
0.00259666031577
0.00255321636575
0.00246357914167
0.0023058420989
0.00206263163055
0.00174016845451
0.00156671957116
0.00136451335704
0.00154964301437
0.00184517968348
0.00206305564977
0.00220224413646
0.00228015041996
0.00231663306426
0.00232921464325
0.00233112267883
0.00233028563756
0.00233018169007
0.00233083984448
0.00232883548427
0.00231623700674
0.00227977284496
0.002201877655
0.00206269754943
0.00184485213892
0.00154936751777
0.00136419665022
0.00105294081893
0.00127892037518
0.00154951954821
0.00174039582141
0.00185938872771
0.00192494976381
0.00195524039062
0.0019653897964
0.0019666693184
0.001965801586
0.00196575603252
0.00196654676245
0.0019652306223
0.00195509117464
0.00192483279269
0.0018593030433
0.00174032496724
0.00154944391138
0.00127882512257
0.00105282759903
0.000653932601558
0.00105282278652
0.00136428243951
0.00156695527606
0.00168762203049
0.00175082606975
0.00177708417393
0.00178293848912
0.00178070315796
0.00177782518084
0.00177779029933
0.00178061172301
0.00178283832168
0.00177703490094
0.00175085692189
0.00168772642107
0.0015670845455
0.0013643704361
0.00105285794011
0.000654108094874
0.000721588020659
0.00133406349237
0.00182517221569
0.00215393449019
0.00235694832413
0.00246971544919
0.00252281183952
0.00254154145778
0.00254481320535
0.00254393843257
0.00254382379418
0.00254450053486
0.00254112013832
0.00252236395339
0.00246928367568
0.00235654191126
0.00215353784706
0.00182478598762
0.00133380812294
0.000721847381045
0.00133409556943
0.00153026989866
0.0018337163528
0.00206153123595
0.00221258739929
0.0023030266896
0.00235092771975
0.0023724660124
0.00238023503745
0.00238224386566
0.00238221449367
0.00238015431665
0.00237235361883
0.0023507892463
0.00230285426882
0.00221236861528
0.00206126355166
0.00183341992844
0.00152996468365
0.00133359946759
0.00182541144608
0.00183375839141
0.00209525301924
0.00230934007712
0.00245699740934
0.00254770801041
0.00259689034575
0.00261972572115
0.00262839207709
0.0026307590713
0.0026306933934
0.0026282151138
0.00261947033157
0.00259657004786
0.00254732080155
0.00245652427484
0.00230879156178
0.00209469239853
0.00183323452056
0.00182440269561
0.00215440509984
0.00206162588716
0.00230937252887
0.00252416108586
0.00267661953236
0.00277267397612
0.00282626284284
0.0028523956795
0.0028634293117
0.00286671657485
0.00286663737025
0.00286323970028
0.00285211625614
0.00282586342835
0.00277219861319
0.00267603301274
0.00252346550969
0.00230864591332
0.00206093008237
0.00215296780374
0.00235756523558
0.00221270629988
0.00245702965152
0.00267660948522
0.00283624080075
0.00294056500296
0.0030016013259
0.00303256796002
0.0030455215443
0.00304950541878
0.00304941644514
0.00304529187291
0.0030322078714
0.00300119145546
0.00294016720049
0.00283572238487
0.00267594079939
0.00245627683352
0.00221192091098
0.00235578347568
0.00247031627386
0.00230310156168
0.00254767966631
0.00277258876085
0.00294050012492
0.00305354302137
0.00312144361292
0.00315652714477
0.00317123636775
0.00317573927588
0.00317563002862
0.0031709428615
0.00315595497484
0.00312071432965
0.00305303741686
0.00294014705626
0.00277208346073
0.0025470309929
0.00230234204913
0.0024683867804
0.00252322440897
0.00235088300398
0.00259674437841
0.00282606415198
0.00300148296729
0.00312154908883
0.00319451225345
0.00323202726776
0.00324738196716
0.00325185155589
0.00325170397068
0.00324696694217
0.00323111684877
0.00319313959129
0.00312058641157
0.00300115756981
0.00282575857958
0.0025962771227
0.00235026000436
0.0025213865292
0.00254166859543
0.00237226063391
0.00261945779794
0.00285216568125
0.00303250393403
0.00315698121944
0.00323253945943
0.00327053617804
0.00328524196658
0.00328899134812
0.00328879416385
0.00328465729098
0.00326931409886
0.00323066361387
0.00315549290195
0.00303206236049
0.00285196950218
0.00261916073291
0.00237182272859
0.00254007163138
0.00254464482341
0.00237986765782
0.00262801933621
0.00286315110266
0.00304552736623
0.00317194709358
0.0032482637294
0.00328567203485
0.00329903601167
0.00330173832148
0.00330151254061
0.00329832228973
0.00328424712594
0.00324613185409
0.00317018918977
0.00304498852469
0.00286300757065
0.00262783739554
0.00237958918266
0.00254330194193
0.00254353793453
0.0023817479865
0.00263031562279
0.00286637516844
0.00304953624603
0.0031765466666
0.00325290071454
0.00328965740161
0.00330202144386
0.00330392760669
0.00330366052378
0.00330123553409
0.00328812762989
0.00325065478573
0.00317469706255
0.00304896132914
0.00286627139699
0.00263018134824
0.0023815429075
0.00254232714255
0.00254331478586
0.002381650938
0.00263022610895
0.00286629593974
0.00304947164636
0.00317650021304
0.00325287908539
0.00328965560617
0.00330203152115
0.00330394577789
0.00330367193133
0.00330124017096
0.00328812597846
0.00325063497566
0.00317465111909
0.0030488887901
0.0028661772917
0.00263006650772
0.00238140701644
0.00254203926938
0.00254399700309
0.00237958248559
0.00262775600645
0.0028629233535
0.00304533858351
0.00317181980619
0.00324820777908
0.00328566955022
0.00329905734789
0.00330177089929
0.00330154796372
0.00329834943474
0.00328424467488
0.00324606921728
0.00317004972444
0.0030447724863
0.00286273789884
0.0026275051234
0.00237920312975
0.00254249062185
0.00254067326115
0.00237181765771
0.00261903609981
0.0028517890473
0.00303219536723
0.00315678853221
0.00323246731738
0.00327055778606
0.00328530634939
0.00328906393383
0.00328886899566
0.00328472247513
0.00326932930576
0.00323057343889
0.00315526436765
0.00303170252273
0.00285152287491
0.00261863605487
0.00237123783356
0.00253885311366
0.00252203033258
0.00235034030168
0.00259619217052
0.00282551120309
0.00300103136132
0.00312125120059
0.00319438830138
0.00323202588335
0.00324743956851
0.00325191884484
0.00325177287556
0.00324701805419
0.00323109896154
0.00319298106102
0.00312023149813
0.00300062825301
0.00282510143874
0.00259559248374
0.00234954693842
0.00251993093634
0.00246910735453
0.00230253277959
0.0025470479459
0.00277190960537
0.00293987951135
0.00305304743442
0.00312110066594
0.0031563096689
0.0031710743565
0.00317558678339
0.00317547609806
0.00317076994447
0.00315570799797
0.00312031750604
0.00305246238749
0.00293942054763
0.00277127035725
0.00254624004271
0.00230158145025
0.00246688939414
0.002356512456
0.00221217877366
0.00245637408613
0.00267584932544
0.00283545138798
0.00293984013706
0.00300095257256
0.00303199092943
0.00304497017061
0.00304894556994
0.00304884881557
0.00304471567708
0.00303158359923
0.00300046577453
0.00293933395679
0.00283479504491
0.00267501801633
0.00245543918183
0.00221118728821
0.00235442806335
0.00215362553302
0.00206118720537
0.00230875011871
0.00252338575051
0.00267575120296
0.00277176389649
0.00282534586642
0.00285156787705
0.00286259872282
0.0028658116212
0.00286571814356
0.00286236587636
0.00285121820667
0.00282483565711
0.00277114586821
0.00267499594604
0.002522502382
0.00230782420334
0.00206027945986
0.00215188672835
0.00182494355076
0.00183342010008
0.00209470503708
0.00230861284539
0.00245613364182
0.00254674251859
0.00259584893968
0.00261863520687
0.00262724817656
0.00262956493262
0.00262947630809
0.00262700442063
0.00261827037246
0.00259538148651
0.00254617969979
0.00245546559889
0.00230785946434
0.00209393875032
0.00183269175638
0.00182366486449
0.00133393018912
0.00153000329253
0.00183324418599
0.00206087584434
0.00221176170947
0.00230204331589
0.00234980592497
0.00237122949248
0.00237890123896
0.00238084043391
0.002380778441
0.00237872716821
0.00237096761365
0.00234947949542
0.00230166014635
0.00221132238307
0.00206038911625
0.00183274138811
0.00152951000667
0.00133323638529
0.000721649861983
0.00133373772268
0.00182457642128
0.00215309226724
0.00235581750899
0.00246827096831
0.0025210726303
0.00253955299757
0.00254262245895
0.0025416085077
0.00254143818699
0.00254215381873
0.00253888713666
0.00252032734453
0.00246751632562
0.00235508368828
0.00215238352488
0.00182391596625
0.00133328262785
0.000721895513111
0.000765906952874
0.00152838566271
0.00214885724648
0.0025717913299
0.00283980054565
0.00299492687545
0.00307396170113
0.00310759035949
0.00311877554855
0.00312130807625
0.00312105954148
0.00311807821492
0.00310658226285
0.00307275049749
0.00299358030736
0.00283839726345
0.00257042682866
0.00214766216799
0.00152764585577
0.000766258572574
0.00152845946504
0.00171784555982
0.00205812251122
0.00232153219936
0.0025019673522
0.00261467759987
0.00267820331332
0.00270975628713
0.00272317806715
0.00272767322943
0.00272764275901
0.00272309345419
0.00270963030622
0.00267800815947
0.00261436273862
0.00250149586869
0.00232090908587
0.00205741379649
0.00171711661833
0.00152734820198
0.00214918246
0.00205815979342
0.00231757931351
0.00254258469438
0.00270423483193
0.00280836532652
0.00286868920366
0.00289967130447
0.00291321871698
0.00291781954814
0.00291775924675
0.00291305718558
0.0028994369367
0.00286837048941
0.00280790430559
0.00270357426009
0.00254172618301
0.00231661845167
0.00205716175736
0.00214708499219
0.00257241141298
0.00232162112179
0.00254261076333
0.00275245611364
0.00290889292787
0.00301249975562
0.00307397455032
0.00310683697921
0.0031212081566
0.00312607296706
0.00312597183912
0.00312093889914
0.00310636712845
0.00307335725031
0.00301190521029
0.00290819730605
0.00275151934809
0.00254153109446
0.00232045373927
0.0025695299
0.00284062345535
0.00250208547975
0.00270426220171
0.00290887972583
0.00306594308716
0.00317301731899
0.00323720417368
0.00327095334272
0.0032857794232
0.00329070669613
0.00329053031507
0.00328526240477
0.00326991056966
0.00323575291333
0.00317175442939
0.00306513757179
0.00290807430571
0.00270323859536
0.00250087472947
0.00283714402852
0.00299574432218
0.00261475016283
0.00280833407063
0.0030124123339
0.00317312025093
0.00328327742687
0.00334987179183
0.00338456545957
0.0033994509856
0.00340413832784
0.00340384377154
0.003398514871
0.00338256755113
0.00334689570713
0.00328047998488
0.00317158550775
0.00301174086296
0.00280749981009
0.00261363066564
0.00299200373178
0.0030745173389
0.0026781322863
0.00286852899205
0.00307390354102
0.0032378991052
0.00335080993232
0.00341892127342
0.00345365176988
0.00346785379211
0.00347191579752
0.00347151205232
0.00346649925842
0.00345064038265
0.00341418595468
0.0033461227918
0.00323506148975
0.00307309313223
0.00286795141637
0.00267722611436
0.00307092290966
0.0031077288403
0.00270947991456
0.0028993588903
0.0031069609514
0.00327243971049
0.00338682489904
0.00345523210906
0.0034890924461
0.00350205301953
0.00350517640893
0.00350472390232
0.00350045387562
0.00348546088126
0.00344937236154
0.00338071781272
0.00326853278926
0.00310584954836
0.00289900722147
0.00270883956188
0.00310454972105
0.00311848693572
0.00272268890024
0.00291277934545
0.00312144052895
0.00328774983504
0.00340257059915
0.00347054981975
0.00350327144559
0.00351480232963
0.00351688015457
0.00351643579383
0.0035131553629
0.00349945353503
0.00346429575257
0.00339591998734
0.00328341873474
0.00312021187583
0.00291256924566
0.00272227455582
0.00311575894644
0.00312071866979
0.00272701797977
0.00291730297194
0.00312632691768
0.00329286767388
0.00340764670933
0.00347517235957
0.0035070360499
0.00351753178458
0.00351884473331
0.00351838565208
0.00351587379164
0.00350316511793
0.00346881165348
0.00340087352846
0.00328844257194
0.00312508399575
0.00291714394169
0.00272671009565
0.00311823520826
0.0031203968729
0.00272691108564
0.00291721970564
0.00312626474198
0.00329283620732
0.00340765231493
0.00347521580373
0.00350710235275
0.00351760883704
0.00351892869656
0.00351846054042
0.00351594169044
0.00350322902902
0.00346885660779
0.00340088243684
0.00328840571669
0.00312500784069
0.00291703398133
0.00272655772349
0.00311782549128
0.00311752336934
0.00272236473239
0.00291252704532
0.00312125270429
0.00328765727087
0.00340260186275
0.003470698005
0.00350348991471
0.0035150444668
0.00351713122943
0.00351668399176
0.00351339392837
0.00349966660381
0.00346443792853
0.00339594530108
0.0032833069155
0.00311998395411
0.00291224644053
0.00272183581746
0.00311458095203
0.00310620757942
0.00270896549168
0.00289894470766
0.00310665149642
0.00327230239181
0.00338692120002
0.00345554124523
0.00348954042417
0.0035025537792
0.00350568478808
0.00350522958772
0.0035009483732
0.00348590007764
0.00344966702766
0.00338078507548
0.00326835511309
0.00310547362177
0.00289849025969
0.00270816590985
0.00310274081923
0.00307263638553
0.00267748396413
0.00286796803085
0.00307344196397
0.00323767034127
0.0033509107252
0.00341934454445
0.0034542788756
0.00346855908765
0.00347263029679
0.00347222392945
0.00346718916656
0.00345124374687
0.00341457406434
0.00334616888115
0.00323476250784
0.00307253615308
0.00286725839263
0.00267638538509
0.0030686998208
0.00299377130957
0.00261403880827
0.00280765075391
0.00301176203932
0.00317267171215
0.00328316118555
0.00335010228523
0.00338503567907
0.00340000841347
0.00340470438541
0.00340440460481
0.00339904809036
0.00338299169222
0.00334706036762
0.00328028171096
0.0031710362933
0.00301096352197
0.00280665310639
0.00261269827489
0.00298963943171
0.0028388190613
0.00250137665419
0.00270349429106
0.00290806489045
0.0030651911042
0.00317248017509
0.0032369277604
0.00327085893458
0.00328574313251
0.00329066939716
0.00329048157694
0.00328518911418
0.00326975227349
0.00323538842799
0.00317110878183
0.00306425436946
0.00290709868394
0.00270227680072
0.00249992241019
0.00283491533045
0.00257096669581
0.00232096325964
0.00254180693622
0.00275153729648
0.00290793394967
0.00301156437907
0.00307311996789
0.00310606059297
0.00312043465565
0.00312527405859
0.00312515742652
0.00312011721301
0.00310550811282
0.00307238914029
0.00301082653
0.00290706678285
0.00275040279064
0.00254050519715
0.00231953885601
0.00256765419867
0.00214819250538
0.0020575756318
0.00231678729647
0.00254162508076
0.00270317045291
0.00280723661992
0.00286751308339
0.00289844438682
0.00291193329489
0.00291648605877
0.00291640119445
0.00291169889653
0.00289808804434
0.00286703291168
0.00280658291438
0.00270229410796
0.00254053486023
0.00231558669051
0.00205632633987
0.00214571373042
0.00152797372371
0.00171731739586
0.0020573445752
0.00232054649911
0.00250080477374
0.00261335536045
0.00267673774477
0.00270816399114
0.00272147183437
0.00272588687509
0.00272581772666
0.00272127664649
0.00270785614527
0.00267631450742
0.00261278475801
0.00250006392976
0.00231965279256
0.00205638079315
0.00171635801165
0.00152661186789
0.0007659871481
0.00152769618414
0.00214765408485
0.00257013574444
0.00283765627676
0.00299228017063
0.00307086140258
0.00310412530529
0.00311502452935
0.00311736878079
0.00311704053693
0.00311410436098
0.00310276122808
0.00306921807833
0.00299046321772
0.00283577437238
0.00256831385551
0.00214606958911
0.00152670301949
0.000766332044099
0.000796971494121
0.00167898474644
0.00240075341981
0.00289876237388
0.00322130988943
0.00341456037689
0.00351900860161
0.00356851583743
0.00358885950428
0.00359557255575
0.00359525640487
0.00358797134894
0.00356724508606
0.00351740695972
0.00341260010129
0.00321912976481
0.00289662299364
0.00239891554907
0.00167788332639
0.00079746292903
0.00167914579838
0.00185950549348
0.00223075686971
0.0025236812815
0.00272810954471
0.00285885339634
0.00293497551801
0.00297451132047
0.00299242157425
0.00299888760191
0.00299890291591
0.00299248240238
0.00297463782707
0.00293509401295
0.00285881439593
0.00272777603786
0.00252300839271
0.00222982584619
0.00185843824813
0.00167745077405
0.00240124244814
0.0022308161487
0.00249540289206
0.00273337532703
0.00290802472059
0.00302322462791
0.00309211556699
0.00312876348434
0.00314562933086
0.00315173525705
0.00315170011888
0.00314554635154
0.00312858735243
0.00309183735209
0.0030229367969
0.00290754818968
0.00273252941908
0.00249428096268
0.00222949676585
0.00239805804188
0.00289962744811
0.0025238019096
0.00273341166155
0.00294535792928
0.00310755633222
0.00321746871509
0.00328447232274
0.00332036297533
0.00333663631558
0.0033423642765
0.00334220233993
0.00333615169231
0.00331935005185
0.00328303754782
0.00321610010599
0.00310661077573
0.00294454841652
0.00273229794017
0.00252243037896
0.00289525536653
0.00322244894669
0.00272825816011
0.00290806699871
0.00310757726662
0.00326513907354
0.00337384644817
0.00343930011493
0.00347373938249
0.00348902174347
0.00349409175468
0.00349373649726
0.0034878253023
0.00347118091742
0.00343538570642
0.00336987420646
0.00326264551524
0.00310646358034
0.00290716581075
0.0027270060671
0.00321715837586
0.00341570117432
0.00285892733762
0.0030232116075
0.0032178268646
0.00337468431529
0.00348218923666
0.0035461822504
0.00357873435964
0.00359255719659
0.00359672812458
0.00359619187922
0.0035906114626
0.00357443687364
0.00353921495656
0.00347437056132
0.00336914789464
0.00321560701334
0.00302249263377
0.00285792979564