/*--------------------------------*- C++ -*----------------------------------*\
| =========                 |                                                 |
| \\      /  F ield         | OpenFOAM: The Open Source CFD Toolbox           |
|  \\    /   O peration     | Version:  3.0.1                                 |
|   \\  /    A nd           | Web:      www.OpenFOAM.org                      |
|    \\/     M anipulation  |                                                 |
\*---------------------------------------------------------------------------*/
FoamFile
{
    version     2.0;
    format      ascii;
    class       volScalarField;
    location    "2.6";
    object      ddt0(epsilon);
}
// * * * * * * * * * * * * * * * * * * * * * * * * * * * * * * * * * * * * * //

dimensions      [0 2 -4 0 0 0 0];

internalField   nonuniform List<scalar> 
7968
(
-0.00120324043914
-0.00130396253779
-0.00137219567334
-0.00140459918999
-0.00141698606467
-0.00142047179777
-0.00142081912212
-0.00142054882102
-0.00142036914623
-0.00142044456433
-0.0014206205918
-0.00142077282861
-0.00142105470642
-0.00142135752065
-0.00142099085914
-0.00141743666971
-0.00140494262207
-0.00137240874959
-0.00130407538741
-0.00120325644376
-0.00130396224642
-0.0018658029279
-0.00224509578882
-0.00245137514696
-0.00255101942068
-0.00259193274053
-0.00260492725161
-0.00260784480911
-0.00260853106475
-0.00260907892306
-0.00260940157154
-0.00260944656951
-0.00260921833526
-0.00260657663081
-0.0025936605033
-0.00255262185849
-0.00245264628502
-0.00224596040357
-0.0018662904898
-0.00130405760385
-0.00137223374519
-0.002245190336
-0.002872141148
-0.00323686098682
-0.00342718044082
-0.00351293323137
-0.00354377643831
-0.0035519450654
-0.00355380911647
-0.00355471985061
-0.00355519930122
-0.00355514910681
-0.00355395192491
-0.00354615901802
-0.00351542588936
-0.00342943369053
-0.00323866480463
-0.00287337348881
-0.00224584896142
-0.00137238411528
-0.00140465224736
-0.00245156580333
-0.00323692172206
-0.00371194033046
-0.00396832515166
-0.00408602569445
-0.00412823129523
-0.00413845288231
-0.00413991343071
-0.00414059107728
-0.00414123571537
-0.00414165008779
-0.00414098946449
-0.00413117037912
-0.00408902242627
-0.00397107367246
-0.00371422791668
-0.00323854043694
-0.00245246103648
-0.00140487214257
-0.00141704947171
-0.00255116741844
-0.00342729696644
-0.00396833711342
-0.00426261345006
-0.00439694248533
-0.00444882487274
-0.00446788486431
-0.00447167048089
-0.00447221366726
-0.00447276566493
-0.00447311807938
-0.00446987287011
-0.00445101918022
-0.00440021970301
-0.00426576888644
-0.00397102417483
-0.00342930067125
-0.002552316614
-0.00141735296425
-0.0014205331672
-0.00259211160053
-0.00351304425818
-0.00408608063818
-0.00439689579988
-0.00455476518509
-0.00462151675238
-0.00463978213249
-0.00464184141884
-0.00464157732698
-0.00464226122756
-0.00464362953702
-0.00464218897399
-0.00462398313962
-0.00455706547998
-0.00440033517338
-0.00408906608049
-0.00351535165608
-0.00259354217732
-0.00142091475288
-0.00142087636788
-0.00260503594471
-0.0035438084774
-0.00412826595904
-0.00444900769426
-0.00462155747869
-0.00468667564087
-0.00470109133342
-0.00470044057517
-0.00469905593193
-0.00469989374005
-0.0047026765079
-0.00470413240879
-0.00468972261157
-0.00462406932117
-0.00445101415367
-0.00413142241929
-0.00354633470588
-0.00260662628361
-0.00142131759126
-0.00142058693618
-0.00260781545937
-0.00355177213233
-0.00413825208087
-0.00446793086126
-0.00463961966571
-0.00470084593329
-0.00471128174144
-0.00470783359331
-0.00470526570066
-0.00470625877948
-0.00471053343973
-0.00471493278484
-0.00470450797061
-0.00464261496831
-0.00447016918468
-0.00414167934183
-0.00355449023534
-0.00260951803725
-0.00142106574343
-0.00142035793155
-0.00260828651091
-0.00355329711556
-0.00413927168255
-0.0044713805427
-0.00464126118924
-0.00469962359471
-0.00470712352042
-0.00470195784393
-0.00469870515342
-0.0046997917948
-0.00470509893676
-0.00471131263824
-0.00470374542393
-0.00464465470758
-0.00447394166353
-0.00414297940126
-0.00355618036412
-0.00261006119381
-0.00142086278954
-0.0014203261854
-0.00260857715603
-0.00355381788379
-0.00413947904604
-0.00447152278065
-0.00464045864413
-0.00469747558177
-0.00470353528797
-0.00469746144541
-0.00469376776079
-0.00469509025591
-0.00470083940648
-0.00470799656074
-0.00470181547977
-0.00464400258934
-0.00447420040214
-0.00414324340121
-0.00355677755664
-0.00261039530669
-0.00142085487171
-0.00142036731823
-0.00260865702216
-0.00355391981214
-0.00413958138885
-0.00447161969393
-0.00464055120126
-0.00469757699462
-0.00470364326232
-0.00469758242829
-0.00469391048035
-0.00469523827622
-0.00470097804851
-0.00470811949702
-0.00470192795994
-0.00464411547846
-0.0044743126694
-0.00414334753557
-0.00355687350777
-0.00261047361725
-0.00142089318535
-0.00142044222989
-0.00260851009325
-0.00355358670679
-0.00413956329325
-0.00447165648232
-0.00464153007758
-0.00469988683209
-0.00470739422744
-0.00470226663089
-0.00469906194647
-0.0047001396384
-0.00470541886151
-0.00471160033289
-0.00470402879354
-0.00464494977489
-0.00447424361998
-0.00414325772789
-0.00355645079154
-0.00261027141067
-0.00142093736553
-0.00142069227812
-0.00260816114797
-0.00355223323089
-0.00413873579941
-0.00446836794399
-0.00464004923266
-0.00470126340178
-0.00471170720813
-0.00470829429791
-0.00470577024452
-0.00470676007933
-0.00471100538015
-0.00471538160692
-0.00470495196551
-0.00464307330142
-0.00447063793862
-0.0041421300686
-0.00355490881095
-0.00260982486626
-0.00142115656996
-0.00142099223626
-0.00260546361956
-0.00354440498064
-0.00412890643545
-0.00444957350295
-0.00462215111611
-0.00468725136575
-0.00470167558526
-0.00470105970239
-0.0046997172826
-0.00470055801285
-0.00470331413128
-0.00470474623081
-0.00469032099785
-0.00462466638482
-0.00445160846152
-0.00413199685595
-0.00354686248072
-0.00260700169112
-0.00142141277478
-0.00142064173989
-0.00259259656976
-0.00351370660607
-0.00408683102294
-0.00439734318392
-0.00455543562071
-0.00462219916906
-0.00464047683834
-0.00464256287611
-0.00464232546722
-0.00464301891141
-0.0046443792239
-0.00464291930873
-0.00462469125815
-0.00455775331502
-0.00440065534649
-0.00408970754176
-0.0035159201227
-0.00259393690865
-0.0014209976443
-0.00141713533889
-0.00255158296872
-0.00342794721072
-0.0039691071041
-0.00426345239565
-0.00439748270681
-0.00444957930485
-0.00446866361249
-0.00447247174009
-0.00447304462183
-0.00447360863269
-0.00447394836817
-0.00447068420338
-0.00445178101024
-0.00440058841365
-0.00426648430792
-0.00397167867619
-0.00342983744307
-0.00255267027946
-0.00141740592573
-0.00140470934991
-0.00245189950537
-0.0032374550872
-0.00371262669152
-0.00396911577138
-0.00408689813572
-0.00412917811691
-0.00413939033358
-0.00414082048353
-0.00414152457765
-0.00414217715811
-0.00414255727288
-0.00414190620826
-0.0041320419553
-0.00408979481402
-0.00397177557453
-0.00371478967771
-0.00323895254842
-0.00245269018978
-0.00140488742795
-0.00137225742025
-0.00224541471646
-0.00287250555087
-0.00323736090996
-0.00342779715317
-0.00351365470206
-0.00354453875731
-0.00355271775701
-0.00355456878034
-0.00355548483798
-0.00355596000294
-0.00355591470838
-0.00355471557013
-0.00354689317357
-0.00351608196465
-0.00342997324599
-0.00323905392953
-0.0028736127007
-0.00224596064654
-0.00137236419786
-0.00130397798447
-0.00186593984238
-0.00224529709565
-0.00245165006161
-0.00255137491105
-0.00259235919161
-0.00260540014786
-0.00260833116898
-0.00260902485283
-0.00260957869375
-0.00260990652729
-0.00260995375851
-0.00260971952343
-0.00260704420295
-0.00259405980462
-0.00255291700002
-0.00245283677304
-0.00224605369412
-0.00186629977057
-0.00130402575176
-0.00120323705711
-0.00130397942538
-0.00137222178799
-0.00140463972257
-0.00141704497011
-0.00142055488921
-0.00142092014476
-0.00142066067471
-0.00142048832597
-0.00142056594712
-0.001420741242
-0.00142088828778
-0.00142116137587
-0.00142144656175
-0.00142105623093
-0.00141746931467
-0.00140494653064
-0.0013723934194
-0.0013040441479
-0.00120322905537
-0.00130136653381
-0.00185196353194
-0.00222655319587
-0.00242992956533
-0.00252730666862
-0.00256642272107
-0.00257782098808
-0.00257901712045
-0.00257808747204
-0.00257760139964
-0.00257785463797
-0.00257878631562
-0.00258002797544
-0.00257898351298
-0.00256757710332
-0.00252829502312
-0.00243063480706
-0.00222693084919
-0.00185209359377
-0.00130139467346
-0.00185188684562
-0.00212825856764
-0.00245780448689
-0.00265416378462
-0.0027531174919
-0.00279477372636
-0.00280784712015
-0.00280975051593
-0.00280894186812
-0.00280834642891
-0.00280848154358
-0.00280932347333
-0.00281032188859
-0.0028085251399
-0.00279545874937
-0.00275370769418
-0.0026545838536
-0.00245805164428
-0.00212844761979
-0.00185216953959
-0.00222653658789
-0.00245778479248
-0.00282535535789
-0.00306039657378
-0.00318697699106
-0.00324469690874
-0.00326536744331
-0.0032699836203
-0.00326976303286
-0.00326918899991
-0.00326934271261
-0.00327019114035
-0.00327061894764
-0.00326611297478
-0.00324545104724
-0.00318764010557
-0.00306090163734
-0.00282570195686
-0.00245809317272
-0.0022269634949
-0.0024299953046
-0.0026541788557
-0.00306043280838
-0.00333113606218
-0.00348321102678
-0.0035559918527
-0.00358402654087
-0.00359144334823
-0.00359186945075
-0.0035913840914
-0.00359156148393
-0.0035923522947
-0.00359215041976
-0.00358483949971
-0.00355681249361
-0.00348394666117
-0.00333172484755
-0.00306087822488
-0.00265460712119
-0.00243055940844
-0.00252743926013
-0.00275316860406
-0.00318706310453
-0.00348326700391
-0.00365359660173
-0.00373726934998
-0.00377146010482
-0.00378191852333
-0.00378320094555
-0.00378269130568
-0.00378284242523
-0.00378360558544
-0.00378249199225
-0.0037721105147
-0.00373802601626
-0.00365436218639
-0.00348390312225
-0.00318758301925
-0.00275370605247
-0.00252815318926
-0.00256658189104
-0.00279485120663
-0.00324482013506
-0.00355609427713
-0.00373725445858
-0.00383005802038
-0.00386891434301
-0.00388018024393
-0.00388111112395
-0.00388021291671
-0.00388037486298
-0.00388154581276
-0.00388079289398
-0.00386957764549
-0.00383069539606
-0.00373804044689
-0.00355675316242
-0.00324538960548
-0.00279547816698
-0.00256743669412
-0.00257796286287
-0.0028079211648
-0.00326549504981
-0.0035841511715
-0.00377153974262
-0.00386892090145
-0.00390864097632
-0.00391905208776
-0.00391884875818
-0.0039172764825
-0.00391746837582
-0.00391936580958
-0.00391977007779
-0.00390941033023
-0.00386958916993
-0.00377207554281
-0.0035848116657
-0.00326610266241
-0.00280860907834
-0.00257892882565
-0.00257909487411
-0.00280978425611
-0.00327006435644
-0.00359151818524
-0.00378195517511
-0.00388011509979
-0.00391897593288
-0.00392790673973
-0.00392619232937
-0.00392384021424
-0.00392407446421
-0.00392678966092
-0.0039287031249
-0.0039198677402
-0.00388089924662
-0.00378253949546
-0.00359223275166
-0.0032707184546
-0.00281051366695
-0.0025801370935
-0.00257803551992
-0.00280890113246
-0.0032697508069
-0.00359183597521
-0.003783138489
-0.00388092311328
-0.00391862986744
-0.00392605045729
-0.00392317946467
-0.00392035502518
-0.00392065717141
-0.00392392347582
-0.00392697998412
-0.00391964342228
-0.00388182280073
-0.00378380941632
-0.00359260949513
-0.00327045210321
-0.002809662603
-0.00257913408657
-0.0025773730175
-0.00280821396055
-0.00326906552994
-0.00359122423589
-0.00378251514826
-0.00387988979507
-0.00391688075689
-0.00392349140296
-0.00392010733636
-0.00391710339554
-0.00391745005898
-0.00392095947478
-0.00392453611575
-0.00391798301593
-0.00388085718853
-0.00378323568288
-0.00359202608256
-0.00326979184244
-0.00280899307787
-0.00257850413827
-0.0025774442287
-0.00280825724925
-0.00326910690094
-0.00359126493473
-0.00378255276135
-0.00387992499945
-0.00391691492667
-0.00392352956217
-0.00392014881668
-0.00391714574255
-0.0039174949798
-0.0039210049233
-0.00392458091202
-0.00391802917687
-0.00388090123637
-0.00378327891009
-0.00359206915878
-0.00326983458079
-0.00280903935012
-0.00257857737653
-0.00257822978859
-0.0028090229831
-0.00326986870932
-0.00359195245928
-0.00378324579325
-0.00388102449341
-0.00391872865931
-0.00392615260965
-0.00392329157796
-0.00392047576805
-0.00392077738131
-0.00392404112655
-0.00392710001031
-0.00391976393342
-0.00388194162753
-0.00378392965287
-0.00359272997268
-0.00327057219267
-0.00280978981364
-0.00257932913644
-0.00257937918364
-0.00280997073825
-0.00327025006936
-0.00359170565023
-0.0037821220017
-0.00388026802749
-0.00391911590448
-0.00392805792426
-0.00392634915871
-0.0039240129716
-0.00392425101591
-0.00392696241544
-0.00392887780717
-0.00392003293756
-0.0038810737934
-0.00378272359659
-0.0035924232737
-0.00327090378352
-0.00281070333023
-0.00258041746963
-0.00257830148736
-0.00280815130708
-0.00326573345232
-0.00358439569153
-0.00377174275747
-0.00386911639658
-0.00390881851671
-0.00391922793549
-0.00391903127141
-0.00391746438971
-0.00391766421182
-0.00391956530745
-0.00391996341567
-0.00390961345982
-0.00386981072245
-0.00377229617445
-0.00358505425559
-0.00326633413694
-0.00280883580116
-0.00257925245405
-0.0025669253257
-0.0027950983652
-0.00324508847869
-0.00355636971449
-0.00373741943247
-0.00383027026335
-0.00386913229584
-0.00388038725428
-0.00388131590921
-0.00388042277467
-0.00388059236141
-0.00388176647748
-0.00388101846242
-0.00386981837128
-0.00383092482193
-0.00373814716503
-0.00355701564647
-0.00324564200298
-0.00279571155097
-0.00256775628458
-0.00252774205949
-0.00275339738678
-0.00318733263365
-0.00348357325656
-0.00365389030411
-0.00373740767926
-0.00377171177534
-0.00378217611554
-0.00378345619552
-0.00378295439112
-0.00378311191026
-0.00378387669907
-0.00378276959578
-0.00377237769311
-0.00373815586747
-0.00365464068831
-0.00348418930844
-0.00318782569046
-0.00275391046831
-0.00252841770649
-0.00243022762306
-0.00265436482198
-0.00306067004258
-0.00333142689967
-0.00348353443382
-0.00355631474842
-0.00358436879238
-0.00359178185051
-0.00359219946111
-0.0035917228233
-0.00359190509102
-0.00359269383216
-0.00359250217756
-0.00358518680312
-0.00355712850677
-0.00348425660424
-0.00333198780011
-0.0030610755069
-0.00265474715008
-0.00243073042246
-0.00222668160481
-0.00245791894526
-0.00282554180844
-0.00306064256145
-0.00318727070302
-0.00324502200018
-0.00326570953795
-0.00327033190081
-0.00327011320767
-0.00326954707835
-0.00326970544009
-0.00327055487724
-0.00327098360045
-0.0032664668507
-0.00324577663283
-0.00318792125684
-0.00306111449177
-0.00282583439183
-0.00245815780072
-0.0022270284909
-0.0018519636748
-0.00212835673456
-0.00245794811387
-0.00265436635598
-0.00275337723554
-0.00279508008246
-0.00280818555495
-0.00281010816884
-0.0028093131316
-0.00280872948804
-0.002808871289
-0.00280971273998
-0.00281070339624
-0.00280888365881
-0.00279577439505
-0.00275395799461
-0.00265475113675
-0.00245812971863
-0.00212845116487
-0.00185215236902
-0.00130136179832
-0.00185204451105
-0.0022266920778
-0.00243012842642
-0.00252756583656
-0.00256673882393
-0.00257817984924
-0.00257940277756
-0.00257849324412
-0.00257802230796
-0.00257828179095
-0.00257920830526
-0.00258043393193
-0.00257935492015
-0.00256789353267
-0.00252853352379
-0.00243078605096
-0.00222699733284
-0.00185208383267
-0.00130136493101
-0.00136743925976
-0.00221832603915
-0.00283149221371
-0.00318693449151
-0.00337201138615
-0.00345560345939
-0.00348556600884
-0.00349220024876
-0.00349166280883
-0.00349062159442
-0.00349095588513
-0.00349260859386
-0.00349361632816
-0.00348724326988
-0.00345729563183
-0.00337347316614
-0.00318798373886
-0.00283205952861
-0.00221851597157
-0.00136747559497
-0.00221819341684
-0.00245010768864
-0.00281657342069
-0.00305039367446
-0.00317648339801
-0.00323450376069
-0.00325579285277
-0.00326082717535
-0.00326066905181
-0.00325997846668
-0.00326011202292
-0.00326104993181
-0.0032614058409
-0.00325649186132
-0.00323521909718
-0.00317710773685
-0.00305085132714
-0.00281686633285
-0.00245037260923
-0.00221868137696
-0.00283141293068
-0.00281650164959
-0.00313865618147
-0.00336511288038
-0.00349484046485
-0.00355810695726
-0.00358315654369
-0.0035900370788
-0.00359040566517
-0.00358977624642
-0.00358988880865
-0.00359072640732
-0.00359053158541
-0.00358376159562
-0.00355874758071
-0.00349544665983
-0.00336563336706
-0.00313909319493
-0.00281698684913
-0.00283216251618
-0.00318697511535
-0.00305033455703
-0.00336511848898
-0.00360021409897
-0.00374081792312
-0.0038125221823
-0.00384264621852
-0.00385176137645
-0.00385222794795
-0.00385161875876
-0.00385171319163
-0.00385249785733
-0.00385222808149
-0.00384322159761
-0.00381313555751
-0.00374142519417
-0.00360078392903
-0.00336566604034
-0.00305099927283
-0.00318794033898
-0.00337215637528
-0.00317646067598
-0.00349487826946
-0.00374085454176
-0.00389166264533
-0.00397035390322
-0.00400402026212
-0.00401524677845
-0.00401727861573
-0.00401670169891
-0.00401681811721
-0.00401760080645
-0.00401666073751
-0.00400571888484
-0.00397089099912
-0.00389221381568
-0.00374141722027
-0.00349547751203
-0.0031772580082
-0.00337333221784
-0.00345579275428
-0.00323450694198
-0.00355817086175
-0.00381259905128
-0.00397043746247
-0.00405273022476
-0.00408834617341
-0.00410211747876
-0.00410522453275
-0.0041043015019
-0.0041045185767
-0.0041058377333
-0.00410651123917
-0.00409602417651
-0.00405669346174
-0.00397084492683
-0.00381311726513
-0.00355878577499
-0.00323539502867
-0.00345716031394
-0.00348573496084
-0.00325579700294
-0.00358322235132
-0.00384272056656
-0.00400404982866
-0.00408566687822
-0.0041221707642
-0.00413763583769
-0.00414104288543
-0.0041394973865
-0.00413988574345
-0.00414215063727
-0.00414549474352
-0.00413822326266
-0.00409790898372
-0.00400573829633
-0.00384323728578
-0.00358384620441
-0.00325673890487
-0.0034872468619
-0.00349227541577
-0.00326079787778
-0.00359006840666
-0.00385179706093
-0.00401378546271
-0.00409368958558
-0.00413003513236
-0.00414530835128
-0.00414816022392
-0.00414593229721
-0.0041464706789
-0.00414972927608
-0.0041553150963
-0.00415092330043
-0.00411246214935
-0.00401774332601
-0.00385231130463
-0.0035907036466
-0.00326176987603
-0.00349388326213
-0.00349156650493
-0.0032605765248
-0.00359037140406
-0.00385219625268
-0.00401458114876
-0.004093555621
-0.00412877857797
-0.0041429430015
-0.00414486634252
-0.00414200664006
-0.00414259457233
-0.00414666108989
-0.00415364773867
-0.00415104847099
-0.00411416387405
-0.00401958751633
-0.00385266114414
-0.00359101781454
-0.00326156636213
-0.00349323172627
-0.00349030306311
-0.00325980547528
-0.00358966281531
-0.00385151030319
-0.00401389806004
-0.00409244642911
-0.00412692011331
-0.00414026173274
-0.00414145705255
-0.0041382112178
-0.00413886301061
-0.00414330592583
-0.0041510273551
-0.00414926436808
-0.00411311748423
-0.00401894680099
-0.00385199087192
-0.0035903229022
-0.00326080583215
-0.00349199626084
-0.0034904073385
-0.0032598544529
-0.00358969737011
-0.00385153441333
-0.00401392119382
-0.00409249650199
-0.00412702441358
-0.00414040908984
-0.00414161958657
-0.00413837991269
-0.00413902209675
-0.00414346137585
-0.00415117666987
-0.0041493724701
-0.00411317177366
-0.00401897268011
-0.00385201721217
-0.00359035998104
-0.00326086060011
-0.00349210593907
-0.00349186373563
-0.0032607180607
-0.00359047268896
-0.00385226937858
-0.00401465301548
-0.00409370993729
-0.00412909257501
-0.00414337349892
-0.00414533348054
-0.00414248324401
-0.00414306066954
-0.00414712127358
-0.00415408227158
-0.00415137222492
-0.00411432628583
-0.00401966520418
-0.00385273942736
-0.00359112473561
-0.00326172090166
-0.00349353722564
-0.00349273198402
-0.00326101805563
-0.0035902320173
-0.00385193126315
-0.00401372361865
-0.00409325121044
-0.0041293238335
-0.0041444850315
-0.00414730787878
-0.00414508003793
-0.00414561683055
-0.00414887945196
-0.00415449655077
-0.00415021424848
-0.00411203133607
-0.00401768834609
-0.00385244831181
-0.00359087241316
-0.00326200559557
-0.00349434415149
-0.00348629809309
-0.00325607349449
-0.00358343991663
-0.00384291218415
-0.00400399164949
-0.00408459793471
-0.00411986549395
-0.00413470621849
-0.00413794557036
-0.00413639387275
-0.00413678079104
-0.00413905693314
-0.0041425658424
-0.00413591128845
-0.00409684327145
-0.00400569077065
-0.003843426972
-0.00358406447657
-0.00325702911379
-0.00348780534767
-0.00345638950457
-0.00323480924134
-0.00355843134695
-0.00381285500742
-0.00397069479139
-0.00405231110654
-0.0040864730266
-0.00409916471278
-0.00410198061771
-0.00410104414753
-0.00410126220302
-0.00410259493573
-0.00410355809318
-0.00409415352629
-0.00405628883168
-0.00397115853173
-0.00381337099179
-0.00355904125245
-0.00323570489314
-0.00345774187199
-0.00337270500331
-0.00317675216907
-0.00349515568106
-0.00374114079013
-0.00389196265559
-0.00397067435927
-0.0040040139316
-0.00401481372371
-0.00401665139136
-0.00401606818008
-0.00401618798237
-0.00401698113214
-0.00401623683611
-0.00400572494586
-0.0039712198184
-0.0038925168866
-0.00374169411549
-0.0034957450821
-0.00317754702778
-0.00337385152501
-0.00318741253795
-0.00305058299567
-0.00336538765475
-0.00360051301272
-0.0037411302579
-0.00381283601084
-0.0038429213847
-0.00385201067677
-0.00385243682559
-0.00385182402235
-0.00385192334144
-0.00385271933737
-0.00385249541136
-0.00384350817938
-0.00381345798296
-0.00374173615083
-0.00360107202259
-0.00336591744097
-0.00305122748783
-0.00318832207222
-0.00283170263426
-0.00281669253691
-0.00313889708803
-0.00336540993782
-0.00349517362039
-0.00355845575541
-0.00358350400136
-0.00359038064286
-0.00359074475969
-0.00359011960918
-0.00359023814528
-0.00359108162671
-0.00359089703481
-0.00358412921949
-0.00355911126518
-0.00349578473643
-0.00336591997486
-0.00313930514217
-0.0028171298852
-0.00283236322272
-0.00221834099081
-0.00245025448253
-0.00281679263442
-0.0030506962022
-0.00317685922289
-0.00323493329339
-0.00325625689527
-0.00326131157651
-0.00326116928093
-0.003260493145
-0.00326063641108
-0.0032615766427
-0.00326192791137
-0.00325699553465
-0.00323568183532
-0.00317750098587
-0.00305114565309
-0.002817042513
-0.00245043865581
-0.00221871234725
-0.00136743698994
-0.00221848963479
-0.00283177086549
-0.0031873210428
-0.00337249950755
-0.0034561784548
-0.0034862023767
-0.00349287367448
-0.00349236343016
-0.00349134326356
-0.0034916901098
-0.00349334349389
-0.0034943367137
-0.00348792295266
-0.00345790063262
-0.00337396593414
-0.00318833750742
-0.0028322619683
-0.00221856891054
-0.00136745296708
-0.00139833881312
-0.0024129153933
-0.00317408557228
-0.0036345867202
-0.00388671044641
-0.00400812187199
-0.00405606059444
-0.00406912579287
-0.00406973736486
-0.00406839957274
-0.00406881425623
-0.00407092225289
-0.0040709294994
-0.00405825557224
-0.00401039759486
-0.00388873941345
-0.0036361139881
-0.0031749873205
-0.00241326887877
-0.00139837441399
-0.00241273663104
-0.00263768589783
-0.00304062212558
-0.00330765831879
-0.00345799919364
-0.00353118479549
-0.00356044251441
-0.00356871125325
-0.00356934248878
-0.0035686133237
-0.00356875008661
-0.00356973391655
-0.00356931078103
-0.00356118339781
-0.00353196305229
-0.00345870442212
-0.00330821312594
-0.00304102792659
-0.00263809321796
-0.00241351824719
-0.00317393553691
-0.00304051016154
-0.00335489267321
-0.00358829821435
-0.00372760955159
-0.00379890315828
-0.00382912766297
-0.0038385414169
-0.00383988799354
-0.00383937227165
-0.00383947014725
-0.00384016678738
-0.00383896853332
-0.00382967765175
-0.00379952155727
-0.00372823753979
-0.00358890126238
-0.00335547775179
-0.00304122177011
-0.00317518868091
-0.00363455575619
-0.00330753744887
-0.00358827686754
-0.00381508684241
-0.00395687282048
-0.00403193738946
-0.0040655582157
-0.00407894195794
-0.00408303924199
-0.00408282153398
-0.00408298067177
-0.00408349218137
-0.00408175646872
-0.00407089429473
-0.00403467447894
-0.00395747111269
-0.00381572080965
-0.00358898257446
-0.00330847936889
-0.00363618187751
-0.0038867758094
-0.00345790091097
-0.00372760197291
-0.00395689005983
-0.00410259150975
-0.00418089101955
-0.00421985464864
-0.0042402467792
-0.0042476208415
-0.00424745181621
-0.00424788434174
-0.00424888514753
-0.00425033774168
-0.00424013375205
-0.00419732476943
-0.00410825472475
-0.00395749399428
-0.00372834951165
-0.00345900388539
-0.00388873708176
-0.0040082064393
-0.00353110208885
-0.00379890346224
-0.0040319669444
-0.00417748681435
-0.00425753326085
-0.0043018545872
-0.00432931626144
-0.00434014098724
-0.0043396986418
-0.00434053698219
-0.00434260371798
-0.00434908353483
-0.00434465204958
-0.00430010819533
-0.00419977831278
-0.0040347259034
-0.00379966275559
-0.00353231464322
-0.00401046211774
-0.00405608775751
-0.00356035098617
-0.00382911448998
-0.00406299039392
-0.00420651821092
-0.00428663932582
-0.00433324161785
-0.00436491419694
-0.00437751125813
-0.00437631156556
-0.00437750219541
-0.00438099578878
-0.00439298227005
-0.00439704123011
-0.00435584413139
-0.00424981211206
-0.00407282427306
-0.0038298785925
-0.00356163105928
-0.00405855181455
-0.00406902024753
-0.00356858119717
-0.00383848922219
-0.00407070426286
-0.00421321938511
-0.00429131056541
-0.00433773822524
-0.00436994329423
-0.00438250573283
-0.00438027830745
-0.00438170448292
-0.0043867544684
-0.00440271433724
-0.00441294827897
-0.00437701132029
-0.00426998450541
-0.00408771272294
-0.00383925056832
-0.00356989591896
-0.00407159334743
-0.00406942692798
-0.00356915063304
-0.00383976868778
-0.00407202982238
-0.00421318212015
-0.00428971358026
-0.00433453685134
-0.00436546096764
-0.00437685943835
-0.00437359006954
-0.0043750923588
-0.00438139411191
-0.00439958462849
-0.0044128678321
-0.004379894172
-0.00427406238816
-0.00409149375899
-0.00384055858764
-0.00357048390576
-0.00407203980689
-0.00406782179863
-0.0035683426595
-0.00383917670371
-0.00407166222701
-0.00421265368423
-0.00428862899965
-0.00433244414383
-0.00436214082809
-0.00437240992982
-0.00436842813532
-0.00436997406106
-0.00437700040866
-0.00439635793189
-0.00441092876664
-0.00437896590251
-0.0042736615448
-0.00409119926376
-0.00383998729995
-0.00356968755866
-0.00407044971311
-0.00406795715163
-0.00356839585101
-0.00383920585108
-0.00407170497271
-0.00421278938243
-0.00428890075456
-0.00433282586843
-0.00436257394339
-0.00437286206024
-0.00436888434626
-0.00437042888382
-0.00437745287528
-0.00439679470089
-0.00441131113103
-0.00437924480207
-0.00427380358088
-0.00409124522842
-0.0038400212879
-0.00356975065234
-0.00407059588942
-0.00406982353711
-0.00356930883353
-0.00383985703968
-0.00407216078184
-0.00421359399506
-0.00429052613907
-0.00433566163167
-0.00436674668634
-0.00437819585332
-0.00437493700599
-0.00437643700856
-0.00438273051066
-0.00440088065519
-0.00441401827274
-0.00438073333528
-0.00427449103713
-0.00409163283523
-0.00384065881958
-0.00357066471238
-0.00407245474477
-0.00406964544395
-0.00356883207453
-0.0038386351534
-0.00407049378437
-0.0042123482394
-0.00428966185339
-0.00433538626686
-0.00436713951424
-0.00437957037498
-0.00437734593505
-0.00437876923333
-0.00438381277806
-0.00439986970518
-0.00441051509514
-0.00437531344009
-0.00426910062183
-0.0040875079146
-0.00383941034966
-0.00357017725652
-0.0040722356879
-0.00405687974788
-0.00356067213884
-0.00382931821164
-0.00406235746763
-0.00420380285147
-0.00428099302868
-0.00432475724509
-0.00435480657911
-0.00436693439166
-0.00436573161775
-0.00436691201203
-0.00437041207678
-0.00438278290722
-0.00438833927023
-0.00435003611064
-0.00424704880465
-0.00407218036891
-0.00383009142484
-0.0035619884104
-0.00405935890319
-0.00400907084471
-0.00353146272473
-0.00379916267992
-0.00403181332778
-0.00417516925596
-0.00425137502127
-0.00429184654181
-0.0043168086213
-0.00432692377356
-0.0043264593576
-0.004327292124
-0.00432937548294
-0.00433647952721
-0.00433446144052
-0.00429384009898
-0.00419744160929
-0.00403456957089
-0.00379993104519
-0.00353271020151
-0.00401133864763
-0.00388759547905
-0.00345826038561
-0.00372789552602
-0.00395716323688
-0.00410199234506
-0.00417759428557
-0.00421331537458
-0.00423167140149
-0.00423840950605
-0.0042382253862
-0.00423865893706
-0.00423967352447
-0.00424172817859
-0.00423354001493
-0.00419400947236
-0.00410765238456
-0.0039577669615
-0.00372865236939
-0.00345939226814
-0.00388956518862
-0.00363523031848
-0.00330785572976
-0.00358858406447
-0.00381540098758
-0.00395717576126
-0.00403185102264
-0.0040642637713
-0.00407643314887
-0.00408016087834
-0.00407994261733
-0.00408010603594
-0.00408062471135
-0.00407926238061
-0.00406961441954
-0.00403460132775
-0.00395778174658
-0.00381603835452
-0.00358929490031
-0.00330881654451
-0.00363685007153
-0.00317440145635
-0.00304077037785
-0.00335519538372
-0.00358864731057
-0.00372797855105
-0.00379926838078
-0.00382947085064
-0.00383887494852
-0.00384022352827
-0.00383971371342
-0.00383982011056
-0.00384052530253
-0.00383933555305
-0.00383005502384
-0.0037999168672
-0.0037286318428
-0.0035892644719
-0.00335578222919
-0.00304147303909
-0.00317560968578
-0.00241298273019
-0.00263790239035
-0.00304093141158
-0.0033080665839
-0.00345848918996
-0.00353172880147
-0.00356101576479
-0.0035693032607
-0.00356995362073
-0.00356924150107
-0.00356939294252
-0.00357038599742
-0.00356996443728
-0.00356182711806
-0.00353257551345
-0.00345924971207
-0.00330865516011
-0.00304133408873
-0.0026382641114
-0.00241367293013
-0.00139833321679
-0.00241319202378
-0.0031745486894
-0.00363521752329
-0.00388748829945
-0.00400901603632
-0.00405702303184
-0.00407012091317
-0.00407075860177
-0.00406943749203
-0.00406987350051
-0.00407200152959
-0.00407200946922
-0.00405930782435
-0.0040113741452
-0.00388958109632
-0.0036367743522
-0.00317542279446
-0.00241346042565
-0.00139836094245
-0.00140907723865
-0.00250287888794
-0.00334671480243
-0.00387151806869
-0.00416725393256
-0.00431457023338
-0.00437515250968
-0.00439251857098
-0.00439330882794
-0.00439122505764
-0.00439168158798
-0.00439462698847
-0.00439457858299
-0.00437775935701
-0.00431738470596
-0.00416987803019
-0.0038736099121
-0.00334807594311
-0.00250351909091
-0.00140908377272
-0.00250264304504
-0.00272865717347
-0.00315646614464
-0.00344589303506
-0.00361290465485
-0.00369687531475
-0.00373194779658
-0.00374253659862