/*--------------------------------*- C++ -*----------------------------------*\
| =========                 |                                                 |
| \\      /  F ield         | OpenFOAM: The Open Source CFD Toolbox           |
|  \\    /   O peration     | Version:  3.0.1                                 |
|   \\  /    A nd           | Web:      www.OpenFOAM.org                      |
|    \\/     M anipulation  |                                                 |
\*---------------------------------------------------------------------------*/
FoamFile
{
    version     2.0;
    format      ascii;
    class       volVectorField;
    location    "2.6";
    object      ddt0(U);
}
// * * * * * * * * * * * * * * * * * * * * * * * * * * * * * * * * * * * * * //

dimensions      [0 1 -2 0 0 0 0];

internalField   nonuniform List<vector> 
7968
(
(0.000171962516025 0.000165431857136 -0.000306163306541)
(0.000620987271125 3.26113264579e-05 -0.000306675143115)
(0.00123301501065 -3.09209320654e-05 -0.000264124291726)
(0.0017255685525 -3.92426024495e-05 -0.000189768281784)
(0.00204387904108 5.3883138612e-06 -0.000115010172953)
(0.00209911836095 8.73654173216e-05 -4.91516693524e-05)
(0.0019371935342 0.000153710408782 -8.71657123181e-07)
(0.00155947879477 0.000229765769811 3.59636912724e-05)
(0.00102756949597 0.000284375953288 5.67492484908e-05)
(0.000406261433714 0.000312447798581 6.61360555129e-05)
(-0.000247415698384 0.000313043896638 6.74078945214e-05)
(-0.00087737244962 0.000285901718075 6.04434140578e-05)
(-0.00142499015632 0.000231678348039 4.16851385548e-05)
(-0.00182313202552 0.000155587418382 6.04765178561e-06)
(-0.00200719357978 8.93185791012e-05 -4.20466233779e-05)
(-0.0019742592988 7.37860793205e-06 -0.000109022960417)
(-0.00167541646519 -3.67314563777e-05 -0.00018577730599)
(-0.00119970355212 -2.73420071739e-05 -0.000262812046573)
(-0.000601227559815 3.77753512307e-05 -0.00030703049713)
(-0.000165805372422 0.000173151758574 -0.000307653005142)
(3.85253694621e-05 0.000604806999595 -0.000307812963278)
(0.000502871588138 0.00048810587684 -0.000715987103746)
(0.0012366892075 0.000489314349434 -0.000856208246518)
(0.00180379325558 0.000601931280282 -0.000857034386884)
(0.00214990806202 0.000802873697742 -0.000816820423381)
(0.00222177409546 0.00103813617195 -0.000765895879113)
(0.00203616201264 0.00125117911341 -0.000719128766609)
(0.00163360298422 0.00143119346857 -0.000684672871437)
(0.001073420784 0.00155808128239 -0.000666070146252)
(0.000422742266924 0.00162339338802 -0.000658965498256)
(-0.000260541570543 0.00162554376636 -0.000657841322834)
(-0.0009208014768 0.00156378249776 -0.000662662942198)
(-0.00149818658231 0.00143907584312 -0.000679584398938)
(-0.00192270530589 0.00125976121225 -0.000713305094222)
(-0.0021317883739 0.00104732558341 -0.000760638978267)
(-0.00208259682098 0.000812864369522 -0.000813692265267)
(-0.00175609767351 0.000613519964533 -0.000857126359686)
(-0.00120517708959 0.000503222114957 -0.000859501767739)
(-0.000482992121608 0.000504002901143 -0.000719607668958)
(-3.08448368125e-05 0.000622313195914 -0.000307540206939)
(-2.4867662722e-05 0.00121009920426 -0.000267069102752)
(0.000503585538439 0.00121537828144 -0.000857107048479)
(0.00135349587126 0.00133322805681 -0.00102961412435)
(0.00199123278253 0.00158327869086 -0.00099246071186)
(0.00236054897599 0.00192277469352 -0.000898036825518)
(0.00242286707448 0.0022886689992 -0.000798859126776)
(0.00220318273289 0.0026177834397 -0.000719007844887)
(0.00175679805924 0.0028886429989 -0.000666128461701)
(0.00114931796272 0.00308137179831 -0.000639129075018)
(0.000450329269275 0.00318221224956 -0.000628838376748)
(-0.000281765487151 0.00318612295193 -0.00062703198265)
(-0.000991977876607 0.00309162524651 -0.0006339871648)
(-0.00161889990337 0.00290275929256 -0.000658700648725)
(-0.00208894819104 0.00263313185182 -0.000711099051171)
(-0.00233274247704 0.00230470611887 -0.000791530914225)
(-0.00229282685575 0.00194047537743 -0.000893606257798)
(-0.00194281036014 0.00160396552648 -0.000991503333588)
(-0.00132110479787 0.00135725222845 -0.00103157528156)
(-0.000482565052451 0.00124176242926 -0.000859249230261)
(3.39596178642e-05 0.00123643061732 -0.000264261839583)
(-3.33655476591e-05 0.00169706297759 -0.000192581087609)
(0.000615733079094 0.00177688973581 -0.000858509762135)
(0.0016029943705 0.00196550854368 -0.000993038671508)
(0.0023271332543 0.00230220858886 -0.00086840916246)
(0.00272270887072 0.00273011162457 -0.000679109940062)
(0.00276070417707 0.00317893372885 -0.000499957164154)
(0.00248563773608 0.00358155418751 -0.00035791899026)
(0.00196731093907 0.00391323499293 -0.000263460389377)
(0.00127889674676 0.00414970503798 -0.000212270432372)
(0.000496933628156 0.00427377715012 -0.000189462473648)
(-0.000318820509154 0.00427911903567 -0.000186248121583)
(-0.00111465411758 0.00416349040263 -0.000203628407091)
(-0.00182609429373 0.00393167250688 -0.000251640214918)
(-0.00237064575549 0.00360049073598 -0.000345883154048)
(-0.00266978892965 0.00319740210916 -0.000489686442085)
(-0.00265291917212 0.00275032513956 -0.000671148307875)
(-0.00227601181436 0.00232619317233 -0.000863052551706)
(-0.00156804690523 0.00199368737924 -0.000990773997181)
(-0.00059261031641 0.00180776968562 -0.000856320240244)
(4.38356407165e-05 0.00172728823365 -0.000185974213158)
(1.15538085699e-05 0.00201011514642 -0.000118104058538)
(0.000817043255858 0.00211794009719 -0.000817893739357)
(0.00194283446291 0.00233015481143 -0.000898216588263)
(0.00275512539552 0.00269377312952 -0.000678754167866)
(0.00317650873143 0.0031483514793 -0.000387026545058)
(0.00318607536243 0.00362364929515 -0.000110667641316)
(0.00284733901321 0.00404725629826 0.000108964757108)
(0.00224456296206 0.00439769376293 0.000265156775153)
(0.00145489429919 0.00465412142411 0.0003600930941)
(0.000561206162132 0.00479128572611 0.000405908577527)
(-0.00037112955924 0.0047975602544 0.000410771543695)
(-0.00128268026976 0.00467026480481 0.000373368916769)
(-0.00210064902372 0.0044184832856 0.000281948616498)
(-0.00273318369846 0.00406681721789 0.000124296136258)
(-0.00309545797848 0.00364095749955 -9.86057170322e-05)
(-0.00310434738935 0.00316598535005 -0.000376753891345)
(-0.00270013327704 0.00271517646147 -0.000670183588964)
(-0.00190420785148 0.00235626728356 -0.000891400571505)
(-0.000791365767811 0.00214720587827 -0.00081143971747)
(1.4517813121e-07 0.00203901670856 -0.000107599744767)
(9.42737261858e-05 0.00206030439774 -5.27575977189e-05)
(0.00105354627669 0.00218482782779 -0.000767360460574)
(0.00231038497323 0.00238766946056 -0.000798708281672)
(0.00320579677263 0.00272755901955 -0.000498268126167)
(0.00365282414926 0.00315469207665 -0.000108347502733)
(0.00361896811951 0.00358751014043 0.000253728300895)
(0.00321212345829 0.00395997873298 0.000531191827686)
(0.00252449122452 0.00427674667488 0.000728038427497)
(0.00163203442662 0.00451466338082 0.000851945205976)
(0.000625293242002 0.0046413446812 0.0009125519863)
(-0.000422894205389 0.00464773143069 0.000919584832447)
(-0.00145189669996 0.00453141117644 0.000870628690443)
(-0.00237941192529 0.00429937828027 0.000750208749601)
(-0.00310088298681 0.00397975860484 0.000548144690113)
(-0.00353014003357 0.00360213180087 0.000264822872808)
(-0.00357903268841 0.00316778594727 -9.90233263367e-05)
(-0.0031465136831 0.00274328765395 -0.000488800978813)
(-0.00226741910682 0.00240760678971 -0.000789424833716)
(-0.00102496499126 0.00220789919934 -0.000757578598013)
(-8.14025737506e-05 0.00208329587278 -3.97286692848e-05)
(0.000160549203483 0.00189328154313 -4.81847836377e-06)
(0.00126769659587 0.00199371455975 -0.000720780411598)
(0.00264133484654 0.0021619336491 -0.000718141620054)
(0.003610818235 0.0024457065023 -0.000353717482864)
(0.00407803809152 0.0028085955977 0.000115634555467)
(0.00399205537897 0.00317271451626 0.000536865589056)
(0.00352754827075 0.00348744901588 0.00083329201027)
(0.00277133405539 0.00377339131225 0.00105731137682)
(0.00178737315225 0.00399594418637 0.00120990216028)
(0.000680284245587 0.00411060373555 0.00128373516367)
(-0.000466857138504 0.00411642074323 0.00129158613955)
(-0.00159892989878 0.00401213787739 0.0012317678164)
(-0.00262495352555 0.00379665709484 0.00108553638286)
(-0.00342161421584 0.00350715803514 0.000852584989911)
(-0.003907528466 0.00318603139753 0.000545372861392)
(-0.0040041369522 0.00281837304134 0.000121722120584)
(-0.00354843403848 0.00245620115988 -0.000345716436506)
(-0.00259480488252 0.0021751351301 -0.00070824717748)
(-0.00123645859147 0.00200938933381 -0.000708980199138)
(-0.000147044120377 0.00190964313791 9.69381712413e-06)
(0.000236894750003 0.00151070916208 3.16510162997e-05)
(0.00144799862662 0.00158543934752 -0.000686386795268)
(0.00291276401103 0.00170834951495 -0.000664974959776)
(0.00394334668707 0.00191802480856 -0.00025810757899)
(0.00442839581465 0.00219390584003 0.000274689995135)
(0.00430793827211 0.00247091264996 0.000736788764931)
(0.00381294472192 0.00271434016262 0.00106087534242)
(0.00299859829546 0.00293924965525 0.00134161604544)
(0.00193993428982 0.00313322848436 0.00149014267316)
(0.00073546309605 0.00323652501922 0.00153113634519)
(-0.000512048076077 0.00323953972734 0.00153801576452)
(-0.00174318647348 0.00314553121411 0.00151315875563)
(-0.00285054868336 0.00295707989652 0.00137733993225)
(-0.0037116982339 0.00272984823975 0.00108385386238)
(-0.00422809069457 0.00248186800932 0.000745740409048)
(-0.00435654537187 0.00220106226609 0.000279033273432)
(-0.00388011268283 0.00192431342984 -0.00025120185658)
(-0.00286467323236 0.00171555921182 -0.000655278886193)
(-0.0014154509756 0.00159389185043 -0.00067441028575)
(-0.000222822811643 0.00151984966532 4.67013424325e-05)
(0.000291438884408 0.000974850399681 5.19865227482e-05)
(0.00157408522576 0.00102046530814 -0.000668108161564)
(0.00310423446283 0.0010946312723 -0.000638627632025)
(0.0041778942248 0.00122123748645 -0.000207667278738)
(0.0046820921999 0.00139326488024 0.000368112877768)
(0.00454180177369 0.00156496127326 0.00085890958562)
(0.00403080596897 0.00171425167651 0.0012092235777)
(0.00319095777047 0.00186171231087 0.00148293699277)
(0.00206555475127 0.00198544648041 0.00159458687415)
(0.000774143633656 0.00204379736796 0.00166448562959)
(-0.00054664308586 0.002046245782 0.00166573431233)
(-0.00186202160054 0.00198924593771 0.00161890827106)
(-0.00304079974204 0.00186933035094 0.00151883513473)
(-0.00393096835631 0.00172179580603 0.00123434554882)
(-0.00446406827218 0.00156994867965 0.000869447918845)
(-0.00461195924566 0.0013959702118 0.000373649414088)
(-0.00411525422229 0.00122301031569 -0.000201063190586)
(-0.00305589328105 0.00109647287666 -0.000629099612188)
(-0.0015411000258 0.00102276170584 -0.000656479231791)
(-0.000277063918176 0.000977539784905 6.7079509709e-05)
(0.000319154751777 0.000351704655612 6.07925404201e-05)
(0.00163787258522 0.000367393061251 -0.000661561643983)
(0.00320266134065 0.000392419237569 -0.000629580982519)
(0.00429854461168 0.000434944303117 -0.000186674875363)
(0.00481463296422 0.000493928525101 0.000410589264255)
(0.00466299067492 0.000551754247922 0.000913983038232)
(0.00413975947759 0.000600831993582 0.00127538417403)
(0.0032904894836 0.000650896006905 0.00151404918634)
(0.00212340506034 0.00068815754074 0.00165170632126)
(0.000795697780257 0.000707384711676 0.00173181900202)
(-0.000565497053395 0.000709288935811 0.00173816513378)
(-0.00192025274587 0.00068745451465 0.00167186962604)
(-0.00313810565609 0.000650778293355 0.00154859328457)
(-0.00404009030155 0.000600483972833 0.00130136026803)
(-0.00458644824327 0.000550052922094 0.000924227754759)
(-0.00474519522068 0.000491110536393 0.000415696815574)
(-0.00423610576004 0.000431766681872 -0.00018051574189)
(-0.00315424340756 0.000389188589236 -0.000619973729725)
(-0.00160474675241 0.000364217233293 -0.000649951889948)
(-0.000304690202282 0.00034841070392 7.5980616431e-05)
(0.000319305061445 -0.000300901333833 6.14596870725e-05)
(0.00163832897128 -0.000314882067032 -0.000661020519965)
(0.00320367102548 -0.000338523051204 -0.000629085901007)
(0.00429980773225 -0.000379260770007 -0.000186070814291)
(0.00481593276648 -0.000436039380272 0.00041124927622)
(0.0046641608521 -0.00049210888331 0.000914534660262)
(0.0041407346155 -0.000540203261799 0.00127635693847)
(0.00329136136314 -0.000589686560771 0.00151477426331)
(0.00212408564165 -0.000626821144854 0.0016531310183)
(0.000795735813351 -0.000646029751878 0.0017342357884)
(-0.000566589146095 -0.000648393743654 0.00173992816475)
(-0.00192200711327 -0.000628849670041 0.00167330256382)
(-0.00314033016336 -0.000595052521316 0.00154956255843)
(-0.00404214249729 -0.000547889802927 0.00130220409458)
(-0.00458833562878 -0.000500051827322 0.000925077074588)
(-0.00474708017316 -0.000443983661075 0.000416553185723)
(-0.00423768414738 -0.000387319963956 -0.000179679688651)
(-0.00315535387023 -0.000346760072452 -0.000619219666455)
(-0.00160517594381 -0.000323438293207 -0.000649063382845)
(-0.000304837553131 -0.000310090276977 7.68738714066e-05)
(0.000291949663852 -0.000926833033173 5.39259917235e-05)
(0.0015755369041 -0.000970736991675 -0.000666446685122)
(0.00310733065296 -0.00104337565954 -0.0006371173872)
(0.00418183158338 -0.00116788976819 -0.000205869450618)
(0.00468619960322 -0.00133743736199 0.000370335241049)
(0.00454504773617 -0.00150693076124 0.000861330420873)
(0.00403328767167 -0.00165526422249 0.00121146104335)
(0.00319320413645 -0.00180258354367 0.00148387113077)
(0.00206644251854 -0.00192639597259 0.00159697489657)
(0.000774119419977 -0.00198600115393 0.00166886748935)
(-0.0005488260657 -0.00198893398858 0.0016691204931)
(-0.00186700496775 -0.00193349119127 0.00162179815555)
(-0.00304724535311 -0.00181624851204 0.00151979694537)
(-0.00393674663238 -0.00167076886587 0.00123660455719)
(-0.00446972890595 -0.00152177876759 0.00087188170117)
(-0.00461763118339 -0.00135101874172 0.000376143961357)
(-0.0041200880098 -0.00118109958398 -0.00019872498352)
(-0.00305933451908 -0.00105698538037 -0.0006268197602)
(-0.00154250978503 -0.000985143456804 -0.00065395439187)
(-0.000277511143632 -0.00094226669764 6.96062943045e-05)
(0.000237835876733 -0.0014681313429 3.46512098224e-05)
(0.00145069503226 -0.00154133547485 -0.000683742584293)
(0.002918227097 -0.00166251107893 -0.000662478317221)
(0.00395032231668 -0.0018696804468 -0.000254953351804)
(0.00443564710379 -0.00214259095688 0.000278699515638)
(0.00431362438762 -0.00241658180441 0.000741504342108)
(0.00381685483124 -0.00265807328871 0.001065616444)
(0.00300075033716 -0.00288195165204 0.00134734671218)
(0.00194074261404 -0.00307725270527 0.0014922559902)
(0.000734219793829 -0.00318114581462 0.00153388199484)
(-0.000515529658523 -0.00318530166293 0.00154072969289)
(-0.00175062969535 -0.0030935142534 0.00151539940127)
(-0.00285882341963 -0.00290577488224 0.0013831828743)
(-0.00372082584201 -0.00268166615137 0.00108869776923)
(-0.0042377756626 -0.00243748934444 0.000750780761518)
(-0.0043664830962 -0.00216064643874 0.000283692976439)
(-0.00388876969932 -0.00188754366971 -0.000247267035381)
(-0.00287088230607 -0.00168177014035 -0.00065175927126)
(-0.00141817309602 -0.00156224938473 -0.000670749868242)
(-0.000223652129562 -0.0014903059609 5.05016655199e-05)
(0.000161935485322 -0.0018585709813 -1.08756733562e-06)
(0.0012717040383 -0.00195764990914 -0.000717725420442)
(0.00264934338598 -0.0021240926717 -0.000714977362607)
(0.0036212431527 -0.00240517677526 -0.000349598814709)
(0.00408913290069 -0.00276502453148 0.000121760681752)
(0.00400103474041 -0.00312607574828 0.000545742577387)
(0.0035335092315 -0.00343802601786 0.000841766678596)
(0.00277455916316 -0.00372242407888 0.00106619167831)
(0.00178765975769 -0.00394455517361 0.00121940084602)
(0.000678270522389 -0.00405933106919 0.00129309203151)
(-0.0004720533391 -0.00406675974887 0.00130289228027)
(-0.00160810404629 -0.00396458322793 0.00124158379028)
(-0.00263646844051 -0.00375141524182 0.00109486665335)
(-0.00343497913044 -0.00346548252 0.000861260401883)
(-0.00392201034469 -0.00314870752033 0.000553132304968)
(-0.00401887190242 -0.00278538135085 0.000128255761315)
(-0.00356129456238 -0.00242703716403 -0.000340630158847)
(-0.00260402453487 -0.00214925192106 -0.000703928399815)
(-0.00124061986651 -0.00198580934133 -0.000704704599656)
(-0.000148360743586 -0.00188806845366 1.43350186171e-05)
(9.552347683e-05 -0.00203421534716 -4.90715893416e-05)
(0.0010591684846 -0.00215806278346 -0.000764346321054)
(0.00232108965148 -0.00235945311079 -0.00079566308849)
(0.00321960167691 -0.00269690180958 -0.000493466287985)
(0.00366746890834 -0.00312129986877 -0.000101132276053)
(0.00363148895352 -0.00355158989455 0.000263065181802)
(0.00322096118002 -0.00392109924231 0.000542142537012)
(0.00252916789801 -0.0042361528614 0.000739708963198)
(0.00163247299192 -0.00447370240901 0.000864005631166)
(0.000622107167391 -0.00460086132405 0.000924513577717)
(-0.00042977432826 -0.00460908952314 0.00093173668439)
(-0.00146292887093 -0.00449424772719 0.000883072947576)
(-0.00239407443891 -0.004264371097 0.00076257236569)
(-0.00311851448248 -0.00394800505305 0.00055958606635)
(-0.0035496298133 -0.00357443158929 0.000274708233082)
(-0.00359880904616 -0.00314410986261 -9.17595723212e-05)
(-0.00316371695942 -0.00272324202386 -0.000483121034873)
(-0.00227995679966 -0.00239069949169 -0.000785108457595)
(-0.00103103265716 -0.00219305778811 -0.000753243156881)
(-8.26069832453e-05 -0.00206998395765 -3.50892558554e-05)
(1.34440072147e-05 -0.00199315312407 -0.000114797308191)
(0.000824095152239 -0.00210085890137 -0.000816327806268)
(0.00195595608525 -0.00231191370732 -0.000895901116756)
(0.00277197930577 -0.00267364657679 -0.000674631672819)
(0.00319400236723 -0.00312601681202 -0.000380124721072)
(0.00320163101583 -0.00359947228448 -0.000101658014652)
(0.00285904720332 -0.00402097157633 0.000120379739489)
(0.00225135679755 -0.00437013532856 0.000278078703298)
(0.00145643555772 -0.00462622975434 0.000374093428259)
(0.000557590180155 -0.00476359631158 0.000420433941706)
(-0.000379950532736 -0.00477119990948 0.000425494710948)
(-0.00129654499335 -0.00464560598594 0.000387890518184)
(-0.00211890744899 -0.0043958313173 0.000295701781797)
(-0.00275481527007 -0.00404683847698 0.000136408121491)
(-0.00311910108226 -0.003624337745 -8.82334265671e-05)
(-0.00312810575049 -0.0031522422333 -0.000368827529246)
(-0.00272131843768 -0.00270448832796 -0.000664791939512)
(-0.00191978796402 -0.00234817408555 -0.000887885028741)
(-0.000799363019342 -0.00214113989825 -0.000808325058994)
(-2.0044293939e-06 -0.00203399168523 -0.0001036031996)
(-3.14743516602e-05 -0.00168757572984 -0.000190288581419)
(0.000623377169493 -0.00176762298137 -0.000858271514594)
(0.00161737967731 -0.00195556277633 -0.000992458124005)
(0.00234562496017 -0.00229101722029 -0.000865617605691)
(0.0027419570136 -0.00271762839825 -0.000673651189646)
(0.00277753448934 -0.00316499290662 -0.000492308969218)
(0.00249803236981 -0.00356661187934 -0.000348340800543)
(0.00197424583074 -0.00389775693962 -0.000252817798747)
(0.00128016623078 -0.00413417664343 -0.000200812664294)
(0.000492701548737 -0.00425862066152 -0.000177005712654)
(-0.000328603195638 -0.00426490541243 -0.000173521030708)
(-0.00112956570565 -0.00415046347579 -0.000191366858035)
(-0.00184570951072 -0.00392008143411 -0.00023972909282)
(-0.00239418235064 -0.00359058267116 -0.000335249513214)
(-0.00269566827576 -0.00318967454657 -0.000480892777401)
(-0.00267920217533 -0.00274488226949 -0.000664224318401)
(-0.00229957082849 -0.00232276959894 -0.000859088182338)
(-0.00158550291066 -0.00199218612695 -0.000988936722019)
(-0.000601567820615 -0.0018078736528 -0.000855188021587)
(4.16937334517e-05 -0.00172835785881 -0.000183046257375)
(-2.28884902833e-05 -0.00120628221579 -0.000265873224934)
(0.000511442221835 -0.00121174406716 -0.000858621365645)
(0.00136836179371 -0.00132903418961 -0.00103087771934)
(0.00201029957232 -0.00157836713391 -0.00099159980868)
(0.00238043436302 -0.0019171376826 -0.000894690941336)
(0.0024403004645 -0.00228226476905 -0.000793219206342)
(0.00221603689667 -0.00261050343312 -0.000712083031236)
(0.0017639815247 -0.00288085190807 -0.000658327728758)
(0.00115046715023 -0.003073449731 -0.000630816870456)
(0.000445569695637 -0.0031746231491 -0.000620056323375)
(-0.000292249778453 -0.0031791643233 -0.000618113848583)
(-0.00100782477108 -0.00308544248159 -0.000624874188801)
(-0.00163962891436 -0.0028977077173 -0.000649692119171)
(-0.00211370594489 -0.00262937157758 -0.000702712315759)
(-0.00236002159563 -0.0023026125383 -0.000784413246056)
(-0.0023205280806 -0.00193987075085 -0.000888716826752)
(-0.00196769271542 -0.00160466442354 -0.000989317370991)
(-0.0013396406493 -0.00135920843351 -0.00103186747526)
(-0.000492182238399 -0.00124504253659 -0.00085992222031)
(3.16826691435e-05 -0.00124107966362 -0.000262783289314)
(4.09937871158e-05 -0.000603616271077 -0.000308082314155)
(0.000510625534447 -0.000486809350101 -0.000718161819519)
(0.00125107534575 -0.000487580996483 -0.000858189415205)
(0.00182223130831 -0.000599917873904 -0.000857369438113)
(0.00216928305956 -0.000800691800656 -0.000814985609589)
(0.00223874421676 -0.00103568341777 -0.000762231401131)
(0.00204871838447 -0.0012481592702 -0.000714151780582)
(0.0016405211563 -0.00142788228897 -0.000678974473749)
(0.00107424561134 -0.0015546212331 -0.000659834116013)
(0.000417567853741 -0.00162001612517 -0.000652372993784)
(-0.000271514409719 -0.00162246819436 -0.000651003314243)
(-0.000937196970466 -0.00156125600903 -0.000655663423556)
(-0.00151945818358 -0.00143730072471 -0.000672635085526)
(-0.00194796150044 -0.00125879903047 -0.000706972815305)
(-0.002159386829 -0.00104745175932 -0.000755580122787)
(-0.00211070301747 -0.000813811976006 -0.000810246229149)
(-0.00178129478885 -0.000615056076605 -0.000856476267639)
(-0.00122404441091 -0.000505438296586 -0.000860624799365)
(-0.000493259583612 -0.000507419547658 -0.000721431282319)
(-3.35225061348e-05 -0.000627286541076 -0.000308110622877)
(0.000174599308545 -0.000165907642882 -0.000307157675095)
(0.000627558177399 -3.25825813794e-05 -0.000308051212356)
(0.00124527184775 3.14539051147e-05 -0.000265177751085)
(0.00174130844785 3.99191414087e-05 -0.00018985197451)
(0.00206069280418 -4.71688676665e-06 -0.000113866105609)
(0.002113640245 -8.68017636274e-05 -4.67582939536e-05)
(0.00194800098259 -0.00015297230397 2.20282612785e-06)
(0.00156510406605 -0.000229026480096 3.95063977979e-05)
(0.00102746154938 -0.000283726127013 6.06103963841e-05)
(0.000400470582523 -0.000311899026997 7.01952878679e-05)
(-0.000258744826957 -0.000312584063109 7.16225299616e-05)
(-0.000893839092081 -0.000285551756546 6.47709866121e-05)
(-0.00144588213353 -0.000231502721162 4.59577840386e-05)
(-0.0018475507437 -0.000155583471058 9.91741992719e-06)
(-0.0020333610232 -8.95860640274e-05 -3.88145948343e-05)
(-0.00200090178382 -7.9183110112e-06 -0.000107057003542)
(-0.00169926731645 3.61075852222e-05 -0.000185262760798)
(-0.00121813822242 2.65304368534e-05 -0.00026352344397)
(-0.000611871162473 -3.90269185206e-05 -0.000308584487881)
(-0.000168919367243 -0.000175147447534 -0.000309268036075)
(0.000331705365794 0.000324924224915 -0.00126772437635)
(0.000940687184372 0.000408555790753 -0.00134872216511)
(0.00157683672174 0.000501454724669 -0.0013214722734)
(0.0020610929657 0.00062919005658 -0.00121191669716)
(0.002341759483 0.000776557764785 -0.00107815502165)
(0.0023603195413 0.000925551795479 -0.000948827519184)
(0.00214698739441 0.00104145988716 -0.00083703040166)
(0.00171787026209 0.00114368660942 -0.000753234345178)
(0.00112709273553 0.00121482045903 -0.000704685027289)
(0.000442424969323 0.00125118694137 -0.000683367244065)
(-0.000276198565978 0.00125238177663 -0.000680067455576)
(-0.000970499678676 0.00121816401446 -0.000695030526855)
(-0.00157881781369 0.00114848520314 -0.000738483778081)
(-0.00203084194743 0.00104700911504 -0.00081963548763)
(-0.00226897615868 0.000931889931743 -0.00093186712763)
(-0.00227550002961 0.000784017775584 -0.00106516954588)
(-0.00201664373584 0.000637825989323 -0.00120560489514)
(-0.00155025922814 0.000511152460908 -0.0013233964057)
(-0.000927416850328 0.00041894806463 -0.00135638695446)
(-0.000328413981449 0.000335567221389 -0.00127921099981)
(0.000413664177722 0.000924944411646 -0.00135070915279)
(0.00104135332031 0.00102801627483 -0.0018348166102)
(0.00163845009955 0.00117304162916 -0.00192855857832)
(0.00207198033989 0.00138754104786 -0.0018304823878)
(0.00229945293472 0.00164078984029 -0.00165986995061)
(0.00229654962659 0.00189571401828 -0.00147430877497)
(0.0020719480597 0.00211971634119 -0.0013091503703)
(0.00165363631109 0.00230356000004 -0.00118285663358)
(0.0010878022524 0.00243391731301 -0.00110349350488)
(0.000430931140294 0.00250250496734 -0.00106598846704)
(-0.000260124603128 0.0025054396568 -0.00106250427934)
(-0.000927278206861 0.00244208965271 -0.00109333423249)
(-0.00151183752399 0.00231530882525 -0.00116768929133)
(-0.0019542962418 0.00213336916974 -0.00129162684006)
(-0.00220500468269 0.00191117645267 -0.00145795566108)
(-0.00223357479484 0.00165879579864 -0.0016483815931)
(-0.00202896820572 0.00140838623554 -0.00182670092811)
(-0.00161394502752 0.00119638970254 -0.00193323116241)
(-0.00102928534932 0.00105257172711 -0.00184408778627)
(-0.000410381562771 0.000948912502679 -0.00135718163675)
(0.00050570779294 0.00155401314602 -0.00132570059581)
(0.00118507724887 0.00161834710659 -0.00193004790063)
(0.00179352650511 0.0017748871037 -0.00199954184706)
(0.00220942934849 0.00202060222471 -0.00180752139477)
(0.00240521791002 0.00231484137533 -0.00152238898323)
(0.00237108392175 0.00261534755873 -0.00122867389423)
(0.00211917855362 0.00288660706497 -0.000976326110386)
(0.00168189945373 0.00311013839964 -0.00078743354385)
(0.00110444919298 0.00327090684431 -0.000667680960668)
(0.000438753842717 0.00335756914248 -0.000609582312064)
(-0.000261149187462 0.0033621517871 -0.000604551741084)
(-0.000938482859246 0.00328337644833 -0.000653335868593)
(-0.00153665307746 0.00312763645725 -0.00076669901693)
(-0.00199949732598 0.00290622031331 -0.000953362341951)
(-0.00227781337337 0.00263666521888 -0.00120692041846)
(-0.00233739312775 0.00233927073438 -0.00150554298017)
(-0.00216483507923 0.00204898875451 -0.00179789995994)
(-0.00176820287974 0.00180697705543 -0.00199787473705)
(-0.00117250002319 0.00165255383245 -0.00193278364587)
(-0.000501893328831 0.00158801297622 -0.00132435170872)
(0.000633286590744 0.00203174403723 -0.00121692470324)
(0.00139900336955 0.00204514353141 -0.00183292036011)
(0.00203854205685 0.00218389673967 -0.00180853932088)
(0.00244854550983 0.00242371706094 -0.0014773262924)
(0.00261635830361 0.00271814561105 -0.00104686572267)
(0.00254430736055 0.00302242604598 -0.000627710481855)
(0.00225135086768 0.00330144649693 -0.00027963731704)
(0.00177494044467 0.00353006464695 -2.31668672891e-05)
(0.00116219103826 0.00369517045582 0.000138224187567)
(0.000461658451441 0.0037843562635 0.000218144626059)
(-0.000274926819883 0.00378994763792 0.000225571907629)
(-0.000989390379028 0.00371030445909 0.000159074960227)
(-0.00162604620627 0.00355083254578 5.81221481186e-06)
(-0.00213001597989 0.00332361683133 -0.000249751084297)
(-0.00244899854102 0.00304486585128 -0.000599898912777)
(-0.00254521386317 0.00274337721965 -0.00102299460645)
(-0.00240027412715 0.00245341625851 -0.00145856719928)
(-0.0020102870633 0.00221823447791 -0.00179627489743)
(-0.00138448357739 0.00208245890633 -0.0018246246549)
(-0.000628516900532 0.00206916450936 -0.00120446771072)
(0.000780510531481 0.00230735578104 -0.00108402148442)
(0.00165211961751 0.00226671420314 -0.00166258540632)
(0.00233280783907 0.00237348629962 -0.00152350596814)
(0.00274303538065 0.0025853985689 -0.00104672141075)
(0.00288559229383 0.002855005505 -0.000470863327371)
(0.00277354739014 0.00314082424019 7.40848543339e-05)
(0.00243551431555 0.00340598977473 0.000516764603691)
(0.00191046840841 0.00362707875379 0.000838214215507)
(0.00124695278761 0.00378938771342 0.00104526282097)
(0.000493430686618 0.00387760091853 0.00115153734862)
(-0.000297321881177 0.00388391001855 0.00116244861281)
(-0.00106754017916 0.00380631198985 0.00107478506907)
(-0.0017592025209 0.00364998207824 0.000876015921705)
(-0.00231469365528 0.00342892390554 0.000552594747353)
(-0.00267770115014 0.00316223569713 0.000105509036016)
(-0.00281123447555 0.00287679310526 -0.000443687715065)
(-0.00269025216142 0.00261133369892 -0.00102148850212)
(-0.00230041850263 0.00240407760542 -0.00150180463336)
(-0.00163461771998 0.00230056729523 -0.00164395105044)
(-0.000774510643482 0.00234177968252 -0.00106087089065)
(0.000930077317829 0.00232109486756 -0.000955745828239)
(0.00190755862189 0.00225832799307 -0.00147750873502)
(0.00263417109096 0.00233356095209 -0.0012292947112)
(0.00304846974562 0.00250766665742 -0.000624852709761)
(0.00317207304964 0.00273765623276 7.96781173973e-05)
(0.00302758019965 0.00299172620647 0.000723917613326)
(0.00264533195699 0.00322821294067 0.00123298895315)
(0.00207232694131 0.00342959263254 0.00159676001582)
(0.00135216124101 0.00358535240296 0.00183993616354)
(0.000532865374742 0.00367193668591 0.00197169814725)
(-0.000327941507292 0.00367896156248 0.00198660877973)
(-0.00116718442205 0.0036034965652 0.00187950370713)
(-0.00192071650866 0.00345505052042 0.0016448596187)
(-0.00252741223035 0.00325203092955 0.00127282537527)
(-0.00293417237886 0.00301105006268 0.000752368392388)
(-0.00309652907194 0.00275543041674 0.000104032794702)
(-0.00299116290524 0.00252753133827 -0.000598662066382)
(-0.00259733718502 0.00235704112252 -0.00120225648899)
(-0.00188657038513 0.00228451965184 -0.00145126205231)
(-0.000922149522667 0.00234774209832 -0.000925060997946)
(0.0010461422577 0.00210256966594 -0.000844676577532)
(0.00213215372403 0.00202783528275 -0.0013124332563)
(0.00290675234597 0.00207507850596 -0.000975689453039)
(0.00332908855339 0.00220740990802 -0.000272825512007)
(0.00343826394692 0.0023914707008 0.000529135716283)
(0.00326436010883 0.00260058909067 0.00124215290384)