/*--------------------------------*- C++ -*----------------------------------*\
| =========                 |                                                 |
| \\      /  F ield         | OpenFOAM: The Open Source CFD Toolbox           |
|  \\    /   O peration     | Version:  3.0.1                                 |
|   \\  /    A nd           | Web:      www.OpenFOAM.org                      |
|    \\/     M anipulation  |                                                 |
\*---------------------------------------------------------------------------*/
FoamFile
{
    version     2.0;
    format      ascii;
    class       volScalarField;
    location    "2.6";
    object      k;
}
// * * * * * * * * * * * * * * * * * * * * * * * * * * * * * * * * * * * * * //

dimensions      [0 2 -2 0 0 0 0];

internalField   nonuniform List<scalar> 
7968
(
0.00175487263764
0.00190646320904
0.00201894580647
0.0020835310279
0.00211686020731
0.0021315171784
0.00213579578087
0.00213503847089
0.00213259143874
0.00213049838776
0.00213067780088
0.0021330039254
0.00213558705933
0.00213643723842
0.00213221702264
0.00211758155372
0.00208420990148
0.00201950190727
0.0019068354603
0.00175500691072
0.00190649861238
0.00258469918982
0.00302467185892
0.0032748947602
0.00340684419862
0.00346602924535
0.00348458052759
0.00348448067621
0.00347958455641
0.00347621873577
0.00347634891983
0.00347996409807
0.00348512264132
0.00348549776179
0.00346719521408
0.00340820252894
0.00327626805363
0.0030259026404
0.00258556091324
0.00190678884519
0.00201913062999
0.00302489973502
0.00367670888705
0.00405330820302
0.00425667611773
0.00435131373498
0.00438349686679
0.00438674963583
0.00438205181294
0.00437854231731
0.00437858306861
0.00438220235041
0.00438712038773
0.00438419810549
0.00435236936432
0.00425796139041
0.00405468213541
0.00367797742351
0.0030257839679
0.00201945677946
0.00208377140305
0.0032752959432
0.00405342543513
0.00450454888695
0.0047460631095
0.00485418328196
0.00488726053442
0.00488700942045
0.00487941417905
0.00487472404081
0.00487463419092
0.00487920695174
0.00488692655261
0.00488757476118
0.0048549417287
0.00474711388319
0.00450573895325
0.00405456583153
0.00327608062894
0.0020840591647
0.00211714056555
0.00340713581951
0.00425675986352
0.00474593947685
0.00499889337381
0.00510387679993
0.00515265731161
0.00517065655537
0.00517162931612
0.00516948099449
0.00516944093803
0.00517154628517
0.00517069480447
0.0051529811924
0.00510454464772
0.00499993358362
0.00474707523212
0.00425780470895
0.00340782416573
0.00211736660032
0.00213179036081
0.00346624979076
0.0043511792669
0.00485374085355
0.00510346048604
0.00524625912465
0.00531271898602
0.00533109212848
0.00533038432246
0.00532707743411
0.00532700624048
0.00533022031605
0.00533106549231
0.00531304712614
0.00524695033383
0.00510476809768
0.00485510858603
0.00435233017928
0.00346702620374
0.00213199734446
0.00213602360273
0.00348456317967
0.0043829620393
0.00488625746271
0.0051522019461
0.00531242700981
0.00537764392552
0.00539030475126
0.00538464309204
0.00537870442665
0.00537859197398
0.00538439783805
0.00539024817925
0.00537806601992
0.00531325411142
0.00515325237036
0.00488808938103
0.00438440491731
0.00348545764552
0.00213625220917
0.00213518047302
0.0034841475564
0.00438576467861
0.00488543126923
0.00516986651788
0.005330447599
0.00538992772626
0.00539503548694
0.00538309296105
0.00537359348303
0.00537345873455
0.00538283929172
0.00539500713367
0.00539046065518
0.00533147328049
0.00517114682033
0.00488774658577
0.0043875614882
0.00348525077858
0.00213546034001
0.00213260664516
0.00347892925713
0.00438068855643
0.00487748042912
0.00517058300561
0.00532951290834
0.00538401938239
0.00538277477342
0.00536467734975
0.00535124145887
0.00535108672616
0.00536447303735
0.00538279051847
0.00538458021817
0.00533063290147
0.00517203386969
0.00488006901392
0.00438275116943
0.00348021913405
0.0021329422559
0.00213032020103
0.00347527642492
0.00437691291003
0.00487262565859
0.00516830336284
0.00532611504734
0.00537796765545
0.0053730237337
0.00535082774907
0.00533423973983
0.00533413689757
0.0053506385936
0.00537301601508
0.00537846144448
0.00532719969897
0.00516977997907
0.00487527750045
0.00437908171387
0.00347665341705
0.0021306827303
0.00213025800054
0.00347518742311
0.00437678616091
0.0048724520742
0.00516816215549
0.00532595646854
0.00537777593765
0.00537277719842
0.00535050825098
0.00533385213177
0.0053337401001
0.00535030119727
0.0053727500844
0.00537825210908
0.00532702631245
0.00516961773196
0.00487505542324
0.00437889550427
0.00347651127065
0.00213058656925
0.00213247398336
0.00347867592481
0.00438032124271
0.00487697871334
0.00517018247937
0.00532907080688
0.00538349377981
0.00538211862828
0.00536387490761
0.00535032839684
0.005350142964
0.00536361706073
0.00538208454436
0.00538400695809
0.00533014299075
0.00517156707075
0.00487941695147
0.00438221974474
0.00347982159058
0.0021327332198
0.00213502467399
0.00348377016892
0.00438519637696
0.00488463061117
0.0051692460585
0.00532977286695
0.00538914371363
0.00539409021319
0.00538199657923
0.00537240428741
0.00537224486805
0.00538170070489
0.00539401911303
0.00538961726226
0.00533072318072
0.00517041880455
0.00488671342711
0.00438674848092
0.00348466171292
0.00213520842992
0.00213588167853
0.00348414436888
0.00438229661226
0.00488527533489
0.00515140404694
0.00531159152467
0.00537668586782
0.00538919106384
0.00538339724173
0.00537738927847
0.00537726091794
0.00538312445619
0.00538909720197
0.00537703340623
0.00531230212886
0.00515229269319
0.00488680465294
0.00438343534642
0.00348478154741
0.00213600634765
0.00213169038447
0.00346591179495
0.00435056148175
0.00485275228603
0.00510209456584
0.00524525951025
0.00531167762367
0.00532991549731
0.00532909465738
0.00532572351121
0.0053256376448
0.00532889643537
0.00532983095438
0.00531190264931
0.00524577931571
0.0051030775015
0.00485375990713
0.00435136452074
0.00346637889792
0.00213179592947
0.0021171003326
0.0034068969177
0.00425631917862
0.0047451439867
0.00499765434276
0.00510231148587
0.00515155460067
0.00516943910407
0.00517029556712
0.00516807521731
0.00516801506027
0.00517015397533
0.00516937454192
0.00515171337286
0.00510261893404
0.00499831986821
0.00474589677781
0.00425701213036
0.00340733026886
0.00211723532992
0.00208380174261
0.00327524320802
0.00405325058144
0.00450409033032
0.00474519729274
0.00485292171126
0.00488565520818
0.00488510984149
0.0048773281935
0.00487252028332
0.00487238560671
0.00487698485278
0.00488479581578
0.00488565686086
0.00485331955713
0.00474587873124
0.00450490257961
0.00405405067146
0.00327577648951
0.00208399996976
0.00201919531541
0.00302503056126
0.00367679896387
0.00405320729494
0.00425627374744
0.00435058691339
0.00438246098892
0.00438546108022
0.00438057670926
0.004376948617
0.00437693909593
0.00438058464212
0.00438559842186
0.004382862459
0.00435129939908
0.0042572047986
0.00405423377354
0.00367777215838
0.00302568711252
0.00201945011392
0.00190659482261
0.00258492935626
0.00302491949929
0.00327503452296
0.00340678692773
0.00346574673523
0.00348408539835
0.00348379831513
0.00347875615594
0.00347529215883
0.00347538268651
0.0034790228809
0.0034842610288
0.00348477382043
0.00346665702236
0.00340785866919
0.00327615608737
0.00302592254606
0.00258559713415
0.00190682495701
0.00175490790976
0.0019065653026
0.00201907580903
0.00208364844365
0.00211692685241
0.00213151623428
0.00213572358423
0.00213489530379
0.00213238371319
0.00213023154609
0.00213038355103
0.00213273223228
0.00213535796437
0.00213626598666
0.00213211582459
0.00211755043056
0.00208423929783
0.00201955825189
0.00190687443287
0.00175500962514
0.00189419760233
0.00252157312797
0.00294301415261
0.00318956277132
0.00332526231835
0.00339214177041
0.00341872880672
0.00342483418651
0.00342333241351
0.0034211943163
0.00342131800084
0.0034236748602
0.00342535857453
0.00341938829751
0.00339287289483
0.00332598321724
0.00319017649596
0.00294343429987
0.0025217883174
0.00189440281433
0.00252155113937
0.00495183384137
0.00611653017562
0.00678077704517
0.00714776723328
0.00732944896519
0.00740186483617
0.00741831154444
0.00741398406777
0.00740796309867
0.00740796160556
0.00741400192358
0.00741842453776
0.00740213339501
0.00732984979312
0.00714821374666
0.00678110759721
0.00611656145955
0.00495140933035
0.0025217176384
0.00294316251197
0.00611701817101
0.00764904166293
0.00854884092394
0.00906617561773
0.00933786940082
0.00945915455596
0.00949930280896
0.00950518969318
0.00950275059739
0.00950265503889
0.00950496169507
0.00949909811885
0.00945912248319
0.00933800992766
0.00906635448352
0.00854887784941
0.00764875528211
0.00611626060662
0.00294328087501
0.00318986063958
0.00678158120778
0.00854918821964
0.00960491873367
0.0102223931863
0.0105530018612
0.010705141145
0.0107588095795
0.0107703378918
0.0107699404086
0.0107697161755
0.0107697672852
0.0107581643642
0.0107047347752
0.0105528549249
0.0102222900476
0.00960463854075
0.0085485652454
0.006780516744
0.00318990370516
0.00332564946565
0.0071486682865
0.00906661403903
0.0102224587136
0.0109013709655
0.0112646049414
0.0114338299057
0.0114898936801
0.0115004956971
0.0114993456229
0.0114989663618
0.0114995072962
0.0114888169356
0.0114332102828
0.0112644692375
0.0109012659612
0.0102221019285
0.00906583765148
0.00714743970764
0.00332562458865
0.00339251630055
0.00733019780372
0.00933810475338
0.0105527785529
0.0112643272654
0.0116389423404
0.0117978507177
0.0118448845996
0.0118488715744
0.0118445239219
0.0118439768809
0.0118474313292
0.0118433446097
0.0117971117381
0.011639073429
0.0112645484958
0.0105527236014
0.00933748851835
0.00732904716976
0.00339249714493
0.00341899070479
0.00740227794776
0.00945893605866
0.0107043102214
0.0114327068127
0.0117970565114
0.0119419271302
0.0119753865461
0.0119699574256
0.0119610736174
0.0119603459986
0.0119680811132
0.0119734082605
0.0119411036542
0.0117975890303
0.0114337345817
0.0107048552873
0.00945874144749
0.00740141896207
0.00341906495697
0.00342491182741
0.00741830549412
0.00949856494248
0.0107573775427
0.0114880747193
0.0118433680555
0.0119746513155
0.0119944880402
0.0119798311967
0.011966198679
0.0119653335679
0.0119777028756
0.0119922096753
0.0119736968553
0.0118441149912
0.0114895965261
0.0107584409351
0.00949882636085
0.00741780728787
0.0034251279643
0.00342317950403
0.00741358813074
0.00950403601072
0.0107685637324
0.0114983548147
0.0118471629076
0.0119690915727
0.0119795876396
0.011957057398
0.0119391610615
0.01193817515
0.011954813954
0.0119770959306
0.0119678453964
0.0118478378015
0.0115000589592
0.0107698669438
0.0095046075578
0.00741337965529
0.00342353145419
0.00342080016901
0.00740726222832
0.00950131494005
0.0107679946949
0.0114971991331
0.0118430024064
0.0119604559118
0.0119659708825
0.0119389024699
0.0119186120301
0.0119176873822
0.0119365519783
0.0119632369074
0.0119588535627
0.0118434323159
0.0114988501795
0.0107693634099
0.00950201118464
0.00740718261094
0.00342122184638
0.00342072432623
0.0074070567238
0.0095010563473
0.0107676951387
0.0114968588152
0.0118426183697
0.0119600127506
0.0119654451199
0.0119382796849
0.0119179206857
0.0119169745031
0.0119358890256
0.011962670055
0.0119583741013
0.0118430154537
0.0114984693519
0.010769011282
0.00950168862745
0.00740691546038
0.00342111173129
0.00342296938182
0.00741298947406
0.009503283595
0.0107676907185
0.0114973660268
0.0118460618041
0.011967848443
0.0119781391205
0.0119554037573
0.0119373737102
0.0119363210828
0.0119530355469
0.0119755336039
0.0119664967082
0.0118466335954
0.0114989421388
0.0107688337992
0.00950367229533
0.00741261155772
0.00342323126441
0.00342460897624
0.0074173704525
0.00949738296497
0.0107559798017
0.0114865006601
0.0118416264193
0.011972719769
0.0119922810701
0.011977410048
0.0119636527909
0.0119627336985
0.0119751868126
0.0119899159524
0.0119716409874
0.0118422132349
0.0114878078653
0.0107567769491
0.00949735847186
0.00741661894422
0.00342469944771
0.00341865983907
0.00740112932409
0.00945747409118
0.0107025539015
0.0114307195834
0.011794806697
0.0119394071346
0.0119725826401
0.0119669402324
0.0119579595424
0.0119571998082
0.011965011992
0.011970542222
0.0119384350574
0.0117950912273
0.0114314306926
0.0107027299606
0.00945690028006
0.00739994517693
0.00341858617978
0.00339222124805
0.00732899910631
0.00933657023047
0.0105509142615
0.0112623665225
0.0116364250291
0.0117949527342
0.0118416960719
0.0118454872817
0.0118410379148
0.011840460311
0.01184398023
0.0118400442261
0.0117940013846
0.0116362414951
0.0112621890126
0.0105503992539
0.00933549349411
0.00732746187562
0.00339204500799
0.00332544371671
0.00714757432855
0.00906520375775
0.0102206775467
0.0108992239173
0.0112623308921
0.0114308882565
0.0114866188151
0.0114970230113
0.0114957532915
0.0114953358279
0.011495923719
0.0114853436608
0.011429967977
0.0112618516092
0.0108986422003
0.0102197948194
0.00906391049581
0.00714591139532
0.0033252577231
0.00318977234389
0.00678071969969
0.00854806708816
0.00960343854522
0.0102204906207
0.0105506873076
0.0107024023506
0.0107557700382
0.0107671523566
0.0107666353472
0.0107663612051
0.0107664307656
0.0107548608669
0.010701625129
0.0105500864994
0.0102198605926
0.00960259566136
0.00854689556126
0.00677918446155
0.00318964858167
0.00294317311862
0.00611643770815
0.00764828642196
0.00854778271216
0.00906472774163
0.00933601369148
0.00945692195024
0.00949677478532
0.00950245993166
0.00949988495224
0.00949973289585
0.00950206300336
0.00949628746322
0.00945650599887
0.00933569006806
0.00906438456296
0.00854726979963
0.00764745906112
0.00611519786833
0.00294313139453
0.00252163403529
0.0049515450093
0.00611613823363
0.00678016507658
0.00714685197009
0.00732820698762
0.0074003251025
0.00741652748506
0.00741201589556
0.00740587334299
0.00740582279533
0.0074118888925
0.00741640070351
0.00740027336196
0.0073282236944
0.00714686446921
0.00678002931385
0.00611569068034
0.0049506584733
0.00252165741879
0.0018942476158
0.00252157398871
0.00294299668635
0.00318950306053
0.00332511439149
0.00339187601258
0.00341833832876
0.00342432570458
0.00342272316262
0.00342051284771
0.00342061013058
0.00342299181377
0.00342473571167
0.00341885630259
0.00339245219745
0.00332567375037
0.00318995401882
0.00294325770636
0.00252164769915
0.00189442326249
0.00199567751843
0.00291398301951
0.00353395802445
0.00390510414126
0.00411711901655
0.00422800840739
0.00427762257035
0.00429434728462
0.00429710234578
0.0042963664236
0.00429643372755
0.00429729762518
0.0042946686771
0.00427804056958
0.00422845728948
0.00411751089298
0.00390534768761
0.00353399477883
0.00291389649751
0.00199594063388
0.00291394192279
0.00603890656947
0.00754861684092
0.00843409259082
0.0089429988097
0.00921117643831
0.00933218067758
0.00937317297199
0.00937951701078
0.00937706282929
0.00937690889627
0.00937910088014
0.00937261717403
0.00933158343601
0.00921053787832
0.00894225147743
0.00843312742301
0.00754731712718
0.00603719762543
0.0029138108846
0.00353409929904
0.00754923916538
0.00948121866033
0.0106416306622
0.0113340628712
0.0117191590923
0.0119090773393
0.0119872215359
0.0120115531919
0.0120159925044
0.0120157542581
0.0120109191183
0.0119863743906
0.0119081958288
0.0117182425232
0.0113329635112
0.0106401836809
0.00947930814507
0.00754685191806
0.00353376558713
0.00390544737857
0.00843515308023
0.0106421083097
0.0119864406284
0.0128039915187
0.0132697761076
0.0135066182087
0.0136097703414
0.013647789307
0.013657874447
0.0136575612964
0.0136469558454
0.0136085551493
0.0135054365604
0.0132686519267
0.0128026491976
0.011984622361
0.0106396912049
0.00843220951669
0.00390495559398
0.00411758610335
0.0089442472089
0.0113347399215
0.0128041740584
0.0137060031521
0.0142252080533
0.0144871445438
0.0145990842553
0.0146369772118
0.014645678511
0.0146451117894
0.0146354796416
0.0145970793575
0.0144854227271
0.0142241016964
0.0137047052623
0.012802283265
0.0113320858683
0.0089409780752
0.00411698058894
0.00422846516038
0.00921230932264
0.0117196895678
0.0132697487463
0.0142249625067
0.0147634369416
0.015029888383
0.0151378217521
0.0151695768454
0.015174359686
0.015173499257
0.0151672437134
0.0151343263712
0.0150264059801
0.0147615652025
0.0142240218234
0.0132681593616
0.0117171731171
0.00920905436917
0.00422785858906
0.00427793064347
0.00933294784191
0.0119091608413
0.0135060492245
0.0144863066508
0.0150298644069
0.0152893938187
0.0153848251329
0.0154053925682
0.0154039524558
0.0154027805641
0.0154021410342
0.0153795222992
0.0152833097157
0.0150260802655
0.0144854562824
0.0135049838427
0.011907074004
0.00933001050267
0.00427745582061
0.00429441431988
0.00937346902622
0.01198678109
0.0136087074137
0.0145980494495
0.0151385581779
0.0153860458165
0.0154660615527
0.0154736044518
0.015464973114
0.0154635673689
0.0154696661646
0.0154593829028
0.0153779680468
0.0151328446831
0.0145967592336
0.0136079907556
0.0119851381929
0.00937095036604
0.00429414665731
0.00429689208283
0.00937938329103
0.0120107160868
0.0136467011368
0.014636066456
0.0151710797137
0.015407876004
0.0154749770679
0.0154715438685
0.0154567775301
0.0154552169259
0.0154671867027
0.0154675106636
0.0153986754959
0.0151643747211
0.0146343720722
0.0136458732149
0.0120093437801
0.00937720235137
0.00429682048705
0.00429590093583
0.00937661909788
0.0120148947674
0.0136566998838
0.014644938284
0.0151763983976
0.0154072559999
0.015467156135
0.015457484158
0.0154392028343
0.0154376024289
0.0154529011729
0.0154592624274
0.0153974994903
0.0151692657917
0.0146430544142
0.0136558427899
0.0120136360256
0.00937459125915
0.00429593107081
0.0042957941645
0.00937630485024
0.0120145464612
0.0136563702787
0.0146445835178
0.0151760290083
0.0154068564622
0.0154667016393
0.0154569574502
0.0154386274587
0.0154370063622
0.0154523377179
0.015458776507
0.0153970823649
0.0151688759945
0.0146426647241
0.0136554710914
0.012013223985
0.0093742060165
0.00429578509541
0.00429658026206
0.00937845493588
0.0120096914383
0.0136457237284
0.0146350262735
0.0151700195364
0.0154067719993
0.0154737382677
0.0154701538724
0.0154552820641
0.015453671663
0.0154656985419
0.0154661869081
0.0153975048122
0.0151632435243
0.0146332209159
0.0136447643579
0.0120081367231
0.00937608184884
0.00429640589799
0.00429393672347
0.00937199362986
0.011985141056
0.0136070391306
0.0145963784145
0.0151369157398
0.0153844124679
0.0154643118955
0.0154716997993
0.0154629653339
0.0154615139268
0.0154676736239
0.0154575594613
0.0153762423632
0.0151310724072
0.0145948892433
0.0136060710054
0.0119832064928
0.00936918973178
0.00429352422603
0.00427736685685
0.00933108501785
0.0119070709617
0.013503866625
0.0144841062194
0.0150276948058
0.0152872803147
0.0153826599714
0.0154031140632
0.015401584103
0.0154003809448
0.0153997923964
0.0153772739975
0.015281060491
0.0150236970747
0.014482962686
0.013502437107
0.0119045843619
0.00932777502684
0.00427671685486
0.00422790977138
0.00921028232009
0.0117173885633
0.0132672882288
0.0142224164477
0.0147607672696
0.0150271640008
0.0151350501516
0.0151667037866
0.0151713940158
0.0151704999045
0.0151642798994
0.0151314132419
0.0150234645799
0.0147585974229
0.0142211118976
0.0132652332365
0.011714367084
0.00920656641399
0.00422710562472
0.00411712007251
0.00894228637257
0.0113324680108
0.0128016477466
0.013703247264
0.0142222608709
0.014483880371
0.0145956338077
0.0146334240589
0.014642027643
0.0146414226597
0.0146318117098
0.0145934268515
0.01448185495
0.014220748293
0.0137014562426
0.0127991832495
0.0113292151664
0.00893847420675
0.00411630125763
0.003905120751
0.00843345023656
0.0106400791465
0.011984071306
0.0128012589874
0.0132666844541
0.0135031712093
0.0136061232444
0.0136443116561
0.0136543307595
0.013653973965
0.0136433410965
0.0136046390284
0.0135016014243
0.0132650651949
0.0127993290693
0.0119816011205
0.0106369961907
0.00842990256281
0.00390440260719
0.00353391851361
0.00754789781108
0.00947957234655
0.010639604327
0.0113315952986
0.0117162420474
0.0119057487584
0.0119835828229
0.0120077197855
0.0120120092333
0.0120117083327
0.012006896712
0.0119824152887
0.0119044265067
0.0117147817722
0.0113298712968
0.0106374823685
0.00947697852573
0.00754488346654
0.00353335732258
0.00291390134506
0.00603798761955
0.0075474424671
0.00843256605445
0.00894104359246
0.00920877839904
0.0093293862248
0.00937006155149
0.00937616578241
0.00937355122227
0.00937333510833
0.00937556528593
0.00936919786975
0.0093283774399
0.00920764274871
0.00893973150815
0.00843099045057
0.00754551576173
0.00603567930028
0.00291356490003
0.00199573644109
0.00291382108747
0.00353368804234
0.0039047366455
0.00411661179703
0.00422732969473
0.00427676873048
0.00429333786708
0.00429596658112
0.00429514500235
0.0042951812576
0.00429607310457
0.00429351606124
0.00427700614716
0.00422757541628
0.00411678677852
0.00390475579336
0.00353349998148
0.00291353211642
0.00199598147524
0.00205505850739
0.0031498058591
0.00389482707247
0.00434896735794
0.00461540847534
0.00476050680019
0.00483028994492
0.0048579809792
0.00486610726934
0.00486747983572
0.00486748794627
0.00486613750614
0.00485806295969
0.00483040697119
0.00476059214087
0.00461538984288
0.00434878700124
0.0038944742279
0.00314944056184
0.00205539947724
0.0031497698719
0.0066998242826
0.00843565760929
0.00947526497979
0.0100892914
0.0104265391026
0.0105905063139
0.0106564230162
0.0106756546459
0.010678402094
0.0106780616965
0.0106747080245
0.0106550684884
0.0105888731182
0.0104246470414
0.0100871241298
0.00947282259038
0.00843293248925
0.00669681383099
0.00314934040901
0.00389498637399
0.00843639425199
0.0106306917832
0.0119696205549
0.0127881922039
0.013259978203
0.0135063626888
0.0136185427483
0.0136603373542
0.0136715816246
0.0136711484446
0.0136591799224
0.0136169927974
0.0135046053598
0.0132579937022
0.0127857964895
0.0119666535664
0.0106271016535
0.0084322840323
0.00389417864689
0.00434935580148
0.00947654556464
0.0119702094699
0.0135073974736
0.0144635688567
0.0150271778616
0.0153292726258
0.0154731301138
0.0155292959287
0.0155454265335
0.0155448120037
0.0155276698891
0.0154707416932
0.0153263063683
0.0150246982995
0.0144611040547
0.0135041038675
0.0119659457101
0.00947150894642
0.00434826273307
0.00461593812399
0.010090844205
0.0127890686718
0.014463827777
0.0155146323813
0.016138948183
0.0164694208852
0.0166207409839
0.0166769701776
0.0166918447506
0.0166908118061
0.0166740325751
0.0166156989789
0.0164629130263
0.0161333761284
0.0155111469623
0.0144605435021
0.012784477034
0.0100852053161
0.00461464983974
0.0047610134087
0.0104279986834
0.0132607285316
0.0150273233838
0.0161396293907
0.016789247619
0.0171254720506
0.0172704251221
0.0173174862245
0.0173262986057
0.017324688987
0.0173125950568
0.0172614623013
0.0171129405798
0.0167771605725
0.0161323741107
0.0150237707982
0.0132562661007
0.0104222519538
0.00475970168145
0.00483058717129
0.0105915195133
0.0135065962389
0.0153296700761
0.0164725749621
0.0171290812317
0.0174560347751
0.0175840965827
0.0176149222179
0.0176142814786
0.0176121837637
0.017608187763
0.0175712331403
0.0174372040824
0.0171094486495
0.0164592949385
0.0153245593267
0.0135026091852
0.0105861201957
0.00482945779069
0.00485794797971
0.0106568279229
0.0136181337737
0.0154745357517
0.0166269029014
0.0172785271938
0.0175891769813
0.0176949218125
0.0177067259493
0.0176954768069
0.0176931540258
0.0176990942707
0.0176797716827
0.0175661833076
0.0172534671711
0.016608839635
0.0154674068098
0.0136146397906
0.0106519479917
0.00485711862358
0.00486571365054
0.0106754843419
0.0136593452284
0.0155308270269
0.0166847653941
0.0173284627977
0.0176236404156
0.0177105614588
0.017706201491
0.0176857678557
0.0176832785947
0.0176982266352
0.0176945078056
0.0175989075366
0.0173011653119
0.0166648503921
0.0155231530764
0.013656236651
0.0106710604278
0.00486517242132
0.00486678604301
0.0106778560669
0.0136702974119
0.0155469793912
0.0167003714111
0.0173388248303
0.0176251137081
0.0177014542183
0.0176877513136
0.0176620869214
0.0176596598108
0.0176796027913
0.0176850706865
0.0175997828749
0.017310876498
0.0166800337088
0.0155392463795
0.0136673381652
0.0106736409714
0.00486639456143
0.00486663198063
0.0106773955624
0.0136698396315
0.0155465792141
0.0167000314854
0.0173385360885
0.0176248425297
0.0177011137404
0.0176873191304
0.0176615748547
0.0176591577964
0.0176791627381
0.0176847071225
0.0175994981762
0.0173105975716
0.0166796873125
0.0155388082524
0.0136668106653
0.010673088699
0.00486619132749
0.00486525151202
0.0106741069138
0.0136579928011
0.0155296570959
0.0166837788844
0.0173276739015
0.0176229399534
0.0177097533024
0.0177052412505
0.017684684132
0.0176821431484
0.0176971602815
0.0176936406603
0.0175981936935
0.0173003845656
0.0166638358504
0.0155218685288
0.0136546894094
0.0106694422911
0.00486458463871
0.00485722168133
0.0106546195945
0.0136159739229
0.0154727507757
0.0166253996195
0.0172774370848
0.0175883921564
0.0176940966418
0.0177057570651
0.0176944170815
0.0176920379837
0.0176980376775
0.0176789049428
0.0175653692486
0.0172523469775
0.0166072476304
0.0154654281814
0.013612177212
0.0106493927171
0.00485621723027
0.0048296988095
0.0105886950232
0.0135037847733
0.015327196969
0.0164705922266
0.0171277384675
0.0174552295926
0.0175834811035
0.0176142411327
0.0176135203996
0.0176113703731
0.0176074156218
0.0175705436433
0.0174362840957
0.0171079621195
0.0164570870712
0.0153217357461
0.0134993683909
0.0105828381046
0.00482835399135
0.00476009707579
0.0104248752043
0.0132575390148
0.0150243052686
0.0161370432862
0.0167873143828
0.0171241863812
0.0172694819899
0.0173165304652
0.0173252311582
0.0173235670536
0.0173114837957
0.0172602983894
0.017111393022
0.0167749304849
0.0161294064389
0.0150202561997
0.013252507003
0.0104185481338
0.00475853422734
0.00461511342297
0.010087760871
0.0127858013855
0.0144605066492
0.0155113606997
0.016135985886
0.016466890616
0.0166184900144
0.0166746393048
0.0166893720094
0.0166882760501
0.0166715125605
0.016613153984
0.0164600128326
0.0161299763961
0.0155073446392
0.0144565831917
0.0127805031922
0.0100814269158
0.0046135485112
0.0043487011013
0.00947378722809
0.0119671286562
0.0135040388516
0.0144599067058
0.0150232514071
0.0153252674326
0.0154692991828
0.0155250345038
0.0155409524213
0.0155402722878
0.0155232108664
0.0154666099672
0.0153218732697
0.0150202207269
0.0144567701124
0.0134999771435
0.0119620471913
0.0094679669479
0.00434731688671
0.00389453027599
0.00843411591655
0.0106279841871
0.0119664358898
0.0127844660478
0.0132556976185
0.0135015780384
0.0136133579854
0.0136547685257
0.0136657738115
0.0136652601633
0.0136533712923
0.0136114140658
0.0134992804925
0.0132530425056
0.0127812951789
0.011962624668
0.0106235326984
0.00842920745207
0.00389343988506
0.00314953377519
0.00669811671319
0.00843348841633
0.00947251961085
0.0100858747139
0.0104224396067
0.0105857968896
0.0106512241331
0.0106700617799
0.010672554648
0.0106721230355
0.0106688493066
0.0106494288254
0.0105835854305
0.010419858288
0.0100829378557
0.00946926138343
0.0084299571904
0.00669437081385
0.00314887826285
0.00205512980838
0.00314943243646
0.00389424125552
0.00434819286527
0.00461439813993
0.0047592237443
0.00482873830632
0.00485620151319
0.00486414591581
0.00486539979403
0.00486536577443
0.00486405606045
0.00485608639264
0.00482860655262
0.0047590292768
0.00461408434929
0.00434771523122
0.00389360636429
0.00314884209108
0.00205546900772
0.00209047501176
0.0033040859758
0.00413347638029
0.00464536665717
0.00495166353629
0.00512340271974
0.00521002983884
0.00524750408102
0.00526070350749
0.00526415173553
0.00526412156593
0.00526063712838
0.00524748679089
0.00521003398837
0.00512329454702
0.00495137637066
0.00464489014081
0.00413289174687
0.00330361982189
0.00209093934787
0.00330407529458
0.00714816816086
0.00904080678227
0.0101924868775
0.0108868627325
0.0112798710435
0.0114808781574
0.0115695466729
0.0116011915094
0.0116092007404
0.011608700485
0.0115997977547
0.0115675715572
0.0114784529138
0.0112769228288
0.0108834077953
0.0101887008895
0.00903684750919
0.00714402249266
0.00330349439046
0.00413368405316
0.0090416730776
0.0114190778871
0.0128860851906
0.0137973350072
0.0143345779326
0.0146247156394
0.0147625954648
0.0148172499087
0.0148335102778
0.0148328931752
0.0148156074665
0.0147600159959
0.014621507165
0.0143316312966
0.0137942370531
0.0128821256232
0.0114141973385
0.00903595899986
0.00413250862291
0.00464583198466
0.0101940301253
0.0128868116525
0.0145586305605
0.0156124532681
0.0162444793833
0.0165902629135
0.0167566033043
0.0168214843811
0.0168401792982
0.0168391209471
0.016818470523
0.0167512490845
0.0165830235554
0.0162374431281
0.0156074460356
0.0145545425937
0.0128811386558
0.0101868277555
0.004644192191
0.00495226815728
0.0108888048562
0.0137984703358
0.0156131473692
0.0167637887768
0.0174531704256
0.0178206145239
0.0179875085039
0.0180468981449
0.0180606166578
0.0180586848074
0.0180408382534
0.0179759466168
0.0178034231753
0.0174349180463
0.0167508732339
0.0156063859191
0.0137923481917
0.0108805834746
0.00495036646677
0.00512394212372
0.0112817287386
0.014335864264
0.0162479720264
0.0174585811338
0.0181676517112
0.0185306580694
0.0186796754529
0.0187206353767
0.0187230780863
0.0187203312681
0.0187113348375
0.0186607499617
0.0185002015203
0.0181317411605
0.0174298437394
0.0162334294461
0.0143288688572
0.011273241394
0.00512202308105
0.00521022716671
0.0114821049938
0.0146266758593
0.0165994243876
0.0178362078433
0.0185427810251
0.0188823430722
0.0190007848456
0.0190145314083
0.0190015404854
0.018998509163
0.0190036097051
0.0189767377084
0.0188409416063
0.0184895365371
0.0177891627321
0.0165734923734
0.0146171433288
0.0114740605405
0.005208622308
0.00524716610371
0.0115698461215
0.0147655517182
0.0167709495888
0.0180124685579
0.0187029744107
0.019012407507
0.0190954362991
0.0190788217378
0.019049109183
0.0190463073581
0.019068182108
0.0190700227733
0.0189655108661
0.0186395832558
0.017952964785
0.0167362490995
0.0147534944783
0.0115625292769
0.00524606340456
0.00525981718546
0.0116006126113
0.0148202237757
0.0168379599104
0.0180764377323
0.0187499413738
0.0190327099252
0.0190851743616
0.0190424848965
0.0189982792938
0.0189956818086
0.0190325200298
0.019060241487
0.0189847448024
0.0186834871771
0.0180128036536
0.016800389397
0.0148075736193