/*--------------------------------*- C++ -*----------------------------------*\
| =========                 |                                                 |
| \\      /  F ield         | OpenFOAM: The Open Source CFD Toolbox           |
|  \\    /   O peration     | Version:  3.0.1                                 |
|   \\  /    A nd           | Web:      www.OpenFOAM.org                      |
|    \\/     M anipulation  |                                                 |
\*---------------------------------------------------------------------------*/
FoamFile
{
    version     2.0;
    format      ascii;
    class       volScalarField;
    location    "2.6";
    object      nut;
}
// * * * * * * * * * * * * * * * * * * * * * * * * * * * * * * * * * * * * * //

dimensions      [0 2 -1 0 0 0 0];

internalField   nonuniform List<scalar> 
7968
(
0.000230649180656
0.000240600862288
0.000247751490971
0.000251787203834
0.000253857886267
0.000254768988524
0.000255036255386
0.000254989404054
0.000254836233264
0.000254704450808
0.000254715163052
0.0002548608531
0.000255022224673
0.000255074792644
0.000254811295201
0.000253901920197
0.000251829248836
0.000247786722585
0.000240625255393
0.000230658453394
0.000240603220666
0.000280625464043
0.000303818359023
0.000316287206117
0.000322688919095
0.000325526484326
0.000326409985994
0.000326398968053
0.000326157616494
0.00032599151904
0.00032599726769
0.000326174418989
0.000326427711301
0.000326451663973
0.00032558032472
0.000322752986611
0.000316353966003
0.000303881193895
0.000280673328887
0.000240622211003
0.000247763310383
0.000303830138444
0.000335206222372
0.000352092181511
0.000360899982789
0.000364931195548
0.00036628891828
0.000366417594048
0.000366209567911
0.000366054935861
0.000366055970733
0.000366214057011
0.000366430648846
0.000366315803454
0.000364973504388
0.000360953266341
0.000352151490852
0.000335264416246
0.000303875202633
0.000247783887214
0.000251802313706
0.000316307083286
0.000352097399023
0.000371285973552
0.000381169556344
0.000385509489157
0.000386818579093
0.000386793556837
0.000386477453067
0.000386282488911
0.000386277881634
0.000386466483986
0.000386786627115
0.000386827486526
0.000385536726942
0.000381209652736
0.000371333715449
0.000352146423134
0.000316344886336
0.000251819893932
0.000253875356924
0.000322703060777
0.000360903505982
0.000381164364099
0.000391222694267
0.000395307918286
0.000397205355759
0.000397902972367
0.000397936752466
0.000397849692096
0.0003978473612
0.00039793152449
0.000397901902201
0.00039721548601
0.000395330581345
0.000391260881448
0.000381208105579
0.000360946548149
0.000322734865776
0.000253888636702
0.000254785950719
0.000325536958085
0.0003649251445
0.000385491097131
0.000395291180715
0.000400815678608
0.000403369499806
0.000404072495797
0.000404041571362
0.000403911057722
0.000403907376199
0.000404032827374
0.000404068400042
0.000403379352932
0.00040084023162
0.000395339461777
0.000385543582386
0.000364971910573
0.000325572274035
0.000254797739588
0.000255050367238
0.000326408925892
0.000366265560997
0.000386777137956
0.000397186820149
0.000403357893335
0.000405849188624
0.000406328382676
0.000406106299419
0.00040587433053
0.000405868856328
0.000406093862989
0.000406322367536
0.000405861977658
0.000403387435657
0.000397226386138
0.000386848384977
0.000366324557762
0.000326449621265
0.000255063312592
0.000254998194129
0.000326382721537
0.00036637494312
0.000386728692539
0.000397871215235
0.000404047236448
0.00040631387984
0.000406500948619
0.000406035522019
0.000405664856823
0.00040565830632
0.000406022168114
0.000406495279724
0.000406330247287
0.000404083974799
0.000397919651209
0.000386819536605
0.000366449054542
0.000326433422129
0.00025501423987
0.000254837223233
0.000326125994231
0.000366150916494
0.000386398445314
0.000397895153141
0.000404007873432
0.000406082807263
0.000406023906062
0.00040531769443
0.000404791973371
0.000404784501851
0.000405305702464
0.000406019283509
0.000406099704444
0.000404047841839
0.000397950016636
0.000386500282362
0.000366236412712
0.00032618573677
0.000254856697026
0.000254693629068
0.000325946313965
0.000365985249194
0.000386197288477
0.000397803341398
0.000403874437947
0.000405847336406
0.000405644617158
0.000404777232771
0.00040412682263
0.000404121089285
0.000404765523185
0.000405638727059
0.00040586133506
0.000403912833944
0.000397859099927
0.000386301714354
0.000366075300734
0.000326010275004
0.000254714730161
0.00025468958808
0.000325941793379
0.000365979558925
0.000386189967762
0.000397797548493
0.000403868054635
0.000405839672181
0.000405634784344
0.00040476448393
0.000404111333589
0.00040410523112
0.000404752047087
0.000405628112784
0.000405852965284
0.000403905841434
0.000397852444316
0.00038629239031
0.000366067027993
0.000326003154297
0.000254708564489
0.000254828620582
0.000326113142652
0.000366134443516
0.000386377303964
0.00039787872477
0.000403990070743
0.000406061826365
0.0004059977839
0.000405285717098
0.000404755529814
0.000404746857887
0.000405271602453
0.000405991181923
0.000406076827564
0.000404028120265
0.00039793089939
0.000386472957036
0.000366212819625
0.000326165851082
0.000254843329585
0.00025498807685
0.000326363569383
0.000366349454005
0.000386694961012
0.000397845751511
0.000404020042716
0.000406282567735
0.000406463314973
0.000405991862685
0.000405617450092
0.000405609932126
0.000405976834421
0.000406455938114
0.000406296572036
0.000404053771275
0.000397889836202
0.000386776266814
0.000366412975646
0.00032640398887
0.000254998137301
0.000255041089138
0.000326387588392
0.000366235621313
0.000386735704611
0.000397154014935
0.000403324083848
0.000405810796095
0.000406283918151
0.000406056574679
0.000405821798788
0.000405815694961
0.00040604303153
0.000406276399618
0.000405820627026
0.00040334901567
0.000397187051987
0.000386794566604
0.000366281474105
0.000326415798332
0.000255047578018
0.000254779320857
0.000325519416688
0.000364897073914
0.000385449108708
0.000395235406389
0.000400775022816
0.000403327432613
0.000404025146092
0.000403989720228
0.000403856616864
0.000403852343403
0.000403979588004
0.00040401871701
0.00040333317491
0.000400792737019
0.000395270767815
0.000385486841094
0.000364928771169
0.000325539732021
0.000254784818147
0.000253872541528
0.000322690401234
0.000360882967284
0.000381129942848
0.000391171006846
0.000395243993545
0.000397160058769
0.000397853115799
0.000397882205906
0.000397792205199
0.000397789051821
0.00039787459023
0.000397847878658
0.000397163546401
0.000395252321304
0.000391194077872
0.000381157813682
0.00036091062057
0.000322709701362
0.00025388018416
0.000251804053131
0.000316303725553
0.000352088572053
0.000371265219025
0.000381132164454
0.000385456036401
0.00038675101978
0.000386713855444
0.000386390021729
0.000386190105444
0.00038618363275
0.000386373424442
0.000386697406541
0.000386747129307
0.000385468484972
0.00038115692149
0.000371296900187
0.00035212235804
0.000316329034938
0.000251816072573
0.000247767409021
0.000303836519042
0.000335209842174
0.000352086766325
0.000360881196616
0.000364898273148
0.000366242588536
0.00036636025415
0.000366144079305
0.00036598423694
0.000365983084821
0.000366142340996
0.000366363151317
0.000366256452862
0.000364925671702
0.000360918931096
0.000352130496372
0.000335254179775
0.000303869843575
0.000247783514414
0.000240609571066
0.000280638230882
0.000303830941033
0.000316293699896
0.000322685377137
0.000325511788348
0.000326384838671
0.000326364630277
0.000326116084689
0.000325945141862
0.000325948937879
0.000326127337096
0.000326384574535
0.000326415331815
0.000325553135763
0.000322735372975
0.000316347908739
0.000303882022153
0.000280675357466
0.000240624720786
0.000230651644464
0.000240607600459
0.000247759804498
0.000251794534402
0.000253861896149
0.000254768661989
0.000255031402122
0.000254980061567
0.000254822807593
0.000254687296195
0.000254696288948
0.000254843422655
0.000255007506098
0.000255063761122
0.000254804725295
0.000253899846152
0.000251831096298
0.000247790406479
0.000240627951874
0.000230658741399
0.000239791717118
0.000277038201311
0.000299530644614
0.000311988985234
0.00031867022639
0.000321929265448
0.000323223379772
0.000323522281266
0.000323449670844
0.000323344873006
0.000323350481639
0.000323465200554
0.000323546175832
0.000323253675063
0.000321963251685
0.000318704372141
0.000312018941025
0.000299552214998
0.000277050290913
0.000239805331106
0.000277037134037
0.000898132255314
0.00115040592384
0.00127597908036
0.00134038154855
0.00137026449498
0.00138073343926
0.00138162579383
0.0013793821041
0.00137751943131
0.00137748410653
0.00137928865081
0.00138150681657
0.00138062315678
0.00137017836081
0.00134031870842
0.0012759127626
0.00115028471272
0.000897898145666
0.000277046006088
0.000299538603578
0.00115056285212
0.0015284406591
0.00172523262919
0.00183212481049
0.00188705800915
0.00191141511686
0.00191940355303
0.00192046799448
0.0019198661491
0.00191981178547
0.00192032561205
0.00191922439779
0.00191125542158
0.00188693820127
0.00183202919382
0.00172511814754
0.00152823901969
0.00115021285155
0.000299543951187
0.000312004108766
0.00127622125948
0.00172533963374
0.00196397166663
0.00209572576286
0.00216470667852
0.0021960071892
0.00220683730823
0.00220916307889
0.00220908626816
0.00220899512466
0.00220892362542
0.00220653695424
0.00219575268654
0.00216452362522
0.00209556908633
0.00196378036074
0.00172504116315
0.00127577353069
0.00031200512426
0.000318689372656
0.00134064897946
0.00183226204935
0.00209575163636
0.00224076908522
0.00231438221289
0.00234378422168
0.00234922641279
0.00234803146309
0.00234654628501
0.0023463761375
0.00234757797696
0.00234869625562
0.00234340828222
0.00231419322479
0.00224059958537
0.00209552391615
0.00183190257558
0.00134014282709
0.000318686676549
0.000321947536998
0.00137049554145
0.0018871509091
0.00216466345155
0.00231430923014
0.00237970763321
0.00239701385432
0.00239518811953
0.00238993682292
0.00238678501903
0.00238653815354
0.00238927069107
0.00239442570522
0.00239654869943
0.00237959583066
0.00231421477064
0.00216448599451
0.00188680116512
0.00136998596454
0.00032194488526
0.000323236043802
0.00138089645813
0.0019114088844
0.00219580979188
0.00234338156242
0.00239671531702
0.00240449360635
0.00239603245337
0.00238702783474
0.00238231473025
0.00238198929089
0.00238615932619
0.0023950481379
0.00240395169604
0.00239673213533
0.0023436074848
0.00219576795512
0.0019111320649
0.0013804326055
0.000323237807065
0.000323525960658
0.00138171384152
0.00191929327101
0.00220650548481
0.00234860241775
0.00239464533919
0.00239577714307
0.00238221919963
0.00237045280976
0.00236455027167
0.00236416852539
0.00236948028425
0.00238109431929
0.00239514700396
0.0023947057136
0.00234897246509
0.00220656526748
0.00191909651483
0.00138130867777
0.000323534580671
0.000323442218536
0.0013794121305
0.00192028724724
0.00220877699773
0.00234734533957
0.00238938270577
0.0023867924383
0.00237043397425
0.00235679766309
0.0023500947237
0.00234965940154
0.00235578857717
0.00236922498774
0.00238603265537
0.00238938694351
0.00234774726026
0.00220886976082
0.00192014067023
0.00137905186273
0.000323457438844
0.000323325845944
0.00137751479773
0.00191964894057
0.00220869300775
0.0023459193678
0.002386372578
0.00238225694237
0.00236462288748
0.00235007288171
0.00234308864755
0.00234268964515
0.0023490290742
0.00236332769548
0.00238135635983
0.00238627117521
0.00234628443528
0.00220878890872
0.00191952070749
0.00137717303597
0.000323344453196
0.000323321954944
0.00137746295409
0.00191958307365
0.00220861677787
0.00234581797901
0.00238625063122
0.00238211150926
0.0023644450615
0.00234985808339
0.00234284574031
0.00234244314623
0.00234880224252
0.00236313362675
0.00238119607143
0.00238613780562
0.00234617137984
0.00220870184432
0.00191944296574
0.00137711183039
0.000323338864853
0.000323431449278
0.00137926045746
0.00192009532324
0.00220855431361
0.00234704873479
0.00238902972583
0.00238638015761
0.0023699422619
0.00235623221651
0.00234948048934
0.00234901967213
0.00235517166976
0.00236868892499
0.00238558249238
0.00238900086909
0.00234741432575
0.00220861395983
0.00191991434703
0.0013788740235
0.000323442219468
0.000323510435213
0.00138147362987
0.00191899030001
0.00220614759941
0.00234812653726
0.00239408080452
0.00239513237307
0.00238146461458
0.00236962007457
0.00236367842406
0.00236327487637
0.00236861050613
0.00238031037589
0.00239446200447
0.00239409384411
0.00234843776406
0.00220615190751
0.00191873903815
0.00138102832922
0.000323512857459
0.000323219011482
0.00138059352563
0.00191103092901
0.00219536107138
0.00234279074924
0.00239598483775
0.00240364098418
0.00239506705624
0.00238598352759
0.00238124130726
0.00238090286483
0.00238509822618
0.00239406874666
0.00240305615028
0.00239592995487
0.00234293352684
0.0021952425073
0.0019106805948
0.00138007580069
0.000323213492474
0.000321932201519
0.00137016643541
0.00188674994229
0.00216419734724
0.00231381838713
0.00237892646052
0.00239604819171
0.00239410408086
0.0023887812961
0.00238559551184
0.00238533766166
0.00238809458174
0.00239331149809
0.00239552438895
0.00237873370151
0.00231363975192
0.00216392654472
0.001886309679
0.00136958966844
0.000321921798805
0.000318678433553
0.00134033345964
0.00183188743193
0.00209530633203
0.00224023782978
0.00231380478881
0.00234287290619
0.00234818154525
0.00234691750532
0.00234539346084
0.00234521181975
0.00234643236899
0.00234759694586
0.00234241889232
0.00231355081964
0.00223997172009
0.00209497232866
0.00183142428698
0.00133974577961
0.000318667731887
0.000311999088581
0.00127595382798
0.00172503426027
0.00196359902678
0.00209525738495
0.00216413330308
0.00219530796009
0.00220605794338
0.00220834946769
0.00220824409705
0.00220814190269
0.00220807710558
0.00220570067985
0.0021949750843
0.00216385796688
0.00209499294203
0.00196329316446
0.00172462429272
0.00127541449304
0.000311991680196
0.000299538835024
0.00115036474158
0.00152822805665
0.00172496294473
0.00183176679301
0.00188660263212
0.00191086889621
0.00191878955452
0.00191981078446
0.00191918012261
0.00191911446045
0.00191963422796
0.00191855323177
0.00191063147692
0.00188638901895
0.00183156501693
0.00172473630668
0.00152791547298
0.00114991855851
0.000299535810095
0.000277041718197
0.0008980248758
0.00115029554898
0.0012758258384
0.00134016251621
0.00136997556588
0.00138038365565
0.00138122909607
0.00137895224337
0.00137706847156
0.00137702508817
0.00137883448855
0.00138106902694
0.00138021693853
0.00136981940629
0.00134001808147
0.00127566846224
0.00115007870481
0.000897698502306
0.000277042563376
0.000239795074582
0.000277038036224
0.000299529393433
0.000311985503094
0.000318662278711
0.000321915442453
0.000323203366284
0.000323496407006
0.000323418773281
0.000323310366259
0.000323314658144
0.000323430626372
0.000323514613818
0.000323226641907
0.000321941736788
0.000318688361768
0.000312007213426
0.000299542623881
0.000277042183391
0.000239806797207
0.000246258693964
0.000297995014517
0.00032840463889
0.000345385722738
0.000354758010834
0.000359584213505
0.000361733890281
0.000362460690769
0.00036258256712
0.000362551627426
0.000362554063092
0.000362589673374
0.000362472614704
0.000361749689475
0.000359601445325
0.000354773258045
0.000345395174721
0.000328405342556
0.000297989935144
0.000246275686969
0.000297993112563
0.00113147254207
0.00149673063232
0.00168331513775
0.00178141388993
0.00182904770939
0.00184785633815
0.00185196145593
0.00185053729001
0.00184869088542
0.00184859647538
0.0018502767395
0.00185159263785
0.00184744163643
0.00182862389965
0.00178099274875
0.00168287903117
0.00149623044579
0.00113086813791
0.000297984961769
0.000328411664328
0.00149698008475
0.00208277506199
0.00240182227035
0.0025809344666
0.00267697175862
0.00272290933747
0.00274097961683
0.00274603517905
0.00274659795501
0.00274647698099
0.00274570816157
0.00274053101882
0.00272243300018
0.00267650288803
0.00258044620745
0.00240125288046
0.00208204520303
0.0014960939579
0.000328393995907
0.000345401530979
0.00168371827821
0.00240202425029
0.00280571944525
0.00303809583335
0.00316623563825
0.00322971606978
0.00325664270436
0.00326635276598
0.00326882223895
0.00326866784059
0.00326593779815
0.00325605513935
0.00322913901196
0.003165713361
0.00303754621963
0.00280502975281
0.00240109564732
0.00168261420469
0.000345377113194
0.000354778805888
0.00178187566137
0.00258122543281
0.00303818375027
0.00330315824672
0.00344906498233
0.00351800117756
0.00354490902417
0.00355281703609
0.00355411120267
0.00355383820225
0.00355208715138
0.00354394105399
0.00351715311482
0.00344849660059
0.00330258571776
0.00303742894039
0.00258016700538
0.00178063124282
0.000354749613106
0.000359604198967
0.00182948113972
0.00267723173724
0.00316626870271
0.00344898342355
0.00359627444254
0.00366164418527
0.00368351535373
0.00368729194768
0.00368643055114
0.00368601852665
0.00368616922048
0.00368190381302
0.00366008842309
0.00359537792448
0.00344847338834
0.00316554829992
0.00267615244497
0.0018281958581
0.000359575074971
0.000361747224516
0.00184820489024
0.00272304654449
0.00322958137182
0.00351769298076
0.00366159572212
0.00372002015447
0.00373457973871
0.00373296318447
0.00372938770681
0.00372883449093
0.00373143564187
0.00373223922412
0.00371749824992
0.00365998986522
0.00351717213911
0.0032289665497
0.00272203771201
0.00184696102763
0.000361723878326
0.000362463525832
0.00185221319936
0.00274097979185
0.00325636479814
0.00354452808982
0.00368369685434
0.00373495373434
0.00374235824662
0.003735471479
0.00372924045921
0.00372858186764
0.00373365836233
0.00373947948188
0.00373168325415
0.00368138878369
0.00354381172836
0.00325580625551
0.00274005348381
0.00185103695363
0.00036244920912
0.000362573457389
0.00185071785015
0.00274594779547
0.00326609227668
0.0035525098874
0.00368777440846
0.003733814133
0.00373597834587
0.00372517799326
0.00371696737222
0.00371623227495
0.00372319608419
0.00373278691107
0.00373010454357
0.00368508342719
0.00355161860019
0.00326546484519
0.00274506677088
0.00184959477117
0.000362567693281
0.000362531624372
0.00184883788899
0.00274647052083
0.00326857598563
0.00355392489034
0.00368718458123
0.00373062110479
0.00373011415428
0.00371727373131
0.00370806378365
0.00370732735103
0.00371520519166
0.00372675706563
0.00372668708049
0.00368431509821
0.00355294548484
0.0032679214044
0.00274560695233
0.00184773729319
0.0003625302976
0.000362526754765
0.00184874183197
0.00274635182951
0.00326845892883
0.00355378905044
0.00368703221354
0.00373044301467
0.00372989888624
0.00371701594366
0.00370777384428
0.00370703447124
0.00371493540061
0.0037265259239
0.0037264966732
0.00368415197073
0.00355279765049
0.00326779314299
0.00274547358906
0.00184762895509
0.000362523692304
0.000362559249578
0.00185043458223
0.00274559994871
0.00326574691624
0.00355211183179
0.003687332875
0.00373331506765
0.00373538930247
0.00372450259432
0.00371623112695
0.00371547440522
0.00372247236012
0.00373215593798
0.00372957392426
0.00368461390849
0.00355118426916
0.0032650841705
0.00274467603055
0.00184927762636
0.000362548945254
0.000362441756597
0.00185175995222
0.00274042474187
0.00325578393629
0.00354389292004
0.00368301333881
0.00373421489218
0.00374151822676
0.00373453616109
0.00372825153861
0.00372757068911
0.00373268052895
0.00373860499538
0.0037309064849
0.00368066132586
0.00354311422455
0.00325515683541
0.00273942806799
0.00185053166106
0.000362421050023
0.000361721436285
0.00184762461449
0.00272234186377
0.00322883294476
0.0035168756059
0.00366071420497
0.00371908706914
0.00373356773694
0.00373186928601
0.00372824778103
0.00372767840414
0.0037303115375
0.00373119586758
0.00371651628962
0.00365903939807
0.00351626601039
0.00322811891467
0.00272123383847
0.00184630831009
0.000361690360417
0.000359578569617
0.00182883746491
0.00267646173784
0.00316544680128
0.00344808682032
0.00359525497298
0.00366053006181
0.00368232836603
0.00368603521296
0.00368512713365
0.00368469997501
0.00368487789117
0.00368066867639
0.00365890342171
0.00359426699189
0.00344747346856
0.00316460088582
0.00267525413476
0.00182745588134
0.000359540689794
0.000354756914622
0.00178123998056
0.0025804758185
0.0030373689688
0.00330225364257
0.00344803631533
0.00351679600128
0.00354359641605
0.00355144338945
0.00355269254922
0.00355240529171
0.0035506738215
0.00354256248575
0.00351585340947
0.0034473488742
0.00330154468692
0.0030364592973
0.00257926212642
0.00177987448048
0.000354718159196
0.000345385658031
0.0016831558217
0.00240136884916
0.0028049834782
0.00303724474048
0.00316524795988
0.00322858507129
0.00325542544965
0.00326517239732
0.00326761469611
0.00326744684019
0.00326471644301
0.00325475956469
0.00322789772615
0.00316458822937
0.00303653490179
0.00280411871046
0.00240026650144
0.00168191194464
0.000345350856126
0.000328402306665
0.0014965353736
0.00208226222171
0.00240121807356
0.00258019863103
0.00267608951973
0.00272189043877
0.00273985970662
0.00274485467236
0.00274537287583
0.00274523519886
0.00274447742294
0.00273932668005
0.00272129824762
0.0026754776641
0.00257954584573
0.0024004716388
0.0020813565278
0.0014955026611
0.000328373724915
0.000297990591735
0.00113119047791
0.00149640359804
0.00168290297174
0.00178088670621
0.00182840236432
0.0018471096752
0.00185113825181
0.00184965970987
0.00184777799821
0.00184767095445
0.00184936121413
0.00185070554097
0.00184660740745
0.00182786898308
0.00178033670296
0.00168232425821
0.00149575622778
0.00113045170463
0.000297971672949
0.000246262533113
0.000297985945076
0.000328390963943
0.000345368049922
0.000354734367603
0.000359553146488
0.000361695188409
0.000362415157754
0.00036253144298
0.000362496692792
0.00036249774092
0.000362534586084
0.000362420698987
0.000361702947001
0.000359561305191
0.000354739836443
0.000345367169248
0.000328380858588
0.00029797024041
0.000246278414468
0.000249990806593
0.000309980901816
0.000344932026476
0.000364649304894
0.000375773289578
0.000381718848817
0.000384559748423
0.000385689095704
0.000386024111793
0.000386082554139
0.000386082310972
0.000386023710083
0.000385689972534
0.000384561531086
0.000381719185908
0.000375769524455
0.000364639026368
0.000344914109309
0.000309961304047
0.000250012533663
0.000309979425383
0.00125998163057
0.00168899331991
0.00191216550313
0.00203200865915
0.00209248830291
0.00211869737977
0.00212695051213
0.00212766627635
0.00212668411353
0.00212651182893
0.00212718299684
0.00212624609006
0.0021178621523
0.00209158948251
0.00203109425437
0.00191126041202
0.00168806941946
0.00125900984199
0.000309955612716
0.000344939661388
0.00168930879047
0.00239648868543
0.00279147900597
0.00301844909063
0.00314398686568
0.00320730548603
0.00323493701468
0.0032444834743
0.00324664652824
0.00324642835327
0.00324389181849
0.00323412666824
0.00320640319864
0.00314304846434
0.00301745108984
0.00279035861886
0.00239516916738
0.00168786154254
0.000344900076937
0.000364666365307
0.00191268954676
0.00279175682586
0.00330055050118
0.00360109995983
0.00377222140457
0.00386148875241
0.00390282439785
0.00391834096441
0.00392251298223
0.00392221576215
0.00391754422701
0.00390167708771
0.00386014256979
0.00377109649652
0.00360005910092
0.00329927066862
0.0027901071061
0.00191084654654
0.000364615963051
0.000375795701628
0.00203262913938
0.00301887151548
0.00360124488595
0.00394905398705
0.00414769586389
0.00424872681258
0.00429276623323
0.00430796789556
0.00431144974878
0.00431096623136
0.00430660685146
0.00429058004882
0.00424604739288
0.00414540328456
0.00394755497116
0.00359985158722
0.00301697979725
0.00203049608255
0.000375738087443
0.000381739919561
0.00209309502976
0.00314439795923
0.00377236977234
0.00414797721765
0.00435664890507
0.00445852762012
0.00449866926235
0.00450936010131
0.00451006977969
0.00450933621473
0.00450719152602
0.00449498412674
0.0044536559533
0.00435198607261
0.00414501792207
0.00377072752988
0.00314240996873
0.00209083069928
0.000381681860511
0.000384572051007
0.00211920309558
0.00320757527452
0.00386177000874
0.00424989129155
0.00445976064311
0.0045560737331
0.00458806723316
0.00459151139652
0.00458817480262
0.00458722584375
0.00458859170317
0.00458292610298
0.00454896619137
0.00445240840952
0.00424469518062
0.00385942202608
0.00320561781108
0.00211694962631
0.000384521731668
0.000385687878749
0.00212732915921
0.00323503178991
0.00390349507793
0.00429499330317
0.00450141913415
0.00458976524124
0.00461201440953
0.00460744739129
0.00459982086257
0.00459874279363
0.00460408353966
0.00460594225054
0.00458109656634
0.0044921052136
0.00428801425441
0.00390031572297
0.00323313801492
0.0021251452346
0.000385649987943
0.000386008267958
0.00212794283862
0.00324443488251
0.00391911542833
0.00431081529325
0.00451315479575
0.00459451132636
0.00460881371047
0.00459773228512
0.00458664023366
0.00458545346493
0.00459410529922
0.00460225574855
0.00458508565523
0.00450294870836
0.0043030944602
0.00391565797372
0.00324260419278
0.00212582977562
0.000385982276365
0.000386054671872
0.00212692045587
0.0032465574518
0.00392335895374
0.00431464260651
0.0045145264858
0.00459205384739
0.00460210640395
0.00458753756091
0.00457463437953
0.00457344883157
0.00458378504428
0.00459535251893
0.00458234186593
0.004504028018
0.00430672561858
0.00391984642528
0.00324474890588
0.00212483849825
0.000386034858525
0.000386048111769
0.00212676879046
0.00324638260938
0.00392319785265
0.0043144947905
0.0045143843991
0.00459189794868
0.00460190753143
0.00458729175351
0.00457435001845
0.00457317099942
0.00458353891583
0.00459514537245
0.00458217898874
0.0045038863704
0.00430657625072
0.00391967503327
0.00324455639816
0.00212466802322
0.000386026249217
0.000385988600108
0.00212749128871
0.00324392117264
0.00391864545663
0.00431038436714
0.00451275369083
0.00459408927274
0.00460830686613
0.00459713612155
0.004585977452
0.00458477523284
0.00459347194991
0.00460172555585
0.00458465612716
0.00450255005256
0.00430265743796
0.00391515617579
0.00324203982715
0.00212532842045
0.000385957384524
0.000385656939979
0.00212660301645
0.00323421548406
0.00390277704887
0.00429433327639
0.0045008400092
0.00458921740291
0.00461138436602
0.00460671474493
0.00459902704083
0.0045979289634
0.00460331537558
0.00460528935559
0.00458053419934
0.00449151965287
0.00428733089238
0.00389954266812
0.00323224106108
0.00212434639247
0.000385611773181
0.000384534057341
0.00211826911023
0.00320652578093
0.0038608117491
0.00424904797181
0.00445906029313
0.00455547540994
0.00458746176121
0.00459082775034
0.00458743548766
0.00458646549997
0.00458787004469
0.00458228568757
0.00454832463136
0.00445166471976
0.0042437859212
0.00385836090317
0.00320445001573
0.00211591468628
0.000384474766262
0.000381700360318
0.00209205654545
0.00314323148941
0.00377125102566
0.00414695873656
0.00435577690876
0.0044577962605
0.00449798850164
0.00450863163289
0.00450928164224
0.00450852567161
0.00450640608313
0.00449422683942
0.00445283769251
0.00435102154279
0.00414388320821
0.00376946035704
0.00314108197145
0.0020896561455
0.000381631771892
0.000375759450626
0.00203160424659
0.00301771438827
0.00360007603559
0.0039478747043
0.0041465556165
0.00424766827788
0.00429175242172
0.00430689655986
0.00431031299049
0.0043098053756
0.00430546791933
0.00428946516042
0.00424486707872
0.00414412461354
0.00394621313915
0.00359849074873
0.00301561855852
0.00202929989303
0.000375690058723
0.000364636634069
0.00191178292084
0.0027907120992
0.00329942889145
0.00359985754412
0.00377084461441
0.00386003690866
0.00390138443818
0.00391674043799
0.00392082985325
0.00392050902938
0.00391587532406
0.00390013673292
0.00385855480882
0.00376954951658
0.00359861299957
0.00329792019499
0.00278882603721
0.00190974080363
0.000364573476635
0.000344917718489
0.00168858196798
0.00239562102717
0.00279046683637
0.00301723998274
0.00314255977563
0.00320567875872
0.00323315543432
0.00324256621735
0.00324464716832
0.00324440364769
0.00324190021584
0.0032322263046
0.00320461597621
0.00314142352187
0.00301601440327
0.00278910136631
0.00239405804392
0.00168693280363
0.000344865104984
0.000309966717156
0.0012594895149
0.00168838141924
0.00191138477824
0.00203101628351
0.00209128338659
0.00211731084853
0.0021254261423
0.0021260363193
0.00212498717909
0.00212479213401
0.00212548680392
0.00212461378626
0.00211633357726
0.00209021234141
0.00202990625939
0.00191027029293
0.00168725282855
0.00125834214599
0.000309931429272
0.000249995392086
0.000309961049729
0.000344904084263
0.000364614398642
0.000375729216536
0.000381663918006
0.000384493995408
0.00038561406937
0.000385941597443
0.000385995122969
0.000385993107598
0.000385936147769
0.000385606669932
0.000384485325474
0.000381652433035
0.000375712810355
0.000364591042841
0.000344873135793
0.000309930011968
0.000250017028372
0.000252214703056
0.00031765613909
0.000355535226376
0.000377066543169
0.000389419508766
0.000396203913425
0.000399599891808
0.000401071006206
0.000401594496482
0.000401733999505
0.000401732213757
0.000401590161627
0.000401067659267
0.000399596672518
0.00039619584324
0.000389404150556
0.000377043320689
0.000355506724362
0.000317631371213
0.000252244155173
0.000317656081546
0.00134844240622
0.00181941455157
0.00206791963293
0.00220419962071
0.00227552260072
0.00230894255117
0.00232182027059
0.00232524211358
0.00232547997517
0.00232522155001
0.00232450802751
0.00232073980026
0.00230762762448
0.00227405512582
0.00220269303999
0.00206649373111
0.00181808006657
0.00134712633345
0.000317624360774
0.000355544968501
0.00181978986355
0.0026059986366
0.0030514251498
0.0033115518069
0.00345869219641
0.00353552949464
0.00357066621351
0.0035837910001
0.00358728268421
0.00358695172303
0.00358289222947
0.00356929177759
0.0035338771886
0.00345717706326
0.00331011672275
0.00304984728097
0.00260417562105
0.00181777984205
0.000355488919758
0.000377086508943
0.0020685630849
0.00305177618219
0.00362882733127
0.00397481515416
0.00417508499734
0.00428146367858
0.00433086471575
0.00434914124212
0.00435391000038
0.00435339458846
0.00434769047132
0.00432846509671
0.00427838378722
0.00417213421522
0.00397266161984
0.00362707884247
0.00304947051856
0.00206586452374
0.000377013346973
0.000389444502426
0.00220500206116
0.00331211474896
0.00397516200212
0.0043767314446