/*--------------------------------*- C++ -*----------------------------------*\
| =========                 |                                                 |
| \\      /  F ield         | OpenFOAM: The Open Source CFD Toolbox           |
|  \\    /   O peration     | Version:  3.0.1                                 |
|   \\  /    A nd           | Web:      www.OpenFOAM.org                      |
|    \\/     M anipulation  |                                                 |
\*---------------------------------------------------------------------------*/
FoamFile
{
    version     2.0;
    format      ascii;
    class       volScalarField;
    location    "2.6";
    object      p;
}
// * * * * * * * * * * * * * * * * * * * * * * * * * * * * * * * * * * * * * //

dimensions      [1 -1 -2 0 0 0 0];

internalField   nonuniform List<scalar> 
7968
(
4647.32730186
4647.31751082
4647.26421096
4647.18014968
4647.07371975
4646.95830372
4646.84939455
4646.75849365
4646.69322312
4646.65824243
4646.65572202
4646.68584384
4646.74677546
4646.83411143
4646.9403524
4647.05401731
4647.1593991
4647.24290431
4647.295887
4647.30522764
4647.3179329
4647.33473133
4647.29475645
4647.2180448
4647.11313716
4646.99646725
4646.88427153
4646.79048639
4646.72332371
4646.68736387
4646.68476634
4646.71573859
4646.77848027
4646.86868206
4646.97824555
4647.09315324
4647.19697814
4647.273045
4647.3125463
4647.29490486
4647.26511586
4647.29511445
4647.25492904
4647.16868756
4647.04588477
4646.90742387
4646.77404946
4646.66232055
4646.58247517
4646.53991902
4646.53710477
4646.57430038
4646.64946535
4646.75748838
4646.88817415
4647.0247983
4647.14641335
4647.23185089
4647.27140621
4647.24035304
4647.18138429
4647.21875417
4647.16901083
4647.06033462
4646.90623152
4646.73401972
4646.57022975
4646.4342564
4646.33771627
4646.28652718
4646.28340243
4646.32870087
4646.42017418
4646.55225299
4646.71326657
4646.88354766
4647.0363057
4647.14399291
4647.19292018
4647.15431251
4647.07535293
4647.11410797
4647.04650449
4646.90648126
4646.71460543
4646.50600426
4646.31205759
4646.15361344
4646.0420886
4645.98314288
4645.97966802
4646.03213916
4646.13816594
4646.2925024
4646.48359192
4646.69017109
4646.88053058
4647.01933941
4647.08594548
4647.04580978
4646.96037432
4646.99789105
4646.90839895
4646.73458017
4646.50627985
4646.26533876
4646.04655713
4645.87075884
4645.74798358
4645.68314194
4645.67929063
4645.73709207
4645.85391119
4646.02538095
4646.24126394
4646.48012229
4646.70680305
4646.87922668
4646.96757164
4646.92855088
4646.85204928
4646.88621503
4646.77550002
4646.57126152
4646.31281371
4646.04710058
4645.81090252
4645.62460592
4645.49535969
4645.42711506
4645.42285708
4645.48355717
4645.6063495
4645.78808891
4646.02140453
4646.28510619
4646.54186515
4646.74459608
4646.85400213
4646.81828376
4646.76189418
4646.79316655
4646.66453057
4646.43614812
4646.15536468
4645.87247062
4645.62593665
4645.43570301
4645.30699594
4645.2396346
4645.23508374
4645.29432807
4645.41602066
4645.60152812
4645.8452269
4646.12620267
4646.40533016
4646.63220244
4646.75946362
4646.72659644
4646.6975375
4646.72696127
4646.58575435
4646.34090047
4646.04537643
4645.75151698
4645.49882333
4645.30936668
4645.18344148
4645.11709216
4645.11223993
4645.17012131
4645.28865034
4645.47316109
4645.72303018
4646.01502029
4646.30891759
4646.55231036
4646.69212886
4646.66109353
4646.66355703
4646.69207694
4646.54443632
4646.29120365
4645.98821162
4645.68874
4645.43291201
4645.24463511
4645.11988684
4645.05367966
4645.04854815
4645.10614199
4645.22334239
4645.40650753
4645.6594737
4645.95706395
4646.25842935
4646.51022354
4646.65647412
4646.62634398
4646.6620124
4646.69053695
4646.54284612
4646.28954776
4645.98649762
4645.68698058
4645.43112605
4645.24286688
4645.11814255
4645.05195879
4645.04666704
4645.10425195
4645.22139489
4645.40449337
4645.65743391
4645.9550274
4646.25641617
4646.50824651
4646.6545299
4646.62440001
4646.69296412
4646.72239816
4646.58103832
4646.33598509
4646.04027654
4645.74627232
4645.49349606
4645.30406799
4645.17822095
4645.11200412
4645.10651302
4645.16442536
4645.28278626
4645.46711968
4645.71693457
4646.00894806
4646.30292338
4646.54643414
4646.68635782
4646.65532667
4646.75448029
4646.78575584
4646.65685196
4646.42811084
4646.1469862
4645.86380728
4645.61708411
4645.42676255
4645.29804568
4645.23062057
4645.2257185
4645.28476084
4645.40617309
4645.5914945
4645.83515038
4646.11620207
4646.39549455
4646.62259622
4646.75005337
4646.71720731
4646.84210475
4646.87625414
4646.76514756
4646.56036259
4646.3013589
4646.0351484
4645.79856099
4645.61198711
4645.4824885
4645.41399227
4645.40948397
4645.46991129
4645.59248206
4645.77410167
4646.0074684
4646.27137595
4646.52844884
4646.73155893
4646.84126579
4646.8056016
4646.94834652
4646.98581923
4646.89580812
4646.721242
4646.49215314
4646.25044395
4646.03101544
4645.85469209
4645.73146475
4645.66623717
4645.66204489
4645.71958303
4645.83625081
4646.00772364
4646.22380866
4646.46307252
4646.69024688
4646.86321749
4646.95196114
4646.91306096
4647.06172827
4647.10041659
4647.03220022
4646.89124639
4646.69831832
4646.48874474
4646.29386285
4646.13465927
4646.022503
4645.96304245
4645.95915092
4646.01135435
4646.11728217
4646.27173589
4646.46319855
4646.67034043
4646.86142535
4647.00095248
4647.06807645
4647.02806903
4647.16668539
4647.20394879
4647.15352312
4647.04378181
4646.88842812
4646.7149902
4646.550082
4646.41315922
4646.3158376
4646.26401056
4646.26040254
4646.30542502
4646.39683121
4646.52912518
4646.6906441
4646.86167368
4647.0153257
4647.12385281
4647.17337885
4647.13492595
4647.24976093
4647.27963478
4647.23870872
4647.15132364
4647.02716647
4646.8873331
4646.752684
4646.63985197
4646.55908808
4646.51580046
4646.51245165
4646.54935704
4646.62449939
4646.73281381
4646.86410575
4647.00158766
4647.12419002
4647.21055208
4647.25076164
4647.21987357
4647.30229845
4647.31888313
4647.27813709
4647.20024596
4647.09394223
4646.97584309
4646.86231106
4646.76736056
4646.6992191
4646.66247929
4646.65931426
4646.68997949
4646.75270228
4646.84321174
4646.95341267
4647.06920057
4647.17407117
4647.25108587
4647.29127488
4647.27387033
4647.31155797
4647.3014714
4647.24736023
4647.16211849
4647.05430755
4646.93746137
4646.82722154
4646.73514849
4646.66888689
4646.63311637
4646.63001977
4646.65983264
4646.72074612
4646.808381
4646.91524542
4647.02979321
4647.13617213
4647.22059924
4647.27427958
4647.28387489
4157.7207748
4157.69707642
4157.63064682
4157.53408412
4157.41840838
4157.29672277
4157.18310546
4157.08898194
4157.02168353
4156.98561845
4156.98296414
4157.01391096
4157.07663595
4157.16701264
4157.27787496
4157.39779914
4157.51255214
4157.60878808
4157.67510372
4157.69850767
4157.69757831
4157.69879135
4157.64240059
4157.55307206
4157.4456374
4157.3329994
4157.22705671
4157.13900693
4157.07570244
4157.04148742
4157.03878385
4157.06778567
4157.12643078
4157.21066076
4157.31376943
4157.42449285
4157.53089812
4157.61979289
4157.67596507
4157.67407449
4157.63151913
4157.64269527
4157.57955222
4157.47767858
4157.35651636
4157.23017978
4157.11204538
4157.01349081
4156.94227489
4156.9036202
4156.90072153
4156.93381162
4157.00011157
4157.0946991
4157.20986192
4157.33414636
4157.45405418
4157.55530535
4157.61807334
4157.60590793
4157.53549778
4157.55373553
4157.47805117
4157.35478941
4157.21083071
4157.06331024
4156.92722789
4156.81378288
4156.73127985
4156.68607507
4156.68288284
4156.72202111
4156.79924063
4156.90853333
4157.04151759
4157.18679089
4157.32921645
4157.45156284
4157.5266512
4157.5071965
4157.42034801
4157.4468756
4157.35734569
4157.21134109
4157.04591396
4156.88094383
4156.73356657
4156.61194552
4156.52349318
4156.47479832
4156.47134387
4156.51346433
4156.59621341
4156.71342947
4156.85758157
4157.02006928
4157.18369986
4157.32853389
4157.41721855
4157.38927852
4157.2992255
4157.33475154
4157.23155623
4157.06435011
4156.88153961
4156.70782951
4156.555878
4156.43254189
4156.34195745
4156.29109278
4156.28732936
4156.33121664
4156.41569658
4156.53435067
4156.68283424
4156.85392574
4157.03474888
4157.20055586
4157.30265934
4157.26563371
4157.18627577
4157.22948802
4157.11415287
4156.92903171
4156.73500942
4156.5567643
4156.40647578
4156.28575221
4156.19545642
4156.14362462
4156.13930466
4156.18418287
4156.26793459
4156.38359045
4156.53020632
4156.70564103
4156.89763624
4157.08125974
4157.19544256
4157.15061688
4157.09299076
4157.14236443
4157.01662678
4156.81673341
4156.61475508
4156.43490712
4156.28745126
4156.17102906
4156.07736939
4156.02222765
4156.01791758
4156.06511758
4156.15158887
4156.2630063
4156.40677832
4156.58369655
4156.78373615
4156.98213001
4157.10673454
4157.05574581
4157.02670093
4157.08019483
4156.94672089
4156.73574233
4156.52819896
4156.3464749
4156.19967653
4156.08015893
4155.98434036
4155.92842644
4155.92401084
4155.97135438
4156.05956102
4156.17375673
4156.31694955
4156.49572529
4156.70150208
4156.91097425
4157.04336563
4156.98829835
4156.99172701
4157.0471978
4156.90948692
4156.69218004
4156.48152133
4156.29784977
4156.15018298
4156.02785907
4155.93161753
4155.87543029
4155.87068657
4155.91823273
4156.00666011
4156.12340421
4156.26750457
4156.44817289
4156.65717552
4156.8729199
4157.0095731
4156.95256119
4156.9901365
4157.04565686
4156.90792931
4156.69058601
4156.47993316
4156.29626958
4156.14858372
4156.02629835
4155.93009645
4155.87393208
4155.86913604
4155.91660489
4156.00495557
4156.12164968
4156.26567244
4156.44629724
4156.65526152
4156.87101244
4157.00765468
4156.95058607
4157.02199271
4157.07562743
4156.9421046
4156.73102913
4156.52347537
4156.34175559
4156.19501177
4156.07553277
4155.97979259
4155.92389295
4155.91930432
4155.96644892
4156.05442826
4156.16845338
4156.31146984
4156.49013581
4156.69582539
4156.90530574
4157.03767172
4156.98244417
4157.08536778
4157.13494659
4157.00910753
4156.80903524
4156.60698206
4156.42707461
4156.27962137
4156.16328916
4156.0695711
4156.01434149
4156.00988941
4156.05679684
4156.14302998
4156.25408368
4156.39768276
4156.57447102
4156.7744238
4156.97285451
4157.09745123
4157.04622911
4157.17606917
4157.21950448
4157.10398747
4156.91855987
4156.72428935
4156.54580567
4156.39540616
4156.27463154
4156.18419758
4156.13199163
4156.12783584
4156.17225426
4156.25560111
4156.37101394
4156.51750068
4156.69288484
4156.88488838
4157.06863326
4157.1828704
4157.13778199
4157.2869166
4157.32261129
4157.21912798
4157.05142435
4156.86815406
4156.69397588
4156.54167015
4156.4180003
4156.32708792
4156.27590366
4156.27186967
4156.3154315
4156.39966576
4156.51819697
4156.66669689
4156.83794098
4157.01889828
4157.18498495
4157.28725753
4157.24999094
4157.40649896
4157.43315468
4157.34315169
4157.1964075
4157.03022962
4156.86453294
4156.71655487
4156.59439644
4156.50545818
4156.45633811
4156.45250561
4156.49431783
4156.57687487
4156.69407163
4156.83840287
4157.00116484
4157.16520832
4157.31053974
4157.39954033
4157.37143608
4157.52065888
4157.53892016
4157.46259729
4157.33837347
4157.19340878
4157.04487704
4156.90788788
4156.79362456
4156.7103862
4156.66452166
4156.66087207
4156.69980252
4156.77694903
4156.88641617
4157.01975993
4157.16557186
4157.30866261
4157.43172476
4157.50730052
4157.4878048
4157.61617678
4157.62722967
4157.56332252
4157.46031305
4157.337914
4157.21034576
4157.0910857
4156.99154842
4156.91949354
4156.88014969
4156.8767434
4156.90954345
4156.9757837
4157.0705981
4157.18627644
4157.31131148
4157.43209601
4157.53421765
4157.59763171
4157.58557274
4157.68200372
4157.68300489
4157.62578443
4157.53522711
4157.42641779
4157.31239877
4157.20517534
4157.11602241
4157.05178548
4157.01682005
4157.013565
4157.04225549
4157.10086166
4157.18537188
4157.28910362
4157.40073764
4157.50812888
4157.59801662
4157.65493897
4157.65324278
4157.70519283
4157.68119434
4157.61388763
4157.51605338
4157.39892296
4157.27575767
4157.16077459
4157.06547061
4156.99717992
4156.96032598
4156.95710031
4156.98774304
4157.05046064
4157.14116453
4157.25270525
4157.37359025
4157.4894241
4157.58668568
4157.65380258
4157.67750635
3668.19264501
3668.16299962
3668.08997353
3667.98620311
3667.86444923
3667.73803418
3667.62055501
3667.52327246
3667.45383092
3667.4166124
3667.41374915
3667.44544357
3667.50996945
3667.60328369
3667.71797816
3667.84281555
3667.96402239
3668.06794526
3668.14133042
3668.17087805
3668.1636035
3668.16718196
3668.10971278
3668.01760391
3667.91152811
3667.80252406
3667.70075293
3667.61588762
3667.55467239
3667.52142837
3667.51857545
3667.546289
3667.6025533
3667.68337626
3667.7822369
3667.88945778
3667.99479765
3668.08692024
3668.14452272
3668.14018415
3668.09106758
3668.11003236
3668.04518154
3667.9350589
3667.81081827
3667.68537122
3667.57006458
3667.47507831
3667.40754029
3667.37112533
3667.36799237
3667.39836623
3667.46060089
3667.55141359
3667.66368961
3667.78716285
3667.91042733
3668.02040028
3668.08513509
3668.06487269
3667.98791905
3668.01835537
3667.93541327
3667.79184861
3667.6329972
3667.47626019
3667.33496692
3667.22117463
3667.14342249
3667.10227298
3667.09873663
3667.13311279
3667.2049976
3667.3146175
3667.45276991
3667.60719256
3667.76468993
3667.90782658
3667.99037806
3667.9582756
3667.86679623
3667.9128572
3667.81170071
3667.63350665
3667.4393686
3667.25135618
3667.06995383
3666.94398337
3666.8708073
3666.82652949
3666.82283366
3666.85992274
3666.95187972
3667.07988878
3667.22682361
3667.4118852
3667.60395969
3667.78129375
3667.88176068
3667.83370756
3667.74105161
3667.80454744
3667.68691778
3667.47725837
3667.25148847
3666.99165937
3666.75961237
3666.66039076
3666.61549911
3666.5714904
3666.56851496
3666.60681038
3666.7351775
3666.91535083
3667.05582858
3667.2235507
3667.44591368
3667.65401901
3667.77063101
3667.70493608
3667.62434378
3667.70361831
3667.57241467
3667.33638907
3667.06995187
3666.69696769
3666.44403418
3666.39031184
3666.37458526
3666.33319733
3666.33182334
3666.36971443
3666.5367079
3666.79353479
3666.96461992
3667.07328601
3667.30384161
3667.53753583
3667.66747022
3667.58586806
3667.52801127
3667.61985843
3667.47860428
3667.22354448
3666.91065813
3666.46761253
3666.219843
3666.17499098
3666.17536636
3666.13894896
3666.13914348
3666.1755784
3666.36178433
3666.67627124
3666.88982779
3666.9696209
3667.18982417
3667.44207699
3667.58201112
3667.48784012
3667.45970151
3667.55996677
3667.41266273
3667.14781979
3666.81235485
3666.35395885
3666.10541642
3666.06633271
3666.07432556
3666.03990309
3666.03893446
3666.0767702
3666.26373938
3666.58856499
3666.81551508
3666.89502894
3667.11265335
3667.37478576
3667.52088369
3667.41836081
3667.42369823
3667.52809891
3667.37796266
3667.10890795
3666.77074634
3666.3122698
3666.06481136
3666.02802361
3666.03532803
3666.00238206
3666.00303066
3666.03701686
3666.22470942
3666.54581893
3666.77142548
3666.8519568
3667.07272194
3667.33919664
3667.48821129
3667.38160869
3667.42202667
3667.52653553
3667.37639953
3667.10732961
3666.76922291
3666.31084903
3666.06342566
3666.02598995
3666.0327897
3665.99920328
3666.00029228
3666.0347002
3666.22206189
3666.54311832
3666.76900983
3666.85000066
3667.07085715
3667.33730147
3667.48627862
3667.37956347
3667.45475506
3667.5553219
3667.40801714
3667.14312251
3666.80782212
3666.34985742
3666.10072628
3666.06034293
3666.06781299
3666.03305588
3666.03173117
3666.06921671
3666.25600712
3666.58065744
3666.80824514
3666.88915198
3667.10707394
3667.36915124
3667.51515688
3667.41231257
3667.5200327
3667.61232769
3667.47102046
3667.21570732
3666.90050903
3666.45193926
3666.19726584
3666.14682591
3666.14578661
3666.11019453
3666.11035046
3666.1464032
3666.33306379
3666.65053403
3666.87053656
3666.95791698
3667.18051712
3667.43285625
3667.57271066
3667.47805422
3667.61373279
3667.69352486
3667.56217786
3667.32577392
3667.05595529
3666.66942458
3666.39751449
3666.332083
3666.3133944
3666.27328772
3666.27242792
3666.3106288
3666.48022791
3666.74559655
3666.93460647
3667.05764728
3667.29111826
3667.52500928
3667.65493192
3667.57275568
3667.72838521
3667.79237102
3667.67444649
3667.46415604
3667.23766153
3666.96897287
3666.71706947
3666.6019793
3666.55280641
3666.50935836
3666.50694785
3666.54578921
3666.6778356
3666.87170033
3667.0310899
3667.2072323
3667.43009032
3667.63861059
3667.75535172
3667.68908746
3667.85273085
3667.89918766
3667.79752801
3667.61843496
3667.42336355
3667.23434901
3667.04953886
3666.91744907
3666.8413425
3666.79690113
3666.79305007
3666.830027
3666.92392014
3667.05707057
3667.20726211
3667.39287701
3667.58556702
3667.76355753
3667.8643528
3667.81582785
3667.97308525
3668.00374279
3667.92010623
3667.77538414
3667.61536776
3667.45752746
3667.31530696
3667.200598
3667.12246185
3667.08091821
3667.07697129
3667.11087994
3667.18213427
3667.29227893
3667.43090592
3667.58599729
3667.74432471
3667.88838035
3667.97147154
3667.93908808
3668.07599649
3668.09496998
3668.02926966
3667.91780832
3667.79217575
3667.665424
3667.54897316
3667.4530245
3667.38471456
3667.34766753
3667.34403941
3667.37408118
3667.43618211
3667.52726626
3667.64012891
3667.76446524
3667.88879154
3667.99987756
3668.0653405
3668.0450167
3668.14854953
3668.15195055
3668.09352007
3667.99997258
3667.8923455
3667.78185278
3667.67875025
3667.59277565
3667.53062985
3667.49664382
3667.49324133
3667.5206447
3667.57687375
3667.65801792
3667.75759123
3667.86585629
3667.9724236
3668.06578809
3668.12426954
3668.12006267
3668.17766629
3668.14768556
3668.07357509
3667.96827046
3667.84481361
3667.71671978
3667.59773179
3667.49918579
3667.42870585
3667.39067735
3667.38723768
3667.41864373
3667.48320962
3667.57695335
3667.69249603
3667.81853147
3667.94111259
3668.04636999
3668.12075077
3668.15069486
3178.73335969
3178.69991702
3178.62451163
3178.51839405
3178.39443561
3178.26579249
3178.14591397
3178.04610254
3177.97474252
3177.93642816
3177.93326419
3177.96546976
3178.03143319
3178.12698762
3178.24411234
3178.37158053
3178.49571145
3178.60282867
3178.67927859
3178.71298209
3178.70065168
3178.70365883
3178.6488848
3178.55899449
3178.45547266
3178.34802877
3178.2467192
3178.16098545
3178.09885604
3178.06507661
3178.06199993
3178.08978222
3178.14656313
3178.22797629
3178.32635268
3178.4323346
3178.53572313
3178.62637217
3178.68180192
3178.67799521
3178.62590301
3178.64928558
3178.58846823
3178.47466865
3178.34268055
3178.20693775
3178.08122746
3177.97903956
3177.9085668
3177.87153081
3177.86799389
3177.89822758
3177.96296028
3178.06070942
3178.18327934
3178.3172082
3178.44877932
3178.56326871
3178.62444875
3178.59944979
3178.52053224
3178.559911
3178.47506074
3178.312052
3178.12178446
3177.89881053
3177.69009968
3177.58906437
3177.53304427
3177.49181541
3177.48835028
3177.52302097
3177.62987944
3177.78981755
3177.92955005
3178.09356093
3178.28255498
3178.44599517
3178.53095272
3178.48936282
3178.39735527
3178.45703137
3178.34370414
3178.12228828
3177.79599822
3177.3973476
3177.13823022
3177.06933612
3177.04408411
3177.00351818
3177.00304757
3177.04280753
3177.21731686
3177.51886724
3177.75765121
3177.89630766
3178.09013856
3178.31091999
3178.42403686
3178.36153838
3178.26953105
3178.35043145
3178.20871573
3177.89927206
3177.31702834
3176.79510677
3176.52874063
3176.44073968
3176.4213732
3176.38770656
3176.39456771
3176.43999507
3176.67018293
3177.12896075
3177.58468123
3177.82191135
3177.92287236
3178.17310304
3178.31395941
3178.22980117
3178.15056038
3178.25012007
3178.08367129
3177.62857821
3176.83224504
3176.3110329
3175.97341683
3175.86354801
3175.859666
3175.83773447
3175.85341305
3175.90510819
3176.14817754
3176.67566287
3177.31267161
3177.77112492
3177.83148129
3178.04640948
3178.21111347
3178.10797403
3178.05184546
3178.1656941
3177.98261376
3177.39580996
3176.52609453
3175.9816435
3175.60910025
3175.53124006
3175.55009964
3175.53909941
3175.56081585
3175.6154985
3175.85458384
3176.35971825
3177.05692731
3177.66689013
3177.77799044
3177.944037
3178.12495908
3178.00741088
3177.98176884
3178.10513585
3177.913886
3177.27946056
3176.39551003
3175.83724247
3175.46695179
3175.40139052
3175.43148488
3175.42702178
3175.4505327
3175.50179385
3175.73356094
3176.2278713
3176.92746894
3177.57633413
3177.71734198
3177.87403967
3178.06320833
3177.93619146
3177.9448233
3178.0729596
3177.87889264
3177.24037851
3176.35445644
3175.79572062
3175.42668299
3175.36377179
3175.39840181
3175.39656902
3175.41958869
3175.46805548
3175.69453946
3176.18528407
3176.88312426
3177.53199217
3177.67639922
3177.83811978
3178.03024389
3177.8985503
3177.94302817
3178.07136481
3177.8772661
3177.23894232
3176.35309397
3175.79380355
3175.42283741
3175.35841419
3175.39249226
3175.39060532
3175.41368767
3175.46211306
3175.68861741
3176.17978032
3176.87861377
3177.52828373
3177.67388999
3177.83615629
3178.02827143
3177.89638993
3177.976456
3178.10036787
3177.90903512
3177.27519645
3176.39126381
3175.82999937
3175.45476932
3175.38535795
3175.41384383
3175.40912283
3175.43274761
3175.48402431
3175.71582022
3176.21165652
3176.91424498
3177.56527981
3177.7098254
3177.8682351
3178.05738865
3177.92983049
3178.0433325
3178.15798637
3177.97470892
3177.38291845
3176.50391655
3175.94934904
3175.56886087
3175.48446036
3175.50077615
3175.48968229
3175.51168617
3175.56669982
3175.80629966
3176.31489784
3177.01820377
3177.6363164
3177.76139246
3177.93460639
3178.11559003
3177.99721209
3178.13937384
3178.23986662
3178.07302612
3177.60560451
3176.78323944
3176.23863861
3175.88912323
3175.77164924
3175.76476167
3175.74375731
3175.7601721
3175.81262095
3176.05677878
3176.58814248
3177.23545997
3177.71594558
3177.80648522
3178.03367308
3178.19860686
3178.09447724
3178.25640772
3178.33821698
3178.19589462
3177.87976658
3177.26560812
3176.70134014
3176.4120841
3176.31392228
3176.29226725
3176.26037878
3176.26841397
3176.31530708
3176.54717856
3177.01224737
3177.48810652
3177.76714734
3177.90129255
3178.15759217
3178.2988751
3178.21371825
3178.38311285
3178.44352742
3178.32937493
3178.10648108
3177.76636135
3177.32774976
3177.02519386
3176.93470693
3176.90513225
3176.86627716
3176.86751546
3176.90909698
3177.08796018
3177.40742928
3177.68647909
3177.86398722
3178.07129933
3178.2933219
3178.40707479
3178.34373013
3178.50593321
3178.54577015
3178.45992832
3178.29523669
3178.10327328
3177.87354921
3177.64653313
3177.52693076
3177.46455825
3177.42358347
3177.4205511
3177.45586424
3177.56842873
3177.74392682
3177.90103681
3178.07176321
3178.26212166
3178.42702453
3178.51283271
3178.47068867
3178.61151811
3178.63504401
3178.57313788
3178.4575687
3178.32380219
3178.18647418
3178.0594775
3177.9563403
3177.88500483
3177.84729947
3177.84328224
3177.87323608
3177.93799425
3178.03599831
3178.15938112
3178.29450357
3178.42755906
3178.54364723
3178.60581791
3178.58060296
3178.68670049
3178.68951894
3178.63353553
3178.54185017
3178.43645483
3178.32731956
3178.2245736
3178.13771371
3178.0746441
3178.04012911
3178.03650227
3178.06398209
3178.12074352
3178.20254154
3178.30177151
3178.40906263
3178.51407526
3178.60639103
3178.66298324
3178.65930976
3178.71981876
3178.68573563
3178.60887873
3178.50076854
3178.37466605
3178.24398626
3178.122337
3178.0211126
3177.94863015
3177.90946909
3177.90571628
3177.93766208
3178.0037525
3178.09991746
3178.2181762
3178.34725668
3178.47327852
3178.58227347
3178.66013716
3178.69438637
2689.35141778
2689.31623527
2689.24476952
2689.14447012
2689.02652601
2688.90242451
2688.78526245
2688.68656373
2688.61557531
2688.57722541
2688.57367474
2688.60518276
2688.6702081
2688.7643884
2688.87903618
2689.00275995
2689.12209229
2689.22470174
2689.29822554
2689.33404768
2689.31710102
2689.30739076
2689.25208222
2689.16411244
2689.06082553
2688.95093475
2688.84561266
2688.75436883
2688.68843814
2688.65318218
2688.64990261
2688.67859967
2688.73874077
2688.82519646
2688.92762198
2689.03660913
2689.14078731
2689.23078081
2689.28765565
2689.29675163
2689.24644918
2689.25255236
2689.18648154
2689.0679422
2688.92513204
2688.74245615
2688.56617196
2688.48392021
2688.43764913
2688.40048213
2688.39726456
2688.42817805
2688.52505135
2688.66569527
2688.77251431
2688.89714581
2689.04041556
2689.16115093
2689.22867894
2689.22088558
2689.14704138
2689.16518964
2689.06845522
2688.8817647
2688.54211055
2688.200745
2687.98009361
2687.9026357
2687.87672499
2687.84146246
2687.84313142
2687.88174522
2688.04843203
2688.33698487
2688.59418234
2688.74085363
2688.85192895
2689.03738454
2689.13560979
2689.11498113
2689.03002929
2689.06269767
2688.92644066
2688.53922608
2687.92189931
2687.45329097
2687.15676792
2687.04221054
2687.02002202
2686.99753647
2687.01239261
2687.06409887
2687.28987453
2687.73971578
2688.26989503
2688.65286656
2688.74030425
2688.89026833
2689.02760997
2688.99159642
2688.90689984
2688.9538343
2688.74483314
2688.0078805
2687.27659766
2686.70180232
2686.28519684
2686.16685626
2686.17483989
2686.17848884
2686.21288597
2686.27905789
2686.52375331
2687.02819364
2687.72755737
2688.42055112
2688.75154924
2688.76168963
2688.91432259
2688.86320647
2688.79077616
2688.84970925
2688.50763053
2687.52635271
2686.75781114
2686.05389188
2685.64035914
2685.53151856
2685.56916604
2685.59845109
2685.64997646
2685.72534169
2685.9762798
2686.5074962
2687.22739967
2688.08202822
2688.71571383
2688.70233142
2688.80728133
2688.74346956
2688.69332117
2688.76004308
2688.2937758
2687.24333505
2686.41280731
2685.68164979
2685.27028536
2685.18978336
2685.25033534
2685.2949078
2685.35571511
2685.43251144
2685.67507932
2686.19350654
2686.93526341
2687.82775539
2688.59989046
2688.66805814
2688.71605835
2688.64400517
2688.6237436
2688.69600941
2688.18717944
2687.12089401
2686.2644863
2685.53808244
2685.13793156
2685.07241262
2685.15289817
2685.21128252
2685.27629338
2685.34108594
2685.568338
2686.07264714
2686.80892077
2687.70121926
2688.50920407
2688.61748572
2688.65110771
2688.57340088
2688.58691629
2688.66259902
2688.15184568
2687.08200422
2686.22218077
2685.49942447
2685.10482316
2685.04544724
2685.13940635
2685.20196914
2685.26468345
2685.32659495
2685.54017989
2686.03797196
2686.76803365
2687.65692489
2688.46692207
2688.58030197
2688.61696102
2688.53598826
2688.5849403
2688.66100297
2688.15030854
2687.08013543
2686.21791333
2685.49224531
2685.09472754
2685.03383701
2685.12728827
2685.19024863
2685.25265429
2685.31428027
2685.52829826
2686.02698264
2686.75908808
2687.6509137
2688.46244449
2688.57762864
2688.61489699
2688.53365157
2688.61791709
2688.69103604
2688.18250077
2687.11523213
2686.25186957
2685.5164947
2685.10858719
2685.03788781
2685.11581763
2685.17363782
2685.23957038
2685.30498701
2685.53260954
2686.03949273
2686.78194157
2687.68241557
2688.49567798
2688.60949652
2688.64499546
2688.56658309
2688.68409727
2688.75200878
2688.28021536
2687.22021069
2686.37550738
2685.62831742
2685.20443361
2685.11621257
2685.1726402
2685.21576359
2685.27749806
2685.35535062
2685.5991952
2686.12172448
2686.87452237
2687.78103554
2688.56659281
2688.65103583
2688.70647436
2688.63326283
2688.77891016
2688.83913563
2688.48430849
2687.47890578
2686.68332874
2685.95806348
2685.52748913
2685.4087954
2685.44322717
2685.47132547
2685.52410702
2685.60088488
2685.85239638
2686.38965444
2687.12428422
2687.99898021
2688.65927184
2688.67738784
2688.79479786
2688.72959398
2688.89338036
2688.94153028
2688.72564031
2687.95284083
2687.17728255
2686.57568065
2686.13940156
2686.00862379
2686.01296405
2686.01738175
2686.05324382
2686.12144395
2686.36811227
2686.88008231
2687.59628559
2688.31464743
2688.69112132
2688.74070388
2688.89949453
2688.84703037
2689.01591332
2689.04950164
2688.91166542
2688.49959135
2687.82906649
2687.31653476
2686.99761789
2686.87068866
2686.84486739
2686.8243193
2686.84146166
2686.89568047
2687.12364012
2687.58121378
2688.13077076
2688.55659862
2688.69866306
2688.87266929
2689.01133196
2688.97422803
2689.13323806
2689.1519017
2689.05351737
2688.86375099
2688.49960633
2688.10305274
2687.83650718
2687.74020273
2687.71053998
2687.67688605
2687.68042128
2687.72132748
2687.89196601
2688.19634581
2688.49596055
2688.69469569
2688.83069837
2689.01901806
2689.11875985
2689.097468
2689.23350011
2689.23974951
2689.17210412
2689.05106055
2688.90577979
2688.71601876
2688.52117045
2688.41962591
2688.36691122
2688.32989846
2688.32695902
2688.3584275
2688.46052697
2688.61747388
2688.74229284
2688.87433039
2689.01979859
2689.1429049
2689.21192721
2689.20393959
2689.30511379
2689.29510827
2689.23819307
2689.1478896
2689.04226727
2688.93040353
2688.82344586
2688.73113986
2688.66420157
2688.628206
2688.62435056
2688.65279821
2688.71288723
2688.7998602
2688.90330761
2689.01400105
2689.12037101
2689.21266222
2689.27116046
2689.28055966
2689.34011647
2689.30401144
2689.23060442
2689.12770156
2689.00698375
2688.88029947
2688.7609145
2688.66054604
2688.58829285
2688.54902959
2688.54485887
2688.57614295
2688.64145501
2688.73657123
2688.85279035
2688.97876568
2689.10075167
2689.20598225
2689.281538
2689.31833041
2200.05225531
2200.01699136
2199.95609209
2199.86986324
2199.76698684
2199.65628674
2199.55000945
2199.45958206
2199.39396076
2199.35785656
2199.35376319
2199.38209151
2199.44112188
2199.52697262
2199.63150053
2199.74340753
2199.84988695
2199.94062638
2200.00523231
2200.0420567
2200.01805344
2199.98170844
2199.92060666
2199.83418221
2199.73258178
2199.62211484
2199.49791358
2199.40511759
2199.34935424
2199.31323468
2199.30960678
2199.33860761
2199.41276097
2199.50679838
2199.59692604
2199.7075503
2199.81202615
2199.90263013
2199.96704273
2200.00344289
2199.95797663
2199.92119764
2199.84306492
2199.72420591
2199.51465583
2199.27168428
2199.12288551
2199.04264007
2199.00753916
2198.97483929
2198.97476953
2199.00757723
2199.12918207
2199.32467559
2199.51661027
2199.61228379
2199.69434899
2199.81858965
2199.90029615
2199.93631606
2199.87266688
2199.8354628
2199.7249461
2199.41982484
2198.98957934
2198.59857494
2198.35443373
2198.25650185
2198.23939692
2198.22591786
2198.24207591
2198.28797977
2198.46758026
2198.82204094
2199.23462434
2199.51281783
2199.61171827
2199.69108103
2199.80645907
2199.84199735
2199.77097169
2199.73481417
2199.51671992
2198.88032185
2198.29711385
2197.78189397
2197.40172142
2197.26386
2197.26739659
2197.28907593
2197.33172495
2197.39616321
2197.61538883
2198.07157585
2198.66133471
2199.2531746
2199.60325606
2199.60456585