/*--------------------------------*- C++ -*----------------------------------*\
| =========                 |                                                 |
| \\      /  F ield         | OpenFOAM: The Open Source CFD Toolbox           |
|  \\    /   O peration     | Version:  3.0.1                                 |
|   \\  /    A nd           | Web:      www.OpenFOAM.org                      |
|    \\/     M anipulation  |                                                 |
\*---------------------------------------------------------------------------*/
FoamFile
{
    version     2.0;
    format      ascii;
    class       volScalarField;
    location    "1.9";
    object      ddt0(epsilon);
}
// * * * * * * * * * * * * * * * * * * * * * * * * * * * * * * * * * * * * * //

dimensions      [0 2 -4 0 0 0 0];

internalField   nonuniform List<scalar> 
15984
(
-0.00379181176506
-0.00396941546824
-0.00400081548134
-0.00399984259203
-0.00399829123275
-0.00399806472274
-0.00399745098931
-0.00399601030892
-0.00399449820306
-0.00399365897731
-0.00399226971239
-0.00399194473475
-0.00399230919273
-0.0039926791878
-0.00399306768504
-0.00399356833501
-0.00399422522723
-0.00399499665549
-0.00399578604255
-0.0039964542124
-0.00399677526511
-0.00399700059666
-0.00399717911272
-0.00399735661294
-0.00399751362245
-0.00399773790464
-0.00399781147592
-0.00399758787804
-0.00399732276189
-0.00399711182708
-0.00399697603381
-0.00399679586924
-0.00399657557215
-0.00399639310528
-0.00399633877066
-0.00399677704852
-0.00399857933651
-0.00399938373567
-0.00396716226634
-0.003790467132
-0.00484630674379
-0.00602400250665
-0.00632946503265
-0.00636390824953
-0.00636360925656
-0.00635883815439
-0.0063449719293
-0.00632479237604
-0.00630565873017
-0.00629443905692
-0.00629405336795
-0.00629592812993
-0.00629707839138
-0.00629709148116
-0.00629648288025
-0.00629595399122
-0.00629603903423
-0.006296903946
-0.00629831796502
-0.00629987012495
-0.0063009533805
-0.00630129685188
-0.00630158904716
-0.00630190065124
-0.00630223807039
-0.00630195504925
-0.00630157807821
-0.00630095520772
-0.00630052517341
-0.00630043979764
-0.0063007916248
-0.00630085176717
-0.00630071896819
-0.00630082061206
-0.00630205505281
-0.00630728725243
-0.00631880778271
-0.0062980965422
-0.00600335835061
-0.00483312949734
-0.00518888187855
-0.00741285434988
-0.00805261090919
-0.0081491059618
-0.00815329099707
-0.00814248033842
-0.00811483962561
-0.00807610369702
-0.00803707652572
-0.00801063486731
-0.00800432218087
-0.00800910337998
-0.00801286728663
-0.00801412474281
-0.00801372857713
-0.00801309530236
-0.00801317541752
-0.00801429270192
-0.00801614484693
-0.00801820765962
-0.00801995553089
-0.00802103165333
-0.00802150648722
-0.00802126952944
-0.00802101989177
-0.0080203465331
-0.00801961610743
-0.00801871223494
-0.00801802585549
-0.00801775967427
-0.00801801144995
-0.00801892201717
-0.00801944881475
-0.00802007865926
-0.00802337781836
-0.00803473987693
-0.00805298342566
-0.00798548373219
-0.00737473808073
-0.00517289963552
-0.00528345327448
-0.00812841324987
-0.00901942077563
-0.00916749694463
-0.00917408702266
-0.00915685303892
-0.00911859943776
-0.0090685329827
-0.00901327098584
-0.00896769425695
-0.0089523487262
-0.00895606609249
-0.00896327782832
-0.00896630667625
-0.0089668590157
-0.00896667086676
-0.00896708119039
-0.00896854539627
-0.00897078620132
-0.00897322649012
-0.00897526278121
-0.00897649433715
-0.0089769754448
-0.00897660495181
-0.00897619533867
-0.00897531910323
-0.00897433451067
-0.00897314286184
-0.00897218334621
-0.00897167585713
-0.00897169043865
-0.00897229907195
-0.00897369518953
-0.00897594514464
-0.00898169129183
-0.00899958633966
-0.00902378004132
-0.00891455210571
-0.00806976779988
-0.00526799100921
-0.00530299098576
-0.00843824509892
-0.00947244452443
-0.00964778833882
-0.00965545368983
-0.00963268220085
-0.00958308369643
-0.00952568657278
-0.00946300284037
-0.00939841178711
-0.0093716322996
-0.00937430379383
-0.00938312651966
-0.00938935038493
-0.00939145645591
-0.00939213349247
-0.00939310944761
-0.00939500769822
-0.00939761721818
-0.00940035415222
-0.00940258965769
-0.00940391689954
-0.00940438275799
-0.00940398505731
-0.00940344920738
-0.00940246823222
-0.00940133479595
-0.00939994884522
-0.00939880939482
-0.00939812879448
-0.00939801110149
-0.00939848962673
-0.0093998005225
-0.00940326401881
-0.00941233029806
-0.00943702922424
-0.00946930626258
-0.0093375065612
-0.00835951022639
-0.00528869438315
-0.00530343447676
-0.00854248128665
-0.00963271452862
-0.0098346233519
-0.00983555295515
-0.00980580465175
-0.0097470850313
-0.00966768541511
-0.00960570612704
-0.00952484946344
-0.0094858252511
-0.00948709551457
-0.00949848572859
-0.00950721569397
-0.00951117364791
-0.00951295990944
-0.00951461350265
-0.00951697578079
-0.00951991739498
-0.00952288809959
-0.00952526372721
-0.00952665822197
-0.00952710957417
-0.00952671121404
-0.00952610344236
-0.00952510579262
-0.00952390083244
-0.00952238015796
-0.00952112730951
-0.00952036462647
-0.00952018902519
-0.0095206397916
-0.00952204363219
-0.00952606236894
-0.009538284967
-0.00956970839652
-0.00961259570599
-0.00947788091777
-0.00844568053158
-0.00528948749875
-0.00530132079618
-0.00856368293752
-0.00967531151061
-0.00986989744646
-0.00986296474005
-0.00982748996139
-0.00976125942065
-0.00967444893568
-0.00960521566032
-0.00951042719623
-0.00945948677611
-0.0094590238258
-0.00947282582824
-0.00948396504912
-0.00948975269168
-0.00949265588454
-0.00949498823394
-0.00949778183721
-0.00950099750771
-0.00950415141109
-0.00950662769152
-0.00950806685857
-0.00950851280808
-0.00950813267612
-0.00950747920366
-0.00950648552419
-0.00950526759591
-0.00950365669997
-0.00950234398521
-0.00950155133216
-0.00950137447715
-0.00950185727562
-0.00950340782279
-0.00950802275271
-0.00952252504886
-0.00955999327566
-0.0096143896773
-0.00948938247119
-0.00844950830096
-0.00528654214895
-0.0053003043248
-0.00856371182462
-0.00967453279908
-0.00985949470512
-0.00984649373791
-0.00980668582832
-0.0097334837797
-0.0096387782695
-0.00955508824185
-0.00945516917608
-0.00939364309894
-0.00939126799784
-0.00940691178891
-0.00942011319455
-0.00942745285832
-0.00943128237096
-0.00943420729157
-0.00943734019129
-0.0094407662506
-0.00944404470893
-0.00944659290173
-0.00944805749652
-0.00944849987419
-0.00944814010599
-0.00944747676611
-0.00944649886858
-0.00944527838626
-0.0094436188206
-0.00944227202179
-0.00944148165107
-0.00944131901484
-0.00944186305749
-0.00944356560646
-0.00944869402343
-0.0094646983154
-0.00950695584494
-0.00957155464393
-0.00946030912928
-0.00843170134556
-0.00528407336862
-0.00530027961335
-0.00856371435341
-0.00966974967883
-0.00984881471376
-0.00983317643478
-0.00979076287352
-0.00971110084633
-0.00960710918419
-0.00948817462783
-0.00940704340468
-0.00933739945609
-0.00933329111253
-0.00935009848799
-0.00936475769187
-0.0093731551473
-0.00937766994968
-0.00938099879572
-0.00938437077777
-0.00938793191229
-0.0093912885043
-0.00939387796734
-0.00939536497808
-0.00939580791939
-0.0093954605144
-0.00939478692867
-0.00939384328581
-0.00939262510937
-0.00939092633151
-0.00938957665208
-0.0093888043503
-0.009388660804
-0.00938925323004
-0.00939108304523
-0.009396535636
-0.00941342944965
-0.00945890117823
-0.00953080042904
-0.00943111855008
-0.00841581453972
-0.00528268283248
-0.00530045430947
-0.00856500748979
-0.00966832635696
-0.00984531487819
-0.00982907212496
-0.00978561804453
-0.0097017621499
-0.00959211034158
-0.00946368815606
-0.00938182738513
-0.00930763120491
-0.00930251298708
-0.00931987187011
-0.00933526922599
-0.00934421096811
-0.00934906300312
-0.0093525908084
-0.00935608215083
-0.00935970939288
-0.00936310109686
-0.00936571273464
-0.00936721386494
-0.00936765940702
-0.00936731557106
-0.00936663833191
-0.00936570591024
-0.00936450275796
-0.00936278649564
-0.00936144027291
-0.00936065954959
-0.00936054203562
-0.00936116466952
-0.00936306183457
-0.00936872111715
-0.00938596611366
-0.00943302128035
-0.00950863774613
-0.0094152303391
-0.0084077199711
-0.00528210955921
-0.00530040940382
-0.0085647422637
-0.00966803909359
-0.00984498794396
-0.00982866650491
-0.00978520443658
-0.00970147305874
-0.0095918869577
-0.00946362552098
-0.00938172098464
-0.00930764162304
-0.00930254971154
-0.00931990445698
-0.00933529236914
-0.00934422851939
-0.00934907455946
-0.00935259829579
-0.00935608783515
-0.0093597128197
-0.00936310241888
-0.00936571382353
-0.0093672144762
-0.00936766018418
-0.00936731542344
-0.00936663959552
-0.00936570507155
-0.00936450208586
-0.0093627894149
-0.00936144618198
-0.00936066584521
-0.00936055016034
-0.00936117649772
-0.00936307769086
-0.00936874192543
-0.00938597301208
-0.00943302789213
-0.00950864307208
-0.0094152334725
-0.0084077202852
-0.00528211045786
-0.00530015139173
-0.00856294548859
-0.00966893630312
-0.00984789931738
-0.00983208071066
-0.00978968756655
-0.0097102858005
-0.00960649204162
-0.00948810724968
-0.00940675869947
-0.00933743535778
-0.00933339582776
-0.00935018874346
-0.00936482417302
-0.00937320250769
-0.00937770638423
-0.00938102278505
-0.00938438633592
-0.00938794060922
-0.00939129145905
-0.00939388006929
-0.00939536687105
-0.00939581098539
-0.00939546103607
-0.00939479072502
-0.00939384259889
-0.0093926217762
-0.00939093489034
-0.00938958994569
-0.00938882074019
-0.00938868868699
-0.00938928855878
-0.00939112832697
-0.00939660351228
-0.00941344987704
-0.00945892066068
-0.00953081589073
-0.0094311275209
-0.00841581499055
-0.00528268522975
-0.00530012438339
-0.00856254726843
-0.00967328300739
-0.00985806489372
-0.00984483147407
-0.00980509005023
-0.00973223139991
-0.00963784100093
-0.00955703218108
-0.00945478951904
-0.00939373302517
-0.00939144521804
-0.0094070583635
-0.00942022282781
-0.00942751990897
-0.00943133553511
-0.00943424196577
-0.00943736171919
-0.00944077928866
-0.00944405006237
-0.0094465934271
-0.00944805582353
-0.00944850056449
-0.00944813742208
-0.00944748049417
-0.00944649643106
-0.00944527136946
-0.00944362361765
-0.00944228877604
-0.0094415156553
-0.00944135982122
-0.009441918344
-0.00944363626042
-0.00944877463605
-0.00946473029051
-0.00950698619649
-0.00957157787349
-0.00946032177355
-0.00843170090253
-0.00528407699673
-0.00530112757056
-0.00856226951025
-0.00967378515382
-0.00986812352257
-0.0098609287025
-0.00982556613007
-0.0097597371672
-0.00967331440433
-0.00960391607312
-0.0095100753917
-0.0094596433276
-0.00945925749489
-0.00947301133556
-0.00948409822697
-0.00948984328237
-0.00949271984778
-0.00949502928387
-0.00949779882472
-0.00950100862454
-0.00950414841762
-0.00950661968734
-0.00950805450913
-0.00950850321857
-0.00950812005841
-0.00950747412167
-0.00950647305135
-0.00950525541415
-0.00950366500874
-0.00950236227349
-0.00950158123118
-0.00950141450101
-0.00950192006511
-0.00950349593898
-0.00950814421667
-0.00952256208146
-0.00956002775453
-0.00961441427606
-0.00948939325306
-0.00844950396127
-0.00528654597217
-0.00530327100643
-0.00854106020701
-0.00963101491506
-0.00983271855359
-0.00983337972289
-0.00980377120997
-0.00974543885555
-0.0096664721131
-0.00960454253383
-0.00952464286048
-0.0094860533463
-0.00948736132034
-0.00949869159835
-0.00950735041648
-0.0095112515859
-0.00951301578247
-0.00951463925139
-0.00951697883042
-0.00951990750468
-0.00952286663001
-0.00952523283178
-0.00952662393032
-0.00952708058189
-0.00952667569096
-0.00952607759488
-0.00952506636338
-0.00952387347754
-0.00952237339811
-0.00952112256765
-0.00952038466707
-0.0095202247359
-0.00952069535974
-0.00952211710983
-0.00952616955945
-0.00953831403516
-0.00956973436867
-0.00961260986186
-0.00947788074852
-0.00844566700315
-0.00528948977411
-0.00530290090858
-0.00843709191805
-0.00947011485662
-0.00964580572273
-0.00965322096318
-0.00963063433655
-0.00958137414638
-0.0095239885981
-0.00946220985959
-0.00939839771829
-0.00937191939519
-0.00937457732876
-0.00938333745396
-0.0093894477685
-0.00939150419745
-0.00939215624683
-0.00939310762383
-0.00939498387853
-0.0093975776091
-0.00940030105975
-0.00940252658307
-0.00940384941479
-0.00940432090187
-0.00940391279188
-0.00940339779047
-0.00940240881705
-0.00940127771343
-0.00939991053643
-0.00939878780363
-0.00939812465809
-0.00939802190033
-0.00939851520155
-0.00939986842945
-0.00940331923052
-0.00941233764204
-0.00943703391005
-0.00946929850741
-0.00933748564491
-0.00835948249717
-0.00528869234821
-0.00528344380268
-0.0081276225827
-0.0090176901845
-0.00916509841351
-0.00917163716187
-0.00915495023293
-0.0091168618694
-0.00906745618807
-0.00901291576395
-0.00896785415363
-0.00895265315064
-0.00895631401859
-0.00896341799738
-0.00896636782329
-0.0089668893318
-0.0089666534683
-0.00896704642635
-0.00896849117214
-0.00897071639214
-0.00897314430985
-0.00897517210692
-0.00897639610696
-0.0089768819249
-0.00897649847791
-0.00897611114813
-0.00897522859888
-0.00897424755994
-0.00897308238469
-0.00897213149916
-0.0089716370445
-0.00897167095333
-0.00897229541897
-0.00897371546091
-0.00897592906313
-0.00898167434939
-0.00899956688324
-0.00902374868706
-0.00891451019149
-0.00806972551651
-0.0052679820018
-0.00518894396606
-0.00741250180652
-0.00805152316098
-0.00814764036644
-0.00815168418269
-0.00814120156865
-0.00811381297488
-0.00807561067357
-0.00803706943365
-0.00801089149904
-0.00800460660312
-0.00800930589531
-0.00801294893323
-0.00801417075
-0.0080137354539
-0.00801306565399
-0.00801312747713
-0.00801423191268
-0.00801607337218
-0.00801812819016
-0.00801986546817
-0.0080209409693
-0.00802141432804
-0.00802117431338
-0.00802093170978
-0.0080202599569
-0.00801954395589
-0.00801864290003
-0.00801797085605
-0.00801772137213
-0.00801798197803
-0.0080189013548
-0.00801942755497
-0.00802005744919
-0.0080233565985
-0.00803471694643
-0.00805295091614
-0.00798544139799
-0.00737469637421
-0.00517288709714
-0.00484640024397
-0.00602391832537
-0.00632899143771
-0.00636316434207
-0.00636280147758
-0.00635820896907
-0.00634455331539
-0.00632466020325
-0.00630577318619
-0.00629465116819
-0.00629424921898
-0.00629601895978
-0.00629714393222
-0.00629712246472
-0.00629648859897
-0.00629593786465
-0.00629601504917
-0.00629687231155
-0.00629827754558
-0.0062998261127
-0.00630087209256
-0.00630121718601
-0.00630150890744
-0.00630182210567
-0.00630216726948
-0.0063019227741
-0.0063015387939
-0.00630094059142
-0.00630052003963
-0.00630044573689
-0.00630080448681
-0.00630085184134
-0.00630071986678
-0.00630082240215
-0.00630205771655
-0.00630728969125
-0.00631880488321
-0.00629808432669
-0.00600334159506
-0.00483312697622
-0.00379183868759
-0.00396943190264
-0.00400074028159
-0.0039996924114
-0.00399810925082
-0.00399793954493
-0.00399738188933
-0.00399601147292
-0.0039945442453
-0.00399370692891
-0.00399230534041
-0.00399199674945
-0.00399234951152
-0.00399270614518
-0.00399308824717
-0.00399358454131
-0.00399424008473
-0.00399500859114
-0.00399581733637
-0.00399644666967
-0.00399676736924
-0.00399699146757
-0.00399716954962
-0.0039973459525
-0.00399750162125
-0.00399772447207
-0.0039978480749
-0.00399763398677
-0.00399737722353
-0.00399717454909
-0.00399704723199
-0.00399682364453
-0.00399660389113
-0.00399642222606
-0.00399636915832
-0.00399680873415
-0.00399861158783
-0.00399941286366
-0.00396718522562
-0.00379048535345
-0.00483171221019
-0.00600797288236
-0.00630998625974
-0.00633788901295
-0.0063324572513
-0.00632769406823
-0.00631882122203
-0.00630629088939
-0.00629483480113
-0.00628870296361
-0.00628858217988
-0.00629088975331
-0.00629150980074
-0.00629219820495
-0.00629330064509
-0.00629441351097
-0.00629569054469
-0.00629715076699
-0.00629859957614
-0.00629995123975
-0.00630078902508
-0.00630132831428
-0.00630166150973
-0.00630179868636
-0.00630195686816
-0.00630216414982
-0.00630221585586
-0.0063018055295
-0.00630141723501
-0.00630113020468
-0.00630091367607
-0.00630060456927
-0.00630047861871
-0.00630061721663
-0.00630191578169
-0.00630721154901
-0.00631881434492
-0.0062981757311
-0.00600354304049
-0.00483353859684
-0.00559905394194
-0.00632641015989
-0.00658567988424
-0.00661210693119
-0.00660668505362
-0.00660103308306
-0.00659072244319
-0.00657661782943
-0.00656413862916
-0.00655792885405
-0.00655847830075
-0.00656173448297
-0.00656475110677
-0.00656639752671
-0.00656768808094
-0.00656855945232
-0.00656921108815
-0.00656976654103
-0.00657024696123
-0.00657062453296
-0.00657086515902
-0.00657085357932
-0.00657075608248
-0.00657060743063
-0.00657045164179
-0.00657017956744
-0.00656996079524
-0.00656981267956
-0.00656976395885
-0.00656982148309
-0.00656997267366
-0.00657021794467
-0.00657040636363
-0.0065708633446
-0.0065725854628
-0.00657860629735
-0.00659106153817
-0.00657348011645
-0.0063227981806
-0.00560171537708
-0.00653497520569
-0.00709754630095
-0.00741160901482
-0.00745505108275
-0.00745093212849
-0.00744247436046
-0.0074261499508
-0.00740349666877
-0.00738185847259
-0.0073687974186
-0.00736647995312
-0.00736960375901
-0.00737330808209
-0.00737591310662
-0.00737758467902
-0.00737870107736
-0.00737951547316
-0.00738016114715
-0.00738066865465
-0.00738102433267
-0.00738120738568
-0.00738121827788
-0.00738110498303
-0.00738090603012
-0.00738068798971
-0.00738047955478
-0.00738033435681
-0.00738027562544
-0.0073803211431
-0.00738047266552
-0.00738071550689
-0.00738103324323
-0.00738145460446
-0.00738217094187
-0.00738485936952
-0.00739359178358
-0.00740939648343
-0.00738250783207
-0.00708557673342
-0.00653264589083
-0.00685992988827
-0.00752442976892
-0.00790072371531
-0.00795991554569
-0.00795626145954
-0.00794422678891
-0.00792094188267
-0.0078887534099
-0.0078562867005
-0.00783411853982
-0.00782776928753
-0.00783040600971
-0.00783489830665
-0.00783847693317
-0.00784068225895
-0.00784214300327
-0.00784318185781
-0.00784396444392
-0.00784453922331
-0.00784491178345
-0.0078450789965
-0.00784506053395
-0.00784491558858
-0.00784468844817
-0.00784445954791
-0.00784425301607
-0.00784411960358
-0.00784407944227
-0.00784414991077
-0.00784432729964
-0.00784459914518
-0.00784495795529
-0.00784548461661
-0.00784671368835
-0.00785059098107
-0.00786254785076
-0.00788264845028
-0.00784808569298
-0.00749987848367
-0.00685472577891
-0.00696051196237
-0.00771105744707
-0.00812929169649
-0.0081951908926
-0.00818894866605
-0.00817293802656
-0.00814347603107
-0.00810453513892
-0.00806421139623
-0.00803330007172
-0.0080227018551
-0.0080250268125
-0.00803040032763
-0.00803499585806
-0.00803786010376
-0.00803970046413
-0.00804095905961
-0.00804186359451
-0.00804249730119
-0.00804288488552
-0.00804304259781
-0.00804300095902
-0.00804282958864
-0.00804258058104
-0.00804233419825
-0.00804211812221
-0.00804198062934
-0.00804194357413
-0.00804202143373
-0.00804220956174
-0.00804249627312
-0.00804288410777
-0.00804350194708
-0.00804508671355
-0.00805038557127
-0.00806575813805
-0.00809114905043
-0.0080543522441
-0.0076732178511
-0.00695370239853
-0.00698341600193
-0.00777273424685
-0.00820814247989
-0.00827535487076
-0.00826420724461
-0.00824394305556
-0.00820905084771
-0.0081622448905
-0.00811886601045
-0.00808084853954
-0.0080662537026
-0.00806841509468
-0.00807489149281
-0.00808044509706
-0.00808401467117
-0.00808624425864
-0.00808771285651
-0.00808872726166
-0.00808941277299
-0.00808981675004
-0.00808997037416
-0.00808991692037
-0.00808972896724
-0.00808946680765
-0.00808920867876
-0.0080889870655
-0.00808884560544
-0.00808880897637
-0.00808889159819
-0.00808908834796
-0.00808938853249
-0.00808980296658
-0.00809050877049
-0.0080924311678
-0.00809896378153
-0.00811771350678
-0.00814909041234
-0.00811573000107
-0.00772242447748
-0.0069748075156
-0.00698364491148
-0.00778366802521
-0.00822204379926
-0.00828359601636
-0.0082671314846
-0.00824307346721
-0.00820347722262
-0.00815138978538
-0.0081052317031
-0.00806182783302
-0.00804363227632
-0.00804563879699
-0.00805319955305
-0.00805967987544
-0.00806390610361
-0.00806649854646
-0.00806815800809
-0.00806926817359
-0.00806999957042
-0.00807042092497
-0.00807057736988
-0.00807052000177
-0.00807032494855
-0.00807005831172
-0.00806979376412
-0.00806956866716
-0.00806942743401
-0.00806939271866
-0.0080694804342
-0.00806968633861
-0.00806999980782
-0.00807043923134
-0.00807122009555
-0.0080734302485
-0.00808099271936
-0.00810269705661
-0.00813999276213
-0.00811346994164
-0.00772164454209
-0.00697227344721
-0.00698030664667
-0.00778116684306
-0.00821609864487
-0.00827152041212
-0.00825105215409
-0.00822401771025
-0.00818004635466
-0.00812295589311
-0.00807153298224
-0.00802630479546
-0.00800506956464
-0.00800683716988
-0.00801527571304
-0.00802255754319
-0.0080273195769
-0.00803021158285
-0.00803202815465
-0.00803321432854
-0.0080339830659
-0.00803442035733
-0.00803458234529
-0.00803452543143
-0.00803432875023
-0.00803406239068
-0.00803379775933
-0.00803357197507
-0.00803343157121
-0.00803340068853
-0.00803349326606
-0.00803370714482
-0.00803403221916
-0.00803449245561
-0.00803533132188
-0.00803776034437
-0.00804610832636
-0.00807009146689
-0.00811238740507
-0.00809321405405
-0.00770828497986
-0.00696561611942
-0.00697833385412
-0.00777857984229
-0.00820981996061
-0.00826132377585
-0.00823878836394
-0.00820980970581
-0.00816200228253
-0.00810014605138
-0.008041674766
-0.00799739056958
-0.00797389047608
-0.00797537411718
-0.00798439653667
-0.00799225525945
-0.0079973865077
-0.0080004909044
-0.008002415397
-0.00800365435495
-0.00800444844488
-0.00800489767006
-0.0080050647172
-0.00800501107457
-0.00800481545814
-0.00800455029834
-0.00800428644499
-0.00800406367718
-0.00800392410553
-0.00800389541
-0.00800399247359
-0.00800421273654
-0.0080045460399
-0.00800502023099
-0.00800589861412
-0.0080084680936
-0.00801733184199
-0.00804282090872
-0.0080886178505
-0.00807516107189
-0.00769690702282
-0.00696066223265
-0.0069776834718
-0.00777775670808
-0.00820710996414
-0.00825697214759
-0.00823379420853
-0.00820389982321
-0.00815370478256
-0.00808898180171
-0.00802730038161
-0.00798244733456
-0.00795767137461
-0.00795896719828
-0.00796827540512
-0.00797643149131
-0.00798174987448
-0.00798496049848
-0.0079869386919
-0.00798820406274
-0.00798901069216
-0.00798946587434
-0.00798963648687
-0.00798958588109
-0.00798939173586
-0.00798912722554
-0.00798886421705
-0.00798864305262
-0.00798850555883
-0.0079884781078
-0.00798857766258
-0.00798880068498
-0.00798913868178
-0.00798962093855
-0.00799051861516
-0.00799315593664
-0.00800226824624
-0.00802849509073
-0.00807606046446
-0.00806562681317
-0.0076911378178
-0.00695830608502
-0.00697762398254
-0.00777763622072
-0.00820699823964
-0.00825686430284
-0.00823367520605
-0.0082037914498
-0.00815362630658
-0.00808893872384
-0.00802729588255
-0.00798242837138
-0.0079576803115
-0.00795898224733
-0.007968287768
-0.00797644038391
-0.00798175656049
-0.00798496534026
-0.00798694215029
-0.00798820662029
-0.00798901249926
-0.00798946720911
-0.00798963785382
-0.00798958749131
-0.00798939365304
-0.00798912936222
-0.00798886686477
-0.0079886460007
-0.00798850897145
-0.00798848180093
-0.00798858167898
-0.00798880494055
-0.00798914338312
-0.00798962594814
-0.00799052402345
-0.00799316179605
-0.00800227327001
-0.00802849835202
-0.00807606313447
-0.00806562856686
-0.00769113839251
-0.00695830575165
-0.00697816851571
-0.00777823930771
-0.00820950660361
-0.00826102725217
-0.0082384817319
-0.00820952612891
-0.00816178817912
-0.00810002284557
-0.00804166538294
-0.00799733790254
-0.00797391715414
-0.0079754177436
-0.00798443204885
-0.00799228105628
-0.00799740540013
-0.00800050520826
-0.00800242569553
-0.0080036616501
-0.00800445362882
-0.00800490163906
-0.00800506877133
-0.00800501593289
-0.0080048213065
-0.00800455681129
-0.00800429436264
-0.00800407259674
-0.00800393400174
-0.00800390629667
-0.00800400416926
-0.00800422532355
-0.00800455981214
-0.00800503522163
-0.00800591452062
-0.00800848402094
-0.00801734867259
-0.00804283052918
-0.00808862566149
-0.0080751661426
-0.00769690855031
-0.00696066041566
-0.00698007016929
-0.00778065401592
-0.00821562504585
-0.00827107731438
-0.00825061536364
-0.00822361616852
-0.00817973881298
-0.00812276068028
-0.00807182431612
-0.00802623536918
-0.00800511937115
-0.00800690863951
-0.00801533265696
-0.00802259855534
-0.00802734808232
-0.00803023302996
-0.00803204337512
-0.00803322481528
-0.00803399081015
-0.00803442658569
-0.00803458833345
-0.00803453231667
-0.00803433722056
-0.00803407206485
-0.00803380969272
-0.00803358550519
-0.00803344636603
-0.00803341679157
-0.00803351087985
-0.00803372682566
-0.00803405366561
-0.00803451568376
-0.00803535542236
-0.00803778580068
-0.00804613489576
-0.00807010620576
-0.00811239904956
-0.00809322129876
-0.00770828674289
-0.00696561156067
-0.00698338504463
-0.00778305242689
-0.00822145142305
-0.0082830423766
-0.00826657690407
-0.00824256981624
-0.00820308752468
-0.00815111244242
-0.00810493298246
-0.00806175625936
-0.00804370632423
-0.00804573203043
-0.00805327171908
-0.00805973035018
-0.00806393971835
-0.00806652277437
-0.00806817412813
-0.00806927768999
-0.00807000650805
-0.00807042585613
-0.00807058229554
-0.0080705257381
-0.00807033266275
-0.00807006783012
-0.00806980580703
-0.00806958256576
-0.0080694437519
-0.00806941111779
-0.00806950085398
-0.00806970863261
-0.0080700242562
-0.00807046611867
-0.00807124902921
-0.00807346098051
-0.00808102450519
-0.00810271345501
-0.00814000486085
-0.00811347648512
-0.00772164466894
-0.00697226303112
-0.0069831860153
-0.00777210154931
-0.00820743872953
-0.00827469936099
-0.00826353734937
-0.00824332186663
-0.00820855620747
-0.00816187606367
-0.00811853262108
-0.00808080302685
-0.00806634816919
-0.00806851960615
-0.00807496953572
-0.00808049512901
-0.00808404414256
-0.00808626284536
-0.00808772202436
-0.00808872987593
-0.0080894122404
-0.00808981447434
-0.00808996809829
-0.00808991572839
-0.00808973018337
-0.00808946983167
-0.00808921424648
-0.00808899398683
-0.00808885637782
-0.00808882225599
-0.00808890626423
-0.00808910611109
-0.00808940865122
-0.00808982531518
-0.00809053206657
-0.00809245719942
-0.00809899143324
-0.00811772515951
-0.00814909710011
-0.00811573101059
-0.00772241971489
-0.00697478654503
-0.00696035766254
-0.00771049041512
-0.00812839761885
-0.00819440809724
-0.00818812442372
-0.00817217156435
-0.00814283526804
-0.00810400147044
-0.00806392364372
-0.00803329254923
-0.00802280771587
-0.00802513026606
-0.00803047302201
-0.00803503401826
-0.00803787715617
-0.00803970454993
-0.00804095413409
-0.00804185282662
-0.00804248322397
-0.00804286913656
-0.00804302680012
-0.00804298632903
-0.00804281740338
-0.00804256999992
-0.0080423270452
-0.00804211294892
-0.00804197810717
-0.00804194354178
-0.00804202382042
-0.00804221444517
-0.00804250331183
-0.00804289212295
-0.00804351428788
-0.00804509756427
-0.00805038790171
-0.00806575839399
-0.00809114416678
-0.00805434238378
-0.00767320453345
-0.00695366530847
-0.00685986385773
-0.00752399421633
-0.00789991690198
-0.00795896042321
-0.00795524614189
-0.00794339799908
-0.00792017349787
-0.00788825283274
-0.00785608834705
-0.00783415056742
-0.00782787609646
-0.00783049865793
-0.00783495579843
-0.00783849888632
-0.00784068516634
-0.00784212989427
-0.00784316075069
-0.00784393843039
-0.00784451008268
-0.00784488135974
-0.00784504857484
-0.00784503087314
-0.00784488825927
-0.00784466203386
-0.00784443649179
-0.00784423224669
-0.00784410094212
-0.00784406396105
-0.00784413608676
-0.00784431582725
-0.00784458894182
-0.0078449493137
-0.00784547752473
-0.00784670315795
-0.00785057893672
-0.00786253414763
-0.00788262975523
-0.00784806292224
-0.00749985465144
-0.00685466983438
-0.00653499141785
-0.00709726688177
-0.00741099858556
-0.00745426259884
-0.00745007635508
-0.00744172047307
-0.00742553660828
-0.00740314323253
-0.00738176797124
-0.00736886550948
-0.00736658421323
-0.00736968391508
-0.00737334803263
-0.00737592443364
-0.00737757721551
-0.00737867834651
-0.00737948550182
-0.00738012677717
-0.00738063191538
-0.00738098661966
-0.0073811693567
-0.00738118167312
-0.00738106974762
-0.00738087085599
-0.00738065543328
-0.00738044948037
-0.00738030619841
-0.00738024900444
-0.00738029695276
-0.00738044939334
-0.00738069244026
-0.00738101103641
-0.00738143264209
-0.0073821499035
-0.0073848382375
-0.00739356926017
-0.00740936921054
-0.00738247608578
-0.00708554468804
-0.00653258171934
-0.00559912797162
-0.00632625732371
-0.00658526866591
-0.00661153354021
-0.00660605230651
-0.006600477396
-0.00659031232523
-0.00657642574935
-0.00656414341961
-0.00655802415233
-0.00655857918075
-0.00656179552729
-0.00656477937908
-0.00656640462989
-0.00656767846366
-0.0065685366149
-0.00656918172956
-0.00656973324678
-0.00657021141269
-0.00657058742714
-0.0065708320965
-0.00657081485402
-0.00657071794993
-0.00657056982105
-0.00657041941367
-0.00657014704473
-0.00656992855832
-0.00656978169769
-0.006569734876
-0.00656979324214
-0.0065699441506
-0.00657019240119
-0.00657038139019
-0.00657083893126
-0.00657256129767
-0.0065785810629
-0.00659103117532
-0.00657344257088
-0.00632275848153
-0.00560166281388
-0.00483175815888
-0.0060078355451
-0.00630957240204
-0.00633727483548
-0.00633176533772
-0.00632710815076
-0.00631840458942
-0.00630611859783
-0.00629486905622
-0.00628881750448
-0.0062886912722
-0.00629095420751
-0.00629155249982
-0.00629222267482
-0.00629330791176
-0.00629440168522
-0.00629566894173
-0.00629712290498
-0.00629855459354
-0.00629991694249
-0.00630075853613
-0.00630129977851
-0.00630162759588
-0.00630176857517
-0.00630194054121
-0.00630214803487
-0.00630218918441
-0.0063017730974
-0.00630138770456
-0.00630110531914
-0.00630082991678
-0.00630057683888
-0.00630045314198
-0.00630059270232
-0.00630189168238
-0.00630718609905
-0.00631877968007
-0.00629812128246
-0.00600347747482
-0.00483351226092
-0.0051712208515
-0.00737727062736
-0.00800131007051
-0.00808398259715
-0.008077667873
-0.00806699715598
-0.00805029470113
-0.00802874711746
-0.0080099931176
-0.00799986451434
-0.0079994754836
-0.00800350657696
-0.00800730088547
-0.008007245487
-0.00800885371631
-0.0080106069724
-0.0080125455643
-0.00801466795378
-0.00801671331892
-0.00801847927725
-0.00801969928764
-0.00802049457733
-0.00802096442716
-0.00802123502013
-0.00802147316222
-0.0080219179397
-0.00802205244469
-0.00802155765356