/*--------------------------------*- C++ -*----------------------------------*\
| =========                 |                                                 |
| \\      /  F ield         | OpenFOAM: The Open Source CFD Toolbox           |
|  \\    /   O peration     | Version:  3.0.1                                 |
|   \\  /    A nd           | Web:      www.OpenFOAM.org                      |
|    \\/     M anipulation  |                                                 |
\*---------------------------------------------------------------------------*/
FoamFile
{
    version     2.0;
    format      ascii;
    class       surfaceScalarField;
    location    "1.9";
    object      phi;
}
// * * * * * * * * * * * * * * * * * * * * * * * * * * * * * * * * * * * * * //

dimensions      [0 3 -1 0 0 0 0];

internalField   nonuniform List<scalar> 
45932
(
4.24935406715e-06
3.1070432233e-06
-7.35642974761e-06
7.95232134461e-06
3.8420841488e-06
-7.5450862027e-06
8.23403237933e-06
7.68020591013e-06
-7.96194447577e-06
4.59796529229e-06
1.19314764926e-05
-8.2954267584e-06
-1.0222102366e-06
1.4195783197e-05
-8.57561492304e-06
-7.02086986945e-06
1.42995298685e-05
-8.30087595782e-06
-1.16546678675e-05
1.21486983975e-05
-7.51491966014e-06
-1.32464923457e-05
7.99958903534e-06
-6.40780783916e-06
-1.1852199541e-05
3.64522344721e-06
-5.03958137292e-06
-9.17314998763e-06
9.3175029382e-07
-3.61087579473e-06
-6.5866767794e-06
-2.43746407448e-07
-2.34280363207e-06
-4.56078837601e-06
-6.11396950004e-07
-1.41456507639e-06
-3.14813950128e-06
-6.16002099271e-07
-7.96716280924e-07
-2.20675388953e-06
-5.05830462282e-07
-4.35618922388e-07
-1.57882496258e-06
-3.84254150888e-07
-2.4373049746e-07
-1.14730557085e-06
-2.84507321e-07
-1.47059484548e-07
-8.4250914347e-07
-2.10732964632e-07
-9.41056065902e-08
-6.2590920563e-07
-1.59537448472e-07
-5.71035802314e-08
-4.77105914922e-07
-1.25050302805e-07
-2.37953041229e-08
-3.81884260518e-07
-1.02764740079e-07
7.50015755228e-09
-3.25821362674e-07
-8.89863307328e-08
3.28818505063e-08
-2.94505615891e-07
-8.02112542622e-08
4.88567467619e-08
-2.73600687472e-07
-7.49860279722e-08
5.40457594398e-08
-2.49164835373e-07
-7.06307310681e-08
4.61631322497e-08
-2.12772649984e-07
-7.0762944468e-08
3.43422853529e-08
-1.62880161784e-07
-6.63036779761e-08
1.63846557429e-08
-9.96768951286e-08
-6.31762649683e-08
-5.38153512212e-11
-2.62222838075e-08
-6.11046208499e-08
-1.23792539458e-08
4.97316244857e-08
-5.7712019922e-08
-1.82749425127e-08
1.21685758259e-07
-5.46152033754e-08
-1.73762806616e-08
1.83377409746e-07
-5.15237371771e-08
-1.02096473641e-08
2.30126590249e-07
-4.88241587713e-08
2.02893354317e-09
2.59636826837e-07
-4.60584288764e-08
1.64980547213e-08
2.70826668572e-07
-4.36861345114e-08
3.24424156412e-08
2.65371340278e-07
-4.19874147819e-08
4.73855149911e-08
2.43174237353e-07
-4.05359940499e-08
6.26727437149e-08
2.09233645412e-07
-3.93658102308e-08
7.32421680224e-08
1.58442247816e-07
-3.91573520671e-08
8.9877292226e-08
9.2942448415e-08
-4.52247590801e-08
1.10639793356e-07
-6.88250181247e-08
1.6167727841e-07
4.29019266416e-06
8.19754548776e-06
-9.38073502003e-06
8.61270279563e-06
1.15165535345e-05
-1.19970186178e-05
9.04359738322e-06
2.05956996938e-05
-1.33464161464e-05
5.10372045234e-06
2.98427235236e-05
-1.39713817561e-05
-9.68514536493e-07
3.46438668818e-05
-1.43758443979e-05
-7.41357758016e-06
3.47644899499e-05
-1.40198891085e-05
-1.23964705879e-05
3.00463205153e-05
-1.29147384419e-05
-1.39958508681e-05
2.09113527115e-05
-1.1312424288e-05
-1.23084484673e-05
1.1042732136e-05
-9.08498076741e-06
-9.3172613034e-06
4.4232364993e-06
-6.48275741601e-06
-6.55874324778e-06
1.14640324794e-06
-4.14875314021e-06
-4.48189403655e-06
-1.96597482779e-07
-2.49173016261e-06
-3.06210505449e-06
-5.97716482676e-07
-1.43815108566e-06
-2.13004598069e-06
-6.31467891327e-07
-8.06491472146e-07
-1.51460316904e-06
-5.36432862444e-07
-4.63324907589e-07
-1.09363973249e-06
-4.23142392329e-07
-2.82380217797e-07
-7.96068329466e-07
-3.27275656895e-07
-1.81075265521e-07
-5.84599583019e-07
-2.55365685965e-07
-1.15686384736e-07
-4.39661120881e-07
-2.04969567917e-07
-6.50665474646e-08
-3.47090569815e-07
-1.71204743149e-07
-2.41783401244e-08
-2.92804575369e-07
-1.50359234328e-07
7.04092165422e-09
-2.63184224998e-07
-1.36170092878e-07
2.62958148606e-08
-2.41703646529e-07
-1.29304010907e-07
3.2798626247e-08
-2.14822360162e-07
-1.23143494109e-07
2.55968369227e-08
-1.81513358502e-07
-1.1942771813e-07
1.53249636295e-08
-1.33266039342e-07
-1.15591875101e-07
1.01234592336e-09
-6.9377548705e-08
-1.12745637579e-07
-1.43479903881e-08
2.31313126981e-09
-1.11010600535e-07
-2.18164519355e-08
7.67797564431e-08
-1.07537902402e-07
-2.46769337936e-08
1.47024548833e-07
-1.0453256169e-07
-2.03686431374e-08
2.06597500586e-07
-1.01653690907e-07
-9.48926705402e-09
2.51060830862e-07
-9.82194632984e-08
4.88087670293e-09
2.77792419256e-07
-9.53072438102e-08
2.24617704927e-08
2.86028455023e-07
-9.25525122337e-08
4.05711309964e-08
2.77237842108e-07
-9.0248222272e-08
5.69889870573e-08
2.5208581906e-07
-8.83816617246e-08
7.29322158033e-08
2.1449182064e-07
-8.62941871024e-08
8.44527017824e-08
1.59796951482e-07
-8.65875919456e-08
1.02046981171e-07
8.70697725167e-08
-9.43553041412e-08
1.21764551823e-07
-1.21435626688e-07
1.39582917701e-07
5.11635117931e-06
1.30619496582e-05
-9.98079707257e-06
1.03947888886e-05
1.94835461091e-05
-1.3245467788e-05
1.08824940077e-05
3.3461370557e-05
-1.33533956503e-05
6.16601659363e-06
4.70313070377e-05
-1.24720993358e-05
-9.19662793835e-07
5.3931480019e-05
-1.22019006405e-05
-8.37774695864e-06
5.40393797223e-05
-1.1816764603e-05
-1.41580890063e-05
4.71260284778e-05
-1.12993475344e-05
-1.58794080956e-05
3.36369983491e-05
-1.10043517237e-05
-1.36351306663e-05
1.87467818312e-05
-9.94839278495e-06
-9.97046137587e-06
8.39248280958e-06
-7.63400215815e-06
-6.7902231467e-06
2.99393127523e-06
-5.02785539201e-06
-4.51201600015e-06
5.65753388528e-07
-3.04064161068e-06
-3.02077963875e-06
-3.25116208837e-07
-1.76391305556e-06
-2.07201761282e-06
-5.70001801174e-07
-1.01029610911e-06
-1.46198828223e-06
-5.58327042931e-07
-5.88193142081e-07
-1.05219687051e-06
-4.68253060666e-07
-3.64729768543e-07
-7.65416912517e-07
-3.73501451708e-07
-2.40598679761e-07
-5.62220715172e-07
-2.9656361787e-07
-1.62043134464e-07
-4.23287625631e-07
-2.40213726434e-07
-1.03735973937e-07
-3.35108401876e-07
-2.01326722433e-07
-5.81049112163e-08
-2.84403628093e-07
-1.76525080822e-07
-2.45846630992e-08
-2.54895650972e-07
-1.60481788113e-07
-5.23853476562e-09
-2.35418637469e-07
-1.50755145825e-07
1.93592658808e-09
-2.09485515264e-07
-1.45247746201e-07
-3.86267387871e-09
-1.76602528331e-07
-1.40430785327e-07
-1.19095529144e-08
-1.28493858234e-07
-1.37830408008e-07
-2.58972238611e-08
-6.40766265007e-08
-1.355275206e-07
-4.16627178843e-08
5.99632718181e-09
-1.34160672886e-07
-4.69532935796e-08
7.98646964449e-08
-1.32160482429e-07
-4.92809418139e-08
1.49589063216e-07
-1.30232151697e-07
-4.4065293488e-08
2.08779535384e-07
-1.28093858217e-07
-3.27961927861e-08
2.5252627844e-07
-1.25905168824e-07
-1.61119442886e-08
2.78553382592e-07
-1.23172997826e-07
1.78338348583e-09
2.85937995681e-07
-1.20214315978e-07
2.02183527582e-08
2.76153535899e-07
-1.17761421768e-07
3.72358950124e-08
2.50011671365e-07
-1.15739007992e-07
5.34347154077e-08
2.10881926508e-07
-1.1316739639e-07
6.59343788379e-08
1.53862745691e-07
-1.13196259775e-07
8.35503395004e-08
8.00303324792e-08
-1.19881536249e-07
9.92648797049e-08
-1.36024568149e-07
9.45206201343e-08
6.76032300021e-06
1.6589176221e-05
-1.02875902953e-05
1.34199432329e-05
2.54181068066e-05
-1.25942129501e-05
1.38354164757e-05
4.26866330754e-05
-9.64073933091e-06
7.82407519537e-06
5.88454499666e-05
-5.80276255858e-06
-8.86680194445e-07
6.69107754603e-05
-4.26845903402e-06
-9.96990684704e-06
6.70096017315e-05
-3.88690040084e-06
-1.70493113132e-05
5.87992720946e-05
-4.59377483996e-06
-1.90411494533e-05
4.26517947433e-05
-7.02295502365e-06
-1.598421883e-05
2.44424605107e-05
-8.75266388953e-06
-1.1254384187e-05
1.14814242575e-05
-7.81886184964e-06
-7.35919274706e-06
4.552787358e-06
-5.45413852698e-06
-4.71101880248e-06
1.29310447879e-06
-3.37560883003e-06
-3.05880790939e-06
-2.20715958304e-09
-1.97519372917e-06
-2.05279525848e-06
-4.29651714856e-07
-1.14642578262e-06
-1.4282476696e-06
-5.02889394888e-07
-6.8003721987e-07
-1.02083314594e-06
-4.49443865084e-07
-4.26267087277e-07
-7.40738885648e-07
-3.67230936445e-07
-2.86404954513e-07
-5.44577212399e-07
-2.94005948521e-07
-1.98761319009e-07
-4.11281308488e-07
-2.38070590376e-07
-1.35484092643e-07
-3.27275162507e-07
-1.98562782895e-07
-8.68160134929e-08
-2.79356216408e-07
-1.72744673902e-07
-5.17432694394e-08
-2.51923908111e-07
-1.56450915755e-07
-3.15035179688e-08
-2.33293364075e-07
-1.45767272329e-07
-2.36546218865e-08
-2.08521934354e-07
-1.40333646578e-07
-2.97171609903e-08
-1.75427383669e-07
-1.35376337831e-07
-3.81761514346e-08
-1.27438889512e-07
-1.33561083406e-07
-5.22821421598e-08
-6.32869401378e-08
-1.31735914631e-07
-6.79680526988e-08
6.64507600666e-09
-1.31129438256e-07
-7.29908794884e-08
8.03502687142e-08
-1.30367588433e-07
-7.55306667789e-08
1.4997725914e-07
-1.29442072542e-07
-7.0455258481e-08
2.09016404704e-07
-1.28198791846e-07
-5.89779643755e-08
2.52707695755e-07
-1.26690792041e-07
-4.29544872845e-08
2.78551740841e-07
-1.24886876157e-07
-2.41831872157e-08
2.85489280831e-07
-1.22610334115e-07
-4.59777194408e-09
2.75272309758e-07
-1.19371534281e-07
1.17683416779e-08
2.48734858463e-07
-1.17537679266e-07
2.82750874505e-08
2.08708779381e-07
-1.14930178971e-07
4.17240285117e-08
1.50443129135e-07
-1.14387893169e-07
5.93832988562e-08
7.63780907072e-08
-1.18992476934e-07
7.30848299491e-08
-1.23992104902e-07
6.42484764712e-08
9.02003894179e-06
1.8206573742e-05
-1.06374747736e-05
1.73172466786e-05
2.8116053888e-05
-1.09951774544e-05
1.75237079299e-05
4.63990002054e-05
-3.91880675562e-06
9.86337429932e-06
6.2890842892e-05
3.61502761226e-06
-8.68261202428e-07
7.09696195827e-05
6.67294047117e-06
-1.19772174197e-05
7.10598467455e-05
7.05888103794e-06
-2.06878552209e-05
6.27234952159e-05
4.78654259098e-06
-2.30799309765e-05
4.61535159074e-05
-1.10960160137e-06
-1.90714588942e-05
2.6969030487e-05
-6.53507899841e-06
-1.30146017346e-05
1.30361222287e-05
-7.61163760914e-06
-8.19415680172e-06
5.45671964111e-06
-5.72446974368e-06
-5.04738490062e-06
1.79011485404e-06
-3.64386658446e-06
-3.16558673403e-06
2.68980545402e-07
-2.15305721457e-06
-2.06745058297e-06
-2.77081299048e-07
-1.25076456129e-06
-1.41100641545e-06
-4.09480193369e-07
-7.49899153922e-07
-9.97086305214e-07
-3.9210427651e-07
-4.71297405829e-07
-7.19936175499e-07
-3.27301757763e-07
-3.1711541263e-07
-5.28865424767e-07
-2.62940368955e-07
-2.22175814372e-07
-4.00369913425e-07
-2.11844843556e-07
-1.54764677581e-07
-3.20145280048e-07
-1.75120754823e-07
-1.03711074501e-07
-2.74899189191e-07
-1.50464296899e-07
-6.75686741934e-08
-2.49674049221e-07
-1.34750440621e-07
-4.69640890961e-08
-2.31635853206e-07
-1.24430631981e-07
-3.94090798039e-08
-2.07975794715e-07
-1.19140310134e-07
-4.48828674239e-08
-1.74790070118e-07
-1.14628345141e-07
-5.39583887563e-08
-1.26887814317e-07
-1.13185437834e-07
-6.82994548849e-08
-6.30430294208e-08
-1.11881587902e-07
-8.37207395116e-08
6.81583163347e-09
-1.11846980432e-07
-8.91661862945e-08
8.05003126634e-08
-1.11910573744e-07
-9.21715490519e-08
1.50139294289e-07
-1.11786810338e-07
-8.73301661167e-08
2.09174615627e-07
-1.11249118251e-07
-7.60266654362e-08
2.52854324411e-07
-1.10294429378e-07
-6.01228168031e-08
2.78711956683e-07
-1.08852324688e-07
-4.19429084382e-08
2.85722642131e-07
-1.07139539181e-07
-2.2535036354e-08
2.75052877372e-07
-1.04546256894e-07
-4.21110050988e-09
2.48439555417e-07
-1.02556953918e-07
1.15751446483e-08
2.07979346626e-07
-1.00243114268e-07
2.57121570393e-08
1.49325145951e-07
-9.93948871565e-08
4.35908652891e-08
7.53232888807e-08
-1.02330528819e-07
5.72516566597e-08
-1.01439789739e-07
5.26757223094e-08
1.15422722966e-05
1.76618238015e-05
-1.09975565365e-05
2.15060484633e-05
2.71407442474e-05
-8.98847509601e-06
2.13909645976e-05
4.40556426314e-05
2.45849820336e-06
1.19587985044e-05
5.87666675861e-05
1.35564914857e-05
-8.6142606471e-07
6.58575648431e-05
1.79325145333e-05
-1.40681874226e-05
6.59496099445e-05
1.83172599765e-05
-2.45155260867e-05
5.85463838754e-05
1.46246555601e-05
-2.74100419952e-05
4.36900011228e-05
5.35812522205e-06
-2.24611295636e-05
2.59644217662e-05
-3.94431710044e-06
-1.49977218782e-05
1.28317257075e-05
-7.25908791386e-06
-9.16923083003e-06
5.55968193603e-06
-5.93154710145e-06
-5.46480067064e-06
1.96642716288e-06
-3.8808279834e-06
-3.31600304105e-06
4.31038411563e-07
-2.31092531607e-06
-2.10512585694e-06
-1.47113034644e-07
-1.3408992494e-06
-1.406788591e-06
-3.08804731011e-07
-7.99053157749e-07
-9.80260899897e-07
-3.14477663378e-07
-5.04187295513e-07
-7.02741855214e-07
-2.69119965489e-07
-3.35733898917e-07
-5.15206494813e-07
-2.16332165322e-07
-2.34181540894e-07
-3.90580583283e-07
-1.72704381311e-07
-1.63808979507e-07
-3.13576880094e-07
-1.41300371777e-07
-1.10867618553e-07
-2.70725731066e-07
-1.19584943856e-07
-7.37715051381e-08
-2.47265493957e-07
-1.05455053693e-07
-5.27926818649e-08
-2.30054791044e-07
-9.62546250456e-08
-4.54194188075e-08
-2.07301243636e-07
-9.14636515525e-08
-5.04579451643e-08
-1.74274767287e-07
-8.76077379787e-08
-6.00697159882e-08
-1.26483012406e-07
-8.6423518987e-08
-7.45729304019e-08
-6.29333611207e-08
-8.55323626846e-08
-8.99181400858e-08
6.827123692e-09
-8.58149532451e-08
-9.58151482159e-08
8.05201029922e-08
-8.63230322197e-08
-9.93085925614e-08
1.50229078155e-07
-8.66573221698e-08
-9.48726679505e-08
2.09332014943e-07
-8.66010607947e-08
-8.37911226519e-08
2.53086006381e-07
-8.60420856393e-08
-6.80515290503e-08
2.78962959155e-07
-8.49922873776e-08
-4.97859350781e-08
2.86095454373e-07
-8.36139197802e-08
-3.07095217582e-08
2.75263278665e-07
-8.17153973911e-08
-1.20517368696e-08
2.48606347503e-07
-7.99865443169e-08
4.03193527472e-09
2.07951626221e-07
-7.81384730795e-08
1.84921369161e-08
1.49257415709e-07
-7.73151946782e-08
3.65470303955e-08
7.53891306012e-08
-7.91876841552e-08
5.06393965953e-08
-7.63847750654e-08
5.02403407401e-08
1.3928533281e-05
1.50554829122e-05
-1.13222203935e-05
2.53510702359e-05
2.28301128334e-05
-7.1118952843e-06
2.4873921149e-05
3.6483450146e-05
8.04944225698e-06
1.38017292525e-05
4.78897629492e-05
2.19493213202e-05
-8.59332885466e-07
5.3311308013e-05
2.72076511773e-05
-1.59229573946e-05
5.33955575054e-05
2.76180396125e-05
-2.79750114558e-05
4.768953991e-05
2.29091883414e-05
-3.14086852618e-05
3.61253938548e-05
1.09984317424e-05
-2.56746358617e-05
2.18059882705e-05
-1.57560197712e-06
-1.69218096734e-05
1.09954648061e-05
-6.91663432255e-06
-1.01403492794e-05
4.88516549183e-06
-6.10703841942e-06
-5.89574400781e-06
1.80943550567e-06
-4.08770076264e-06
-3.48130265457e-06
4.65161337422e-07
-2.44863345271e-06
-2.1542495013e-06
-5.68320695147e-08
-1.41738477604e-06
-1.41077676031e-06
-2.14764597183e-07
-8.37549098065e-07
-9.69422742466e-07
-2.30498347133e-07
-5.25362808732e-07
-6.89330291496e-07
-2.0259053934e-07
-3.4665302832e-07
-5.03887606034e-07
-1.62565110475e-07
-2.3924715535e-07
-3.82411733612e-07
-1.286438118e-07
-1.65578961845e-07
-3.07900741623e-07
-1.0386904141e-07
-1.11985540896e-07
-2.670207769e-07
-8.64499993632e-08
-7.4055197936e-08
-2.45020613226e-07
-7.49161441653e-08
-5.25751815551e-08
-2.28610698193e-07
-6.74369031942e-08
-4.52592835205e-08
-2.06622337963e-07
-6.35293605338e-08
-4.99491591111e-08
-1.73838374188e-07
-6.04629444973e-08
-5.99499054913e-08
-1.26178442755e-07
-5.95153076575e-08
-7.45857134787e-08
-6.29018468421e-08
-5.8949914397e-08
-8.98765895862e-08
6.75285505311e-09
-5.93505513044e-08
-9.61401598989e-08
8.04662644298e-08
-5.99760033781e-08
-1.00087160888e-07
1.50252261161e-07
-6.05095575377e-08
-9.59668508557e-08
2.09460514648e-07
-6.0672630517e-08
-8.5175843838e-08
2.53308454339e-07
-6.0393965267e-08
-6.95402659242e-08
2.79246477277e-07
-5.96704576438e-08
-5.13076123423e-08
2.86446927248e-07
-5.86297425194e-08
-3.22345658391e-08
2.75590287165e-07
-5.72704094061e-08
-1.3639675816e-08
2.48912351358e-07
-5.60421117497e-08
2.68083598807e-09
2.08145691973e-07
-5.47188807698e-08
1.72911259345e-08
1.49445477061e-07
-5.40976884359e-08
3.54170272418e-08
7.56694810775e-08
-5.52158708061e-08
4.97194505888e-08
-5.19918489798e-08
5.11836292771e-08
1.58706762192e-05
1.08263071169e-05
-1.16415204511e-05
2.83946850622e-05
1.61545622498e-05
-5.84842575296e-06
2.76272754565e-05
2.54249375565e-05
1.18260716029e-05
1.5242600708e-05
3.28932516588e-05
2.73814888137e-05
-8.58517451553e-07
3.64190128131e-05
3.29938429415e-05
-1.73763291451e-05
3.6484560967e-05
3.34292690371e-05
-3.07048975467e-05
3.27633104291e-05
2.8255169485e-05
-3.4597354262e-05
2.51985043368e-05
1.4819551734e-05
-2.83066299427e-05
1.54278801382e-05
8.742524822e-08
-1.85367765783e-05
7.91835788629e-06
-6.69280692705e-06
-1.09754463727e-05
3.58390524101e-06
-6.26016450346e-06
-6.27620646636e-06
1.36711053009e-06
-4.25700368736e-06
-3.63280709727e-06
3.81653932425e-07
-2.55996104735e-06
-2.20306658323e-06
-8.69366753194e-09
-1.47792739952e-06
-1.41847813301e-06
-1.32002838123e-07
-8.67383417487e-07
-9.63363284247e-07
-1.48749478223e-07
-5.36890863845e-07
-6.79674644125e-07
-1.32333690317e-07
-3.53975709425e-07
-4.95251222647e-07
-1.06303847008e-07
-2.40722232944e-07
-3.75834968164e-07
-8.32954681197e-08
-1.64807509348e-07
-3.03394514489e-07
-6.62823350033e-08
-1.10070448272e-07
-2.64021304103e-07
-5.42625489775e-08
-7.16006120001e-08
-2.43161188082e-07
-4.61356663406e-08
-4.96761480796e-08
-2.27414406349e-07
-4.08896140684e-08
-4.23250735027e-08
-2.06037148597e-07
-3.81656534421e-08
-4.67667035476e-08
-1.73494406969e-07
-3.60529768764e-08
-5.69729032264e-08
-1.25970609582e-07
-3.53819838752e-08
-7.16735993469e-08
-6.29184603921e-08
-3.50487193728e-08
-8.69697927375e-08
6.64679444658e-09
-3.54080365711e-08
-9.35278519366e-08
8.03711224944e-08
-3.59625618128e-08
-9.77637066752e-08
1.50236273808e-07
-3.64524202436e-08
-9.39547759658e-08
2.09544657499e-07
-3.66753087922e-08
-8.33443727672e-08
2.53486174622e-07
-3.65682882388e-08
-6.78108854926e-08
2.79492769885e-07
-3.60365296965e-08
-4.96876230604e-08
2.86734690704e-07
-3.54662667346e-08
-3.04544981467e-08
2.75867632031e-07
-3.47636326742e-08
-1.1690086837e-08
2.4919448129e-07
-3.38195028353e-08
4.39890175337e-09
2.08335237581e-07
-3.30019965194e-08
1.90874540356e-08
1.49576609422e-07
-3.26057253067e-08
3.72018524043e-08
7.58279521413e-08
-3.29807508062e-08
5.14293239753e-08
-2.92276349752e-08
5.29711030298e-08
1.71916407791e-05
5.57550874652e-06
-1.19408536294e-05
3.04352635597e-05
8.22028232262e-06
-5.30928746289e-06
2.94568416854e-05
1.28023342688e-05
1.36012216295e-05
1.61622243419e-05
1.6406720071e-05
2.97815233595e-05
-8.57804834851e-07
1.80846457722e-05
3.53549098009e-05
-1.83157995908e-05
1.81263269429e-05
3.5816771385e-05
-3.25020965445e-05
1.63518578247e-05
3.05981892903e-05
-3.67211100009e-05
1.27202853173e-05
1.66974839367e-05
-3.01137600575e-05
7.8592234913e-06
9.61371566732e-07
-1.96731576413e-05
4.08443394218e-06
-6.60673111035e-06
-1.15763521112e-05
1.86927224523e-06
-6.38226656293e-06
-6.55550655956e-06
7.24434465469e-07
-4.37825936347e-06
-3.74677187292e-06
2.10762978441e-07
-2.63791287672e-06
-2.24160899667e-06
5.55180914204e-09
-1.51945543129e-06
-1.4259441015e-06
-6.03776170244e-08
-8.87321400691e-07
-9.60171838902e-07
-7.02903632958e-08
-5.44257224789e-07
-6.73529685599e-07
-6.22604609325e-08
-3.56745377092e-07
-4.89498710109e-07
-4.97444860883e-08
-2.40628382563e-07
-3.71413317092e-07
-3.830996372e-08
-1.63114387706e-07
-3.00300006945e-07
-2.9839153377e-08
-1.07600032268e-07
-2.61924707006e-07
-2.38086184255e-08
-6.88690935488e-08
-2.41846235303e-07
-1.96931485055e-08
-4.65562893098e-08
-2.2656702071e-07
-1.70773509088e-08
-3.91221630333e-08
-2.05617270393e-07
-1.57549093791e-08
-4.33858313047e-08
-1.73257647179e-07
-1.47164432913e-08
-5.37158286077e-08
-1.25843933826e-07
-1.43944575151e-08
-6.84171145269e-08
-6.29545389714e-08
-1.42528547003e-08
-8.37011165698e-08
6.5440207417e-09
-1.44719816087e-08
-9.04541996904e-08
8.02793750115e-08
-1.47974790343e-08
-9.49260098518e-08
1.50200603206e-07
-1.5102950783e-08
-9.13029477668e-08
2.09587696002e-07
-1.52409218069e-08
-8.08599841027e-08
2.53620451427e-07
-1.51829985406e-08
-6.54615586332e-08
2.79640449663e-07
-1.49617144307e-08
-4.71416493462e-08
2.86887298988e-07
-1.4607623922e-08
-2.81542493265e-08
2.76099223725e-07
-1.42938289222e-08
-9.73173342553e-09
2.4938396432e-07
-1.39996551353e-08
6.84412260289e-09
2.08441855863e-07
-1.36678161056e-08
2.15533464446e-08
1.49594926602e-07
-1.34588464011e-08
3.96354412867e-08
7.5836186254e-08
-1.29828901735e-08
5.36766523724e-08
-8.04806026878e-09
5.45639079885e-08
1.78448664973e-05
-1.3705397063e-07
-1.21323068398e-05
3.14353046766e-05
-1.7371318608e-07
-5.19636743327e-06
3.03434272527e-05
-2.3270739461e-07
1.41271540729e-05
1.66018606458e-05
-2.76882207753e-07
3.0425597802e-05
-8.54645590148e-07
-3.02152470555e-07
3.58438787558e-05
-1.87657259443e-05
-2.95100762509e-07
3.63331076978e-05
-3.33726815151e-05
-2.6315128049e-07
3.12224504006e-05
-3.77574689133e-05
-2.09211975412e-07
1.73145664192e-05
-3.10133626041e-05
-1.42885969045e-07
1.25808345219e-06
-2.02493849609e-05
-8.22971383729e-08
-6.59729353801e-06
-1.18857377581e-05
-4.2315212447e-08
-6.45215275767e-06
-6.70102637165e-06
-1.86857088023e-08
-4.44168134532e-06
-3.80686261503e-06
-5.73212128753e-09
-2.6777376489e-06
-2.26225602022e-06
1.14025677328e-09
-1.5402412621e-06
-1.43023222025e-06
4.61358470243e-09
-8.970452871e-07
-9.58720849697e-07
6.15907983282e-09
-5.47986164945e-07
-6.70599705599e-07
6.49290439471e-09
-3.56904675218e-07
-4.86681862654e-07
6.44495290572e-09
-2.40145869299e-07
-3.69226840346e-07
6.13244861418e-09
-1.61941430788e-07
-2.98751590784e-07
5.74271808968e-09
-1.06100921467e-07
-2.608687519e-07
5.4070546323e-09
-6.71384207464e-08
-2.41187702313e-07
5.19891886704e-09
-4.46083658605e-08
-2.26146627201e-07
4.96811351898e-09
-3.71171333187e-08
-2.05409737081e-07
4.80645939703e-09
-4.13234495551e-08
-1.73144075912e-07
4.69989490187e-09
-5.17014581009e-08
-1.25788620089e-07
4.63888816984e-09
-6.64044279948e-08
-6.29821402728e-08
4.5840001381e-09
-8.16589606525e-08
6.47808254569e-09
4.55461268045e-09
-8.85062279041e-08
8.02170885861e-08
4.52168244303e-09
-9.30836405488e-08
1.50175330799e-07
4.49898805489e-09
-8.95924037435e-08
2.09612603347e-07
4.47876284522e-09
-7.91954797667e-08
2.53677721082e-07
4.44971067229e-09
-6.37413584357e-08
2.79733508351e-07
4.41810833387e-09
-4.54824355019e-08
2.86954578358e-07
4.38166581212e-09
-2.62591010572e-08
2.76172767107e-07
4.31189655187e-09
-7.87394110816e-09
2.49450539943e-07
4.18129080488e-09
8.48993055142e-09
2.0844699265e-07
4.0585257873e-09
2.32225408836e-08
1.49525018314e-07
4.10311161541e-09
4.12952626934e-08
7.57526418879e-08
5.50556214407e-09
5.51994450116e-08
1.2110845724e-08
5.55008260371e-08
1.78370079698e-05
-5.83888418993e-06
-1.21351748619e-05
3.14228402983e-05
-8.55365876179e-06
-5.2057981993e-06
3.03318355517e-05
-1.32516505816e-05
1.41102064321e-05
1.65954557824e-05
-1.69423465678e-05
3.04023033032e-05
-8.53303368593e-07
-1.8666330863e-05
3.58135423926e-05
-1.87574192201e-05
-1.86962905567e-05
3.63059302263e-05
-3.3358851573e-05
-1.68547094938e-05
3.11934936079e-05
-3.77416000706e-05
-1.31186326028e-05
1.72924608741e-05
-3.09985796547e-05
-8.13095052069e-06
1.24512934174e-06
-2.0238944005e-05
-4.24091657239e-06
-6.60106065474e-06
-1.18794404533e-05
-1.94971490309e-06
-6.45219545516e-06
-6.69751914016e-06
-7.59877821721e-07
-4.44081851846e-06
-3.80498548079e-06
-2.21419198881e-07
-2.67691499112e-06
-2.2613113254e-06
-2.9519793139e-09
-1.53962767276e-06
-1.42980692269e-06
6.96103975332e-08
-8.96531280278e-07
-9.58602695726e-07
8.25759960273e-08
-5.47646603972e-07
-6.70605208678e-07
7.52646788404e-08
-3.56799757405e-07
-4.86748343759e-07
6.26225406181e-08
-2.40073398894e-07
-3.69318714647e-07
5.05150916218e-08
-1.61856532453e-07
-2.98832760441e-07
4.1274737818e-08
-1.06061933834e-07
-2.60927803528e-07
3.46079876241e-08
-6.7145904204e-08
-2.41239389806e-07
3.00214559432e-08
-4.45462848317e-08
-2.26189874226e-07
2.69474406838e-08
-3.70594966347e-08
-2.05433890702e-07
2.52904304877e-08
-4.12651702465e-08
-1.73159746776e-07
2.40004241403e-08
-5.15941334581e-08
-1.25803626394e-07
2.35616595309e-08
-6.62945212606e-08
-6.29907003816e-08
2.33017730828e-08
-8.15463440384e-08
6.47071343825e-09
2.34574081701e-08
-8.8383655793e-08
8.02117933189e-08
2.37224559144e-08
-9.29673788197e-08
1.5016989579e-07
2.39725930104e-08
-8.94640045878e-08
2.09606028622e-07
2.40582313973e-08
-7.90542223558e-08
2.53668956668e-07
2.39488163077e-08
-6.36056838337e-08
2.79724043396e-07
2.3660974876e-08
-4.53449244782e-08
2.86932692656e-07
2.32293171137e-08
-2.61052381926e-08
2.76136362392e-07
2.27672889995e-08
-7.70934548864e-09
2.49388486028e-07
2.22164189701e-08
8.66111450547e-09
2.08348397546e-07
2.16275932184e-08
2.34160857507e-08
1.49393995141e-07
2.14859098836e-08
4.15065791235e-08
7.5634483033e-08
2.37706752411e-08
5.54096253178e-08
3.21131214699e-08
5.55390766682e-08
1.71684822992e-05
-1.1058977528e-05
-1.19483835041e-05
3.03983078771e-05
-1.64476262496e-05
-5.33576524734e-06
2.94230901126e-05
-2.58235185451e-05
1.35473489343e-05
1.6143925448e-05
-3.3374844984e-05
2.97121242031e-05
-8.53828342859e-07
-3.69366615541e-05
3.52686851624e-05
-1.82899009169e-05
-3.69864671761e-05
3.57268630056e-05
-3.24615381144e-05
-3.3204698776e-05
3.05221161537e-05
-3.66751870601e-05
-2.55413084667e-05
1.66366047875e-05
-3.0070900849e-05
-1.56606924583e-05
9.25534728716e-07
-1.96429134097e-05
-8.05193371941e-06
-6.61701551258e-06
-1.15581024542e-05
-3.65249326642e-06
-6.38212243756e-06
-6.54530839376e-06
-1.39700551364e-06
-4.37575382895e-06
-3.741308566e-06
-3.89986952964e-07
-2.63549948557e-06
-2.23881398334e-06
1.21017230097e-08
-1.51759396723e-06
-1.4246757619e-06
1.41258829605e-07
-8.85817245825e-07
-9.59809571621e-07
1.6073172171e-07
-5.43048030276e-07
-6.73565033694e-07
1.45081289031e-07
-3.56092068391e-07
-4.89711779529e-07
1.19042854079e-07
-2.40312650346e-07
-3.71688620185e-07
9.53435195951e-08
-1.62895860138e-07
-3.0053792452e-07
7.75771873326e-08
-1.07497170852e-07
-2.62105090561e-07
6.49756636996e-08
-6.88406969562e-08
-2.42001758521e-07
5.62430674926e-08
-4.63605002654e-08
-2.26698938848e-07
5.04896171612e-08
-3.88758581045e-08
-2.05694502745e-07
4.74155225841e-08
-4.31549316155e-08
-1.73306469174e-07
4.50112923709e-08
-5.34185642381e-08
-1.25889858412e-07
4.42041267557e-08
-6.80749430556e-08
-6.29805912249e-08
4.3732548864e-08
-8.33559366206e-08
6.52086475747e-09
4.40178938526e-08
-9.00816148841e-08
8.02613807363e-08
4.45042741495e-08
-9.45480496654e-08
1.5018205279e-07
4.49358540501e-08
-9.09163977099e-08
2.09569027275e-07
4.5092678791e-08
-8.04602194884e-08
2.53593054887e-07
4.49190352106e-08
-6.50381209498e-08
2.79611305466e-07
4.43074270771e-08
-4.67119840121e-08
2.86819199333e-07
4.36032910866e-08
-2.76312184279e-08
2.75992140605e-07
4.27233374149e-08
-9.17975899253e-09
2.49195406645e-07
4.16048064491e-08
7.35622165876e-09
2.08139159764e-07
4.04906226667e-08
2.21378370691e-08
1.4919215158e-07
4.00863054636e-08
4.02811886814e-08
7.54733756944e-08
4.30855563634e-08
5.4318751422e-08
5.27831790568e-08
5.47098664993e-08
1.58341292732e-05
-1.5242253543e-05
-1.16508490309e-05
2.83355511843e-05
-2.30617874797e-05
-5.8871733648e-06
2.75738714653e-05
-3.67985444116e-05
1.17369539897e-05
1.52145164247e-05
-4.82761141925e-05
2.72610580591e-05
-8.50834105581e-07
-5.37250077954e-05
3.28542589816e-05
-1.73353678496e-05
-5.37917539334e-05
3.32903894484e-05
-3.06404039798e-05
-4.8032723375e-05
2.81335075125e-05
-3.45246195308e-05
-3.63862469133e-05
1.47294024311e-05
-2.82393506957e-05
-2.19768136937e-05
3.09154984747e-08
-1.84896626067e-05
-1.1095205502e-05
-6.70646515957e-06
-1.09469581457e-05
-4.93651661081e-06
-6.25876902896e-06
-6.26022909904e-06
-1.8313738447e-06
-4.25244562079e-06
-3.62427912269e-06
-4.70197677989e-07
-2.55580557456e-06
-2.19866667464e-06
6.12328164521e-08
-1.47478978799e-06
-1.41638810061e-06
2.24068512076e-07
-8.6512030418e-07
-9.62724648623e-07
2.41744862888e-07
-5.34704077425e-07
-6.79716058245e-07
2.14733042146e-07
-3.52691982718e-07
-4.9560736373e-07
1.7481903769e-07
-2.39924096069e-07
-3.76293404616e-07
1.40363104856e-07
-1.64377788563e-07
-3.03785105848e-07
1.14844165011e-07
-1.0981944948e-07
-2.64345883359e-07
9.6807271351e-08
-7.13113958827e-08
-2.43436217254e-07
8.46126520718e-08
-4.93152864106e-08
-2.2763884287e-07
7.65633614798e-08
-4.19024495425e-08
-2.06170859167e-07
7.2288843954e-08
-4.6367169626e-08
-1.73581614479e-07
6.88344094008e-08
-5.64325337185e-08
-1.26053988045e-07
6.7746183583e-08
-7.10861203591e-08
-6.29657905817e-08
6.70137454763e-08
-8.63858711551e-08
6.60853866085e-09
6.73403991854e-08
-9.29170369386e-08
8.03408075949e-08
6.78872831137e-08
-9.71414410232e-08
1.50201931493e-07
6.83447423964e-08
-9.33028673079e-08
2.09509897797e-07
6.8422566682e-08
-8.26770474752e-08
2.53438660678e-07
6.80748379079e-08
-6.71289225737e-08
2.79431266937e-07
6.73183033158e-08
-4.90514036599e-08
2.8661549646e-07
6.62018800945e-08
-2.98329802871e-08
2.75712266094e-07
6.47868807234e-08
-1.12120014977e-08
2.48872325282e-07
6.31358871517e-08
5.25580313768e-09
2.07808909461e-07
6.14439065665e-08
2.00538648901e-08
1.48876956468e-07
6.06867411878e-08
3.82652623666e-08
7.52057635488e-08
6.41803050891e-08
5.24905116656e-08
7.46340923741e-08
5.32606123399e-08
1.38817511092e-05
-1.77947111274e-05
-1.13292939312e-05
2.52730344989e-05
-2.72993661583e-05
-7.15363172989e-06
2.48043488123e-05
-4.42659292279e-05
7.93628658408e-06
1.37670389799e-05
-5.90251835539e-05
2.1786760465e-05
-8.47492425983e-07
-6.61337724487e-05
2.70237896324e-05
-1.58687577771e-05
-6.62107447266e-05
2.74407506795e-05
-2.78908090723e-05
-5.87700525474e-05
2.27597609439e-05
-3.13140267057e-05
-4.38549934407e-05
1.08921661415e-05
-2.55895838862e-05
-2.6067588159e-05