/*--------------------------------*- C++ -*----------------------------------*\
| =========                 |                                                 |
| \\      /  F ield         | OpenFOAM: The Open Source CFD Toolbox           |
|  \\    /   O peration     | Version:  3.0.1                                 |
|   \\  /    A nd           | Web:      www.OpenFOAM.org                      |
|    \\/     M anipulation  |                                                 |
\*---------------------------------------------------------------------------*/
FoamFile
{
    version     2.0;
    format      ascii;
    class       surfaceVectorField;
    location    "1.9";
    object      ddt0(Uf);
}
// * * * * * * * * * * * * * * * * * * * * * * * * * * * * * * * * * * * * * //

dimensions      [0 1 -2 0 0 0 0];

internalField   nonuniform List<vector> 
22672
(
(-0.000181069921834 0.000275695585834 -0.000168480206428)
(-0.00012473887552 0.000614532989585 -0.000157879854686)
(-5.81038618944e-05 0.000352956071487 -0.000432374860166)
(-0.000312569100389 0.000222520583206 -0.000136126135281)
(-0.00029690041575 0.000541628371086 -0.000216700158793)
(-0.000190987231525 0.000321550876109 -0.000408939058809)
(-0.000465353322392 0.000189708970171 -8.76774300756e-05)
(-0.000377768768925 0.000502822887894 -0.00021132220058)
(-0.000289143562568 0.000306041217049 -0.000348947952842)
(-0.000687424385721 0.000170135346203 -3.05742938173e-05)
(-0.000538023654149 0.000478665691488 -0.000167599403792)
(-0.000466496690406 0.000296596918629 -0.00025570254795)
(-0.00100876377417 0.000161985930848 2.55243554898e-05)
(-0.000785433258416 0.000470876462815 -0.000111896100748)
(-0.000736169279938 0.000291632752141 -0.000148902602926)
(-0.00143433905757 0.000158565994787 7.24823012e-05)
(-0.00115188525901 0.000468105161224 -5.32105529044e-05)
(-0.00112244138097 0.000286282772606 -4.21945857981e-05)
(-0.00194097299 0.00015482001918 0.000102643547533)
(-0.00162361751083 0.00046014221607 -3.92161074906e-06)
(-0.001613058407 0.000276769857574 4.65070297856e-05)
(-0.0024824412626 0.000145485161638 0.000105857726378)
(-0.00216868613827 0.000442739774989 2.80718451674e-05)
(-0.00217796210351 0.000263290617663 9.8429763168e-05)
(-0.00306688362903 0.00013525850409 9.27872956827e-05)
(-0.00275203340649 0.000405609350448 2.9556947993e-05)
(-0.00277047521191 0.000246638073599 0.000178254154461)
(-0.00355036533883 0.000125074261193 6.64627342827e-05)
(-0.00330620697207 0.000390124408847 1.88804098563e-05)
(-0.00332960149401 0.000230153251533 9.25565944379e-05)
(-0.00392447109747 0.00010951793573 1.65629851533e-05)
(-0.0037649697742 0.000359970630492 -2.16566385199e-05)
(-0.00379834784924 0.000213535985172 1.3188942961e-05)
(-0.00416262751545 9.33534277826e-05 -4.51092847369e-05)
(-0.00409255578724 0.00032419249178 -8.47166667362e-05)
(-0.00412930952036 0.000198556082486 -8.70387477088e-05)
(-0.00419218208259 7.7153263178e-05 -0.000115660202803)
(-0.00424166949327 0.000297381264758 -0.000159222818985)
(-0.00428109490791 0.000185302900823 -0.000268786775349)
(-0.00402436957794 6.07886646392e-05 -0.000194216679884)
(-0.0041832942307 0.000266021460004 -0.000246067297929)
(-0.00422800519903 0.000172945667044 -0.000434644393226)
(-0.00365891611502 4.83163579965e-05 -0.000273434641219)
(-0.00391520597646 0.000235656889512 -0.000333859762155)
(-0.00396490257958 0.000161567047187 -0.000601664768765)
(-0.00311231844101 4.40143584788e-05 -0.000348064377865)
(-0.00344760731663 0.000210279958131 -0.000416188500786)
(-0.00350453076759 0.00015202758206 -0.000757091538385)
(-0.00242018558158 5.30255510735e-05 -0.00041342542196)
(-0.00280382454552 0.000197117281853 -0.000484355069264)
(-0.00287275197575 0.000146657436677 -0.000889092031244)
(-0.00163161435477 7.61900187512e-05 -0.000464038958735)
(-0.00203918700442 0.000203951358397 -0.000533522530577)
(-0.00211912916383 0.000148369323044 -0.000992023068038)
(-0.000802393529335 0.00011840537473 -0.000496455218793)
(-0.00117900222712 0.000227218798648 -0.000544251914598)
(-0.00127199819879 0.000156286130092 -0.00105566501937)
(-0.000375523728312 0.000280757908508 -0.000496069130292)
(-0.000433926528877 0.000177196010271 -0.00108252657297)
(-0.000249103122143 0.00087324002509 -0.000206099807051)
(-0.000176936418912 0.00123487653352 -9.75467704792e-05)
(-8.29573496744e-05 0.0010087080091 -0.00036992585453)
(-0.000355326202588 0.00081189314785 -0.000291896224092)
(-0.000352985621413 0.00118138844102 -0.000276304688041)
(-0.000214278105658 0.000972048660219 -0.000532120520007)
(-0.000459033940852 0.000778602097561 -0.000291244174297)
(-0.000384896321067 0.00115652867858 -0.000319134267504)
(-0.000281062054103 0.000957098622728 -0.000548702151146)
(-0.000646037039154 0.00076303714933 -0.000248921210723)
(-0.00051602183762 0.00114704855271 -0.000286123471191)
(-0.00044052682334 0.000951579665357 -0.000480316185361)
(-0.00094763984508 0.000757834860735 -0.000190631009142)
(-0.0007468254197 0.00114974040905 -0.000227689477722)
(-0.000700111836951 0.000949748940427 -0.000376493496471)
(-0.00136941295917 0.000749331854006 -0.000129614464854)
(-0.00111187057002 0.00114828042168 -0.000158140526963)
(-0.00108416814543 0.000939954667135 -0.00025796871543)
(-0.00188911543771 0.000729493775105 -7.84933131148e-05)
(-0.0015955989471 0.00112910641225 -9.42615433738e-05)
(-0.00158073357677 0.000913767821654 -0.000149172978128)
(-0.00246581024739 0.000694219375203 -4.82289332177e-05)
(-0.00216339483744 0.00109111672091 -4.69181896977e-05)
(-0.00215841607417 0.000872823598043 -7.19177136921e-05)
(-0.00305167517365 0.000653306951748 -4.43499378334e-05)
(-0.00276497862894 0.00103674210581 -2.76078725046e-05)
(-0.00276695679236 0.00082223789465 -4.57794451939e-05)
(-0.00357260884327 0.00061151313086 -6.92389629464e-05)
(-0.00333644507842 0.000977377084938 -3.67912463786e-05)
(-0.00334476301637 0.000770380449075 -6.70378683795e-05)
(-0.00397828697904 0.000565080249692 -0.000122936290409)
(-0.00381689919554 0.000913370953819 -7.95728675536e-05)
(-0.00383243865983 0.000719569092355 -0.000148567011303)
(-0.00422645298353 0.000520695274278 -0.000198830200984)
(-0.0041578496777 0.000852045765965 -0.000150078692671)
(-0.00417843427741 0.000675227746541 -0.000280568797245)
(-0.00427597842218 0.000477367067406 -0.00028962991411)
(-0.00431715885922 0.000792809105994 -0.000239976719588)
(-0.00434100785465 0.000635860682331 -0.000446723597856)
(-0.0041117576765 0.00043349460223 -0.000385710380199)
(-0.00426570121043 0.000734025060062 -0.000341732340626)
(-0.00429296089998 0.000598799614384 -0.000632881161634)
(-0.00373559643285 0.000393184534331 -0.000476613621721)
(-0.0039951498105 0.000676561634281 -0.00044312080751)
(-0.00402726857871 0.000562473501794 -0.00081745734596)
(-0.00316558828522 0.000362688880952 -0.000552479192185)
(-0.00351434785474 0.000622331043658 -0.000534606767694)
(-0.0035567577436 0.00052701199333 -0.000982111550444)
(-0.00243855668514 0.000351143553001 -0.000604452177881)
(-0.00284655375907 0.000580523764154 -0.000604441196203)
(-0.00290888166265 0.000497635501501 -0.00111013711762)
(-0.00160402986907 0.000361638600237 -0.00061373548644)
(-0.0020499096894 0.000560723026906 -0.000644010083125)
(-0.00213429282103 0.00048084092133 -0.00119069561774)
(-0.000748173840052 0.000398917010182 -0.000543865826096)
(-0.00114322855952 0.000561465103775 -0.000614585961022)
(-0.00125668980178 0.000476568286036 -0.00118928620251)
(-0.000335083306139 0.000587866722527 -0.000464095561748)
(-0.000412799058734 0.000489524182146 -0.00105467706407)
(-0.000286407678772 0.00150213837637 -0.000167751651469)
(-0.0002106864693 0.00176745133832 -7.67788115724e-06)
(-9.60187254034e-05 0.00163658957137 -0.000244596622274)
(-0.000376073918072 0.00148631605436 -0.000303542731452)
(-0.00038442967568 0.00176040295562 -0.00023906338117)
(-0.000223019704075 0.00163059370749 -0.000487641086917)
(-0.000453010508281 0.00148554405285 -0.000314013564398)
(-0.00038143197604 0.00176187342137 -0.000294096268597)
(-0.00027036503439 0.00163530631036 -0.000526827756013)
(-0.000626596269474 0.00149420530358 -0.00026489173819)
(-0.000498222305759 0.00177097857951 -0.000249577504068)
(-0.000427653022666 0.00164439169346 -0.000449018930382)
(-0.000930133909769 0.00150062830257 -0.000195198995543)
(-0.00073022807159 0.00178058960316 -0.000175034629504)
(-0.000695598525613 0.00164896612739 -0.000326307005639)
(-0.00136546768552 0.00148879960428 -0.000122787605483)
(-0.00111137781168 0.00177336801129 -9.14450581918e-05)
(-0.00109622347084 0.00163469106376 -0.000189099880609)
(-0.0019054024908 0.00145167640173 -6.26864199566e-05)
(-0.00161905253284 0.00173589181722 -1.87597721884e-05)
(-0.00161234205396 0.00159216114584 -6.65423844791e-05)
(-0.00250261407562 0.00139238215692 -2.62971289846e-05)
(-0.00221042190894 0.001669774142 3.2003769555e-05)
(-0.0022064800974 0.00152441530047 1.85537719254e-05)
(-0.00309941151216 0.00132043759662 -2.00491810499e-05)
(-0.00282762540877 0.00158438873982 5.05271879615e-05)
(-0.00282455548213 0.00144096972105 4.89019305225e-05)
(-0.00363409972491 0.00124316323423 -4.71251509859e-05)
(-0.00340901010901 0.00149252074835 3.61753174474e-05)
(-0.00340716233634 0.00135479770368 1.9118309018e-05)
(-0.00404730486441 0.00116656860826 -0.000106715269815)
(-0.00389399854355 0.0013986671579 -1.14713469744e-05)
(-0.00389553001351 0.00127196934303 -7.26217675153e-05)
(-0.00429885135582 0.00109464303871 -0.000191225211275)
(-0.00423489037617 0.00131595307194 -8.79952934356e-05)
(-0.00423884803856 0.00120096305091 -0.000212923397221)
(-0.00435189270389 0.00102513560233 -0.000292079146103)
(-0.00439494999748 0.00123867993217 -0.000185441989635)
(-0.00439953148959 0.00113799992084 -0.000393347517581)
(-0.00418802636547 0.000956317639131 -0.000399142767936)
(-0.00434442844704 0.0011652833576 -0.000296455037931)
(-0.00435071861613 0.00107896109042 -0.000595514487412)
(-0.003806053164 0.000887875715242 -0.000501113953483)
(-0.00407300549044 0.00109222437627 -0.000409082888796)
(-0.00408412581667 0.00102012096561 -0.000797814343983)
(-0.00322233704382 0.000824917342064 -0.000586568771712)
(-0.00358519465119 0.00101931483427 -0.000513327819896)
(-0.00360999356388 0.000960283182131 -0.0009806078894)
(-0.00247174212191 0.000776939000426 -0.000643999101447)
(-0.00290123776423 0.000955000290864 -0.000596188614437)
(-0.00295366552071 0.000905170523328 -0.00112470518587)
(-0.00160509095224 0.000748491834621 -0.000644860557707)
(-0.00207953410918 0.00090772161792 -0.000645046179533)
(-0.00216488256275 0.00086189449094 -0.00121306261078)
(-0.000726203696748 0.000737845393626 -0.000534815696674)
(-0.00113448904012 0.000877527559771 -0.000607360127905)
(-0.00126258038547 0.000832049997219 -0.0011942235878)
(-0.000313076735454 0.000856036876025 -0.000416409387014)
(-0.000405970794483 0.000812533450564 -0.00099386339399)
(-0.000310472554771 0.00198217150672 -7.89896108585e-05)
(-0.000231491232485 0.00213931785366 0.000103977537214)
(-0.000104572335312 0.00211398875594 -5.94809819398e-05)
(-0.00038283638892 0.0019958378577 -0.000229616918315)
(-0.000398129001738 0.00216870911094 -0.000148233661284)
(-0.000224366045902 0.00212812374209 -0.00033385215374)
(-0.000441002429998 0.00201156478915 -0.000229660208266)
(-0.000367962895897 0.00218744667733 -0.000198391965376)
(-0.000256581665357 0.00213916354778 -0.000365451224452)
(-0.000612950481671 0.00202648983937 -0.000159720395381)
(-0.000480862641637 0.00220329059558 -0.000132899925312)
(-0.000420128161257 0.00214648602903 -0.000258689820528)
(-0.000932122400939 0.00202745798245 -7.12806921531e-05)
(-0.000726835668542 0.00220754478001 -3.72735838803e-05)
(-0.000707891243693 0.00214040715228 -0.00010645784636)
(-0.00139363921135 0.00199934309487 1.25827751031e-05)
(-0.00113642215244 0.00218479944973 6.10460769977e-05)
(-0.00113694047925 0.00210785838833 5.10447041809e-05)
(-0.00196196856417 0.00193799651197 7.59304173233e-05)
(-0.00167593465256 0.00212338287105 0.000137760209682)
(-0.0016817633595 0.00204035323491 0.000181456910144)
(-0.00257882829006 0.00184995582464 0.000108828086501)
(-0.00229433419116 0.00203127977187 0.00018499743987)
(-0.00229682323658 0.00194437814604 0.000255689679646)
(-0.00318493753873 0.00174731143462 0.000106751686459)
(-0.0029266040437 0.00191590995265 0.000194757089961)
(-0.00292288568206 0.00183063446968 0.000274713516243)
(-0.00371655690058 0.0016434468378 7.1829121459e-05)
(-0.00351044132566 0.00179479935841 0.000169575922424)
(-0.0035028159254 0.00171493530724 0.000229327157194)
(-0.00413244690575 0.00154673859636 7.2486294053e-06)
(-0.00398987681436 0.00168631374698 0.000114559918242)
(-0.00398020389722 0.00161037078748 0.000128149976854)
(-0.00438145036719 0.00145955534578 -8.22120717958e-05)
(-0.00432270993411 0.00158803364722 3.36268499632e-05)
(-0.00431096715862 0.00152166893624 -2.32019728402e-05)
(-0.00443185464924 0.00137902430354 -0.000189817881463)
(-0.00447701865974 0.00150371460039 -6.83687331655e-05)
(-0.00446402202661 0.00144631071713 -0.000214739901519)
(-0.0042682252631 0.00130101440893 -0.00030639515879)
(-0.0044245792291 0.00142562997901 -0.000185548902908)
(-0.00441206125288 0.00137852729632 -0.000424016669193)
(-0.0038834982819 0.00122280859544 -0.000421296755209)
(-0.00415278296102 0.00135054095106 -0.000307652349331)
(-0.00414546953665 0.0013130833595 -0.000642958632556)
(-0.00329045603151 0.00114724067339 -0.000522947662621)
(-0.00366172669257 0.00127415453494 -0.000425891515516)
(-0.00367049021416 0.00124718553918 -0.000847632229335)
(-0.00252037228741 0.00108199703243 -0.000597235692522)
(-0.00296672068311 0.00120272810875 -0.000525831417487)
(-0.00300864308613 0.00118528466911 -0.00101740283276)
(-0.00162467932764 0.0010313477002 -0.000607545749731)
(-0.00212441602586 0.00114203368766 -0.000591117387962)
(-0.00220730603436 0.00113271810594 -0.001129487884)
(-0.000719705144463 0.000989011992994 -0.000488953818245)
(-0.00114502081842 0.00109186016254 -0.000559208191504)
(-0.00127993946536 0.00109069840508 -0.00111874157064)
(-0.000304533734234 0.00103474445374 -0.000357467694442)
(-0.000405234691504 0.00104860359111 -0.000898041339474)
(-0.00031688769243 0.00227112460762 3.4733486788e-05)
(-0.000239339270999 0.00229304633199 0.000226312736718)
(-0.000107720082326 0.00239151447589 0.000165483648133)
(-0.000375023832988 0.00230633660671 -0.000117008708345)
(-0.000397941244814 0.00234715015746 -2.9180615939e-05)
(-0.000219749725328 0.0024217695191 -0.000117771379093)
(-0.000425544322182 0.00232781145272 -0.000101631682421)
(-0.000351483333109 0.00237179924618 -6.89802350343e-05)
(-0.000243807538224 0.00243222867929 -0.000131448934366)
(-0.000607991997194 0.00233678426475 -1.04531138109e-05)
(-0.000471026585359 0.00238210013365 1.60773305382e-05)
(-0.000421813774628 0.0024290172267 5.70233175382e-06)
(-0.000953856869347 0.00232166099115 9.50531852705e-05)
(-0.000740868323278 0.00237074412501 0.00012890411248)
(-0.000737337089434 0.00240464609402 0.000184342846516)
(-0.00145048955827 0.00227112789254 0.000186223511576)
(-0.00118599886114 0.00232521684033 0.00023609949136)
(-0.00120186662595 0.00234925278143 0.000357503228098)
(-0.00204863454404 0.00218435306341 0.000246827232229)
(-0.00176077301653 0.00224157311595 0.000311680469033)
(-0.00177885728479 0.00225814039321 0.000480902406595)
(-0.00268801690883 0.0020697549714 0.00027092644333)
(-0.00240731502231 0.00212504837897 0.000349504271474)
(-0.0024159490761 0.00213829943653 0.0005463022799)
(-0.00330161440225 0.0019419870775 0.000257581325927)
(-0.00305248968259 0.00198806461902 0.000345309124781)
(-0.00304977979039 0.002001139973 0.000541959727649)
(-0.003832948753 0.00181908918858 0.000212306719208)
(-0.00363154761446 0.00185079524875 0.000306848266818)
(-0.00362061026305 0.00186482481879 0.000475755776617)
(-0.00423190463097 0.00171084892179 0.0001409381388)
(-0.00409674333228 0.00172764360317 0.000242752350449)
(-0.00408070584169 0.0017456008792 0.000357990223087)
(-0.00446878791134 0.00161870980954 4.74701885935e-05)
(-0.00441401623925 0.00162642463234 0.000158274572699)
(-0.00439428806631 0.00164672291835 0.000198828226832)
(-0.00451367325514 0.001538997024 -6.40997546109e-05)
(-0.00455638268215 0.0015444444607 5.49559282247e-05)
(-0.00453354377241 0.00156749583669 4.47959252432e-06)
(-0.00434687488695 0.00146508079383 -0.000186806093449)
(-0.00449881267731 0.00147457942142 -6.40852196431e-05)
(-0.00447488107896 0.00150071135663 -0.000215414974145)
(-0.00396115267255 0.00139195291744 -0.000312247109638)
(-0.00422583048956 0.00140936296564 -0.000191456431267)
(-0.00420672458326 0.00143947642245 -0.000444177364393)
(-0.00336295853278 0.00131967897056 -0.000428775270382)
(-0.00373370973313 0.00134392137918 -0.000319680011752)
(-0.00373160367918 0.00137981973932 -0.000667546073819)
(-0.00257947738344 0.00125260289738 -0.000519713112926)
(-0.00303234076044 0.00128049882377 -0.000433442963948)
(-0.00306632156858 0.00132390342583 -0.000860807855516)
(-0.0016613168955 0.00119252359286 -0.000542779829734)
(-0.00217563004328 0.00122127841074 -0.000513267358913)
(-0.00225504648411 0.00127391428952 -0.00099698017075)
(-0.000731418441528 0.00112845492657 -0.0004277220677)
(-0.00116965369875 0.00116422985361 -0.000491072960985)
(-0.00130542574244 0.00122833021449 -0.0010018953831)
(-0.000308159505296 0.0010848168277 -0.000294857710597)
(-0.0004103101481 0.00116968339224 -0.000781275671034)
(-0.000314183375637 0.00231258828755 0.000162398633991)
(-0.000239850952225 0.00219809576177 0.000347708970777)
(-0.000108827952554 0.00241833569085 0.000411887238784)
(-0.000364487202309 0.00235736176893 1.88478573713e-05)
(-0.000394590704782 0.00226419501429 0.000102006586703)
(-0.000217746863761 0.00245807279066 0.000136237183104)
(-0.000417831054577 0.00237357072388 4.87287779253e-05)
(-0.000343676270059 0.00228599044479 7.36827034707e-05)
(-0.000241428199705 0.00246209551082 0.000141952293547)
(-0.000619458599856 0.00236706301296 0.000155434556829)
(-0.00047835049262 0.00228391538359 0.000172485976461)
(-0.000439228147639 0.00244368806319 0.000302243923828)
(-0.000999093123069 0.00233041474453 0.000269950418569)
(-0.000776897833269 0.00225321009796 0.000295012186373)
(-0.000786095908796 0.00239907361049 0.000499163107121)
(-0.00153139066274 0.00225725292759 0.000361556448817)
(-0.00125842019598 0.0021892191249 0.000402900208399)
(-0.001286436461 0.00232316742675 0.000669865742965)
(-0.0021620522292 0.00214889418172 0.000414357508278)
(-0.00186784551335 0.00208738061289 0.000472211228689)
(-0.00189542032025 0.00221408921803 0.000786074253542)
(-0.00282068594245 0.00201522602144 0.000423886952925)
(-0.00254010640312 0.00195646107607 0.000496075231905)
(-0.00255484728921 0.00207829306114 0.00082819617406)
(-0.00343524590503 0.00187308490234 0.000394576065673)
(-0.00319342824431 0.00180860521385 0.000473923289134)
(-0.00319381142567 0.00192762518499 0.000794852996647)
(-0.00395160330636 0.00174049613042 0.00033729389806)
(-0.00376260387891 0.00166510700144 0.00042004983247)
(-0.00375254742608 0.00178171807231 0.000702814170068)
(-0.00433256770801 0.00162879206661 0.000260088784349)
(-0.00420676851589 0.00154070481576 0.000346870903708)
(-0.00419022936009 0.00165496347903 0.000568646190052)
(-0.00455155040108 0.00154052449924 0.000165760312331)
(-0.00450074922824 0.00144318493706 0.000260364660486)
(-0.00447979031098 0.00155468852611 0.000402948370214)
(-0.00458519071806 0.0014706026734 5.49704631925e-05)
(-0.00462519102421 0.00137019801855 0.000159254703633)
(-0.00460049242275 0.00147893985601 0.000208588029884)
(-0.00441406959011 0.00141097836014 -6.8735557461e-05)
(-0.00455823059077 0.00131465040154 4.29613616774e-05)
(-0.00453175546726 0.00142071928494 -1.05250744788e-05)
(-0.00402684117728 0.0013542806774 -0.000198889333381)
(-0.00428214886141 0.00126725331083 -8.43924692677e-05)
(-0.00425983561582 0.00137183179146 -0.000244493474219)
(-0.00342627470953 0.00129794715125 -0.000324347705318)
(-0.0037893406613 0.00122085443512 -0.000216541561506)
(-0.00378328706886 0.00132699838104 -0.000476931863474)
(-0.00263488119327 0.00124250243234 -0.000426997209935)
(-0.00308486076139 0.00117489062356 -0.000337620613175)
(-0.00311498285872 0.00128609910935 -0.000685313050658)
(-0.00170180636331 0.00118625497548 -0.000461560490164)
(-0.00222000379629 0.00112742367044 -0.000426916623206)
(-0.00229641078917 0.001247665597 -0.000838892703799)
(-0.000751608494996 0.0011143081578 -0.000358208603883)
(-0.00119712903629 0.00107424897744 -0.000415218458484)
(-0.00132969209358 0.00120667589475 -0.000860041178798)
(-0.000318041362987 0.000987460744095 -0.000236034930356)
(-0.00041700998262 0.00114017646034 -0.000654192430681)
(-0.00031107169378 0.00209574572421 0.000287316923488)
(-0.000237276451755 0.00186026585349 0.00045636742625)
(-0.00011182445578 0.00218231599573 0.000652047930967)
(-0.000362157954879 0.00213933551063 0.000156841432803)
(-0.000393932970338 0.00192480832937 0.000227312519571)
(-0.000224824994579 0.00222378859223 0.000393841266972)
(-0.000427433393031 0.00214513602255 0.000197439902007)
(-0.000349064927978 0.00193875977729 0.000208570717072)
(-0.00025539883947 0.0022196082897 0.000415655995667)
(-0.000654431058853 0.00212264009541 0.000312063606006)
(-0.00050391317331 0.00192476942806 0.000314026960255)
(-0.000475640366515 0.00218753501672 0.000588866545977)
(-0.0010656375923 0.00206861802932 0.000427961976203)
(-0.000831907182994 0.00188058051463 0.000439195134912)
(-0.000852316873323 0.00212910270681 0.000786061963903)
(-0.0016328505677 0.00198044892913 0.00051355498827)
(-0.00134668531611 0.00180430854414 0.00054174397145)
(-0.00138535864324 0.00204160812446 0.000953880015196)
(-0.00229148213467 0.00186152208647 0.000553928952316)
(-0.00198623714906 0.00169659685372 0.000599891532776)
(-0.00202326097897 0.00192472205518 0.00105079900336)
(-0.00296493997806 0.00172157826401 0.000546111568115)
(-0.00267928722612 0.00156603483427 0.000607255120557)
(-0.0027017603422 0.00178615880413 0.00106502257494)
(-0.0035756752975 0.0015771495522 0.000499397055931)
(-0.00333668354499 0.00142129135462 0.000565952541615)
(-0.00334340416543 0.00163486400247 0.000999062341944)
(-0.00407378534943 0.00144629842121 0.000429626838118)
(-0.00389208060193 0.00128459855107 0.000496580692531)
(-0.00388774696224 0.00149106066441 0.000879591710205)
(-0.00442912832608 0.00134007560616 0.000347146779846)
(-0.004311617148 0.00116868135161 0.000414626997197)
(-0.00430031800569 0.00136760484194 0.00072834131121)
(-0.00462421193262 0.00126128647375 0.000253859051789)
(-0.00457836354288 0.00108150666209 0.000327174932549)
(-0.00456213662928 0.00127271860735 0.00055774170145)
(-0.00464101760168 0.00120526813863 0.000147245602118)
(-0.0046803516601 0.00102100081133 0.00023016983858)
(-0.00465987698432 0.00120499374737 0.000366965877645)
(-0.0044614337068 0.00116365262396 2.73044498708e-05)
(-0.00459954748055 0.000981445680565 0.000120309712572)
(-0.004576620673 0.00115872244388 0.000154533630894)
(-0.00407135442747 0.00112771842563 -0.000102044697393)
(-0.00431736826532 0.000952961449217 -2.00502073095e-06)
(-0.00429749893332 0.00112529006026 -7.49638694054e-05)
(-0.0034690214955 0.00109248259923 -0.000229814469363)
(-0.00382316728273 0.000927978563596 -0.000132501064817)
(-0.0038176137917 0.00109829756615 -0.000308771716357)
(-0.00267465743916 0.00105492763319 -0.000337540026447)
(-0.00311819596185 0.000902452950468 -0.000254772917718)
(-0.00314624768733 0.00107482231177 -0.000521441146521)
(-0.00173459254188 0.00101091351271 -0.000380574591527)
(-0.00225081956801 0.000871045586969 -0.000347560113541)
(-0.00232315416809 0.00105148287534 -0.000683457895971)
(-0.000771591902813 0.000943746740663 -0.000293044784958)
(-0.00122042705224 0.000829350747062 -0.000344930565484)
(-0.00134606765254 0.00102019533421 -0.000718114449245)
(-0.000329806251915 0.000750478368119 -0.000187927517892)
(-0.000422423009702 0.000955546289232 -0.000534694672236)
(-0.000309305250052 0.00164259104258 0.000396363022332)
(-0.00023360426269 0.00131370135512 0.000542087402969)
(-0.000116335038293 0.00170517869088 0.000859333952154)
(-0.000368022669383 0.00167760613217 0.00027904180384)
(-0.000396922690852 0.00136609215757 0.000330273584215)
(-0.000238960244357 0.00174177226589 0.00062110033193)
(-0.000450033453514 0.0016724878293 0.00032515777532)
(-0.000365123389652 0.00137077150966 0.000317925834192)
(-0.000282083889314 0.00173123760214 0.000653399833502)
(-0.000703800200261 0.00163920011681 0.00044115848916)
(-0.0005404828925 0.00134673760007 0.000424812022227)
(-0.000523651198371 0.00169241041822 0.000834709160472)
(-0.00114465137922 0.00157723393917 0.000552977130158)
(-0.000894871000189 0.00130056639805 0.000547220765114)
(-0.000926587154343 0.00162998041243 0.00102321502016)
(-0.00174114818855 0.0014860820372 0.000628080515955)
(-0.00143751480659 0.00122662778258 0.000640669148517)
(-0.00148761435323 0.00154237475532 0.00117600675104)
(-0.00242174500192 0.00137186440399 0.000653217701017)
(-0.0020999379868 0.00112909797558 0.000685252089673)
(-0.00214866261899 0.00143176607647 0.00124951974483)
(-0.00310676854868 0.00124098523658 0.000627096094058)
(-0.00280942230286 0.00101738144007 0.000675891630344)
(-0.00284232635685 0.00130624917679 0.00123484198186)
(-0.00371020960572 0.00110768295184 0.000563136178215)
(-0.00346898855828 0.000889353227022 0.000616369297532)
(-0.00348512060025 0.00116763318407 0.00113642075205)
(-0.00418758633472 0.000989839337069 0.00048158085161)
(-0.00400879725421 0.000772129396725 0.000532800995372)
(-0.00401458840659 0.00103839248327 0.000990862536608)
(-0.00451537921132 0.000896624967042 0.0003946551499)
(-0.00440374957343 0.000674213364459 0.00044292050731)
(-0.00440253678568 0.000928298268499 0.000823304913285)
(-0.00468408891717 0.000830940339061 0.000303485719339)
(-0.00464321285518 0.000602713655499 0.000354819018312)
(-0.00463642276104 0.000845417133323 0.000648582882821)
(-0.00468081655078 0.000789445010537 0.000203233949033)
(-0.00472138641266 0.000556041548639 0.000262254594882)
(-0.00470948924889 0.000789021402819 0.000462777036889)
(-0.00448947466337 0.000764848849419 9.10002419701e-05)
(-0.00462413539412 0.000530320446376 0.000160652964466)
(-0.00460857687567 0.000755181389487 0.00026083292066)
(-0.0040946555859 0.000748471619715 -3.24613881552e-05)
(-0.00433354306962 0.000516981653352 4.68369706402e-05)
(-0.00431923775407 0.000736073532009 4.21020943303e-05)
(-0.00349104865818 0.00073363483782 -0.000157459513172)
(-0.00383714359096 0.000509034835905 -7.72842571264e-05)
(-0.00383452417797 0.000725259127879 -0.00018391205139)
(-0.0026981720078 0.000715155797521 -0.000264793004812)
(-0.00313295763502 0.00049974308069 -0.000195871390846)
(-0.00316043160383 0.000717523915387 -0.000389694296929)
(-0.00175718981545 0.000687428808918 -0.000311916087499)
(-0.00226698286881 0.00048602310343 -0.000287817827931)
(-0.0023353113807 0.000708135618127 -0.000555832688881)
(-0.000788500653701 0.000635371121385 -0.000239813298418)
(-0.00123582026645 0.000459561578139 -0.000291566857691)
(-0.00135433851677 0.000688219909932 -0.000599087114407)
(-0.000339473035409 0.000401255969771 -0.000157249658487)
(-0.000425939197954 0.000634499061304 -0.000439495232041)
(-0.000309785537957 0.0010029517295 0.000475997964851)
(-0.000230034719977 0.000617650897873 0.000597236636137)
(-0.000121273798032 0.00103935442418 0.0010095238967)
(-0.000380304484906 0.00102560462849 0.000369157614567)
(-0.000402405102689 0.000651559257827 0.000397684365157)
(-0.000256475335928 0.00106570184785 0.000788912354717)
(-0.000482194507411 0.00101361438991 0.000417580081099)
(-0.00038596299776 0.000648933567384 0.000388713232509)
(-0.000313704295185 0.0010524717529 0.000827274183684)
(-0.000755481923058 0.000978380306687 0.00053087429818)
(-0.000578845908783 0.000625627029551 0.000494245430609)
(-0.000573879371616 0.00101623758962 0.000997394694939)
(-0.00122204196391 0.00092126498011 0.000634912783472)
(-0.000953331885223 0.000584228746519 0.00061182183343)
(-0.000997940036373 0.000961204927303 0.00118527474949)
(-0.00184014859114 0.000843480782702 0.000697840722235)
(-0.00151537182209 0.000525649382412 0.000696090223213)
(-0.00157957581322 0.000888016692171 0.00132089291121)
(-0.00253463813237 0.000754438365075 0.000707926019)
(-0.00218884209885 0.000453975795373 0.000728625856348)
(-0.00225639223485 0.000799660450684 0.00137097987888)
(-0.0032332557604 0.000649545651167 0.000665164833818)
(-0.00291381887793 0.000387802682269 0.000703800089837)
(-0.00296289069934 0.000707042317387 0.00132928494883)
(-0.00382672622692 0.000539082941268 0.000586034114689)
(-0.00357870789942 0.000282299523693 0.000632645661736)
(-0.00360757287915 0.00059264585301 0.00120148255155)
(-0.00428393090961 0.000445504757811 0.000494140651071)
(-0.00410150496362 0.000197677629867 0.00053818121569)
(-0.00412267726604 0.000490892957011 0.00103259816491)
(-0.00458608845263 0.00037213680357 0.000403084375722)
(-0.00447627626817 0.00012718305025 0.000441600678781)
(-0.0044886749113 0.000404273039783 0.000850180357146)
(-0.00472956134943 0.000321555294995 0.000313587893855)
(-0.00469314916128 7.54244671599e-05 0.000351919749045)
(-0.00469725490073 0.000339234461893 0.00067182502927)
(-0.00470589760292 0.000292200073638 0.000219673610315)
(-0.00475039395829 4.21260855791e-05 0.000261803999657)
(-0.00474706669889 0.000295824270166 0.000491360079213)
(-0.00450138925214 0.000279171627414 0.000116489693136)
(-0.00463701424283 2.57388213665e-05 0.00016684549943)
(-0.0046282360533 0.000271979179581 0.000301164540743)
(-0.00410058341506 0.000275536085276 2.01410166897e-06)
(-0.0043369663624 2.08293221666e-05 6.1360258658e-05)
(-0.00432746880043 0.000262080559362 9.63294377967e-05)
(-0.00349637187787 0.000274961289055 -0.000115696134801)
(-0.00383699692631 2.22311351957e-05 -5.45997700912e-05)
(-0.00383682127368 0.00026087038804 -0.000116644042823)
(-0.00270451027624 0.000271480448449 -0.000218896213965)
(-0.00313348382519 2.58695893509e-05 -0.000167005825219)