/*--------------------------------*- C++ -*----------------------------------*\
| =========                 |                                                 |
| \\      /  F ield         | OpenFOAM: The Open Source CFD Toolbox           |
|  \\    /   O peration     | Version:  3.0.1                                 |
|   \\  /    A nd           | Web:      www.OpenFOAM.org                      |
|    \\/     M anipulation  |                                                 |
\*---------------------------------------------------------------------------*/
FoamFile
{
    version     2.0;
    format      ascii;
    class       volVectorField;
    location    "1.9";
    object      U;
}
// * * * * * * * * * * * * * * * * * * * * * * * * * * * * * * * * * * * * * //

dimensions      [0 1 -1 0 0 0 0];

internalField   nonuniform List<vector> 
7968
(
(0.000112738971262 9.63924666915e-05 -0.00023596820543)
(0.000447428151296 5.08557093791e-05 -0.000274626386074)
(0.000882194625691 3.05335411625e-05 -0.000265378698051)
(0.00125434652777 2.98175293461e-05 -0.000217291887014)
(0.00150214391929 4.94954680604e-05 -0.000154617170092)
(0.00157866260352 8.12333232121e-05 -8.78396016187e-05)
(0.00147296612816 0.000114478689656 -2.50608160673e-05)
(0.00119951636496 0.000143481288972 2.93077908693e-05)
(0.000796740975623 0.000162988270144 6.76725115172e-05)
(0.000315527046122 0.000170143873725 8.51122890706e-05)
(-0.000185882083996 0.000165907243358 8.41172152506e-05)
(-0.000646127154625 0.000151291196193 6.62319847492e-05)
(-0.00101714247923 0.000126767168922 3.07007260066e-05)
(-0.00126166344698 9.61893084066e-05 -1.727669141e-05)
(-0.0013538526006 6.48030480171e-05 -7.24831095198e-05)
(-0.00128605415089 3.74323703182e-05 -0.000131694912974)
(-0.00106989237213 2.27165598936e-05 -0.000188494741159)
(-0.000745827197958 2.66637965815e-05 -0.000232775268539)
(-0.000369486075773 4.59762683051e-05 -0.000241574365567)
(-8.33218379551e-05 8.76076014166e-05 -0.000203229638284)
(6.81674945547e-05 0.000400474726183 -0.000272539333258)
(0.000404060215669 0.000351517247022 -0.000477774543732)
(0.000912894855589 0.000351575438079 -0.000545410697086)
(0.00134432286618 0.000393030995125 -0.000524108748197)
(0.00163402588152 0.000469243465899 -0.000461238177122)
(0.00172815225097 0.000559524171206 -0.000376929285876)
(0.00161513924259 0.000642776557399 -0.000287750934646)
(0.00131350781557 0.000707293731392 -0.000206689628764)
(0.000866782527734 0.000745669176419 -0.000146435727965)
(0.000334754446894 0.000755699709481 -0.000114862779181)
(-0.000216461500741 0.000740392169682 -0.000114124046674)
(-0.000722586069797 0.000702750714569 -0.000141846216406)
(-0.00112997460766 0.000644981439847 -0.000193474287305)
(-0.00139603417444 0.0005728979543 -0.000262321590707)
(-0.00149243164448 0.000493946073669 -0.000339533957935)
(-0.00140798012619 0.000416955606292 -0.000415606373339)
(-0.00115341767163 0.000357125638598 -0.000475666300956)
(-0.000774171681426 0.000328685022108 -0.000498414788069)
(-0.000326614636124 0.000333330817959 -0.000435935487426)
(-4.0781418762e-05 0.000379435103083 -0.00023875791549)
(4.63770912976e-05 0.000799596041831 -0.000265610672149)
(0.000404758254379 0.000819201365782 -0.000550858071289)
(0.000982077539569 0.000883614459276 -0.000646314901422)
(0.0014632600111 0.000996929612543 -0.00061783172185)
(0.0017789847316 0.00114185161152 -0.000531251477244)
(0.00187238509592 0.00128806312653 -0.000416907167278)
(0.0017368515913 0.00140907501565 -0.000298693701566)
(0.00139890758493 0.00149301928902 -0.000194718813423)
(0.000909335032164 0.00153540031367 -0.00011922659783)
(0.000334049749904 0.0015388432489 -8.11307153027e-05)
(-0.000256725252108 0.00150824274046 -8.27927256625e-05)
(-0.000797221091537 0.00144938050509 -0.000120546240742)
(-0.00123240639222 0.0013664292797 -0.000187819721529)
(-0.00151769232186 0.00126369301897 -0.000276567384703)
(-0.00162243959328 0.00114686621559 -0.000377300963251)
(-0.00153103244019 0.00102356897874 -0.000477478061605)
(-0.00125080411433 0.000909756109554 -0.000557033896535)
(-0.000828994421106 0.000823794700659 -0.00058580993282)
(-0.000322783870841 0.00077342632812 -0.000498162966617)
(-2.07726567358e-05 0.000753175092048 -0.000227874293107)
(4.28176885624e-05 0.00115004169475 -0.000223331878185)
(0.000443510650246 0.00122493375763 -0.000541620860717)
(0.00109640558125 0.00133647423839 -0.000632351676703)
(0.00162644578401 0.00149633201498 -0.000568205726166)
(0.00195709219364 0.00167818113616 -0.000435617011456)
(0.00203307098583 0.00184626995284 -0.000278142336215)
(0.00185928095743 0.00197425212767 -0.000127131397942)
(0.00147368684776 0.00205306274865 -2.92377853226e-06)
(0.000936210533792 0.00208346020093 8.23227853428e-05)
(0.000317574169934 0.00207315616616 0.000121207143326)
(-0.00031027486249 0.00202995563372 0.000113376233649)
(-0.000881513026266 0.00196108966277 6.39197778113e-05)
(-0.00134237668441 0.00187057860705 -1.97117232905e-05)
(-0.00164821270119 0.00176071914694 -0.000128786784053)
(-0.00176626396401 0.00163352050796 -0.000255856837598)
(-0.00167575020419 0.00149316150109 -0.000388279209316)
(-0.00137680852586 0.00135340938471 -0.000502400023364)
(-0.000914452977686 0.00123346154721 -0.000559084751766)
(-0.000348508976027 0.00114563030995 -0.000475970865562)
(-1.54975159884e-05 0.00107365693771 -0.000181213157363)
(5.91211457685e-05 0.00139521284402 -0.000168402395229)
(0.000515760215781 0.00151080655858 -0.000493780825572)
(0.00124062037687 0.00164796030222 -0.000564103072106)
(0.00180952378208 0.00182243265172 -0.000454914288602)
(0.00213941884055 0.00200353404766 -0.000273461576626)
(0.0021828268791 0.00215668467001 -7.67959889758e-05)
(0.00196033274457 0.00225975811586 9.71680032328e-05)
(0.00152282170867 0.0023101818409 0.000233229958347)
(0.000939967214089 0.00231457823132 0.000320275774506)
(0.000285148834102 0.00228582244892 0.000354895217219)
(-0.000370441140663 0.00223487285487 0.000339059959019)
(-0.000963623882255 0.00216873536024 0.000278974723895)
(-0.00144344564126 0.00208963223482 0.000183044293073)
(-0.00176731122729 0.00199693234835 5.91189409883e-05)
(-0.0019015687202 0.00188800316964 -8.63548567789e-05)
(-0.00181963797963 0.00176180862957 -0.000245373943715)
(-0.00151249135669 0.00162727364369 -0.00039270313343)
(-0.00101892415573 0.00150014233366 -0.000481623883358)
(-0.000400662731775 0.00139402939246 -0.000415577451779)
(-2.73468809353e-05 0.00128609850007 -0.000122149993529)
(8.74373879799e-05 0.00149072904579 -0.00010957482442)
(0.000602682442457 0.00162630118225 -0.000424812653809)
(0.00138637641471 0.0017648976737 -0.000468436409682)
(0.00197907475007 0.00192404575316 -0.000317313014112)
(0.00229419524404 0.00207456548674 -9.70423518645e-05)
(0.00229501098427 0.00218695272192 0.000122299928622)
(0.00202077568068 0.00224676409531 0.000305503867951)
(0.00153546213689 0.00225784303183 0.000439887284275)
(0.000917043655746 0.00223127861156 0.000518831942287)
(0.000240316080371 0.00218496686743 0.000544433246641)
(-0.000427951015414 0.00213187619583 0.000520915238993)
(-0.00102994183915 0.00207801778045 0.00045497992599)
(-0.00151907368463 0.00202294298072 0.000354646767527)
(-0.00185555272528 0.00196186650728 0.000226680434174)
(-0.00200550889163 0.00188847105111 7.47593269253e-05)
(-0.00193751244242 0.00179699252597 -9.70778863326e-05)
(-0.00163240015063 0.00169058217888 -0.000266868072367)
(-0.0011203287291 0.00157945238232 -0.000382630148376)
(-0.000463268993645 0.00147523377304 -0.000337410763616)
(-4.98587951377e-05 0.00135248874445 -6.06143850366e-05)
(0.000118843646668 0.00142172829491 -5.30031423704e-05)
(0.000685024156612 0.00155591386784 -0.00034777216509)
(0.0015095905829 0.00167682950467 -0.000364799975743)
(0.00211085482345 0.0018019157382 -0.000181543372131)
(0.00240093979918 0.0019075641518 6.1798784387e-05)
(0.00235672659397 0.0019712671254 0.000289913879444)
(0.00203485522976 0.00198622861125 0.000468885893935)
(0.00151034881971 0.00195936413293 0.000590624324884)
(0.000869493035256 0.00190508489399 0.000653487589994)
(0.000187193850593 0.00184553207126 0.000666707482035)
(-0.000477074544473 0.00179469761506 0.000637238800169)
(-0.00107337651203 0.00175759114594 0.000571438151904)
(-0.00156133147067 0.00173072248584 0.000475319234168)
(-0.00190421656073 0.00170515366246 0.000353050015563)
(-0.00206730754782 0.00167119910453 0.000205264114404)
(-0.00201516143257 0.00162035468578 3.15981949225e-05)
(-0.00171952850671 0.0015513756416 -0.000148129478312)
(-0.00120140864159 0.00146930484781 -0.000281917579059)
(-0.000521140818617 0.00138186854875 -0.000256342178061)
(-7.46183716033e-05 0.00126460482704 -3.3859769476e-06)
(0.000147723348867 0.00119692367155 -2.36914100966e-06)
(0.000751517219462 0.00131120559092 -0.000273425691587)
(0.00159901384139 0.00140205640637 -0.000268053770845)
(0.00219705638141 0.00148538674843 -6.28732488327e-05)
(0.00245825150437 0.0015437207435 0.00019207129106)
(0.00237238729526 0.00156326590635 0.000418316111174)
(0.00200973737046 0.00154169545905 0.000584604937445)
(0.00145574338778 0.00148756861943 0.000686291610726)
(0.000804734805491 0.00141580242965 0.000726503116056)
(0.000131045788803 0.00135044100787 0.000724629714458)
(-0.000515399307228 0.00130521810379 0.000690838620921)
(-0.00109410153887 0.00128401480865 0.000630754170808)
(-0.00157218097334 0.00128154717265 0.000546689976968)
(-0.00191597694228 0.00128611652156 0.000437877720228)
(-0.00208934402244 0.00128627991078 0.00030136571812)
(-0.00205286745929 0.00127241000772 0.000133491483182)
(-0.00177056889004 0.00124058731121 -4.80600911635e-05)
(-0.00125560649409 0.00119171806273 -0.000192383308561)
(-0.000565970151061 0.00113002803 -0.000182740379492)
(-9.6578142729e-05 0.00103554003963 4.54861555898e-05)
(0.000168897782467 0.000842407071849 3.68747861063e-05)
(0.000795708462164 0.000922295323212 -0.000212494067929)
(0.00165169214182 0.000976787163533 -0.000190798443533)
(0.00223916923991 0.00101792888714 2.57736305264e-05)
(0.0024728241078 0.00103521845147 0.000285213607737)
(0.00235317874061 0.00102252083558 0.000504375993255)
(0.00195929489103 0.000980260522061 0.000654710217469)
(0.00138536355768 0.000916694630822 0.000733622921228)
(0.000733524133095 0.000844436146301 0.00074808733963)
(7.76630908452e-05 0.000784156887359 0.000730060807777)
(-0.00054278812508 0.000747042259593 0.000693260496779)
(-0.00109686895565 0.000735952260863 0.000642634372257)
(-0.00155957628875 0.000746437783743 0.000575769888583)
(-0.00190005649988 0.000767901320502 0.000484722824418)
(-0.00208017221866 0.000789665620744 0.000362502077278)
(-0.0020568642912 0.000802942134708 0.000203231541515)
(-0.00178854561787 0.000801979115548 2.29885360091e-05)
(-0.00128218529977 0.000785103145516 -0.000125313000887)
(-0.000592586473471 0.000753669806599 -0.00012691206189)
(-0.000111346381332 0.000694939296859 7.95885687622e-05)
(0.000180214142625 0.000401734360767 5.99123309239e-05)
(0.000815514668429 0.000436934417848 -0.00017416927634)
(0.00166889212488 0.000452344589282 -0.00014281145018)
(0.00224402506989 0.0004538381421 7.86636293031e-05)
(0.00245728478923 0.000438332068956 0.000337464113453)
(0.00231574739463 0.000405715044615 0.000549463758087)
(0.00190370737236 0.000358311440321 0.000687236984292)
(0.00132062976487 0.000302340445643 0.000749428270267)
(0.000673264344413 0.000246621127438 0.000745842298825)
(3.47418469735e-05 0.000202008428976 0.000716756524483)
(-0.000562756467003 0.000174641577509 0.000677686991197)
(-0.00109433770704 0.000166546253575 0.000633260350264)
(-0.00154040369248 0.000177165747632 0.000578245305895)
(-0.00187306244213 0.000201550534073 0.000500067725824)
(-0.00205380126559 0.000232490348015 0.000388612010118)
(-0.00203777575193 0.000263178935759 0.000236691998496)
(-0.00177992228945 0.000287033372523 5.95918100662e-05)
(-0.00128321397681 0.00029979602936 -8.94649364368e-05)
(-0.000600042090156 0.000300167807546 -9.69264384739e-05)
(-0.000117126343403 0.000283673577787 9.56145831283e-05)
(0.000180404612124 -7.38558185652e-05 6.39834595933e-05)
(0.000810697623281 -8.77804085427e-05 -0.000164147348371)
(0.00165367007533 -0.000111721749586 -0.000130590140501)
(0.0022178943729 -0.000147057432669 9.00741504767e-05)
(0.00242086511526 -0.000190343645884 0.000345890679697)
(0.0022717470479 -0.000235771211662 0.000553296468823)
(0.00185576491687 -0.000279643301086 0.00068521979192)
(0.0012742656972 -0.000318617673184 0.000740919993182)
(0.000634094254077 -0.000349310328869 0.000731145459179)
(6.62073688206e-06 -0.000372412459157 0.000697929121969)
(-0.00057753275506 -0.000388036381572 0.000656055096102)
(-0.00109405021294 -0.000394866097167 0.000609975547543)
(-0.00152478287982 -0.000388660124883 0.000555544419329)
(-0.00184504650967 -0.000366988621863 0.000480717336322)
(-0.00201874095612 -0.000332300050553 0.000374078443979)
(-0.00200144953536 -0.000288830540862 0.00022752250638)
(-0.00174830319262 -0.000243936292435 5.49791578077e-05)
(-0.00126080610255 -0.000204073004197 -9.07855139396e-05)
(-0.000589248642877 -0.000172806474147 -9.70959849959e-05)
(-0.000114520183899 -0.000146686933365 9.39347531263e-05)
(0.000169234411382 -0.000528844920318 4.878046057e-05)
(0.000781880911018 -0.000590196336832 -0.000183187324979)
(0.00160784696339 -0.000652229333293 -0.000154930029077)
(0.00216355309723 -0.000723185911658 5.93932293183e-05)
(0.00236719853537 -0.000793219893158 0.000310254246092)
(0.00222558691151 -0.000850832307099 0.000515719053945)
(0.00182086854547 -0.00089078671781 0.000648587947937)
(0.0012513847769 -0.000912405672054 0.000707952865953)
(0.000620061111248 -0.000917947681703 0.000704734955057)
(-3.38507061491e-06 -0.000917995374973 0.000675108603507)
(-0.000584796088892 -0.000918476677205 0.000630422517292)
(-0.00109485437688 -0.000918844007389 0.000575267199088)
(-0.00151279447474 -0.000911473287138 0.000510649903033)
(-0.00181701604824 -0.000888453876347 0.0004298302926)
(-0.00197650207436 -0.000848074378466 0.000322187564177)
(-0.00195045843542 -0.000791993766779 0.000179004745849)
(-0.00169659628672 -0.000728151397948 1.26761780193e-05)
(-0.00121677606792 -0.000663713575294 -0.000125875663517)
(-0.000561121310621 -0.000604812965641 -0.000124721945435)
(-0.000103510016491 -0.000540450757028 7.58852486231e-05)
(0.000147883676723 -0.000911217185349 1.66885803786e-05)
(0.000730165045671 -0.00101228691539 -0.000227698076777)
(0.00153175309613 -0.00110917473012 -0.000212058158036)
(0.00208031049427 -0.00121542158938 -1.04849255929e-05)
(0.00229426536895 -0.0013141524668 0.000232258015163)
(0.00217395550704 -0.00138850488439 0.000436873989326)
(0.00179435633912 -0.00143128419885 0.000575367875999)
(0.0012473605255 -0.00144377852564 0.000645878439166)
(0.000628760545161 -0.0014322758197 0.000658222286896)
(6.29526756816e-06 -0.00141315820562 0.000638158963767)
(-0.000578340531626 -0.00139593576323 0.00059252967283)
(-0.00108719370685 -0.00138130614055 0.000526507598478)
(-0.00149472927909 -0.00136137421536 0.00044807547961)
(-0.00178187943439 -0.0013268760973 0.000357424117378)
(-0.00192348320755 -0.00127371921547 0.000245749449453)
(-0.00188379573423 -0.00120167642539 0.000104450944695)
(-0.00162519978323 -0.00111779529492 -5.47448805416e-05)
(-0.00115281224768 -0.00103079111661 -0.000183937143281)
(-0.000517349235503 -0.000948895001223 -0.000171540586893)
(-8.52695624731e-05 -0.000854729972826 4.43793673976e-05)
(0.000118783181311 -0.00117664014347 -2.856456624e-05)
(0.000658426266522 -0.00130429969257 -0.000291022393247)
(0.00142599362283 -0.00142951466492 -0.000294627532263)
(0.00196588711617 -0.0015688906187 -0.000113322212286)
(0.00219693877632 -0.00169895045945 0.000115055970412)
(0.00210879064521 -0.00179658288692 0.000316822188355)
(0.00176580652937 -0.00185173126652 0.000461789214837)
(0.00125052271601 -0.00186618042669 0.000545629121708)
(0.000650695558302 -0.00184889632535 0.000575157862923)
(3.28944820875e-05 -0.00181746799469 0.000566399346357)
(-0.000553118812248 -0.00178278968498 0.000522937609099)
(-0.00106056004732 -0.00174737648328 0.000450507216433)
(-0.00145867499155 -0.00170606935937 0.000362475343935)
(-0.00172944337773 -0.0016513670942 0.000264357298017)
(-0.00185250813159 -0.00157848623499 0.000149324077851)
(-0.00179723788148 -0.00148603321421 1.00427225415e-05)
(-0.00153286363117 -0.0013801955777 -0.000141363050399)
(-0.00107021289097 -0.00127200803083 -0.000257031635659)
(-0.000460421117918 -0.00117222535657 -0.000230556738152)
(-6.1190730151e-05 -0.00105990344834 1.68515801719e-06)
(8.67947303863e-05 -0.00129304676999 -8.21075049698e-05)
(0.000573234309889 -0.00142948379437 -0.000363796962655)
(0.00129489761629 -0.00157152200255 -0.000392649770857)
(0.00182043545428 -0.00173631212512 -0.000242380339996)
(0.00207053008711 -0.00189578281976 -3.69761436711e-05)
(0.00202214568172 -0.00202013593886 0.000155784471063)
(0.00172493604855 -0.00209487941071 0.000303917914769)
(0.00125012844194 -0.00212077701646 0.000399473639923)
(0.000677162804394 -0.0021073047206 0.000444578477677)
(7.2055501154e-05 -0.00207098160661 0.000447547951893)
(-0.000508614034663 -0.00202271856206 0.000409971318158)
(-0.00101089974275 -0.00196697381136 0.0003378921909)
(-0.00139918915438 -0.00190253023732 0.000247088830748)
(-0.00165458388194 -0.00182494846128 0.000145930588711)
(-0.00175947393756 -0.00172980642605 3.03711473256e-05)
(-0.00168828864194 -0.00161527590302 -0.000103564676654)
(-0.00141908164105 -0.00148819666732 -0.000242190914898)
(-0.000970912801869 -0.00136270044757 -0.000338682088314)
(-0.000395579185365 -0.00125247114519 -0.000294862971606)
(-3.59854881878e-05 -0.00113635102632 -4.68178114836e-05)
(5.71928528758e-05 -0.00124802889698 -0.000140270411954)
(0.000484878909703 -0.00137047157584 -0.000435670791852)
(0.00114822789461 -0.00151056931921 -0.000491961124381)
(0.00165036139518 -0.00168399160168 -0.000382046695947)
(0.00191555610534 -0.00186094611298 -0.000212094801468)
(0.00190924404098 -0.00200736786298 -3.91972994137e-05)
(0.00166359351619 -0.00210302073592 0.000103871010045)
(0.00123681024477 -0.00214563593455 0.000205625700508)
(0.000699511245583 -0.00214320013904 0.000262668491298)
(0.000117077746136 -0.00210965666453 0.000276711656254)
(-0.000448952804991 -0.0020552050119 0.000248141438912)
(-0.000939866165714 -0.00198549126646 0.000182896928485)
(-0.00131602172997 -0.00190303074018 9.65601149941e-05)
(-0.00155607615057 -0.00180622927215 -1.65974895704e-06)
(-0.00164323240791 -0.00169195872722 -0.000111735774838)
(-0.0015574742828 -0.0015598257251 -0.000233409772038)
(-0.00128737396758 -0.001419069657 -0.000350012118728)
(-0.000861077505752 -0.00128707903645 -0.000419889464527)
(-0.000330142471076 -0.00117896076342 -0.000357063535134)
(-1.41494989491e-05 -0.00107604540397 -9.85076066931e-05)
(3.94137170349e-05 -0.00104844015637 -0.000196788731097)
(0.0004117396498 -0.00113336458558 -0.000491638154284)
(0.00100743500327 -0.00124817440224 -0.00057076653354)
(0.00147594912963 -0.00140370921337 -0.000504671751057)
(0.0017468268068 -0.00157392391899 -0.000379098423817)
(0.00177677105984 -0.00172424245212 -0.000238032186201)
(0.00158171379478 -0.00183094771883 -0.000109991670848)
(0.00120577000363 -0.00188773618895 -1.10090995841e-05)
(0.00071029321951 -0.00189872232025 5.17354325187e-05)
(0.000159157725317 -0.0018742791164 7.4332980339e-05)
(-0.000383490406513 -0.00182324792133 5.61425830029e-05)
(-0.000856633289276 -0.00175100120458 2.25070443097e-06)
(-0.00121752084785 -0.00166226661567 -7.3131410823e-05)
(-0.0014414605183 -0.00155813051621 -0.000161651629731)
(-0.00151229351124 -0.00143771917824 -0.000258428463661)
(-0.00141613183661 -0.0013035329606 -0.000358296434681)
(-0.00115196149782 -0.0011675105752 -0.00044462533792)
(-0.000755557945643 -0.00104854943853 -0.000483479269862)
(-0.000277402728905 -0.000959981543855 -0.000404503911484)
(-2.32011495301e-06 -0.000888691084185 -0.000147175261082)
(4.07357297193e-05 -0.00073490463188 -0.000240929812455)
(0.00037183952831 -0.000764450044087 -0.000510420344747)
(0.000897832284772 -0.000832992864648 -0.00059772000169)
(0.00132497396827 -0.00094214613555 -0.000566868570741)
(0.0015884850292 -0.0010747349039 -0.000483115629633)
(0.00164160205431 -0.00120136782655 -0.000377519316601)
(0.00148748981955 -0.0012987595755 -0.000272587974268)
(0.00115798154404 -0.00135795326651 -0.000183748026236)
(0.000705425912391 -0.0013785051913 -0.000122499114745)
(0.000189917854931 -0.00136603129785 -9.5785994716e-05)
(-0.00032360549816 -0.00132716782737 -0.00010513294242)
(-0.000773511055901 -0.0012657134897 -0.000146883422258)
(-0.00111630762015 -0.00118702598485 -0.000209140909932)
(-0.00132474324741 -0.0010942465093 -0.000282281514326)
(-0.00138335637553 -0.000989301613344 -0.000359673421784)
(-0.00128390709059 -0.000877475545882 -0.000433637282739)
(-0.00103387842265 -0.000771587484959 -0.000489586450677)
(-0.000673144628854 -0.000688605577904 -0.000502369336803)
(-0.000250615086138 -0.000636177733226 -0.000418378476)
(-6.19073698164e-06 -0.000610208967546 -0.00018337464085)
(5.84838623519e-05 -0.000365296263793 -0.000250110434244)
(0.000369359664977 -0.000323020238852 -0.000445627161198)
(0.000832463908143 -0.000326812615557 -0.000508002395784)
(0.0012171374938 -0.000365883099146 -0.000484718263896)
(0.0014617675567 -0.000433964816323 -0.000422539527195)
(0.00152133504002 -0.000510957770239 -0.000342253641303)
(0.00139260672426 -0.000577924918179 -0.000259658273231)
(0.00109837767828 -0.000625014619876 -0.000186622805986)
(0.000684132160146 -0.000647555169201 -0.000134444097832)
(0.000204699867716 -0.000646609344614 -0.000110152797294)
(-0.00027692369125 -0.000625666340965 -0.000114983792885)
(-0.000700614020492 -0.000587013418772 -0.000146471741277)
(-0.00102437024066 -0.000534060763466 -0.000195670157929)
(-0.00121987094988 -0.000471353819174 -0.000254043791562)
(-0.00127242974125 -0.000403604962305 -0.000314753032895)
(-0.00117766511217 -0.000337787995363 -0.000371239738787)
(-0.000947908999366 -0.000285665737926 -0.000412502413205)
(-0.000622641704872 -0.00025926731014 -0.000421182586933)
(-0.000250605631816 -0.000258626114673 -0.000358870630506)
(-2.16067037687e-05 -0.000291479811768 -0.000185628751865)
(0.000100013369668 -8.11171669124e-05 -0.000213080465074)
(0.000413937055344 -3.92980783831e-05 -0.000248844850625)
(0.000808112653835 -2.20722401047e-05 -0.000236989814373)
(0.00113916078683 -2.11809828321e-05 -0.000188002107713)
(0.00134741991562 -3.81180898689e-05 -0.000126144164154)
(0.00139423919857 -6.50002676707e-05 -6.18662461199e-05)
(0.00127546019797 -9.23830160591e-05 -2.75012068746e-06)
(0.00100929499674 -0.000114810085862 4.65875435689e-05)
(0.00063528650469 -0.000127949473902 7.90544972268e-05)
(0.000199974653585 -0.000130775458689 9.21102786476e-05)
(-0.000239719289413 -0.000124528836718 8.72008797211e-05)
(-0.000627008043726 -0.00010996716966 6.64750804939e-05)
(-0.000924735406392 -8.80125144223e-05 3.135213701e-05)
(-0.00110723952266 -6.21976983511e-05 -1.1658379368e-05)
(-0.00116000450452 -3.62738062564e-05 -5.84807215634e-05)
(-0.00108074734249 -1.46933961179e-05 -0.000107262710357)
(-0.000882921986316 -3.51905322539e-06 -0.000152469183544)
(-0.000601613213347 -7.92861794763e-06 -0.000185608378764)
(-0.00028625462957 -2.3499636323e-05 -0.000185985362174)
(-5.47844310037e-05 -5.58173668464e-05 -0.000142614090036)
(0.000181208001724 0.000166043698022 -0.000827455929288)
(0.000592093642576 0.000209418177383 -0.000944658977986)
(0.00105187502722 0.000246678207019 -0.000945886059122)
(0.00143741297962 0.000289808668501 -0.000850963753802)
(0.00168669340342 0.000333392426145 -0.000701275499166)
(0.0017545793414 0.000372106744676 -0.000522502060478)
(0.00162645683491 0.000401141986932 -0.000339132209038)
(0.00131693335848 0.000418895720047 -0.000175842694501)
(0.000865997637699 0.00042612437985 -5.56141624124e-05)
(0.00033294081421 0.00042534822298 5.77063772489e-06)
(-0.000216500165853 0.000417201758422 4.27426033804e-06)
(-0.000722317553376 0.000402811528966 -5.48670733399e-05)
(-0.00113169594254 0.000384091832574 -0.000162551268139)
(-0.00140284360222 0.000360584180465 -0.000303880073073)
(-0.00151152931552 0.000332709830226 -0.000461937045602)
(-0.00145101550871 0.000301027299657 -0.00061885022374)
(-0.00123550875648 0.000267469976015 -0.00075408179256)
(-0.000902432049651 0.00023347002667 -0.000841999689679)
(-0.000504879533672 0.000200364279604 -0.000839943011862)
(-0.000149610941015 0.000157477790376 -0.000723011016232)
(0.000235489282478 0.000543092824907 -0.000943669374596)
(0.000668108779419 0.000599730036211 -0.00125135292858)
(0.00114253966253 0.000675769093393 -0.00133457466406)
(0.0015401507699 0.000779829331681 -0.00127111149163)
(0.00179532139764 0.00089287851669 -0.00111568090683)
(0.00186168057929 0.000995711809201 -0.00090585350226)
(0.00172209626755 0.00107408000544 -0.000679072721844)
(0.00139116752499 0.00112271158358 -0.00047277063022)
(0.000912093030107 0.00114288186658 -0.000319030035108)
(0.000346729312183 0.00114012736448 -0.000238513008662)
(-0.000236202463561 0.0011186552208 -0.000238178384536)
(-0.000771513646868 0.00108208248687 -0.000311930076351)
(-0.00120393370676 0.00103260487828 -0.000446564074749)
(-0.0014909602843 0.000969963268546 -0.0006228114129)
(-0.00160714676478 0.000894451077396 -0.000816743199924)
(-0.00154686148026 0.000808600292103 -0.00100060437993)
(-0.00132653150097 0.000719472837457 -0.00114205883018)
(-0.000984479867332 0.000637555133417 -0.00120341535074)
(-0.000573829213644 0.000573978732538 -0.00112731972048)
(-0.000201734348577 0.000520020478148 -0.000832726549475)
(0.000276614910359 0.000960672767826 -0.000956534053799)
(0.000752244782021 0.00103263848503 -0.00135108181429)
(0.00126480950205 0.00114603807132 -0.00144660288892)
(0.00168020052102 0.0013016044366 -0.00134805827208)
(0.00193277398789 0.00146957258482 -0.00113296920244)
(0.00198008327633 0.00162006527524 -0.000857082162465)
(0.00181103887538 0.00173244176264 -0.000571461016595)
(0.00144662388268 0.00179967417747 -0.000321398905074)
(0.000934835337396 0.00182480815386 -0.000141565881656)
(0.000339640983357 0.00181581449171 -5.2301617691e-05)
(-0.000269460001159 0.00178051875138 -5.86793377027e-05)
(-0.000827099946138 0.00172467543061 -0.000152360438529)
(-0.0012786837311 0.00165072045594 -0.000318116260848)
(-0.00158243136301 0.00155883480916 -0.000534840418294)
(-0.00171228548966 0.00144842447763 -0.000776961619489)
(-0.00166017697042 0.00132247710125 -0.00101245253941)
(-0.00143895127061 0.00119106178642 -0.00120042239374)
(-0.00108323162515 0.00107070619889 -0.00128940714874)
(-0.000642980582038 0.000978970452325 -0.00120190541278)
(-0.000237978804339 0.000910787018534 -0.000830497380692)
(0.000320520553454 0.00132066451725 -0.000883575069059)
(0.000859452740246 0.00140599794333 -0.00131830155584)
(0.00142487888956 0.00153821433451 -0.0013818668578)
(0.00186201606424 0.00171615319221 -0.00120285475272)
(0.00210439535826 0.00190316624591 -0.000891567175163)
(0.00211821746411 0.0020648403127 -0.000528323563387)
(0.00190435229628 0.00217915498348 -0.000177640849712)
(0.00149467287562 0.00224130338171 0.000111720553695)
(0.000943730410448 0.00225636474696 0.000308449992525)
(0.00031742197663 0.00223557736799 0.000397217712288)
(-0.000315900599667 0.00218953642221 0.000377038910641)
(-0.000893783335173 0.00212499689925 0.000259294905483)
(-0.00136421356071 0.00204408394548 6.08340339503e-05)
(-0.00168716070952 0.00194604679347 -0.000197699460228)
(-0.00183588101875 0.00182913004096 -0.000493183181109)
(-0.00179764081765 0.00169448296192 -0.000793829173152)
(-0.00157798264619 0.0015518014357 -0.00105262313164)
(-0.00120421830101 0.00141906393348 -0.00120225347538)
(-0.000723925958303 0.00131667722042 -0.00114000442373)
(-0.000271554024622 0.00123761498958 -0.000738077800615)
(0.000364969573545 0.0015667115552 -0.000760802305395)
(0.000975026608207 0.00166087602683 -0.00119995711854)
(0.00159645318278 0.00179318572806 -0.00120794130435)
(0.00205203206565 0.00196330547076 -0.000933852486598)
(0.00227602447821 0.00213405530037 -0.000523904737992)
(0.00224699259209 0.00227281571026 -8.2810362794e-05)
(0.00198175485328 0.00236198206906 0.000315731374284)
(0.00152403654709 0.00239949512268 0.000626324241644)
(0.000934849702044 0.00239316312665 0.000824015679695)
(0.000282071437659 0.00235767498723 0.000901877430515)
(-0.000369159282449 0.00230528365304 0.000864429263444)
(-0.000961056249362 0.00224287450134 0.000725578170835)
(-0.00144573953612 0.00217156277471 0.000502684996924)
(-0.00178538607199 0.00208873916285 0.000214576837762)
(-0.00195310441178 0.00199062389776 -0.000119990548943)
(-0.00193143163983 0.00187598632848 -0.000474536346215)
(-0.00171652702555 0.00175081347103 -0.000800028937515)
(-0.00132614922033 0.00163015430194 -0.00101573866675)
(-0.000804838611632 0.00153248690468 -0.000995047495879)
(-0.00030185030948 0.00144734732912 -0.000596234587859)
(0.000405246393815 0.00165564328404 -0.000608542567159)
(0.00108149719283 0.00175226321178 -0.00102633880321)
(0.00175160484811 0.00186906795481 -0.000972067336985)
(0.00221791447226 0.00200930498044 -0.000611793267538)
(0.00241711956145 0.0021407332791 -0.000123992310998)
(0.00234301108324 0.00223746181992 0.000367211676992)
(0.00202757185613 0.0022869779324 0.000785159881153)
(0.00152549225481 0.00229047416404 0.0010917923404)
(0.000905518910329 0.00225847154575 0.00127166787535)
(0.000236385992964 0.00220879540409 0.00132907607289)
(-0.000421846036822 0.0021546973424 0.00127458667369)
(-0.00101776221801 0.00210262998875 0.00112372188569)
(-0.00150868606414 0.00205173971134 0.000892006551588)
(-0.00185966899267 0.00199713677477 0.000594785625831)
(-0.00204323908501 0.00193235209803 0.000244356336661)
(-0.00203756998039 0.0018536359918 -0.000139532795771)
(-0.00183025629891 0.0017632672802 -0.000510904826685)
(-0.00142854790682 0.00167051974954 -0.000780458198525)
(-0.000873354034971 0.00158883908339 -0.000803320396773)
(-0.000326689453327 0.00150370031065 -0.000430172044276)