/*--------------------------------*- C++ -*----------------------------------*\
| =========                 |                                                 |
| \\      /  F ield         | OpenFOAM: The Open Source CFD Toolbox           |
|  \\    /   O peration     | Version:  3.0.1                                 |
|   \\  /    A nd           | Web:      www.OpenFOAM.org                      |
|    \\/     M anipulation  |                                                 |
\*---------------------------------------------------------------------------*/
FoamFile
{
    version     2.0;
    format      ascii;
    class       volScalarField;
    location    "0.8";
    object      epsilon;
}
// * * * * * * * * * * * * * * * * * * * * * * * * * * * * * * * * * * * * * //

dimensions      [0 2 -3 0 0 0 0];

internalField   nonuniform List<scalar> 
7968
(
0.0184990672979
0.0192134069766
0.0196019517748
0.0197381552378
0.0197742335996
0.0197780562989
0.0197719850471
0.0197628544801
0.0197535206723
0.0197466809244
0.0197465370354
0.0197532322728
0.0197625562784
0.019771733766
0.0197778761689
0.0197741313684
0.0197381207585
0.0196019676143
0.0192135479006
0.0184991498892
0.019213516431
0.0240923565742
0.0267645683807
0.0278016971728
0.0281153501803
0.0281714063403
0.0281543762765
0.0281269438092
0.0281071573727
0.0280975636473
0.0280973775527
0.0281066790487
0.0281262958558
0.028153691175
0.0281707998796
0.0281148883137
0.0278013883089
0.0267643985852
0.024092553213
0.0192137231033
0.0196021203412
0.0267644210234
0.0311473862831
0.0330507067695
0.0337089353653
0.033864625457
0.0338586043221
0.0338229296377
0.0337980251009
0.0337875701883
0.0337873150465
0.033797331478
0.0338219460967
0.0338575151172
0.0338636077715
0.0337081239742
0.0330501608783
0.0311471051352
0.0267645156275
0.0196023413309
0.0197382087912
0.0278007201282
0.0330498001595
0.0354680409613
0.0363482504755
0.0365588719468
0.0365430943713
0.0364870134146
0.0364504308525
0.0364364270203
0.0364360917511
0.0364494982239
0.0364856605354
0.0365415728433
0.0365573885795
0.0363470153248
0.0354671711817
0.0330493076587
0.0278006663655
0.0197384338512
0.0197740086263
0.0281131324759
0.0337066358057
0.036346859382
0.03730578789
0.0375077949832
0.0375149390875
0.0374827191311
0.0374505270326
0.0374343231294
0.0374340990711
0.0374498969085
0.0374818094393
0.037513884761
0.0375058724612
0.0373040295758
0.0363455406825
0.033705809779
0.0281128505826
0.0197741951062
0.0197774519995
0.0281678825243
0.033860911441
0.0365561170502
0.0375065724592
0.0377896471524
0.0378112136206
0.0377566193914
0.0377070449955
0.0376822937037
0.0376820549206
0.0377063476183
0.037755582726
0.037810024742
0.0377884137941
0.0375044005278
0.0365543037229
0.0338596960821
0.0281673321439
0.0197775704282
0.0197709486248
0.0281496816814
0.033853695211
0.0365393186395
0.0375132916799
0.0378104887722
0.0378000863342
0.0377122554554
0.0376382278797
0.0376010327807
0.037600779908
0.0376374884949
0.0377111459943
0.0377987563764
0.0378091469817
0.0375120055154
0.0365371008761
0.0338521179139
0.0281488786558
0.0197709846394
0.0197613708734
0.0281213321558
0.033817131848
0.0364824587295
0.037480505971
0.0377551952635
0.0377111569369
0.0375902014624
0.0374900242748
0.0374383482606
0.0374380623949
0.0374892532614
0.0375890827154
0.0377097974178
0.037753760274
0.0374791318756
0.036479949423
0.0338152792758
0.0281203098715
0.0197613173433
0.0197516488187
0.0281009950907
0.0337916902501
0.0364453981879
0.0374480081294
0.0377054213209
0.0376369365484
0.037489725126
0.0373662796135
0.0372998973576
0.0372995676577
0.0373654578818
0.0374886521071
0.0376356574116
0.0377040178877
0.0374466058072
0.0364427588437
0.0337896738634
0.0280998236252
0.0197515033675
0.0197446831758
0.0280913701078
0.0337812275317
0.0364314317464
0.0374318680113
0.0376809025978
0.0376001700414
0.0374383878872
0.0373001692111
0.0372225654119
0.0372222511323
0.0372993859411
0.0374374210696
0.0375990477602
0.0376796512769
0.0374305620758
0.0364288529777
0.0337791861752
0.028090125712
0.0197444600747
0.0197450332366
0.0280917686638
0.0337815941932
0.0364317579179
0.0374320937286
0.0376811576191
0.0376005263584
0.0374388429767
0.037300716478
0.0372232285041
0.0372229762268
0.0373000904439
0.0374380788551
0.0375996553589
0.0376801656956
0.0374310030809
0.0364294448785
0.0337796625333
0.0280905397128
0.0197448015872
0.019752399222
0.0281020934221
0.0337927066385
0.0364462966444
0.0374486289829
0.0377061324089
0.0376379112074
0.037490934918
0.0373677234117
0.0373016097885
0.0373014460643
0.037367328591
0.0374904440457
0.0376373347016
0.0377054349669
0.0374478147546
0.0364443720238
0.0337910031002
0.0281009886598
0.0197522260489
0.0197622509138
0.0281229430661
0.0338186507564
0.0364837867667
0.0374813997938
0.0377561840977
0.0377125001663
0.0375918431425
0.0374920215497
0.0374407084108
0.0374406415551
0.037491863926
0.0375916182921
0.0377121887523
0.0377557708758
0.0374808604031
0.0364822792499
0.0338172240851
0.0281220090539
0.019762143971
0.0197718328859
0.028151641257
0.0338555704271
0.0365409453173
0.0375143690105
0.037811575557
0.0378014471938
0.0377139351539
0.0376403323922
0.0376035623717
0.0376035747935
0.0376403547518
0.0377139276274
0.037801369952
0.0378113996383
0.0375140427329
0.0365397904056
0.033854407123
0.0281508791168
0.0197717829755
0.0197782681102
0.0281699953863
0.0338629872193
0.0365579353422
0.0375082361829
0.0377907812125
0.0378124971022
0.0377582248016
0.0377090855115
0.0376847625472
0.0376848237789
0.037709236982
0.0377583844739
0.0378125995055
0.0377907634363
0.0375076689724
0.0365570194183
0.0338620575985
0.0281694196498
0.019778266664
0.0197747028428
0.0281152079187
0.0337087077371
0.0363486436789
0.0373073530953
0.0375094135416
0.0375160603933
0.0374840725363
0.0374522603076
0.0374364712367
0.0374365673965
0.037452501451
0.0374843556422
0.0375162928465
0.0375093840952
0.0373069138354
0.0363479203409
0.0337079737087
0.028114798109
0.0197747408831
0.0197387322003
0.0278025275438
0.0330516261653
0.0354695376322
0.0363493724654
0.0365598222292
0.0365441943956
0.0364885439904
0.0364525368775
0.0364391934464
0.036439358482
0.0364529535275
0.036489012596
0.0365445310943
0.0365598719586
0.0363490692019
0.0354689831278
0.033051034337
0.0278022469411
0.0197387940378
0.019602443523
0.0267657629424
0.0311487757559
0.0330517750234
0.0337095241323
0.033864805136
0.0338586127372
0.0338230382229
0.0337984342841
0.0337884193568
0.0337885886354
0.0337988862585
0.0338235809098
0.033859049971
0.033864977547
0.0337093713291
0.0330513453913
0.03114825941
0.026765517405
0.0196024899178
0.0192137392958
0.0240933153242
0.0267655381925
0.0278024111449
0.0281156174847
0.028171207366
0.028153849532
0.0281263068703
0.0281066341588
0.0280973207832
0.0280974759691
0.0281070668339
0.0281268642612
0.0281543460924
0.0281714912358
0.0281156123768
0.0278021345147
0.0267650774056
0.0240930334373
0.019213725393
0.0184991148747
0.0192135877835
0.0196021327421
0.0197383130338
0.0197743006242
0.0197779939101
0.01977179712
0.0197625728192
0.019753203362
0.0197464060472
0.01974639667
0.0197532044247
0.0197625831487
0.0197717812162
0.0197779273844
0.0197741782136
0.0197381542392
0.019601964241
0.019213492317
0.0184990708313
0.0191913907331
0.0239136671651
0.0265344085398
0.0275680976037
0.027894966643
0.0279675772261
0.0279640542609
0.0279441599014
0.0279263580184
0.0279163368338
0.0279162187375
0.0279260579625
0.0279437695386
0.0279636538627
0.0279672265989
0.027894702225
0.0275679244645
0.0265343225015
0.023913719141
0.0191914502452
0.0239133071449
0.0247417608451
0.026628149249
0.0274617056935
0.0277478830403
0.0278220984092
0.0278292308011
0.0278207415758
0.0278122955249
0.0278077147016
0.0278076487072
0.0278121196232
0.0278204967205
0.027828962191
0.0278218444375
0.0277476669002
0.0274615308561
0.026628011041
0.0247416696497
0.023913229448
0.0265342646066
0.0266280414732
0.0284866100756
0.0293820808927
0.0297171067384
0.0298145260115
0.0298294799462
0.0298229534842
0.0298151134113
0.0298108847839
0.0298108198954
0.0298149355477
0.02982269876
0.0298291930278
0.0298142465011
0.0297168612781
0.0293818770337
0.0284864418827
0.0266279159831
0.0265342293457
0.0275678862982
0.0274614260291
0.0293818703816
0.0303454838012
0.0307222750551
0.0308378427055
0.0308588570753
0.0308537995714
0.0308462615805
0.0308421654172
0.0308420987152
0.0308460770926
0.0308535323871
0.0308585520944
0.0308375315093
0.0307219961167
0.0303452520843
0.029381681374
0.0274612932327
0.0275678916473
0.0278943095258
0.0277472805478
0.0297165808403
0.0307219660829
0.0311214188009
0.0312465806798
0.0312772333131
0.0312791352941
0.0312741010312
0.031270388865
0.0312703437399
0.0312739786771
0.0312789587614
0.0312770181488
0.0312462509285
0.0311210869725
0.0307216794268
0.0297163444897
0.0277471121714
0.0278942787689
0.0279663073528
0.0278211189892
0.0298136670904
0.0308372197437
0.0312462878138
0.0313890391904
0.0314274093142
0.0314298037282
0.0314237744471
0.0314192489487
0.0314192047045
0.0314236554532
0.0314296331922
0.0314272127872
0.0313888095652
0.0312459303466
0.0308368696546
0.0298133689507
0.0278208950598
0.027966183993
0.0279621553242
0.0278279028228
0.0298283332749
0.0308579822632
0.0312767549309
0.0314272058768
0.0314653487297
0.0314651637749
0.0314566553606
0.0314506841144
0.031450638129
0.031456529922
0.0314649810327
0.0314651456607
0.0314269855659
0.0312765075602
0.0308575874077
0.0298279780957
0.0278276230536
0.0279619224444
0.0279417063076
0.0278191415565
0.0298215919121
0.0308527320447
0.0312784973833
0.0314294922702
0.0314652173352
0.0314615631331
0.0314497808994
0.0314418957478
0.0314418552388
0.0314496606742
0.0314613810117
0.0314650049194
0.0314292613645
0.0312782473076
0.0308523013783
0.0298211955494
0.0278188170525
0.0279413688765
0.0279235232204
0.0278105373866
0.0298136323649
0.0308450782455
0.0312733416127
0.0314233204078
0.0314565684196
0.0314496965581
0.0314348089586
0.0314250970015
0.0314250663976
0.031434710903
0.0314495207163
0.0314563555164
0.0314230920083
0.0312730921075
0.0308446368253
0.0298132178573
0.0278101865376
0.0279231001437
0.0279134564558
0.0278059634338
0.0298094180225
0.0308409886275
0.0312696031657
0.0314187228004
0.0314504521414
0.0314417498706
0.031425088071
0.0314142884649
0.0314142434813
0.0314249938268
0.0314415961478
0.0314502627536
0.0314185173689
0.0312693744264
0.0308405667781
0.0298090112423
0.0278056080458
0.0279129891007
0.0279137612908
0.0278060996069
0.0298095207873
0.0308410712292
0.0312696613811
0.0314187802552
0.0314505133704
0.031441823378
0.0314251929574
0.031414410821
0.0314143816572
0.0314251212771
0.0314417087464
0.031450366309
0.0314186151989
0.0312694713053
0.0308406988443
0.0298091462045
0.0278057631335
0.0279133139468
0.0279243311129
0.0278109161972
0.0298139220733
0.0308453101424
0.0312735008151
0.0314234624619
0.0314567103242
0.0314498762989
0.0314350547447
0.0314253760206
0.0314253712891
0.0314350244917
0.0314498108046
0.0314566191679
0.0314233527519
0.0312733615073
0.0308450058221
0.0298135989086
0.027810621279
0.0279239665939
0.0279428369342
0.0278197050517
0.0298220312785
0.0308530796334
0.0312787270083
0.0314296763718
0.0314653768004
0.0314617887416
0.0314500670197
0.0314422220424
0.0314422258395
0.0314500637474
0.0314617692077
0.0314653444106
0.031429621175
0.0312786387478
0.0308528456582
0.0298217647049
0.0278194594932
0.0279425764157
0.0279634605797
0.0278285948179
0.0298288829558
0.0308584129252
0.0312770358951
0.0314274134915
0.0314655332108
0.0314654118269
0.0314569567916
0.031451024446
0.0314510353778
0.0314569813523
0.0314654357044
0.0314655469364
0.0314274038987
0.0312769881992
0.0308582380241
0.0298286673789
0.0278283956273
0.0279632961991
0.027967674506
0.0278218874747
0.0298142904511
0.0308377110466
0.0312466699304
0.0313892723702
0.0314275902877
0.0314300026038
0.0314240095678
0.0314195347272
0.0314195544096
0.0314240608721
0.0314300663581
0.0314276435253
0.0313892974993
0.0312466131896
0.0308375771452
0.0298141162046
0.0278217283826
0.0279675893579
0.0278956390246
0.0277480758712
0.0297172397882
0.030722478136
0.0311218156364
0.0312468995009
0.0312774182393
0.0312793111544
0.0312743116904
0.031270660157
0.0312706863207
0.0312743829344
0.0312794028285
0.031277501867
0.0312469390296
0.031121781646
0.0307223741978
0.029717094365
0.0277479431096
0.0278956023789
0.027569070954
0.0274622033743
0.0293825305166
0.0303459835148
0.0307226341826
0.0308381105279
0.0308590911569
0.0308540667439
0.0308466081322
0.0308426228735
0.0308426606122
0.030846707274
0.0308541887019
0.0308591951787
0.0308381637199
0.0307226144367
0.0303458938043
0.0293823932025
0.0274620661335
0.0275690188153
0.0265352286966
0.0266287851291
0.0284872569956
0.0293825583922
0.0297174169982
0.0298147071171
0.0298295929536
0.0298230653939
0.029815280806
0.0298111490119
0.029811190142
0.0298153905985
0.0298232022158
0.0298297105254
0.0298147673968
0.029717398863
0.0293824612282
0.0284870963411
0.0266285904616
0.0265350502225
0.0239140054742
0.0247424770063
0.0266287740176
0.0274621572633
0.027748150777
0.0278222043137
0.0278292285638
0.0278207025319
0.027812291278
0.0278078015533
0.0278078520747
0.0278124281222
0.0278208772164
0.0278293841559
0.0278222946245
0.0277481512224
0.027462065477
0.0266285982677
0.024742225989
0.0239136593319
0.0191913837505
0.0239142804639
0.0265350843853
0.0275686536695
0.027895313241
0.0279676897997
0.0279639883255
0.0279440161227
0.0279262569873
0.0279163847279
0.0279164721499
0.027926489136
0.0279443056996
0.0279642395182
0.0279678341865
0.027895324715
0.0275685512691
0.0265349157081
0.0239141351151
0.0191913312255
0.0195716881733
0.0264567193775
0.0307193034718
0.0325931205813
0.0332620322527
0.0334427028447
0.0334599535499
0.0334368274749
0.0334135532716
0.0334008619357
0.0334007427385
0.0334132354981
0.0334363895516
0.0334594843686
0.0334422765817
0.0332616969008
0.0325928823993
0.0307191614371
0.0264567172885
0.0195718100101
0.0264560713887
0.0265745448427
0.0284423229676
0.0293456123925
0.0296894350297
0.0297962103683
0.0298195273571
0.0298190289386
0.0298145394943
0.0298116487973
0.0298116130699
0.0298144433794
0.0298188951842
0.0298193816919
0.0297960732208
0.0296893168999
0.0293455111363
0.028442229525
0.0265744296065
0.0264558644035
0.0307187482448
0.0284421752935
0.0296198357992
0.0302696885607
0.0305350105623
0.0306249659949
0.0306486306937
0.0306513893416
0.0306494995985
0.0306479315082
0.0306479089835
0.0306494377583
0.0306513006735
0.0306485295113
0.0306248628885
0.0305349101349
0.0302695880068
0.0296197283493
0.0284420467934
0.0307185446342
0.0325923520774
0.0293453867668
0.0302695803917
0.0308221733024
0.0310553253994
0.0311383239169
0.0311629776675
0.0311681290484
0.0311680426575
0.0311673493667
0.0311673332151
0.0311679970721
0.0311680615817
0.0311628965558
0.0311382329889
0.031055228941
0.0308220705831
0.0302694703542
0.0293452764295
0.0325921842682
0.0332605567715
0.0296890199037
0.0305347715759
0.0310552118087
0.0312767434601
0.0313577534192
0.0313847479518
0.0313929560165
0.0313949705431
0.0313952163173
0.0313952069886
0.0313949426002
0.0313929131152
0.0313846900823
0.0313576697627
0.031276640861
0.0310550971844
0.0305346481212
0.029688904155
0.0332603286815
0.0334403269089
0.0297955422757
0.0306245853913
0.0311380958993
0.0313576425056
0.0314411198667
0.0314715400665
0.0314829729262
0.0314874780078
0.031489023598
0.0314890165713
0.0314874551808
0.0314829375718
0.0314714931694
0.0314410482739
0.0313575360728
0.0311379652174
0.0306244409113
0.0297953999709
0.0334399645947
0.0334567058502
0.0298186096021
0.0306481180431
0.0311626453852
0.0313845445078
0.0314714546909
0.0315056034565
0.0315210840804
0.031529215522
0.0315327513101
0.0315327425474
0.0315291896015
0.0315210484504
0.0315055576496
0.0314713828038
0.0313844412635
0.0311625004696
0.0306479519162
0.0298184337937
0.033456190032
0.0334328704627
0.0298179086384
0.0306507703345
0.0311677092907
0.0313926718609
0.0314828483782
0.0315211405782
0.0315416101809
0.031554161115
0.0315601342778
0.031560127622
0.031554144741
0.0315415777119
0.0315210906722
0.0314827660742
0.031392560724
0.0311675515098
0.0306505869655
0.029817703466
0.0334322197668
0.0334091638501
0.0298132958983
0.030648816461
0.031167562012
0.0313946073182
0.0314872445958
0.0315291692217
0.0315540882095
0.03157059178
0.0315787595387
0.0315787571967
0.0315705878648
0.0315540575903
0.0315291160354
0.0314871605042
0.0313944927423
0.0311673985013
0.0306486240437
0.0298130728787
0.0334084206136
0.0333964568981
0.029810398686
0.0306472472159
0.0311668588009
0.0313948198054
0.0314887078433
0.0315325663096
0.0315599653265
0.0315786653429
0.0315880902365
0.0315880892114
0.0315786600421
0.0315599363374
0.0315325130372
0.0314886297693
0.0313947085843
0.0311666976708
0.0306470552686
0.0298101726618
0.0333956813109
0.0333968099719
0.0298104903504
0.0306472939553
0.0311668878774
0.0313948402417
0.0314887241972
0.0315325789671
0.0315599785209
0.0315786890915
0.0315881084998
0.0315881151585
0.0315786928687
0.0315599633051
0.0315325374546
0.0314886547252
0.0313947361744
0.0311667362079
0.030647111334
0.0298102763761
0.0333960709774
0.0334101604745
0.0298135548312
0.0306489489718
0.0311676437095
0.0313946606371
0.0314872814978
0.0315291899655
0.0315541136432
0.0315706296363
0.0315787800131
0.0315787922489
0.0315706475063
0.0315541162524
0.0315291688395
0.0314872243779
0.031394568108
0.0311675070021
0.0306487830634
0.0298133650717
0.033409521597
0.0334343737248
0.0298182986345
0.0306509716371
0.0311678298133
0.0313927410845
0.0314828774472
0.0315211433547
0.0315416307986
0.0315541849044
0.0315601478292
0.031560160507
0.0315542092835
0.0315416460926
0.0315211363264
0.0314828347143
0.0313926637234
0.0311677112429
0.0306508254809
0.0298181382706
0.0334338676233
0.0334585672869
0.0298190929213
0.0306483707397
0.0311627922037
0.0313846216251
0.0314714770273
0.0315055983568
0.0315210978939
0.0315292269237
0.0315327534477
0.0315327653771
0.0315292509751
0.0315211198796
0.0315056049407
0.0314714532241
0.0313845617069
0.0311626920374
0.0306482438388
0.0298189617253
0.033458199638
0.0334424125309
0.0297960894188
0.0306248780441
0.0311382631475
0.0313577312794
0.0314411395057
0.0314715135546
0.0314829346052
0.0314874286417
0.0314889733556
0.0314889881251
0.0314874636574
0.0314829717474
0.0314715340434
0.0314411314051
0.0313576846707
0.0311381788227
0.0306247678849
0.0297959834649
0.0334421717505
0.0332627352005
0.0296896133702
0.0305351024459
0.0310553979932
0.0312768398238
0.0313577806916
0.0313847187362
0.0313928999845
0.0313949058948
0.0313951622541
0.0313951772556
0.0313949433644
0.0313929433343
0.0313847487375
0.0313577841487
0.031276805423
0.0310553269214
0.0305350057252
0.0296895216866
0.0332625855111
0.0325944761196
0.0293460374359
0.0302699692095
0.030822394575
0.0310554396158
0.0311383663202
0.0311629742587
0.0311681074261
0.0311680250332
0.0311673561569
0.0311673722362
0.0311680667808
0.0311681578478
0.0311630135238
0.0311383793342
0.0310554167094
0.0308223355033
0.0302698793905
0.0293459328477
0.0325943300405
0.0307206716199
0.0284429406376
0.0296203391183
0.0302699949979
0.0305351825053
0.0306250494577
0.0306486628521
0.0306514039359
0.0306495255399
0.0306479918542
0.030648013429
0.0306495824887
0.0306514759806
0.0306487259479
0.0306250842091
0.0305351774278
0.0302699469155
0.0296202448761
0.0284427809941
0.0307203823741
0.0264574849459
0.0265754815999
0.0284430231627
0.0293460867076
0.0296897364034
0.0297963848916
0.029819622082
0.0298190972035
0.0298146317184
0.0298118041237
0.0298118493966
0.0298147529367
0.0298192563522
0.0298197748445
0.0297964960591
0.0296897870937
0.0293460728982
0.0284429415916
0.0265752828333
0.0264570431095
0.0195716590961
0.0264580105543
0.0307209147954
0.0325945959176
0.0332631958134
0.0334435243984
0.0334605354331
0.0334373414245
0.0334141773413
0.0334017293849
0.0334019081856
0.0334146562289
0.0334379745343
0.033461155914
0.0334440016588
0.0332634668989
0.0325946670438
0.030720845042
0.0264579082245
0.0195716600568
0.0197176522098
0.0274515790137
0.0325311547197
0.0349022908825
0.0358046594159
0.0360693547632
0.0361066210595
0.0360836288942
0.0360574827222
0.0360431831541
0.0360430591626
0.0360571526298
0.0360831726288
0.0361061347139
0.0360689216667
0.0358043320464
0.0349020727425
0.0325310555929
0.0274516684512
0.0197178361736
0.0274507156068
0.0273762423585
0.0293107256916
0.0302848899227
0.0306747404256
0.0308050096799
0.0308386124024
0.0308422101495
0.0308392181813
0.0308368010098
0.0308367766808
0.0308391522776
0.0308421179365
0.0308385121742
0.0308049150732
0.0306746570403
0.030284816478
0.0293106600477
0.0273761538154
0.0274505373059
0.032530264388
0.02931054992
0.0302497598704
0.0308093776496
0.0310471951462
0.0311339384359
0.0311614183513
0.0311684213804
0.03116931268
0.0311689983031
0.0311689911803
0.0311692927603
0.0311683920856
0.0311613827562
0.0311338962698
0.0310471445165
0.0308093146991
0.0302496807824
0.0293104350872
0.032530039476
0.0349009490163
0.0302846579554
0.0308093014258
0.0311849001968
0.0313479820517
0.0314107505311
0.0314346836925
0.0314442429815
0.0314479131862
0.0314490533509
0.0314490549804
0.0314479145769
0.0314442416602
0.0314346744576
0.0314107264936
0.0313479403776
0.031184838359
0.0308092215623
0.0302845613105
0.0349007157554
0.0358022452508
0.0306743279845
0.0310470345167
0.0313479198622
0.0314772581984
0.0315287083538
0.0315518136553
0.0315645007075
0.031571592703
0.031574679649
0.0315746871501
0.0315716071804
0.0315645154963
0.0315518178178
0.0315286884604
0.0314772143881
0.0313478524841
0.0310469478393
0.0306742295756
0.0358018770808
0.0360656484595
0.0308043273459
0.031133668746
0.0314106075762
0.0315286242384
0.0315773570111
0.0316036586783
0.031622722017
0.0316362436671
0.0316429974724
0.0316430059266
0.0316362629732
0.0316227431984
0.0316036690322
0.0315773373007
0.0315285715961
0.031410529643
0.0311335685946
0.0308042040361
0.0360650587213
0.0361016862347
0.0308376444826
0.0311610259532
0.0314344376284
0.0315516187616
0.0316035522968
0.0316379241583
0.0316684571041
0.0316927527698
0.0317054451105
0.031705452589
0.0316927764939
0.031668484894
0.0316379361934
0.0316035274573
0.0315515538854
0.0314343453834
0.0311609079519
0.0308374849516
0.0361008589414
0.0360777014668
0.0308410004018
0.0311679183535
0.0314439030838
0.0315642137401
0.0316225408844
0.0316683141651
0.0317141719671
0.0317525178482
0.0317727512101
0.0317727619406
0.0317525558216
0.0317142145114
0.0316683358078
0.0316225111399
0.0315641355665
0.0314437958167
0.0311677825919
0.0308408064397
0.0360766750151
0.0360509338365
0.0308378554343
0.0311687390118
0.031447506774
0.0315712164027
0.0316359432876
0.0316924714259
0.0317523440851
0.0318033494278
0.0318300978236
0.0318301041665
0.031803388915
0.0317523979768
0.0316924982366
0.0316359174984
0.0315711343409
0.0314473898034
0.0311685910837
0.0308376398473
0.0360497826535
0.0360365617509
0.0308354137551
0.0311684102461
0.0314486241914
0.0315742528013
0.0316425936603
0.031705061073
0.0317724680011
0.0318299467245
0.0318600072398
0.0318600249818
0.0318299941973
0.0317725215458
0.0317050823607
0.0316425697354
0.0315741695105
0.0314485017809
0.0311682566819
0.0308351927796
0.0360353759384
0.0360370058949
0.0308354998891
0.0311684399534
0.0314486349118
0.0315742561043
0.031642585582
0.03170503721
0.0317724339726
0.0318298865223
0.0318599377238
0.0318599577328
0.0318299474088
0.0317724930185
0.031705057044
0.0316425554288
0.0315741650232
0.0314485073784
0.0311682860501
0.0308352887589
0.0360358806002
0.0360522016508
0.0308381031841
0.0311688246722
0.0314475354098
0.0315712152652
0.0316359046134
0.0316923934809
0.0317522350698
0.0318031852361
0.0318299051801
0.0318299228479
0.0318032408276
0.031752292672
0.0316924161843
0.0316358703043
0.0315711181886
0.031447404878
0.0311686746924
0.0308379111445
0.0360512145034
0.0360796460346
0.0308413773832
0.0311680472801
0.0314439381664
0.0315641904559
0.0316224537872
0.0316681851942
0.0317139875327
0.031752286163
0.0317724897869
0.0317725114969
0.0317523418183
0.0317140440092
0.0316682106917
0.0316224184114
0.0315640952523
0.0314438125611
0.0311679072616
0.0308412117702
0.0360788404234
0.0361041381812
0.0308381133599
0.0311611834425
0.0314344712116
0.0315515713885
0.0316034277276
0.0316377447068
0.0316682219845
0.0316924763295
0.0317051477798
0.0317051675859
0.0316925247641
0.0316682731042
0.0316377696589
0.0316034001648
0.0315514870506
0.0314343574211
0.0311610585542
0.0308379791109
0.0361035316442
0.0360684448172
0.0308048610931
0.0311338487834
0.031410639584
0.0315285614551
0.0315772072337
0.0316034345315
0.0316224514754
0.0316359370252
0.0316426679855
0.0316426871284
0.0316359837234
0.0316225011924
0.0316034588972
0.0315771872872
0.0315284929103
0.0314105431951
0.0311337419168
0.0308047598867
0.0360680367714
0.0358052169635
0.0306749219307
0.0310472502068
0.0313479629698
0.0314771946736
0.031528550426
0.0315515693322
0.0315642048645
0.0315712631219
0.0315743353727
0.0315743529588
0.0315713058289
0.0315642515142
0.0315515932794
0.0315285367597
0.0314771437874
0.0313478862752
0.0310471624284
0.0306748450394
0.0358049807758
0.0349039079116
0.0302853552125
0.0308096023428
0.0311849950887
0.0313479568488
0.0314106336515
0.0314344879233
0.0314439947273
0.0314476382917
0.0314487775973
0.0314487930409
0.0314476776424
0.031444040495
0.0314345177541
0.0314106338997
0.031347926231
0.0311849397952
0.0308095299422
0.0302852756777
0.0349037543878
0.0325329932797
0.0293114551391
0.0302502502819
0.0308096201506
0.0310472888635
0.0311339364345
0.0311613518343
0.0311683183224
0.0311692009913
0.0311689036132
0.0311689249278
0.0311692568339
0.0311683894262
0.031161413527
0.031133971774
0.0310472918822
0.0308095920796
0.0302501904991
0.0293113362931
0.0325327513166
0.0274527421193
0.0273774493219
0.0293115721463
0.0302854565761
0.0306751170245
0.0308052554061
0.0308387745703
0.0308423449385
0.0308393771867
0.0308370248168
0.0308370795856
0.0308395239819
0.0308425404764
0.0308389677995
0.0308054077562
0.0306752111072
0.0302854925572
0.0293115558584
0.0273773225741
0.0274523578255
0.0197175203566
0.0274533986163
0.0325335856241
0.0349046857228
0.0358067146306
0.0360710274975
0.0361080620054
0.0360850786292
0.0360591586417
0.0360452243065
0.0360455084503
0.0360599234485
0.0360861171965
0.0361091301153
0.0360719235695
0.0358073307852
0.0349050175093
0.0325337283446
0.0274534515615
0.0197175620798
0.0197764343424
0.0277928445217
0.0332018432635
0.0358007185328
0.0368187590491
0.0371261027759
0.0371722295442
0.0371478991257
0.0371197534445
0.0371046033323
0.0371044772853
0.0371194235381
0.0371474467548
0.0371717571877
0.0371257058542
0.0368184946696
0.0358005944889
0.0332018819554
0.0277931094116
0.019776669241
0.0277919087637
0.0276587663089
0.0296422695616
0.0306598466953
0.0310771251052
0.0312210550664
0.0312600382197
0.0312651856406
0.0312623195252
0.03125974172
0.0312597244689
0.0312622723256
0.0312651192961
0.0312599670288
0.0312209895955
0.0310770687514
0.0306598012599
0.0296422425758
0.0276587372255
0.0277918563208
0.0332007509192
0.0296420783589
0.0305101586966
0.0310426722535
0.0312732055932
0.0313611579303
0.0313924311288
0.0314028750887
0.0314057006909
0.0314061198823
0.0314061207143
0.0314057024655
0.0314028761724
0.0313924288299
0.0313611447301
0.0312731783076
0.031042629107
0.030510100743
0.0296419925507
0.0332006095012
0.0357989697408
0.0306595772674
0.0310426021247
0.0313510651752
0.0314867715876
0.0315432125007
0.0315697483182
0.0315839930244
0.0315911925988
0.0315939805451
0.0315939924921
0.0315912206236
0.0315840296368
0.0315697785169
0.0315432182955
0.0314867512781
0.0313510189941
0.031042537017
0.0306594941535
0.0357987419791
0.0368156965078
0.0310766547776
0.0312730517782
0.031486709498
0.0315780220133
0.0316194534666
0.0316464999686
0.0316676628958
0.0316817977621
0.0316882816281
0.0316883008183
0.0316818468374
0.0316677281415
0.0316465566552
0.0316194731436
0.0315780023726
0.0314866576009
0.0312729777871
0.0310765618251
0.0368152524253
0.0371214603543
0.0312202665421
0.0313608729439
0.0315430413007
0.0316193329878
0.0316598444137
0.0316967601953
0.0317331138735
0.0317608753478
0.031774350858
0.0317743705684
0.0317609379513
0.0317332053208
0.0316968484732
0.0316598885406
0.0316193155225
0.0315429812015
0.0313607853212
0.0312201389917
0.0371207099253
0.0371661116883
0.0312588999079
0.0313919829778
0.0315694191124
0.0316462071261
0.0316965799075
0.0317541012557
0.0318169843533
0.031867644796
0.0318922982932
0.0318923250208
0.0318677378617
0.0318171238193
0.0317542387625
0.0316966541965
0.0316461896508
0.0315693450806
0.0313918764994
0.0312587249287
0.0371650533633
0.0371405953534
0.031263748815
0.0314022805444
0.0315835349994
0.0316672243893
0.0317327355858
0.0318166049732
0.0319138712825
0.0319955313182
0.0320343194762
0.0320343566412
0.0319956575941
0.0319140536168
0.0318167944087
0.0317328455771
0.0316672092266
0.0315834430734
0.0314021509907
0.0312635285809
0.0371392933102
0.0371116774921
0.0312606940484
0.0314050139015
0.031590643363
0.0316812251602
0.0317603214165
0.0318670126229
0.0319951588589
0.0321049388749
0.032155420862
0.0321554511357
0.0321050607147
0.0319953450624
0.0318672010119
0.0317604343979
0.0316812108653
0.0315905369099
0.0314048671994
0.0312604464643
0.0371102406499
0.0370964022298
0.0312580792868
0.0314054111688
0.0315933849382
0.0316875988708
0.031773605334
0.0318915089182
0.0320337585727
0.0321551588241
0.032210711021
0.0322107458145
0.0321552726102
0.0320339012141
0.0318916483636
0.0317736952244
0.0316875767758
0.0315932676797
0.0314052544842
0.0312578241346
0.0370949427086
0.0370969223858
0.0312581676583
0.0314054283814
0.031593369618
0.0316875480578
0.0317735059054
0.0318913809443
0.0320336117107
0.0321549229198
0.0322104671197
0.0322104999113
0.0321550487787
0.0320337175324
0.0318914766652
0.0317735635239
0.0316875018769
0.0315932365792
0.0314052665665
0.0312579226284
0.0370955476164
0.0371131518231
0.0312609544871
0.0314050666685
0.0315905896752
0.0316810467832
0.0317599779866
0.0318665560181
0.0319946206351
0.0321042663589
0.0321547609509
0.0321547935026