/*--------------------------------*- C++ -*----------------------------------*\
| =========                 |                                                 |
| \\      /  F ield         | OpenFOAM: The Open Source CFD Toolbox           |
|  \\    /   O peration     | Version:  3.0.1                                 |
|   \\  /    A nd           | Web:      www.OpenFOAM.org                      |
|    \\/     M anipulation  |                                                 |
\*---------------------------------------------------------------------------*/
FoamFile
{
    version     2.0;
    format      ascii;
    class       surfaceVectorField;
    location    "0.8";
    object      Uf_0;
}
// * * * * * * * * * * * * * * * * * * * * * * * * * * * * * * * * * * * * * //

dimensions      [0 1 -1 0 0 0 0];

internalField   nonuniform List<vector> 
22672
(
(0.000751063662713 0.000369300171572 -0.000806044242416)
(0.000361215460013 0.000762675336604 -0.000805551670005)
(0.000457810692008 0.000466379302729 -0.00151377195614)
(0.0016145576636 0.000327606909974 -0.000790127425026)
(0.00113239999444 0.0006898167024 -0.00100238047791)
(0.00127219578963 0.000486334716349 -0.00155335434011)
(0.00239057789494 0.000358962389761 -0.000733988545811)
(0.00209537933362 0.000726919214809 -0.00103013088128)
(0.00216026693194 0.000537242149133 -0.00150299928134)
(0.00292332063849 0.000456806237537 -0.000672455205452)
(0.00283340787616 0.000884828577243 -0.000983747953981)
(0.00283732055056 0.000653812585058 -0.00141765110665)
(0.00312805302315 0.000596810149582 -0.000622737040563)
(0.00324864329218 0.00113532587437 -0.000931263135838)
(0.00321064355956 0.000819864546933 -0.00134015917723)
(0.0029829740178 0.00074856545325 -0.000588521834202)
(0.00328398436866 0.00142913049325 -0.000891567410635)
(0.00322487457795 0.0010082648744 -0.00128417257294)
(0.00252199980692 0.000886905867577 -0.000569139431815)
(0.00295408204736 0.00171437842721 -0.000868989548072)
(0.00289247889881 0.00118860345353 -0.00125354297678)
(0.00181539486575 0.000994151537368 -0.000561427308267)
(0.00231913335563 0.00195191152501 -0.000862508228118)
(0.00226762269723 0.00133872816099 -0.00124545942747)
(0.000951384453526 0.00106021911447 -0.0005604807774)
(0.0014734333429 0.00211577471761 -0.000866806864595)
(0.00143991670636 0.00144188805 -0.0012519267997)
(1.30554590204e-05 0.00108272412954 -0.000560998522953)
(0.000510901039916 0.0021982332798 -0.000872499141974)
(0.000499071864606 0.00149372038896 -0.00126007137373)
(-0.000925985729536 0.00106144738693 -0.000560759476682)
(-0.000488392773392 0.00219916174348 -0.000872516910705)
(-0.000477527283548 0.00149435274825 -0.00126028676846)
(-0.00179185514057 0.000996442508675 -0.000562120802598)
(-0.00145203287438 0.00211839633897 -0.000867012138683)
(-0.00141944749452 0.0014436168665 -0.00125268700906)
(-0.00250109344684 0.000890066970888 -0.000570288014222)
(-0.00229983948495 0.00195601921341 -0.00086302078637)
(-0.00224917407518 0.00134139151675 -0.00124693097362)
(-0.00296516222238 0.000752322873336 -0.000590090423045)
(-0.00293747507013 0.00171963086757 -0.000869847527856)
(-0.00287656791049 0.00119195226867 -0.00125570092832)
(-0.00311351396736 0.000600972992663 -0.000624645421045)
(-0.00327029672718 0.00143512689037 -0.000892794538316)
(-0.00321167538212 0.00101200726062 -0.00128690487554)
(-0.00291206894969 0.000461311312322 -0.000674464485576)
(-0.0032379099499 0.00114181721161 -0.000932802330672)
(-0.00320015680566 0.000823893999906 -0.00134338753793)
(-0.0023827873487 0.000363737135448 -0.000735776865069)
(-0.00282552279992 0.000891595119341 -0.000985361895096)
(-0.00282942219472 0.000658059386877 -0.0014210026132)
(-0.00161063701534 0.000331925376757 -0.000792495499468)
(-0.00209012181654 0.000733809407997 -0.00103158452141)
(-0.00215482495034 0.000541704427568 -0.00150609151823)
(-0.000749480673424 0.000372265843129 -0.000810058287976)
(-0.0011313598518 0.000696276135903 -0.00100517881576)
(-0.00127080381713 0.0004899808567 -0.00155757509684)
(-0.000358316005005 0.000769327819302 -0.000809909473459)
(-0.000454420988061 0.000468576407585 -0.00151890227225)
(0.000679450259523 0.00114790302266 -0.0010018879055)
(0.000320013077234 0.00163527588781 -0.000787957001077)
(0.000478549410706 0.00128888949395 -0.0015520855038)
(0.00166551175461 0.00117584306719 -0.00124238393416)
(0.00116304707294 0.0016820217131 -0.00124125372238)
(0.00134454555798 0.00135656599159 -0.00197831120855)
(0.00259341485177 0.0013580064603 -0.00127989028945)
(0.00231992627888 0.00188819583367 -0.00137443720966)
(0.00234208262824 0.00153346909548 -0.00208924059419)
(0.00323235735237 0.00168957963436 -0.00124255588437)
(0.00321518745088 0.00229620803375 -0.00134058914927)
(0.00311240877039 0.00186871555299 -0.00205040223974)
(0.00348208680303 0.00211590695664 -0.00120009350591)
(0.00372286437669 0.00286266524863 -0.00126771031805)
(0.0035372405075 0.00232245572677 -0.0019771690831)
(0.00332330627444 0.00256382308746 -0.00117203512451)
(0.00377487107431 0.00350047080074 -0.0011994578447)
(0.00355637307879 0.00282705465201 -0.0019126787198)
(0.00280094000782 0.00296578016918 -0.00116235834438)
(0.00338822885366 0.00411135806982 -0.00115250751518)
(0.00318108050617 0.00330762676165 -0.00187474841792)
(0.00200651523492 0.00327318325232 -0.00116788778445)
(0.00264654352566 0.0046148409889 -0.00113408418552)
(0.00248258540952 0.00370252717622 -0.00186865232964)
(0.0010455928538 0.00346158083066 -0.00117882522917)
(0.00167094615204 0.00496119069418 -0.00113829213292)
(0.00156763270233 0.00397362346266 -0.00188464958304)
(9.5214553665e-06 0.00352523178675 -0.00118401752973)
(0.000574864270212 0.00513510218214 -0.00114726365913)
(0.000538489348105 0.00410972384094 -0.00190095689358)
(-0.00102705289684 0.0034640139384 -0.00117876957271)
(-0.000556992716725 0.0051364954029 -0.00114708062847)
(-0.000525263538369 0.00411078879007 -0.0019009165963)
(-0.00198942656429 0.00327782711581 -0.00116791212246)
(-0.00165404612753 0.00496524509274 -0.00113786553417)
(-0.00155516483572 0.00397668262066 -0.00188462496851)
(-0.00278596141464 0.0029722523985 -0.0011625803)
(-0.00263146121158 0.00462122500515 -0.00113359509138)
(-0.00247150984876 0.00370729693572 -0.0018688097688)
(-0.00331082146237 0.00257163105954 -0.00117255164313)
(-0.00337549627196 0.00411954651193 -0.00115211339229)
(-0.00317175243636 0.00331367086401 -0.00187518280496)
(-0.00347223527642 0.00212457974454 -0.00120095144794)
(-0.00376473046107 0.00350989836554 -0.00119932270588)
(-0.00354890994937 0.00283392656755 -0.001913476187)
(-0.00322499208882 0.00169871731208 -0.00124369974019)
(-0.00371532273561 0.00287281468633 -0.0012679486482)
(-0.00353157967005 0.00232981276415 -0.00197835568932)
(-0.0025882269347 0.00136731043571 -0.00128116955144)
(-0.00320998066941 0.00230664387267 -0.00134114963267)
(-0.00310824003378 0.00187631095345 -0.00205193019548)
(-0.00166219812928 0.00118524506822 -0.0012442678377)
(-0.00231646542614 0.00189868569049 -0.00137523747957)
(-0.00233892006835 0.00154130360254 -0.00209102597935)
(-0.000677554442894 0.00115819731491 -0.00100503000124)
(-0.00116225704984 0.00169272632687 -0.00124318421598)
(-0.00134336059045 0.00136495036137 -0.00198121896007)
(-0.000318064285204 0.00164795485657 -0.000790997179373)
(-0.000476256192942 0.00129938218705 -0.00155625680102)
(0.000718323624927 0.00211640008056 -0.00102732281796)
(0.000352182997642 0.00241542694698 -0.000729256229168)
(0.000531312540652 0.00218263492276 -0.00149850037572)
(0.00187608002599 0.00233516619328 -0.00137330699788)
(0.0013478563862 0.00261116452721 -0.0012762187235)
(0.00152615916271 0.00235535433914 -0.00208693126449)
(0.00300039209036 0.00276059345321 -0.00143513606948)
(0.00274993379595 0.00301141713569 -0.00143383282702)
(0.00270709771108 0.00271310852604 -0.0022475782316)
(0.00378673851076 0.00339520825995 -0.00136574358296)
(0.00385319638378 0.0036781476537 -0.00135204605406)
(0.00362637004372 0.00330216440717 -0.00216834641966)
(0.00410114051004 0.00416233684499 -0.00126707465685)
(0.00448611940404 0.00455228655537 -0.00119142751656)
(0.00413635190156 0.00406579227535 -0.00200409945651)
(0.00391511980634 0.00495077911504 -0.00117993023538)
(0.00455465757956 0.00551485620181 -0.00102110598675)
(0.00416045411929 0.00490145558379 -0.00182845549403)
(0.00328772293005 0.00565115996109 -0.00112423335633)
(0.00407645245826 0.00642710778615 -0.000882207039966)
(0.00371015991461 0.00569138807579 -0.00168845627779)
(0.00234157655027 0.00618363657454 -0.001104488534)
(0.00316549915116 0.00717291853194 -0.000801699278675)
(0.00287961319269 0.00633663427123 -0.00161204461655)
(0.00121313395563 0.00650907576779 -0.00110673056287)
(0.00198523805335 0.00768379187633 -0.00077705651981)
(0.00180710204911 0.00677859309104 -0.00159427886362)
(8.38171049963e-06 0.00661850252534 -0.00111032675787)
(0.000678918337931 0.00793951470789 -0.000777285525196)
(0.000616853438477 0.00700013860519 -0.00159978334257)
(-0.00119682550889 0.00651201081919 -0.00110617658994)
(-0.000661658194447 0.00794102154792 -0.000776859937893)
(-0.000606736165362 0.0070013446257 -0.00159943980946)
(-0.00232663952919 0.00618928582373 -0.0011035485031)
(-0.00196895828779 0.0076882572301 -0.000775889562946)
(-0.00179766829995 0.00678210325787 -0.00159331172853)
(-0.00327480829095 0.00565907581569 -0.00112312818366)
(-0.00315110797212 0.00718000643395 -0.000800037507392)
(-0.00287143704619 0.00634211694622 -0.00161071553032)
(-0.00390464279978 0.004960385746 -0.00117888445504)
(-0.0040645348946 0.00643627988764 -0.000880338105285)
(-0.00370356513717 0.00569833634621 -0.00168699067997)
(-0.00409326779629 0.00417304930254 -0.00126631990613)
(-0.00454549451023 0.00552553713078 -0.00101934086075)
(-0.0041555431271 0.00490935153236 -0.00182709761105)
(-0.00378131948103 0.00340648411853 -0.00136539854067)
(-0.00447974718089 0.00456392958613 -0.00119003245509)
(-0.00413305489641 0.00407423223154 -0.00200314399243)
(-0.00299712611603 0.00277203993063 -0.0014352175608)
(-0.0038493917556 0.00369020456428 -0.00135117521395)
(-0.00362443736262 0.00331088302476 -0.00216783569336)
(-0.00187448184995 0.0023468975116 -0.00137415385785)
(-0.00274799877037 0.00302369373322 -0.00143357896251)
(-0.00270602114297 0.00272216251921 -0.00224773662874)
(-0.000717768072147 0.00212960357777 -0.00102915139411)
(-0.00134812625459 0.00262431179281 -0.00127716959522)
(-0.00152639531433 0.00236550343398 -0.00208838322104)
(-0.000351440131943 0.00243124898783 -0.000731152436275)
(-0.000530732517975 0.00219606664242 -0.00150110619987)
(0.00087766898303 0.00285483333659 -0.000978152134703)
(0.000450956398474 0.00294737781517 -0.000664910149427)
(0.000649517872154 0.00285987909063 -0.00140962794733)
(0.00228685275605 0.00322864748126 -0.00133674455263)
(0.0016813239189 0.00324733348972 -0.00123609425319)
(0.00186487128704 0.00312340966491 -0.00204536214508)
(0.00367084909775 0.00386075526181 -0.00135074281159)
(0.00338710798785 0.00379354407025 -0.00136187733618)
(0.00330072425974 0.00362862548383 -0.00216614102661)
(0.00464987025643 0.0047520657515 -0.00117772998767)
(0.00474747823721 0.0046522860542 -0.00117653333788)
(0.00442781583146 0.00442481793007 -0.0019531882345)
(0.00504376917395 0.00580331584942 -0.000945458846467)
(0.00553258518296 0.00574992505657 -0.000864015967947)
(0.00505343524665 0.00543762153935 -0.00159157738392)
(0.0048079281772 0.00687058010516 -0.000723382791337)
(0.00561262832581 0.00694379639384 -0.000523058988197)
(0.00507596516979 0.00653539864268 -0.00119314979661)
(0.00401937168052 0.00781090228875 -0.000559672962313)
(0.00500583319386 0.00806696953217 -0.000232476652918)
(0.0045085539807 0.00756584952539 -0.000851365232582)
(0.0028449541288 0.00852151155241 -0.000474267264488)
(0.00386518548046 0.00898086440165 -4.82100176555e-05)
(0.0034780635796 0.00840268819706 -0.000633596165938)
(0.00146576311954 0.00895410606321 -0.000447611482131)
(0.00240939525436 0.00960595234873 2.74011691836e-05)
(0.00216894522861 0.00897420185712 -0.000543043187998)
(8.88090959774e-06 0.00909897224541 -0.000443818705218)
(0.000820187994116 0.00991842451171 4.43183432498e-05)
(0.000736892199828 0.00926029573155 -0.000522104364389)
(-0.00144846300802 0.00895704724763 -0.000446572910898)
(-0.000801333419547 0.00991976915918 4.49071114692e-05)
(-0.000726825410506 0.00926144209436 -0.000521479017495)
(-0.00282916381295 0.00852722292924 -0.000472378567237)
(-0.00239161052008 0.00961006616497 2.92292989329e-05)
(-0.00215962621905 0.00897758954938 -0.000541176996664)
(-0.00400586604354 0.00781896604683 -0.000557247429014)
(-0.00384956404438 0.00898746558056 -4.54723835322e-05)
(-0.00347017702641 0.00840798815451 -0.000630815877873)
(-0.00479721685627 0.00688048257862 -0.000720794511001)
(-0.00499303087065 0.00807564712842 -0.000229293549294)
(-0.0045024812486 0.00757258130283 -0.000848065158459)
(-0.00503602978274 0.00581453250428 -0.000943053409714)
(-0.00560296599893 0.00695408179209 -0.000519768200265)
(-0.0050717953181 0.00654309723727 -0.00118977297787)
(-0.00464505367046 0.00476406657906 -0.00117580912836)
(-0.00552619680047 0.0057613735904 -0.000861006662955)
(-0.00505109585136 0.00544597043851 -0.00158845761086)
(-0.00366855139414 0.00387320838545 -0.00134953661566)
(-0.00474419015044 0.00466441077343 -0.0011742312786)
(-0.00442709826872 0.00443363688029 -0.00195074477922)
(-0.00228641092628 0.00324186867742 -0.00133659469989)
(-0.00338608388472 0.00380623663663 -0.0013605025656)
(-0.00330104494447 0.0036381355977 -0.00216471853894)
(-0.000877959166484 0.0028701043704 -0.000979170637384)
(-0.00168240733636 0.00326134882493 -0.00123614819384)
(-0.00186627174505 0.00313469981346 -0.00204551841839)
(-0.000450798072036 0.00296447177454 -0.000666079325108)
(-0.0006498346132 0.00287540348897 -0.0014111877088)
(0.00112924150781 0.0032662976772 -0.00092285226791)
(0.000591816993256 0.0031467132799 -0.00061245153717)
(0.000816945730988 0.00322928607203 -0.00132856080737)
(0.00285487086853 0.00373145922642 -0.00126122703673)
(0.00210883062743 0.00349132435677 -0.00119104143484)
(0.00232073063394 0.00354353169377 -0.00196960036575)
(0.00454668004145 0.00448810104865 -0.00118766786247)
(0.00415538513422 0.00410187257421 -0.00126093930641)
(0.0040667643565 0.00413343047649 -0.00200012239858)
(0.00574944854233 0.00553119121845 -0.000862819318164)
(0.00579973773586 0.00503975555978 -0.000942159200548)
(0.00544320322538 0.00504490917065 -0.00159023048338)
(0.00623019215153 0.00674669316508 -0.000441616109678)
(0.00674929864341 0.00622377269471 -0.000440945637354)
(0.00620394692866 0.00619248349076 -0.000954592387161)
(0.00592445681468 0.00797206459816 -3.21528497782e-05)
(0.00683451636432 0.00750258344912 0.000107837253199)
(0.00621682211537 0.00742795210161 -0.000253061368011)
(0.00493157894798 0.00904747487147 0.00027898629174)
(0.00607657675062 0.00870198423166 0.000581913406373)
(0.00549950717692 0.00858273321766 0.000357845581268)
(0.00347257580628 0.00985950521364 0.000453458416016)
(0.00467234347092 0.0096793143944 0.000891365630697)
(0.00422047764311 0.0095194607682 0.000760528405923)
(0.00178127832612 0.0103543494831 0.000519330994564)
(0.00290046524834 0.0103511092821 0.00103011739745)
(0.00261897973563 0.0101616397776 0.000946109080676)
(9.93970528895e-06 0.0105199039807 0.000533044159937)
(0.000984198448007 0.0106880079769 0.00106891108801)
(0.000886883329362 0.0104843488988 0.00100171937426)
(-0.00176187238819 0.0103568104265 0.0005207093213)
(-0.000963287252418 0.0106890456948 0.00106949920132)
(-0.000875640175717 0.0104852337525 0.00100249993406)
(-0.00345489927543 0.0098643796306 0.000456135482638)
(-0.00288064968541 0.0103543124428 0.00103228643961)
(-0.00260861064024 0.0101643676067 0.000948750417435)
(-0.00491650705159 0.009054509518 0.000282481496188)
(-0.00465490620269 0.00968449271438 0.00089484234071)
(-0.00421184500581 0.00952377448804 0.000764559558715)
(-0.00591257932501 0.00798089892467 -2.8267238558e-05)
(-0.00606229368695 0.00870912675668 0.000586133448137)
(-0.00549303025439 0.00858833196998 0.000362581249292)
(-0.00622174962149 0.00675693340996 -0.000437721453506)
(-0.00682376600515 0.00751125169148 0.000112374463459)
(-0.00621254762298 0.00743440961702 -0.000248002718481)
(-0.00574452620281 0.00554246557258 -0.000859428813192)
(-0.00674228293432 0.00623375547482 -0.000436559334374)
(-0.00620182608531 0.00619968974558 -0.000949602429175)
(-0.00454481695036 0.00450016434194 -0.00118519722854)
(-0.00579641952348 0.00505074683714 -0.000938500596075)
(-0.00544310859199 0.00505283398258 -0.00158603689241)
(-0.00285512650093 0.00374465096366 -0.00126005605955)
(-0.00415485266748 0.00411374388134 -0.00125846123868)
(-0.00406805372218 0.0041423856592 -0.00199718205766)
(-0.00113007848023 0.00328190043141 -0.000923056881568)
(-0.00211047889693 0.00350482497525 -0.00119019697876)
(-0.00232306184572 0.00355469135521 -0.00196849666787)
(-0.000591976880532 0.00316349756071 -0.000612889545372)
(-0.000817759587048 0.00324521597715 -0.00132907148647)
(0.00142368672346 0.0032944125274 -0.000880640704095)
(0.000744284016229 0.0029924341016 -0.000575859588169)
(0.00100635905657 0.00323622768124 -0.00126936321097)
(0.0034932891022 0.00377669360573 -0.00119075370452)
(0.00255738155727 0.00332482794313 -0.00116078245217)
(0.00282649469479 0.00355671288817 -0.00190305413248)
(0.00550956248879 0.00454998124773 -0.00101543064449)
(0.00494403578893 0.00390921567313 -0.00117198277065)
(0.00490332335871 0.00415236126015 -0.00182356747394)
(0.00694352266667 0.00560430557563 -0.000520285519737)
(0.00686676215809 0.00479751287337 -0.000718667290865)
(0.00654161799333 0.00506239250418 -0.00119167579243)
(0.00750955944503 0.00682454248385 0.000108507725523)
(0.00797452429581 0.00591156794018 -3.07370124513e-05)
(0.00744026809178 0.0061999949368 -0.000253799393829)
(0.0071250024726 0.00805109182515 0.00072190350935)
(0.00806142339843 0.00711163219998 0.00072195758092)
(0.00743756066162 0.00741950714172 0.000775531343928)
(0.00591358693058 0.00912941760537 0.00119429274533)
(0.00715476932676 0.00824241790868 0.00137778705781)
(0.00656014691803 0.00856106535169 0.00167099590586)
(0.00415130648572 0.0099486153984 0.00146802461214)
(0.00549030063357 0.00917065703304 0.00181217190195)
(0.00502009192185 0.00949446958842 0.00227094209441)
(0.00212432630821 0.0104512961274 0.0015796974909)
(0.00340177746923 0.00981484652712 0.00201797852549)
(0.00310841083119 0.0101427025293 0.00256323809481)
(1.09135146898e-05 0.0106198898432 0.00160536612939)
(0.0011522007286 0.0101408363047 0.00208223075378)
(0.00105101866301 0.0104714912111 0.0026605731153)
(-0.00210296786757 0.0104530125964 0.00158107631963)
(-0.00112957110443 0.0101415877758 0.0020827319856)
(-0.00103854541055 0.0104720584393 0.00266132672441)
(-0.00413169983942 0.00995200146966 0.00147099329768)
(-0.00338030178078 0.0098169716588 0.00202009646188)
(-0.00309681578096 0.0101444570845 0.0025660649367)
(-0.00589670834944 0.00913453283027 0.00119849429266)
(-0.00547117051024 0.00917390312302 0.00181554913559)
(-0.0050103998328 0.00949719608117 0.00227559916866)
(-0.00711170697888 0.00805787863866 0.000726775150154)
(-0.00713891634205 0.00824729266446 0.00138253162739)
(-0.00655295104334 0.00856499547788 0.00167684457659)
(-0.00750007360275 0.00683275873481 0.000113536582591)
(-0.00804940070299 0.00711790083348 0.00072723675361)
(-0.0074328832942 0.00742410852101 0.000781739564897)
(-0.00693800512802 0.00561378531527 -0.000515631117257)
(-0.00796651741332 0.00591926736634 -2.53154836023e-05)
(-0.00743794889892 0.00620543385482 -0.000247547766394)
(-0.00550772122002 0.00456053471713 -0.00101176460622)
(-0.00686299653343 0.00480642812465 -0.00071385566939)
(-0.00654170544084 0.00506877969799 -0.00118592052587)
(-0.00349392895387 0.00378862010507 -0.00118860215789)
(-0.00494359645757 0.00391927412088 -0.00116850452911)
(-0.00490518280222 0.00416001612683 -0.00181926256712)
(-0.00142489188674 0.00330888094476 -0.000880029642568)
(-0.00255931384189 0.00333663452193 -0.00115911632293)
(-0.00282947802878 0.00356674419397 -0.00190076781582)
(-0.000744654455693 0.00300747289331 -0.000575586792018)
(-0.0010075406688 0.00325104323105 -0.00126880095419)
(0.00170935934813 0.00295491845596 -0.000856001336246)
(0.000883148884595 0.00251935466173 -0.000554547457668)
(0.00118756626622 0.00289415838162 -0.00123620683556)
(0.00410422659344 0.00338253264448 -0.0011420115183)
(0.00295956173585 0.00279366285657 -0.0011493617163)
(0.00330767969931 0.00317533589718 -0.00186361965617)
(0.00642126237212 0.00406548572335 -0.000875219417018)
(0.0056441052288 0.00327544897907 -0.00111488781309)
(0.00569327290573 0.00369822994699 -0.00168319003906)
(0.00806605580968 0.0049917858008 -0.000229118783579)
(0.00780648575867 0.00400370853832 -0.000553988753331)
(0.00757164646771 0.00449226759262 -0.000850919817878)
(0.00870862108285 0.00606173280269 0.000582712842945)
(0.00905014856033 0.00491406549553 0.000280812739623)
(0.00859493370313 0.00548079406674 0.000354993709243)
(0.00825449023898 0.00714197007974 0.00137784112938)
(0.00914225822836 0.00589684046229 0.00119606569529)
(0.00857958652484 0.0065419381329 0.00166896564167)
(0.00684402241405 0.0080998424419 0.00199566621444)
(0.00811289227267 0.00683159577203 0.00200121680426)
(0.00756306369479 0.00754867046478 0.00282131886857)
(0.0048002434865 0.00883381435399 0.00236212581531)
(0.00622175894241 0.00760365267906 0.00253892161887)
(0.00578759959123 0.00838088304535 0.00361079829738)
(0.00245480866257 0.0092884655157 0.00252051178837)
(0.00385353403531 0.00814241344332 0.00280277727419)
(0.0035847648518 0.00896420917755 0.00401787010978)
(1.16485715158e-05 0.00944212547897 0.00255959660999)
(0.00130466108808 0.00841869457973 0.00289211786609)
(0.00121188944565 0.00926388806112 0.00416529532816)
(-0.00243205914354 0.00928961160324 0.00252175212786)
(-0.00128074093757 0.00841929332193 0.00289281305923)
(-0.0011985165058 0.0092643646024 0.00416599353889)
(-0.00477933635558 0.00883581417589 0.00236465229979)
(-0.00383106569704 0.00814366472895 0.002804759876)
(-0.00357245171342 0.00896522525347 0.0040205802431)
(-0.00682552577087 0.00810283210787 0.00199958647032)
(-0.00620153046822 0.00760526007321 0.00254188002369)
(-0.00577704104986 0.00838219485143 0.00361483869074)
(-0.00823978449922 0.0071462475014 0.00138299323085)
(-0.00809576031613 0.00683394756812 0.00200570249772)
(-0.00755508078789 0.0075506398757 0.00282762245867)
(-0.00869788996387 0.0060673876305 0.000588384687416)
(-0.0091289498866 0.00590049171144 0.00120165628902)
(-0.00857441249082 0.0065445499477 0.00167554747357)
(-0.00805964362857 0.00499879420351 -0.000223540035735)
(-0.00904099754294 0.00491907172761 0.000286814468864)
(-0.00859212175312 0.00548422550738 0.000361998690632)
(-0.00641903579934 0.00407375343643 -0.000870595592281)
(-0.00780195135804 0.0040100438062 -0.000548350357608)
(-0.00757153251958 0.00449678379976 -0.000844153984479)
(-0.00410490815988 0.00339228742143 -0.00113901869415)
(-0.00564339267301 0.00328300778921 -0.00111060624589)
(-0.00569531426767 0.00370411931789 -0.00167776774435)
(-0.00171073556357 0.00296715347074 -0.00085467347238)
(-0.00296150175966 0.00280291406616 -0.00114697516252)
(-0.00331100363917 0.00318352595601 -0.0018603329774)
(-0.000883612056805 0.0025315274217 -0.000553658695436)
(-0.00118898432891 0.00290675090305 -0.00123469831028)
(0.0019469893201 0.00230862352375 -0.000847907837717)
(0.000990556816068 0.00179858378728 -0.000545473946218)
(0.00133819582481 0.0022578438156 -0.00122611929361)
(0.00460738292302 0.00263303853485 -0.00112223801109)
(0.00326663803638 0.00198980564195 -0.00115366534569)
(0.00370278240659 0.00247107505815 -0.00185642774588)
(0.00716641584491 0.0031487412144 -0.000793657149405)
(0.00617561336049 0.00232315134706 -0.00109411175867)
(0.00633823906161 0.0028653913673 -0.00160663257987)
(0.00898012411503 0.00384581350291 -4.40572301286e-05)
(0.00851574002692 0.00282405628142 -0.000467805622309)
(0.00840836959201 0.00346105278455 -0.000633967543756)
(0.00968896118484 0.00465174987861 0.000894165591963)
(0.00986149859821 0.00344888219542 0.000455493793676)
(0.0095334968878 0.00420128628968 0.00075641637283)
(0.00918799553917 0.00547120828126 0.00181944137016)
(0.00996326433765 0.00412573544804 0.0014705094142)
(0.00951941052382 0.00500090613165 0.00227212073625)
(0.00761754437662 0.00620446807664 0.00254447220869)
(0.00884914128711 0.00477469194962 0.00237188667446)
(0.0084002472662 0.00577215386056 0.0036273853639)
(0.00534157505904 0.00677048599763 0.00297957307775)
(0.00678799912847 0.00531685414559 0.00297960756143)
(0.00642966359173 0.00641464012841 0.00456277930875)
(0.00273264634502 0.00712511795618 0.00317438335191)
(0.00420801126833 0.00570071214975 0.00328573879124)
(0.0039849113084 0.00686783074515 0.00505062561757)
(1.2207767606e-05 0.00724662244412 0.00322533431533)
(0.00142616832309 0.00590300382097 0.00339910958648)
(0.00134840177219 0.0071059130271 0.00523611479544)
(-0.0027090678369 0.00712585997995 0.00317582080737)
(-0.00140134206835 0.00590315342885 0.00340031435617)
(-0.0013342729579 0.00710637420031 0.00523739852471)
(-0.00531995229899 0.0067713495444 0.0029819875999)
(-0.0041852742094 0.00570116156914 0.00328811655025)
(-0.00397233981968 0.00686856980794 0.00505337610259)
(-0.00759822727096 0.00620541423518 0.00254799605109)
(-0.00676758382139 0.00531681735625 0.00298225089913)
(-0.00641893059507 0.00641486271316 0.00456671729515)
(-0.00917207080506 0.00547292494842 0.00182436555589)
(-0.00883120507383 0.00477477971909 0.00237556987871)
(-0.00839186329085 0.0057722861573 0.00363302626573)
(-0.00967705103867 0.00465471807025 0.000900086070464)
(-0.0099487592975 0.00412677239066 0.00147594436444)
(-0.00951365205793 0.00500175171441 0.00227873291649)
(-0.00897264573133 0.00385009269978 -3.79958530097e-05)
(-0.00985118953512 0.00345119048162 0.000461713976492)
(-0.0095300958682 0.00420292106035 0.000763532301369)
(-0.00716351772706 0.00315428416789 -0.000788361011219)
(-0.00851026150327 0.00282758663369 -0.000461668143471)
(-0.00840775759641 0.00346369839168 -0.000626586577182)
(-0.00460778700951 0.00263999016149 -0.00111856271426)
(-0.0061743502252 0.00232784981352 -0.00108924843016)
(-0.00634009944735 0.00286932276478 -0.00160045649007)
(-0.00194835035936 0.00231778276812 -0.000845960385576)
(-0.00326834388441 0.00199590147143 -0.00115072118841)
(-0.00370616623502 0.00247694889725 -0.00185227684188)
(-0.000990976644526 0.00180713844117 -0.000544056024268)
(-0.0013397099615 0.00226736362521 -0.00122385263196)
(0.00211044397529 0.00145066890906 -0.000851231454186)
(0.00105634382649 0.0009195998761 -0.000543898375156)
(0.00144134933992 0.00141771423722 -0.00123134015842)
(0.00495259551708 0.00164966192358 -0.00112553909327)
(0.00345394708326 0.00101946527561 -0.00116402784856)
(0.00397329132328 0.00155080424874 -0.00187168304728)
(0.00767531153624 0.0019631153999 -0.000768260231579)
(0.00649909264291 0.0011891756281 -0.00109584032888)
(0.00677883264488 0.00179181451525 -0.00158862122163)
(0.00960282820314 0.00238479058267 3.17454014959e-05)
(0.00894556304214 0.00144076143832 -0.000440897339238)
(0.00897787472257 0.00215254967711 -0.000544121610777)
(0.0103588340132 0.00287264870528 0.00103183761592)
(0.0103531369721 0.00175318134024 0.000520698078728)
(0.0101736957329 0.00259981224084 0.000939771174713)
(0.0098317659479 0.00337096080102 0.00202295471851)
(0.0104631279188 0.00209263293605 0.00157953021347)
(0.0101668571499 0.00308598327917 0.00256022125374)
(0.00815713872042 0.00382200020086 0.0028070220272)
(0.00930351542733 0.00241953371367 0.00252562055099)
(0.00898478973947 0.00355954408154 0.00402981133471)
(0.00572566608337 0.00417737248796 0.00328577327492)
(0.00714397086562 0.0026980090679 0.00317306033435)
(0.00688416723401 0.00396138654902 0.00505032151254)
(0.00293442362485 0.00440603953942 0.00351046502581)
(0.00443685379399 0.00290017625417 0.00351055513647)
(0.00427524065856 0.00425228330247 0.00559176461335)
(1.25489759311e-05 0.00448586052973 0.00357408962733)
(0.00150609677074 0.00301006609893 0.00364827457579)
(0.00144998965431 0.00441113522881 0.00581478795965)
(-0.0029105247891 0.00440577149711 0.00351261009905)
(-0.00148145172597 0.00300935972129 0.00364909971927)
(-0.00143519605714 0.00441077303204 0.00581684077949)
(-0.00570436939925 0.00417688011677 0.00328837984947)
(-0.00441425765365 0.00289916694762 0.00351311124359)
(-0.00426297945073 0.00425210498188 0.00559581830924)
(-0.00813769519679 0.00382118809041 0.00280982472674)
(-0.00712381338191 0.00269655188097 0.00317530362925)
(-0.00687408804317 0.00396062714309 0.00505358276814)
(-0.00981491677091 0.0033704511392 0.00202714868726)
(-0.00928524047784 0.0024178954925 0.0025285409051)
(-0.00897618704828 0.00355852264058 0.00403411447495)
(-0.0103457758847 0.00287305462497 0.00103757227047)
(-0.0104477374959 0.0020913638814 0.00158433448314)
(-0.0101603915448 0.00308542600019 0.00256629844176)
(-0.00959426929531 0.00238633809762 3.80416860303e-05)
(-0.0103417530133 0.00175288932334 0.000526862903968)
(-0.0101696277128 0.0026000012419 0.000946853385632)
(-0.00767157597523 0.00196577267352 -0.000762555562412)
(-0.00893908239251 0.00144147445139 -0.000434629150815)
(-0.0089766467203 0.00215355115612 -0.00053648859287)
(-0.00495251882784 0.00165348558621 -0.00112140690431)
(-0.00649707377221 0.00119088272479 -0.00109064956177)
(-0.00678026998995 0.00179381461506 -0.00158196010135)
(-0.00211158252937 0.00145623989008 -0.000848816827106)
(-0.00345521276749 0.00102215088158 -0.00116071154037)
(-0.00397649766746 0.0015541484816 -0.00186702162213)
(-0.00105659627762 0.00092405907155 -0.000542070141737)
(-0.00144282405203 0.00142363049082 -0.00122838504913)
(0.00219188729713 0.000476071859587 -0.00085669476953)
(0.00107807848084 -3.30133008756e-05 -0.000544546274973)
(0.00149256646342 0.000464561747804 -0.00123914071509)
(0.00512448836132 0.000546431704394 -0.00113432908417)
(0.00351572898062 -2.5150806242e-05 -0.00116939686687)