/*--------------------------------*- C++ -*----------------------------------*\
| =========                 |                                                 |
| \\      /  F ield         | OpenFOAM: The Open Source CFD Toolbox           |
|  \\    /   O peration     | Version:  3.0.1                                 |
|   \\  /    A nd           | Web:      www.OpenFOAM.org                      |
|    \\/     M anipulation  |                                                 |
\*---------------------------------------------------------------------------*/
FoamFile
{
    version     2.0;
    format      ascii;
    class       volScalarField;
    location    "3.7";
    object      ddt0(epsilon);
}
// * * * * * * * * * * * * * * * * * * * * * * * * * * * * * * * * * * * * * //

dimensions      [0 2 -4 0 0 0 0];

internalField   nonuniform List<scalar> 
7968
(
-0.000349501826996
-0.000394688447336
-0.000428406582054
-0.000447127017951
-0.000456005623358
-0.000459135992518
-0.00045927514595
-0.000458356398885
-0.000457262473843
-0.000456476616928
-0.000456481892258
-0.00045727193299
-0.000458370058558
-0.000459294079921
-0.000459158008051
-0.000456029481019
-0.000447147948512
-0.000428422926411
-0.000394704267543
-0.000349509325409
-0.000394683296104
-0.000620648046291
-0.00078190653913
-0.000876853844741
-0.000926741666982
-0.00094797891057
-0.000953103477587
-0.000951834498735
-0.000949625538555
-0.000948416839486
-0.000948419439994
-0.0009496331596
-0.000951850661105
-0.00095313056091
-0.000948019128614
-0.000926800308329
-0.000876918097147
-0.000781962750643
-0.000620693385623
-0.000394699418567
-0.000428390800091
-0.00078188594942
-0.00104387546859
-0.00120451116695
-0.00129316803735
-0.00133392958886
-0.00134660287969
-0.00134717885976
-0.00134520900412
-0.00134414664879
-0.0013441420952
-0.00134519582117
-0.00134716482712
-0.00134659434746
-0.00133393821265
-0.00129320846223
-0.00120457435977
-0.00104394133059
-0.00078193945995
-0.000428410764407
-0.000447089104339
-0.000876781804996
-0.00120446640283
-0.00140803230589
-0.0015198013727
-0.00156886940041
-0.00158197878127
-0.00158007748916
-0.0015753080676
-0.00157306422475
-0.00157305409395
-0.00157526780339
-0.00158002435737
-0.00158192008706
-0.00156882090422
-0.00151979327066
-0.00140806205169
-0.00120451409119
-0.000876827925081
-0.000447110751248
-0.000455937797574
-0.000926618665261
-0.0012931017868
-0.00151981594886
-0.00163873185057
-0.00168449644445
-0.00170418533721
-0.00171340845819
-0.00171449048933
-0.0017139565204
-0.0017139561737
-0.00171447987045
-0.00171339241228
-0.00170415934978
-0.0016844151713
-0.00163867162384
-0.00151979451559
-0.00129311097283
-0.000926641415211
-0.000455955739083
-0.000459037882798
-0.000947836806739
-0.00133392061294
-0.00156905255316
-0.00168473922959
-0.00175049289963
-0.00178253683697
-0.00179066235199
-0.0017895261351
-0.00178763499133
-0.00178763984268
-0.0017895272443
-0.00179065027527
-0.00178250912022
-0.00175044620204
-0.00168465069313
-0.00156898054053
-0.00133388287047
-0.000947824813872
-0.000459046061076
-0.000459152711349
-0.000952979869356
-0.00134672909902
-0.00158245145239
-0.00170442910088
-0.00178265599927
-0.00181288866938
-0.00181572700223
-0.00181010691707
-0.00180591278715
-0.00180592259052
-0.00181012030802
-0.00181572568527
-0.00181286527175
-0.00178261417576
-0.00170436889028
-0.0015823667324
-0.00134666372232
-0.000952940294114
-0.000459151388368
-0.000458210668362
-0.000951729659018
-0.00134743142526
-0.0015808340893
-0.00171378069927
-0.00179085033369
-0.00181571833403
-0.00181216826089
-0.00180128563445
-0.00179442851399
-0.00179443679868
-0.00180129825371
-0.00181216761321
-0.00181570391619
-0.00179082149501
-0.00171373668182
-0.00158078784079
-0.00134736576431
-0.000951673987976
-0.0004582004539
-0.000457096943112
-0.000949505792773
-0.00134548703331
-0.001576210395
-0.00171497507613
-0.00178974863012
-0.001810008643
-0.00180112301504
-0.00178631484962
-0.00177771311183
-0.00177771608971
-0.00178632860317
-0.00180114291692
-0.00181002046967
-0.00178974691134
-0.00171496160696
-0.00157623269524
-0.0013454462776
-0.000949446628373
-0.000457078477852
-0.000456301511218
-0.000948261385436
-0.00134432441347
-0.00157373203899
-0.0017144199836
-0.00178790504331
-0.00180584148681
-0.0017942527235
-0.00177764680011
-0.00176810062403
-0.00176812529991
-0.00177770581615
-0.00179432095551
-0.00180589342027
-0.0017879391406
-0.00171443711417
-0.00157380704461
-0.00134431752443
-0.000948207548264
-0.000456276980458
-0.000456323898533
-0.000948274770913
-0.00134428992573
-0.00157365387399
-0.00171444633688
-0.00178795862561
-0.0018059079764
-0.00179431603164
-0.00177768501274
-0.00176813381688
-0.00176818148473
-0.00177779756245
-0.00179443472485
-0.00180600120254
-0.00178803246439
-0.00171450660747
-0.00157381206858
-0.00134432410337
-0.000948228484027
-0.000456294227988
-0.000457146522231
-0.000949533036189
-0.00134537349725
-0.00157592850804
-0.00171502197849
-0.00178989981021
-0.00181021298822
-0.00180134524209
-0.00178652504214
-0.00177793969598
-0.00177798273264
-0.0017866363266
-0.00180147520201
-0.00181033640536
-0.00179001854837
-0.00171515664459
-0.00157624336149
-0.00134546856921
-0.000949506869203
-0.000457117714314
-0.000458272154446
-0.000951781534351
-0.00134730998102
-0.00158054843281
-0.00171392040316
-0.00179112666863
-0.00181607816724
-0.00181255916823
-0.00180169471747
-0.00179488117235
-0.00179491516142
-0.00180178177646
-0.00181267026556
-0.00181620643661
-0.00179126628903
-0.00171407096004
-0.00158087266929
-0.00134742191641
-0.000951767536391
-0.000458246479595
-0.00045921996608
-0.000953074249545
-0.00134666224449
-0.00158222572615
-0.00170463067937
-0.00178304291329
-0.00181339715765
-0.00181628984024
-0.00181068901831
-0.00180652889635
-0.00180655324824
-0.00181075083893
-0.00181637727539
-0.00181351430446
-0.00178319200514
-0.00170480731782
-0.00158252114651
-0.00134675436965
-0.00095305535183
-0.000459196038966
-0.000459107273018
-0.000947986530234
-0.00133395941207
-0.00156895037979
-0.00168475397963
-0.00175092177774
-0.00178314201702
-0.00179136160125
-0.00179027249814
-0.00178840853078
-0.00178842483595
-0.00179031601624
-0.00179143032161
-0.00178324999381
-0.0017510974547
-0.00168510480949
-0.00156915266025
-0.00133399475304
-0.000947950418524
-0.000459085800891
-0.00045600536648
-0.000926813104153
-0.00129323853557
-0.00151984679796
-0.00163880597979
-0.00168485933384
-0.00170478738122
-0.00171414374659
-0.00171529996324
-0.00171476503154
-0.00171477473863
-0.00171533069375
-0.00171420066252
-0.00170489226663
-0.00168511003399
-0.0016390148097
-0.00151991996312
-0.00129321155294
-0.000926760396274
-0.000455987038963
-0.000447142325835
-0.000876979928731
-0.00120465585498
-0.0014081564316
-0.00151991884124
-0.00156912057448
-0.00158247636192
-0.00158080927341
-0.00157615554148
-0.00157386107925
-0.00157386911048
-0.00157618333066
-0.00158087180018
-0.00158258816387
-0.00156924374527
-0.00151998531345
-0.00140814380132
-0.00120459610878
-0.000876924736102
-0.000447129148408
-0.00042842629025
-0.000782052303856
-0.00104406428231
-0.00120467713647
-0.00129331890363
-0.00133411876894
-0.00134689189448
-0.00134757498904
-0.00134564534067
-0.00134456226333
-0.00134457433595
-0.0013456768188
-0.00134762663341
-0.00134695881749
-0.00133417729974
-0.00129333513592
-0.00120464589479
-0.00104400839408
-0.000782007839602
-0.000428416182413
-0.000394703274158
-0.000620754034955
-0.000782038708695
-0.000876987003403
-0.000926866254271
-0.000948103242956
-0.000953255590298
-0.000952019928697
-0.000949821286383
-0.000948608176349
-0.00094862328352
-0.000949862720165
-0.000952080062418
-0.000953321355177
-0.000948155666005
-0.000926886511023
-0.000876972727957
-0.000782004290618
-0.000620725099347
-0.000394695735226
-0.000349504437273
-0.000394704040248
-0.000428424895469
-0.000447143021168
-0.000456016739226
-0.000459137210397
-0.000459271242736
-0.000458349573142
-0.00045725327162
-0.000456468269143
-0.000456478354597
-0.000457275654628
-0.00045837757764
-0.000459298457558
-0.000459157221524
-0.000456026125727
-0.000447141779067
-0.00042841674373
-0.000394697650018
-0.000349501948153
-0.00038862500595
-0.000590279091478
-0.000741324366049
-0.000834118399241
-0.000885736312847
-0.000910292858341
-0.000918687732656
-0.000919182318759
-0.000917161112875
-0.000915520510955
-0.000915524282195
-0.000917170281899
-0.0009191972851
-0.000918708491594
-0.000910316712447
-0.000885761925535
-0.00083413850586
-0.00074133543255
-0.000590288698167
-0.000388631310021
-0.000590245344588
-0.000696652360656
-0.000828186944857
-0.000916748713621
-0.000968785086805
-0.000995198227835
-0.00100579753378
-0.00100833633406
-0.00100798358158
-0.00100735612201
-0.00100735648105
-0.00100798390133
-0.0010083387935
-0.00100580338325
-0.000995208116273
-0.000968799731644
-0.000916763924713
-0.000828198114391
-0.000696659172402
-0.000590249756409
-0.000741263990032
-0.000828153643329
-0.000973888426111
-0.0010778904375
-0.00114167815405
-0.00117548524577
-0.00118998339217
-0.00119417443618
-0.00119435612432
-0.00119389466904
-0.00119389370237
-0.00119435202876
-0.00119417047765
-0.00118998103075
-0.00117548714981
-0.00114168698001
-0.00107790271641
-0.000973898456338
-0.000828158510721
-0.000741266811006
-0.000834018128723
-0.000916677125474
-0.00107785342346
-0.00119662029226
-0.00127128135956
-0.00131177637307
-0.00132997945962
-0.0013356355245
-0.00133561241176
-0.00133509930721
-0.00133509783973
-0.00133560418041
-0.00133562633085
-0.00132996773716
-0.00131176550399
-0.00127127675143
-0.00119661986046
-0.00107785288251
-0.000916675132952
-0.000834018191574
-0.000885591826401
-0.000968678078857
-0.00114161402654
-0.00127126211945
-0.00135357607612
-0.00139876636325
-0.00142222848606
-0.00143209844312
-0.00143462441243
-0.00143478887931
-0.00143479117477
-0.00143462513068
-0.00143209694019
-0.00142221950348
-0.00139874600357
-0.00135355402943
-0.00127124264416
-0.00114159585605
-0.000968662940904
-0.000885580244925
-0.000910115818133
-0.000995070178546
-0.00117541958605
-0.00131177472819
-0.00139878081968
-0.00145245099524
-0.0014813462411
-0.00149348446879
-0.00149681891306
-0.00149718806945
-0.00149719302097
-0.00149682337165
-0.00149348234106
-0.00148133396788
-0.00145242491112
-0.00139874327308
-0.00131173452587
-0.0011753810197
-0.00099503767942
-0.00091008476268
-0.000918499328684
-0.0010056651261
-0.00118993949718
-0.00133001956517
-0.00142222868207
-0.00148133281351
-0.00151305452839
-0.00152602456642
-0.00152924730212
-0.00152946941149
-0.00152947470031
-0.00152924835906
-0.00152601637888
-0.0015130342141
-0.00148129903833
-0.00142218420221
-0.00132996700933
-0.00118988576162
-0.00100561700641
-0.000918450374273
-0.000918987294704
-0.0010082047043
-0.00119415552323
-0.00133571850312
-0.00143209045082
-0.00149342456991
-0.001525979871
-0.0015385011201
-0.00154075022018
-0.0015403676407
-0.00154036893901
-0.00154073826623
-0.00153847053573
-0.00152594128344
-0.00149337666529
-0.00143203841077
-0.00133566414411
-0.00119409394939
-0.00100814444765
-0.000918925582873
-0.000916953165862
-0.00100784855513
-0.0011943490954
-0.00133571944488
-0.00143463030052
-0.00149672086273
-0.00152912097461
-0.00154064717179
-0.00154197203366
-0.00154117030573
-0.00154116884827
-0.00154195104233
-0.00154059421646
-0.00152906377188
-0.00149666606546
-0.00143457533693
-0.00133566748327
-0.00119428675274
-0.00100777972596
-0.000916883133896
-0.000915303463302
-0.00100721932295
-0.00119387304326
-0.00133517632292
-0.0014348074724
-0.00149710136408
-0.00152929512106
-0.00154021665586
-0.00154112847695
-0.00154033879327
-0.00154032728821
-0.00154109431254
-0.00154014817857
-0.00152921894159
-0.00149703966567
-0.00143475187337
-0.00133512883863
-0.00119381338805
-0.00100714440914
-0.00091522872842
-0.000915336813594
-0.00100724921586
-0.00119389178035
-0.00133519499599
-0.00143485436146
-0.00149716437251
-0.00152936335282
-0.00154028359133
-0.00154120611118
-0.00154040820805
-0.00154039922542
-0.00154116732077
-0.00154020958236
-0.00152927706972
-0.00149709795635
-0.00143480230688
-0.00133516353417
-0.00119384023871
-0.00100717111979
-0.000915259651482
-0.000917037662457
-0.00100792457897
-0.00119439345991
-0.00133575312595
-0.00143474395175
-0.0014968809609
-0.0015292940714
-0.00154080993648
-0.00154213229058
-0.00154131876798
-0.00154131533184
-0.00154210270527
-0.00154074989227
-0.00152922530908
-0.00149682646733
-0.00143471132933
-0.00133576096009
-0.0011943626315
-0.00100785466781
-0.000916969374877
-0.000919116491165
-0.00100832052506
-0.00119423695163
-0.00133579354296
-0.00143226868551
-0.00149364599111
-0.00152620944533
-0.00153872319686
-0.00154095214045
-0.00154055229603
-0.00154054907223
-0.00154093157818
-0.0015386819189
-0.00152616171087
-0.001493609129
-0.00143224801516
-0.00133581391495
-0.00119421582982
-0.00100825955072
-0.000919057090065
-0.000918669081333
-0.00100581562329
-0.00119005835046
-0.00133012688996
-0.00142243477821
-0.00148158905336
-0.00151331896145
-0.0015262923473
-0.00152949905353
-0.00152969883185
-0.00152969885568
-0.00152949271551
-0.00152627634805
-0.00151329833522
-0.00148157788021
-0.00142243954749
-0.00133015706435
-0.00119004214869
-0.00100576077918
-0.000918613064655
-0.000910321860911
-0.000995251973589
-0.00117557876513
-0.00131191673382
-0.00139897329274
-0.00145271394502
-0.00148164322689
-0.00149378703095
-0.00149711529085
-0.00149748287459
-0.0014974871019
-0.00149712256649
-0.00149379297719
-0.00148164904563
-0.00145273548447
-0.00139901841626
-0.00131194427102
-0.00117556001345
-0.000995200891496
-0.000910266844528
-0.000885819845589
-0.000968880492315
-0.00114180374025
-0.00127143243503
-0.00135376297682
-0.00139901384007
-0.00142252087039
-0.00143241739612
-0.00143495650888
-0.00143512390654
-0.00143512993946
-0.00143497137949
-0.00143243764456
-0.00142254934051
-0.00139906271858
-0.00135381079558
-0.0012714455246
-0.0011417796832
-0.000968834099277
-0.000885768305964
-0.000834236696349
-0.000916880125419
-0.00107805420583
-0.00119680315273
-0.00127146142485
-0.00131198669769
-0.00133024257936
-0.00133595193108
-0.00133595263739
-0.00133543528634
-0.0013354416482
-0.00133597101583
-0.0013359798172
-0.00133028312844
-0.00131203107488
-0.0012714905055
-0.00119680449296
-0.00107803102246
-0.000916843121498
-0.000834194594179
-0.000741445043491
-0.000828338838808
-0.000974080663107
-0.00107807000797
-0.00114184679788
-0.0011756608745
-0.00119018476021
-0.00119440717565
-0.00119460401467
-0.00119413935775
-0.00119414526072
-0.00119462019508
-0.00119443240789
-0.00119021733448
-0.00117569280094
-0.00114186566686
-0.00107807007692
-0.000974064801521
-0.00082831359898
-0.000741413580963
-0.000590359760659
-0.00069680611067
-0.000828357615075
-0.000916913908577
-0.000968940066002
-0.000995350776293
-0.00100596066805
-0.00100851410258
-0.00100816659804
-0.00100753717983
-0.00100754220639
-0.0010081812178
-0.00100853657582
-0.00100598731723
-0.000995374920089
-0.000968953883963
-0.000916913986173
-0.000828346955903
-0.000696789784069
-0.000590339649566
-0.000388638576869
-0.0005904050913
-0.000741492413547
-0.000834292537893
-0.000885906337506
-0.0009104607518
-0.000918868250062
-0.000919378904996
-0.000917364925825
-0.000915727246975
-0.00091574098333
-0.000917402483381
-0.000919431454878
-0.000918924548656
-0.000910508382634
-0.000885935323541
-0.000834299210817
-0.000741484662906
-0.000590396755199
-0.000388634568153
-0.000414263077789
-0.000711272068239
-0.000944896453151
-0.0010970414415
-0.00118838510514
-0.00123732872192
-0.00125852076269
-0.00126373355524
-0.00126193277569
-0.00125927861344
-0.00125928510976
-0.00126195168556
-0.00126376606308
-0.00125856465124
-0.0012373784332
-0.00118843633083
-0.00109708253403
-0.000944920932795
-0.000711288573715
-0.000414269848819
-0.00071121279257
-0.00080092867294
-0.000945593985058
-0.0010503750417
-0.00111706282581
-0.00115506132059
-0.00117359817168
-0.00118049105156
-0.00118176022643
-0.00118136673034
-0.00118137078877
-0.00118177117931
-0.00118050885211
-0.00117362081556
-0.00115508597952
-0.00111708725619
-0.00105039527467
-0.00094560732909
-0.000800936575786
-0.000711219971922
-0.000944790913951
-0.000945548068762
-0.00107455531726
-0.0011775347177
-0.00124646381985
-0.00128721642465
-0.00130793990196
-0.00131629476632
-0.00131880120288
-0.00131915988259
-0.00131916381616
-0.00131881174208
-0.00131630925321
-0.00130795628457
-0.00128723568032
-0.00124648398375
-0.00117755120121
-0.00107456387933
-0.000945549569804
-0.000944793979395
-0.00109687879291
-0.00105028587938
-0.00117749042189
-0.00128569319636
-0.0013605486834
-0.00140582197634
-0.00142931140159
-0.00143798942042
-0.00144151601046
-0.00144214469605
-0.00144215012214
-0.00144152800469
-0.00143800033053
-0.00142931027497
-0.00140583084261
-0.00136055819496
-0.00128569788621
-0.00117748715878
-0.00105027787358
-0.00109687471337
-0.00118816990622
-0.00111693492666
-0.00124638307704
-0.00136051367978
-0.00144074140935
-0.00148923934268
-0.00151576758821
-0.00152756774627
-0.00153144218349
-0.00153211286369
-0.00153212016873
-0.00153145450468
-0.00152757897799
-0.00151577680848
-0.00148923796173
-0.00144073477664
-0.00136050089249
-0.0012463629386
-0.00111691363271
-0.0011881483988
-0.00123708093181
-0.00115490175675
-0.0012871131678
-0.00140577068924
-0.00148921608753
-0.00154250538824
-0.00157314770401
-0.0015877246004
-0.00159227936602
-0.00159294482719
-0.00159294909864
-0.00159227547203
-0.00158772512287
-0.00157315982969
-0.00154250058008
-0.001489189603
-0.00140573586552
-0.00128707371001
-0.00115486410178
-0.00123703420894
-0.00125827440808
-0.0011734174332
-0.00130782645419
-0.00142927223012
-0.00151572326974
-0.00157311307241
-0.00160845080042
-0.00162565083099
-0.0016305804414
-0.00163132906632
-0.00163132762665
-0.00163054653221
-0.00162563209853
-0.00160846092516
-0.00157311333586
-0.00151568174609
-0.00142921024334
-0.00130777019882
-0.00117336411214
-0.00125820794281
-0.00126349363584
-0.00118029351665
-0.00131616752798
-0.00143788962271
-0.0015274702481
-0.00158759389883
-0.00162560321105
-0.00164350261606
-0.00164843760831
-0.0016487422759
-0.00164873698853
-0.00164839109344
-0.00164346665315
-0.001625597227
-0.00158759421962
-0.00152742168832
-0.00143782099602
-0.00131609600462
-0.00118022366118
-0.00126341732412
-0.00126167940287
-0.00118154798932
-0.00131865622404
-0.001441408122
-0.00153129267713
-0.00159203403436
-0.00163038542347
-0.00164824530881
-0.00165242643764
-0.00165218961034
-0.00165219275271
-0.00165239392264
-0.00164816634086
-0.00163034516753
-0.00159202494184
-0.00153124348419
-0.00144133554728
-0.00131857348511
-0.00118146124999
-0.00126159955071
-0.00125901340837
-0.00118115741547
-0.00131901245462
-0.00144204371511
-0.00153196140619
-0.00159263226698
-0.00163093199499
-0.00164838353377
-0.00165206559434
-0.00165225627186
-0.00165223081348
-0.00165199308247
-0.00164826257028
-0.00163084629045
-0.0015925960092
-0.00153190464095
-0.00144197048585
-0.00131892297615
-0.00118105404952
-0.00125893234997
-0.00125905696109
-0.00118120084516
-0.00131904327291
-0.001442076171
-0.00153200644897
-0.00159269180722
-0.00163099686074
-0.00164845419241
-0.00165217961454
-0.00165234343407
-0.0016523179938
-0.00165208272256
-0.00164831338393
-0.00163089099181
-0.0015926366106
-0.00153194323001
-0.00144200140088
-0.0013189486683
-0.00118108391434
-0.00125897757349
-0.00126179307473
-0.00118166110043
-0.00131873815202
-0.00144148856773
-0.0015314014487
-0.00159217979743
-0.00163054539709
-0.00164838072589
-0.00165258198219
-0.00165232274559
-0.00165231374716
-0.00165250766798
-0.00164826866484
-0.00163047196211
-0.00159214024724
-0.00153134734119
-0.00144141979391
-0.00131864734475
-0.00118154474299
-0.00126172747267
-0.00126367285719
-0.00118045735246
-0.00131628525539
-0.0014380032717
-0.00152759802025
-0.00158775393804
-0.00162576592087
-0.00164366261079
-0.00164855056537
-0.00164882257143
-0.00164881400065
-0.00164850223763
-0.00164359766309
-0.00162572800935
-0.00158774371999
-0.00152756551343
-0.00143794960417
-0.00131620657231
-0.00118035073779
-0.00126361998229
-0.00125852256728
-0.00117361869967
-0.00130797211672
-0.00142935354445
-0.00151585761383
-0.00157326811315
-0.00160858487583
-0.00162581334245
-0.00163072798996
-0.00163142455676
-0.00163142332452
-0.00163071854471
-0.00162580830584
-0.0016085964909
-0.00157328487017
-0.00151584975811
-0.0014293447526
-0.00130790929204
-0.00117352527343
-0.00125847370373
-0.00123740481312
-0.00115513494386
-0.00128729636516
-0.00140591488342
-0.00148936935533
-0.00154267582695
-0.00157332134197
-0.0015878856227
-0.00159241838205
-0.00159307040405
-0.00159307969196
-0.00159243777746
-0.00158791524858
-0.0015733515031
-0.00154269961133
-0.00148938105007
-0.0014059049157
-0.00128724562919
-0.00115505819575
-0.00123735671435
-0.00118855430161
-0.00111719091856
-0.00124659507119
-0.00136068655013
-0.00144090021296
-0.00148940727467
-0.00151594699056
-0.00152775322758
-0.00153161722677
-0.00153228802247
-0.00153229852617
-0.00153163980294
-0.00152778613423
-0.00151598146024
-0.00148944133373
-0.00144092560581
-0.00136067989539
-0.00124655627045
-0.00111713424568
-0.00118851187326
-0.00109728060552
-0.00105055002597
-0.00117771866587
-0.00128588372904
-0.00136071380065
-0.00140598133238
-0.00142947379155
-0.00143816551444
-0.00144169938683
-0.00144232896527
-0.00144233765767
-0.0014417215254
-0.0014381985368
-0.00142951571333
-0.0014060196618
-0.0013607371023
-0.00128588375143
-0.00117769733145
-0.00105051681034
-0.00109725215977
-0.000945154734355
-0.000945807390272
-0.00107479098296
-0.00117774012381
-0.00124664388498
-0.00128738488884
-0.00130810892575
-0.00131647703609
-0.00131898260672
-0.00131933477191
-0.00131934202667
-0.00131900094631
-0.00131650381886
-0.00130814223223
-0.00128741968948
-0.00124667029185
-0.00117775281588
-0.00107479023044
-0.000945797136021
-0.000945143029116
-0.000711464023487
-0.000801176779611
-0.000945844857569
-0.00105061031014
-0.00111728296202
-0.00115527688464
-0.00117382155659
-0.00118072727164
-0.00118199904789
-0.00118160230307
-0.00118160716564
-0.00118201356667
-0.00118075076476
-0.00117385207325
-0.00115531119776
-0.00111731351928
-0.00105063199832
-0.000945857722667
-0.000801181920383
-0.000711463326582
-0.000414304543369
-0.000711544625077
-0.000945259353627
-0.00109742165498
-0.00118876419106
-0.00123771693168
-0.00125894581917
-0.00126420235108
-0.00126242537167
-0.00125978310331
-0.00125980590843
-0.00126248970748
-0.00126429985678
-0.00125906252042
-0.00123783370939
-0.00118885988743
-0.00109748414584
-0.000945293964213
-0.000711562510822
-0.000414305917487
-0.00041981202444
-0.000753739334746
-0.00102841196139
-0.00121616722662
-0.00133484986142
-0.00140261416297
-0.00143356490245
-0.00143963370618
-0.0014328129797
-0.00142510811781
-0.00142512088115
-0.00143285265238
-0.00143970205946
-0.00143365293408
-0.00140270974075
-0.00133494539316
-0.00121624900373
-0.00102847300531
-0.000753783205079
-0.000419820965941
-0.000753654834832
-0.000841558476144
-0.000997628888826
-0.00111513306199
-0.00119383605462
-0.00124189472403
-0.00126720832765
-0.00127679890915
-0.00127743400396
-0.00127554779921
-0.00127555773609
-0.00127746199437
-0.00127684344511
-0.00126726050491
-0.00124194601155
-0.00119388002351
-0.00111516795728
-0.00099765790818
-0.000841582915278
-0.000753678488639
-0.0010282563235
-0.000997570195368
-0.0011276943573
-0.00123831521713
-0.0013169132448
-0.00136706656877
-0.0013951763783
-0.00140816385421
-0.0014124492868
-0.00141311032624
-0.00141311906644
-0.00141247765989
-0.00140820108104
-0.00139520790684
-0.0013671053475
-0.00131694694948
-0.00123833905658
-0.00112770735812
-0.0009975800134
-0.00102827307823
-0.00121594229484
-0.00111502882846
-0.00123826356831
-0.00135224921004
-0.00143631424661
-0.00149135719467
-0.00152192489475
-0.00153810646516
-0.00154392630634
-0.00154524408806
-0.00154524969224
-0.00154393948686
-0.00153811069013
-0.00152182623895
-0.00149137669538
-0.00143633173844
-0.00135225610198
-0.00123825826323
-0.00111502013477
-0.00121594171711
-0.00133458434011
-0.0011936943158
-0.00131681876402
-0.00143626871251
-0.0015263424164
-0.0015855873658
-0.00162317589863
-0.00164246577203
-0.00164916265313
-0.00165042991089
-0.0016504276256
-0.0016491408055
-0.00164245058933
-0.00162318693469
-0.0015856140012
-0.00152634718534
-0.00143625196196
-0.00131679257493
-0.00119366835144
-0.00133455946429
-0.00140233643395
-0.00124171700331
-0.00136693740061
-0.00149129452388
-0.00158552038588
-0.00165333776494
-0.00169609963376
-0.00171753520614
-0.00172444561862
-0.00172552206363
-0.00172550895893
-0.00172438002281
-0.00171749554951
-0.00169613097913
-0.0016533895234
-0.0015855320269
-0.00149124205962
-0.00136688896581
-0.0012416749967
-0.00140228633897
-0.00143330950982
-0.00126699480485
-0.00139503363773
-0.00152213150485
-0.0016230452285
-0.00169600018723
-0.0017417943174
-0.00176446512405
-0.00177114055247
-0.00177193081484
-0.00177190474589
-0.00177103177937
-0.00176440085489
-0.00174183545816
-0.00169606922952
-0.00162306649052
-0.00152192810966
-0.00139495920469
-0.0012669389864
-0.00143325209736
-0.0014394002673
-0.00127655718704
-0.00140797774341
-0.00153792754224
-0.0016421635709
-0.00171727378868
-0.00176434327302
-0.00178686368122
-0.00179319565835
-0.00179349656182
-0.00179346794088
-0.00179308189909
-0.00178679180116
-0.00176439659921
-0.00171738780952
-0.00164222272841
-0.00153787235459
-0.0014078865432
-0.00127648024263
-0.00143935259858
-0.00143256410457
-0.00127717397378
-0.00141222453889
-0.00154365611588
-0.00164872991678
-0.00172398235424
-0.00177076490841
-0.00179290711583
-0.00179869864466
-0.00179890600916
-0.00179888770565
-0.00179860519364
-0.00179279743659
-0.00177076927986
-0.00172407432668
-0.00164878526582
-0.0015436054453
-0.00141210946759
-0.00127706986739
-0.00143253277607
-0.00142482699678
-0.00127529404873
-0.00141286700466
-0.00154496297112
-0.00164996343759
-0.00172486341281
-0.00177124579201
-0.00179297135796
-0.0017987164716
-0.0017997817042
-0.0017997380433
-0.00179858388632
-0.00179280819272
-0.00177116901855
-0.00172487211898
-0.00164996640307
-0.00154489211002
-0.00141273059563
-0.00127515748622
-0.00142481101707
-0.00142485755693
-0.00127535156892
-0.00141290067147
-0.00154499310908
-0.00165000762619
-0.00172492673563
-0.00177130632192
-0.00179302450518
-0.00179878906982
-0.00179981780488
-0.00179977554761
-0.00179864081134
-0.00179284161982
-0.00177118632057
-0.00172487110732
-0.00164996896875
-0.00154490410123
-0.00141274770416
-0.00127518694323
-0.00142485506115
-0.0014326490628
-0.00127732425068
-0.00141232360278
-0.00154373163181
-0.0016488420321
-0.00172413567203
-0.0017709141437
-0.0017930102705
-0.00179880226646
-0.00179898360141
-0.00179896044925
-0.00179868689157
-0.00179286397195
-0.00177083026467
-0.00172409630224
-0.0016487995967
-0.00154363872736
-0.00141216605056
-0.00127715161481
-0.00143266117473
-0.00143954545464
-0.00127677154663
-0.00140811378759
-0.00153796481654
-0.001642242817
-0.00171739726346
-0.00176448276912
-0.00178697050402
-0.00179323278281
-0.0017935017011
-0.00179348706214
-0.00179316028965
-0.00178689186901
-0.00176446000962
-0.00171740329318
-0.00164223193459
-0.00153790870923
-0.00140796763596
-0.00127660714057
-0.0014395600277
-0.00143352955358
-0.00126724673559
-0.00139517657729
-0.00152171612381
-0.00162303253205
-0.00169601321569
-0.00174181677312
-0.00176451572019
-0.00177113536797
-0.00177184591757
-0.00177184351082
-0.00177111606015
-0.00176451684988
-0.00174186699516
-0.001696076773
-0.0016230693998
-0.00152185997088
-0.00139506108893
-0.00126710339272
-0.00143353537112
-0.00140266267114
-0.00124199173864
-0.00136714654455
-0.00149138642027
-0.00158558103819
-0.00165334328983
-0.00169605599534
-0.00171745507475
-0.00172430585448
-0.00172531457419
-0.00172532688418
-0.00172433034603
-0.0017175068971
-0.00169613227187
-0.00165340967925
-0.00158560072753
-0.00149135056299
-0.00136704701579
-0.0012418824621
-0.00140265928116
-0.00133501795328
-0.00119398611073
-0.00131705400753
-0.00143644670834
-0.00152643784101
-0.00158561847272
-0.00162311995119
-0.00164236080611
-0.0016490070222
-0.00165025419525
-0.00165027323203
-0.00164904685372
-0.00164242741794
-0.00162319777678
-0.00158567326825
-0.00152644922735
-0.00143640549182
-0.00131698485989
-0.00119391765724
-0.00133501349828
-0.00121643976402
-0.00111532967838
-0.00123851084299
-0.00135245071336
-0.00143647496943
-0.00149146106405
-0.00152190727011
-0.00153812424684
-0.00154391637578
-0.00154521508701
-0.00154523135174
-0.00154394999454
-0.00153817742979
-0.00152199513611
-0.00149149435028
-0.00143648100202
-0.00135243500966
-0.00123848155907
-0.00111530450882
-0.00121644833364
-0.00102875420135
-0.000997879176111
-0.00112795473318
-0.00123853682913
-0.00131710788194
-0.00136724135659
-0.00139532409779
-0.00140832259514
-0.00141259232952
-0.00141322130163
-0.00141323279896
-0.00141261610868
-0.00140835388029
-0.00139536004298
-0.00136727677411
-0.00131713703555
-0.00123855762043
-0.00112796931043
-0.000997893505858
-0.00102878373617
-0.000754038827484
-0.000841881020187
-0.00099793169608
-0.0011154144042
-0.00119411070803
-0.00124217864825
-0.00126751118948
-0.0012771259965
-0.00127776990865
-0.0012758810498
-0.00127588770223
-0.00127779005154
-0.00127715880071
-0.00126755577124
-0.00124223492863
-0.00119416970585
-0.00111546927368
-0.000997980239866
-0.000841922009889
-0.000754074067285
-0.000419896735023
-0.00075414152267
-0.00102891996154
-0.00121668655459
-0.00133537205225
-0.00140316648631
-0.00143419568094
-0.00144035965854
-0.00143359902209
-0.00142592387053
-0.00142596357187
-0.00143370777496
-0.00144052450234
-0.00143439768751
-0.00140337950133
-0.00133556002069
-0.00121683074493
-0.00102902206279
-0.000754205232222
-0.000419913867127
-0.000405912862659
-0.000737567116382
-0.0010224222971
-0.00122092687503
-0.00134446790012
-0.00140968155613
-0.00142881889257
-0.00141290970151
-0.00138056579223
-0.00135573990184