/*--------------------------------*- C++ -*----------------------------------*\
| =========                 |                                                 |
| \\      /  F ield         | OpenFOAM: The Open Source CFD Toolbox           |
|  \\    /   O peration     | Version:  3.0.1                                 |
|   \\  /    A nd           | Web:      www.OpenFOAM.org                      |
|    \\/     M anipulation  |                                                 |
\*---------------------------------------------------------------------------*/
FoamFile
{
    version     2.0;
    format      ascii;
    class       surfaceVectorField;
    location    "3.7";
    object      Uf;
}
// * * * * * * * * * * * * * * * * * * * * * * * * * * * * * * * * * * * * * //

dimensions      [0 1 -1 0 0 0 0];

internalField   nonuniform List<vector> 
22672
(
(0.00255245982407 0.000916089522878 -0.00225418075567)
(0.000913017586209 0.00255650274555 -0.00225392948034)
(0.00171203761367 0.00171565148578 -0.00510901307964)
(0.00590508990015 0.000376547382745 -0.00210199493273)
(0.00375044920733 0.00190701237174 -0.00342329501915)
(0.00494423063291 0.001633666315 -0.00525970166198)
(0.00909124588306 0.000149477739886 -0.00168199513076)
(0.0077482491838 0.00168353701769 -0.00361521180649)
(0.00860460888835 0.00167101781901 -0.00486975615373)
(0.0113327367895 0.000223804676973 -0.00115141100987)
(0.0108404312889 0.00188346958186 -0.00326198073818)
(0.0113698693003 0.00192349813696 -0.00412502684859)
(0.0121729417668 0.000548125022213 -0.000675022636663)
(0.0126501086027 0.00248556854984 -0.0027694152921)
(0.0129109672674 0.00237564777425 -0.00332584327204)
(0.0115588136011 0.000962793041549 -0.000346070614839)
(0.0127265099846 0.00330385583803 -0.00233523143206)
(0.0128121138619 0.00292309466065 -0.00268980070059)
(0.00977019126013 0.00138832196154 -0.000149039852208)
(0.011477926451 0.00407330828242 -0.00205357262923)
(0.011492588783 0.00341826284918 -0.00228476188799)
(0.00700908092787 0.0017787768058 -4.49763314266e-05)
(0.00899050207029 0.00479794554467 -0.00187170214544)
(0.00897856470455 0.0039048137426 -0.00203691348728)
(0.0036417660067 0.00203552867585 -1.50585848651e-05)
(0.00567606303638 0.00532250550848 -0.00180470572836)
(0.00566264958558 0.00426558469682 -0.00195527037077)
(8.3240820416e-07 0.00212400682441 -1.17362782137e-05)
(0.00193712757208 0.00559151318257 -0.00179538965146)
(0.00193148842274 0.00445362627977 -0.00195065988506)
(-0.00364061400469 0.00203624624375 -1.51255691115e-05)
(-0.00193375570155 0.005591927363 -0.00179527835167)
(-0.00192955590739 0.0044538243763 -0.0019505605844)
(-0.00700930968428 0.00178011443616 -4.52011532049e-05)
(-0.00567376857249 0.00532369904426 -0.00180445339149)
(-0.00566173410687 0.00426613536778 -0.00195508104136)
(-0.0097723420037 0.00139008691185 -0.000149537797483)
(-0.00899005710595 0.0047997932902 -0.00187143223819)
(-0.00897932659728 0.00390562517648 -0.00203683540713)
(-0.0115629667694 0.000964693132144 -0.00034691238866)
(-0.0114797771705 0.00407554301586 -0.00205343945185)
(-0.0114953561297 0.00341915646628 -0.0022849881698)
(-0.0121786024629 0.000549930403176 -0.000676263254691)
(-0.0127304849894 0.00330610353922 -0.00233546082395)
(-0.0128166788145 0.00292382955365 -0.00269053191489)
(-0.0113387935593 0.000225341287784 -0.00115307206432)
(-0.0126555460535 0.00248757063367 -0.00277032636277)
(-0.0129165588688 0.0023761340432 -0.00332743634391)
(-0.00909645762511 0.000150779353113 -0.00168405480075)
(-0.010845642972 0.00188505051973 -0.00326363031894)
(-0.011374852942 0.00192371230382 -0.0041274350272)
(-0.00590874937537 0.000377917272172 -0.00210469225632)
(-0.00775224447356 0.00168516682636 -0.00361749408797)
(-0.00860816656386 0.00167139349459 -0.0048729163323)
(-0.00255398488802 0.00091775053848 -0.00225753622384)
(-0.00375271678071 0.00190926427354 -0.00342638853227)
(-0.004946115599 0.00163462398797 -0.0052640669238)
(-0.00091324972343 0.00255981882303 -0.0022572884731)
(-0.00171212198683 0.00171724470729 -0.00511382948027)
(0.00190455788105 0.00375405742385 -0.00342304374382)
(0.000374154981324 0.00591033486668 -0.00210104521004)
(0.00163148013386 0.00494863741627 -0.00525844708292)
(0.00577555749074 0.00345625138768 -0.00493651189291)
(0.00345514963558 0.00577648793241 -0.00493618857149)
(0.00506762276423 0.0050682183615 -0.00774053929311)
(0.0096448534787 0.00368806143297 -0.00519519741391)
(0.00821761968449 0.00609160067782 -0.00577710366902)
(0.00910254780505 0.00546629440884 -0.00827742700072)
(0.0123311488165 0.00446349072809 -0.00487998502042)
(0.0118815037645 0.00703264228624 -0.00555943414348)
(0.0121165472483 0.00633513668821 -0.00783553782498)
(0.0133653165127 0.0056206096644 -0.0044296240875)
(0.0139799386015 0.00853381963568 -0.00500752423456)
(0.0137302383719 0.00759060146591 -0.00708249074222)
(0.0127409154133 0.00685218953937 -0.00404273344645)
(0.0141657024974 0.0102816622014 -0.00444813341649)
(0.013684572236 0.00898871748084 -0.00635347888593)
(0.0107170753954 0.00797280213262 -0.00377623492246)
(0.012727752734 0.0119013675471 -0.00403184380962)
(0.0122119559187 0.0102726307527 -0.00580429385756)
(0.00765647062418 0.00887537036591 -0.00363143154237)
(0.00994029415354 0.0133124894425 -0.00376853269896)
(0.00951760431245 0.0113876118272 -0.00545401402324)
(0.00396764912987 0.00943981850476 -0.00358503679496)
(0.00625683159343 0.0143154068129 -0.00366346945837)
(0.00599556132391 0.0121811088061 -0.00530415428577)
(2.55911190544e-06 0.00963007485125 -0.00357893172492)
(0.00213155976619 0.0148255385212 -0.00364507865994)
(0.00204515950957 0.0125871354063 -0.00526900864015)
(-0.00396306070484 0.00944074284617 -0.00358460617406)
(-0.00212429933711 0.0148260043067 -0.00364471559789)
(-0.00203711625537 0.0125873046345 -0.0052685285227)
(-0.00765332957796 0.00887714032781 -0.00363068447648)
(-0.00625070710899 0.0143167576195 -0.00366250790807)
(-0.00598857701183 0.012181577997 -0.00530285844501)
(-0.0107161391998 0.00797521348757 -0.00377533389256)
(-0.00993623684264 0.0133146092963 -0.00376704375014)
(-0.00951251390019 0.0113883412812 -0.00545207182928)
(-0.0127425441102 0.00685488127918 -0.00404198788714)
(-0.0127265718962 0.0119039227165 -0.00403005954977)
(-0.012209467442 0.0102734603274 -0.00580203624848)
(-0.0133691375466 0.0056231823869 -0.00442952393203)
(-0.0141674415177 0.0102842774834 -0.00444666000589)
(-0.0136847457935 0.00898937169636 -0.00635163706624)
(-0.0123359024239 0.00446568444225 -0.0048808846174)
(-0.0139838780636 0.00853619772996 -0.00500711004908)
(-0.013732394927 0.0075909037776 -0.00708191284379)
(-0.00964909745265 0.00369013120746 -0.00519706960616)
(-0.0118858448436 0.00703473427432 -0.00556032414907)
(-0.0121192332164 0.00633517382666 -0.00783653282829)
(-0.00577830557115 0.0034589437561 -0.00493919036392)
(-0.00822102772165 0.0060941689216 -0.00577904378216)
(-0.00910466967351 0.00546679495386 -0.00827983262975)
(-0.00190544229158 0.00375814825588 -0.00342614078153)
(-0.00345692235348 0.00578048320384 -0.00493888567267)
(-0.00506861876071 0.00507006122143 -0.0077441187839)
(-0.000374297902264 0.00591683184864 -0.00210386386328)
(-0.00163130140998 0.00495260358163 -0.00526247957023)
(0.00168259390831 0.00775051042576 -0.00361419003771)
(0.00014771208561 0.00909476747258 -0.00167996453379)
(0.00167029427056 0.00860777557116 -0.00486708147214)
(0.00609418633175 0.00821468828548 -0.0057767803476)
(0.00368889202228 0.00964134671725 -0.00519431980785)
(0.00546863582349 0.00909933601256 -0.00827651160169)
(0.0105974154331 0.00922428890194 -0.00614134039859)
(0.0092310787394 0.0105884755589 -0.00614141658533)
(0.0100094675082 0.0100017524258 -0.00900016608557)
(0.0137199097639 0.0108643190773 -0.00568697335763)
(0.0135049595995 0.012283599547 -0.00572150503398)
(0.0133624891169 0.0115268564229 -0.0083735140583)
(0.0149428683376 0.0129139233691 -0.00502603356355)
(0.0159322060595 0.014600822462 -0.00485599490616)
(0.015122858529 0.0135319890609 -0.00729002333264)
(0.0142600290896 0.0149972090103 -0.00443724377966)
(0.0161737964896 0.0171581236095 -0.00397506338631)
(0.0150809648773 0.0157026883796 -0.0061936825866)
(0.0119731193194 0.0168485673087 -0.00402414158613)
(0.0144903787788 0.019506452479 -0.00328802834697)
(0.0134167225407 0.0177046869176 -0.00531823323066)
(0.00853547480397 0.0183041941614 -0.00380057061496)
(0.0112832166667 0.0214868937483 -0.00284614353859)
(0.0104335739513 0.0193928905215 -0.00473681491718)
(0.00441650978021 0.0192147701816 -0.00372351132335)
(0.00707950055432 0.0228837471686 -0.00265046568878)
(0.0065626281096 0.0205880985279 -0.00444942720755)
(4.74041424262e-06 0.0195218468241 -0.00371086253291)
(0.00240670508825 0.0235912505583 -0.002601434002)
(0.00223749604311 0.0211986139379 -0.00435399126181)
(-0.00440762932462 0.0192155584 -0.0037226173319)
(-0.00239564748796 0.0235914903995 -0.00260080890337)
(-0.00222444879882 0.0211987005221 -0.00435316180753)
(-0.00852825703446 0.0183057077663 -0.00379886718173)
(-0.00706962373988 0.0228844699632 -0.00264875051706)
(-0.00655076022438 0.0205883060367 -0.00444712731859)
(-0.0119686039725 0.0168505978142 -0.00402176940735)
(-0.0112756928998 0.0214880356196 -0.00284326841776)
(-0.010423909876 0.0193931886786 -0.00473311982101)
(-0.0142588700042 0.0149994494096 -0.00443473166852)
(-0.0144864114247 0.0195077051739 -0.0032843861868)
(-0.0134103186706 0.0177048756003 -0.00531355498237)
(-0.0149448057467 0.0129161120032 -0.00502424612294)
(-0.0161736424997 0.0171593984444 -0.00397166025687)
(-0.0150781439686 0.0157025745688 -0.00618922184656)
(-0.0137235989816 0.0108663737368 -0.00568654958075)
(-0.0159351104622 0.0146020835745 -0.00485391359816)
(-0.0151229329474 0.013531532839 -0.00728712684804)
(-0.0106011893676 0.00922667114058 -0.00614229832507)
(-0.0135089432179 0.0122850016819 -0.00572114885808)
(-0.0133639221699 0.0115263587352 -0.00837270854337)
(-0.00609678133691 0.00821835613862 -0.00577873909092)
(-0.00923451717357 0.010590939597 -0.00614244745263)
(-0.0100109446091 0.0100021273319 -0.00900120833439)
(-0.0016835221217 0.00775667780051 -0.00361660875443)
(-0.00369085488755 0.00964605742306 -0.00519622660658)
(-0.00546930509616 0.009101719738 -0.00827886336871)
(-0.000148186000716 0.00910329913323 -0.00168219096316)
(-0.00167014276891 0.00861379939666 -0.00487000932294)
(0.00188346260773 0.0108383462619 -0.00326009430394)
(0.00022258242978 0.011332070097 -0.00114802084958)
(0.00192381049887 0.0113684082122 -0.00412081433041)
(0.00703758350431 0.0118721834246 -0.00555895604558)
(0.00446521521823 0.0123215349737 -0.00487893722044)
(0.00633944765381 0.0121076086056 -0.00783436188056)
(0.0122964967299 0.0134901765739 -0.00572158122071)
(0.0108732411968 0.0137034956002 -0.00568779773895)
(0.0115377126066 0.0133482030069 -0.00837398563708)
(0.0159405349039 0.0158221502503 -0.0048905265825)
(0.01584037219 0.0159184800451 -0.00489155009986)
(0.0153553283797 0.0153369553236 -0.00727896863067)
(0.017354643842 0.0185878818571 -0.00380502472892)
(0.0186451842188 0.0187873539996 -0.00353872078249)
(0.01732689938 0.0178759423396 -0.00560068648979)
(0.0165253769443 0.0213429089336 -0.00282584795362)
(0.0188949757927 0.0218855115288 -0.00213882750839)
(0.017235602347 0.0205932521766 -0.00389816182183)
(0.0138324424102 0.0237540590539 -0.00211003029943)
(0.0168782145275 0.0246994255435 -0.00101252744972)
(0.0152768449351 0.0230857302726 -0.00250007324962)
(0.00982380864914 0.0256206156427 -0.00169603861242)
(0.0130967967518 0.0270328678997 -0.000243697939883)
(0.0118356020399 0.0251511910413 -0.00153736872544)
(0.00506685611497 0.0267797570756 -0.00152838836743)
(0.00818705945926 0.0286695283973 0.000141307238378)
(0.00741707262282 0.0265978384151 -0.0010288509576)
(6.35960591544e-06 0.0271689375754 -0.00149138037245)
(0.00277624383893 0.0294984622173 0.000268281652003)
(0.00252293570185 0.0273319043467 -0.000846732181225)
(-0.00505473040426 0.0267799510212 -0.00152694208852)
(-0.00276284254472 0.029498158664 0.00026917135785)
(-0.0025065575424 0.0273316381176 -0.000845591292261)
(-0.00981344763866 0.0256209778142 -0.00169315175309)
(-0.00817485622093 0.0286686554933 0.000143856193363)
(-0.00740188092631 0.0265970647741 -0.00102547895993)
(-0.0138252244882 0.023754392527 -0.00210588519721)
(-0.0130872093608 0.0270315059935 -0.000239398179656)
(-0.0118228385249 0.0251499284184 -0.00153170359365)
(-0.0165222716745 0.0213431027173 -0.00282131477516)
(-0.0168727126704 0.0246975128809 -0.00100713923551)
(-0.0152679487957 0.0230838318028 -0.0024927715144)
(-0.0173555162097 0.0185880842753 -0.00380132773209)
(-0.0188939025807 0.0218835188101 -0.00213367720497)
(-0.0172310953205 0.0205908383936 -0.0038908885379)
(-0.0159438913839 0.0158225821138 -0.00488851287549)
(-0.0186476764594 0.0187856853203 -0.00353498898708)
(-0.0173260555197 0.0178734016746 -0.00559524104895)
(-0.0123004327068 0.0134914805412 -0.00572129798564)
(-0.0158445120277 0.0159175967015 -0.00488975320646)
(-0.0153564316877 0.015334739701 -0.00727606977094)
(-0.00704059496985 0.0118755183584 -0.00555993496829)
(-0.0108771355493 0.0137044275772 -0.00568765096966)
(-0.0115392462948 0.0133473549531 -0.00837334370689)
(-0.00188484548532 0.0108452582171 -0.0032618088153)
(-0.00446777091541 0.0123256078193 -0.00487982765326)
(-0.00634036521268 0.0121094919468 -0.00783532055957)
(-0.000223660120772 0.0113412621537 -0.00114952176125)
(-0.00192399083684 0.011375244284 -0.00412282243213)
(0.00248597034964 0.012642120959 -0.00276686376608)
(0.000546692804988 0.0121668993542 -0.000670909328153)
(0.00237686389087 0.0129031072198 -0.00332084118719)
(0.00853949492089 0.0139636324797 -0.00500777891381)
(0.00562167432771 0.0133503140819 -0.0044292698287)
(0.00759566487434 0.0137153072707 -0.00708234702041)
(0.0146154048243 0.015908970637 -0.0048577666181)
(0.0129225423408 0.014920404388 -0.0050289802328)
(0.0135441845039 0.0151022141451 -0.00729285960132)
(0.018812765332 0.0186164802934 -0.00353974429984)
(0.0186063298574 0.0173249740011 -0.00380947271367)
(0.0178963754001 0.0173010084108 -0.00560389036993)
(0.0204081374367 0.0217743230877 -0.00187252356196)
(0.0218051830654 0.02037283077 -0.00187587281174)
(0.0201098583807 0.0200802717737 -0.00318087794763)
(0.0193703260609 0.0248995138965 -0.000325507004485)
(0.0220181622009 0.0236163632754 0.000147537170225)
(0.0199345244914 0.0230489666714 -0.000693061292415)
(0.0161662711088 0.0276141410232 0.000853804909833)
(0.0196062242845 0.0265208565101 0.00180895309146)
(0.0176046515893 0.0257643718605 0.00138261184682)
(0.0114448162326 0.0297001491509 0.00159364791091)
(0.0151653803065 0.028910149086 0.00297746972597)
(0.0135885554678 0.0279882866444 0.00284417024701)
(0.00589053469056 0.0309950175049 0.00193797725781)
(0.00944923128063 0.0305736563425 0.0035968473522)
(0.00848732595069 0.0295382448756 0.00365015788708)
(7.07773825301e-06 0.0314304223952 0.00202883338231)
(0.00319699518049 0.0314126060866 0.00382391248434)
(0.00288093827079 0.0303259463829 0.00396932361079)
(-0.00587703333241 0.0309937663881 0.00193996963974)
(-0.00318337823723 0.0314115981975 0.00382474634968)
(-0.00286346245312 0.0303250295226 0.0039706862579)
(-0.011433234792 0.0296977648832 0.0015976097668)
(-0.00943663599813 0.0305706410332 0.00359941389757)
(-0.00847103185749 0.0295355756968 0.00365423233583)
(-0.0161581190034 0.0276107708502 0.000859347782047)
(-0.0151553422122 0.0289053605078 0.00298208187767)
(-0.0135748474616 0.0279840759441 0.00285104515671)
(-0.0193666519106 0.0248955918224 -0.000319501665322)
(-0.0196003511072 0.0265145067778 0.00181492437357)
(-0.0175950744031 0.0257587751175 0.00139155128431)
(-0.0204086783897 0.0217705274818 -0.00186733845996)
(-0.0220167052718 0.0236094371908 0.000153614041571)
(-0.0199295781935 0.0230426706437 -0.000683884046587)
(-0.0188161733822 0.0186134761207 -0.00353622931805)
(-0.0218075021603 0.020366528391 -0.00187090425924)
(-0.0201088030202 0.0200740544761 -0.00317334507058)
(-0.014619790445 0.0159076481417 -0.00485610619048)
(-0.018610583234 0.0173201562864 -0.00380639637416)
(-0.0178977037584 0.017295704739 -0.00559894420711)
(-0.00854319076141 0.0139652156573 -0.00500754365463)
(-0.0129267563027 0.014918273143 -0.00502768419658)
(-0.0135461920126 0.015098906177 -0.00729045161317)
(-0.00248806853349 0.0126483140418 -0.00276754059921)
(-0.00562461875319 0.0133522132156 -0.00442907722674)
(-0.00759713033877 0.0137154810467 -0.00708173820504)
(-0.000548172094298 0.0121747532327 -0.00067164653613)
(-0.00237767827434 0.0129092736677 -0.00332156690234)
(0.00330298874771 0.0127140306935 -0.00233331539077)
(0.00096103127367 0.0115494547694 -0.000341655298001)
(0.00292366860219 0.0127997097303 -0.00268557744671)
(0.0102856027409 0.0141449370305 -0.00445047114768)
(0.0068518203391 0.0127235429649 -0.00404372417486)
(0.00899281328244 0.0136660009653 -0.00635587627956)
(0.0171710194279 0.0161454400884 -0.00398068632838)
(0.0150038983583 0.0142360249209 -0.00444338040593)
(0.0157137144541 0.0150568868898 -0.00620106664354)
(0.0219100744495 0.0188594510187 -0.00214560122557)
(0.0213590590089 0.0164941663961 -0.00283594330755)
(0.0206125125898 0.0172054820012 -0.0039082702426)
(0.0236524587448 0.0219785542547 0.00014418792045)
(0.0249297211642 0.0193325840166 -0.000337015913731)
(0.0230786702204 0.0198991468807 -0.000702152077229)
(0.0223596253829 0.025002245442 0.00228199726617)
(0.0250429669244 0.0223204470716 0.00227726671488)
(0.0227947382221 0.022757826005 0.00258874418594)
(0.0185970603719 0.0275835820683 0.0039326179076)
(0.0222240069603 0.0249511525756 0.00441581850859)
(0.0200645244553 0.0253361673735 0.00533227293006)
(0.0131265262066 0.0295502860902 0.00498066916725)
(0.0171278150539 0.0271261274388 0.00593319625264)
(0.0154373038421 0.0274353091354 0.00725456843744)
(0.00674105123209 0.0307587115786 0.00548278257872)
(0.0106259970075 0.0286377605505 0.00675589029615)
(0.00961387501322 0.0288857659803 0.00832139095723)
(6.57712151402e-06 0.0311621398551 0.00561982545171)
(0.0035839718221 0.0293934212799 0.00706599968189)
(0.00325678841276 0.0296189818906 0.00875368506207)
(-0.0067283700745 0.0307560035151 0.00548419060752)
(-0.00357225349199 0.0293918789782 0.00706650718841)
(-0.00324071213082 0.0296174421626 0.0087546963525)
(-0.0131153607553 0.0295449997099 0.00498388600844)
(-0.0106150485313 0.02863302493 0.00675767200124)
(-0.00959866793892 0.0288811720072 0.0083246378438)
(-0.0185890190127 0.0275760132869 0.00393765846919)
(-0.0171191585178 0.0271183077778 0.00593704329273)
(-0.0154243895116 0.0274279910213 0.00726074039331)
(-0.0223557778934 0.0249931428351 0.00228804008046)
(-0.0222191938258 0.0249404468043 0.00442117146418)
(-0.0200555095571 0.0253263344421 0.00534084449556)
(-0.0236527145164 0.0219693401753 0.000150048242297)
(-0.0250419305114 0.0223081452039 0.00228310114801)
(-0.022789971113 0.0227465755238 0.00259824909073)
(-0.0219133109706 0.0188514223563 -0.00214107131534)
(-0.0249320805598 0.0193206242828 -0.000331706199904)
(-0.0230777863796 0.019887967117 -0.000693484537715)
(-0.0171753550509 0.0161397861302 -0.00397797438025)
(-0.0213631427286 0.0164841633862 -0.00283228369976)
(-0.0206140134194 0.0171956312443 -0.00390195382224)
(-0.0102893462013 0.0141430479505 -0.00444921776868)
(-0.015007970447 0.0142295947745 -0.00444139245599)
(-0.0157159824551 0.0150497320485 -0.0061973268669)
(-0.00330517386701 0.0127176068285 -0.00233318316366)
(-0.00685465854006 0.0127219887382 -0.0040426693545)
(-0.0089944408467 0.0136630473476 -0.00635394878498)
(-0.000962716636588 0.0115547839161 -0.00034170195968)
(-0.0029245650238 0.0128035306191 -0.00268520542276)
(0.00407197445722 0.0114638590572 -0.00205206408209)
(0.00138662025597 0.00975864732217 -0.000144052972564)
(0.00341909975815 0.0114781909772 -0.00228119186382)
(0.0119035721616 0.0127074778676 -0.00403663343311)
(0.00797144034788 0.010701570267 -0.00377841379447)
(0.0102756955539 0.0121939305433 -0.00580964874699)
(0.0195169155079 0.0144637862915 -0.00329863738511)
(0.0168533841013 0.0119537354614 -0.00403310772336)
(0.017713732897 0.0133947983949 -0.00533107289614)
(0.0247220921551 0.0168449548279 -0.00102735799572)
(0.0237673153676 0.0138081726559 -0.00212567513043)
(0.023102451307 0.0152498600732 -0.00251919499828)
(0.0265567586612 0.0195690275986 0.0017960628807)
(0.0276430576788 0.016136656423 0.000833277637135)
(0.0257928038193 0.0175726236544 0.00136125685665)
(0.0249905396631 0.0221862065685 0.0044110879573)
(0.0276259220383 0.0185669696608 0.00391949927483)
(0.0253733749235 0.0200312938504 0.00531970014042)
(0.0206967478321 0.0244218822742 0.00641639685363)
(0.0244613107401 0.0206681116159 0.00641475718512)
(0.0222731732179 0.0222406544008 0.00857684373959)
(0.0145447523017 0.0261287870208 0.00770841738154)
(0.0187960066784 0.0224154538003 0.00816320592866)
(0.017079832078 0.0240612266356 0.0108626866611)
(0.0074417694995 0.0271653998771 0.00833910739932)
(0.0116245015203 0.0235975078912 0.00893051511037)
(0.0105957344076 0.0253147081656 0.0121432586835)
(5.18609003326e-06 0.0275077091893 0.0085126814186)
(0.00390752927868 0.0241650252729 0.00921584672782)
(0.00357934095003 0.0259408341602 0.0126650073328)
(-0.00743181930705 0.0271618861912 0.00833998858214)
(-0.003899524552 0.0241632824248 0.00921628023612)
(-0.00356648391815 0.0259389524949 0.0126656329353)
(-0.0145361973151 0.0261216799618 0.00771082928553)
(-0.0116171888699 0.0235919543581 0.00893216100312)
(-0.0105835872278 0.0253090293064 0.0121454804889)
(-0.0206910969593 0.0244111427986 0.00642055628773)
(-0.0187909789446 0.0224055403641 0.0081669212217)
(-0.0170698720139 0.0240518006222 0.010867697878)
(-0.0249884046525 0.022172516607 0.00441623253173)
(-0.0244598458992 0.0206539232948 0.0064187808258)
(-0.0222667524857 0.0222272611372 0.00858385925032)
(-0.0265578376972 0.0195542311672 0.00180134670581)
(-0.027627032047 0.0185499345423 0.00392358969956)
(-0.0253703422856 0.0200151898931 0.00532766820024)
(-0.0247252944015 0.0168312716543 -0.00102291858432)
(-0.0276459984229 0.0161192186174 0.000837208613783)
(-0.0257926773816 0.017555942138 0.00136888278606)
(-0.0195209452651 0.0144531771157 -0.0032957017755)
(-0.023771094354 0.0137930285953 -0.00212269220661)
(-0.0231041598788 0.0152348297741 -0.00251319840958)
(-0.0119070253939 0.0127014920122 -0.00403484404181)
(-0.0168569052023 0.0119428161499 -0.00403121869823)
(-0.0177159975744 0.0133831711464 -0.00532713009475)
(-0.00407419021843 0.0114640585894 -0.00205118815052)
(-0.00797377483772 0.0106961533195 -0.00377691899596)
(-0.0102772361521 0.0121872095778 -0.0058069924024)
(-0.00138838913804 0.00976035684914 -0.000143464079363)
(-0.00342029850072 0.0114786798756 -0.00227975852765)
(0.0047961438736 0.00897749989976 -0.00187040268494)
(0.00177690261204 0.00699630377816 -3.92994057264e-05)
(0.00390549523917 0.00896495398185 -0.0020338171207)
(0.0133134318589 0.00992549504797 -0.00377488808471)
(0.00887369635953 0.00764556210512 -0.00363382145921)
(0.0113900491212 0.00950438556346 -0.00546129473371)
(0.0214951705384 0.0112656858995 -0.00286014546868)
(0.0183078810877 0.00852504080292 -0.00381031278282)
(0.0194003509349 0.010419537145 -0.00475305415506)
(0.0270535139099 0.0130751933339 -0.000265039497574)
(0.0256313150593 0.00981253324746 -0.00171387828284)
(0.025165390805 0.0118194178055 -0.00156270798554)
(0.0289467357998 0.0151413879617 0.00295671403127)
(0.0297273079908 0.0114304619007 0.00156744265893)
(0.0280154412478 0.0135688931068 0.00281297461117)
(0.0271683163082 0.0171050978753 0.00592316850266)
(0.0295944343935 0.0131120759119 0.00496278131474)
(0.027474608059 0.0154175841945 0.00723332005003)
(0.0224456027201 0.0187745083473 0.00816156626016)
(0.0261715998022 0.014531694433 0.00770622386873)
(0.0240963382467 0.017062889883 0.0108591413675)
(0.0157244123931 0.0200782576249 0.00938530365749)
(0.0201011096039 0.0157107892247 0.00938850842749)
(0.0184501936857 0.0184337716595 0.0134258686818)
(0.00804442825578 0.0208769136337 0.00980725443887)
(0.0123920939725 0.0165252095848 0.0100434131969)
(0.0114225163668 0.0193792383761 0.0147522993968)
(2.85868602112e-06 0.021132935126 0.00991944554534)
(0.00415000815529 0.0169169415348 0.0102700831385)
(0.00384717750639 0.0198357393359 0.0152896732913)
(-0.00803902512983 0.0208730159098 0.0098084526571)
(-0.00414660811678 0.0169148580938 0.0102708515025)
(-0.00383881688791 0.0198338086753 0.0152903304092)
(-0.0157203843259 0.0200697370215 0.00938825293929)
(-0.0123900497827 0.0165186612293 0.0100455701817)
(-0.0114148580674 0.0193731121727 0.0147546757463)
(-0.0224447296355 0.0187611286706 0.00816514575977)
(-0.0201014872934 0.0156990371221 0.00939196177432)
(-0.0184450578601 0.0184226347401 0.0134308719779)
(-0.0271700181564 0.0170877314204 0.00592613799363)
(-0.0261748841284 0.0145155147342 0.00770828017614)
(-0.0240946998427 0.0170469382386 0.0108637200468)
(-0.0289498954514 0.0151219414678 0.00295945160754)
(-0.0295988654516 0.013092419619 0.0049640567574)
(-0.0274749250384 0.0153978392523 0.00723741445646)
(-0.0270570128172 0.01305655555 -0.000262565008505)
(-0.029731352498 0.0114095915261 0.00156826275539)
(-0.0280166817443 0.0135477873355 0.00281676557176)
(-0.0214986159473 0.0112504803682 -0.00285820912934)
(-0.0256345533621 0.00979391131881 -0.00171292065383)
(-0.0251671472145 0.0117999862389 -0.00155926052294)
(-0.0133161033414 0.00991536334517 -0.00377329365238)
(-0.0183104137847 0.00851073448949 -0.00380937846568)
(-0.0194021473414 0.0104038840404 -0.00475041478936)
(-0.00479791271628 0.00897379321623 -0.0018691949248)
(-0.00887515679669 0.00763683499243 -0.00363249121348)
(-0.0113910716318 0.00949392858959 -0.00545885868585)
(-0.00177830732254 0.006994356112 -3.833429116e-05)
(-0.00390654130349 0.00896156824888 -0.0020319033425)
(0.0053207241406 0.00566515836457 -0.00180271818)
(0.00203376385221 0.00362706206081 -8.65303946288e-06)
(0.00426621975146 0.00565115553941 -0.00195149204481)
(0.0143159894733 0.00624995754285 -0.00366924615732)
(0.00943834543111 0.00396130410642 -0.00358637753377)
(0.0121835321908 0.00598918031525 -0.00531101470936)
(0.0228906686508 0.00707479723521 -0.00266404559698)
(0.0192180844616 0.00441562780999 -0.00373168206688)
(0.0205948498288 0.00655914546849 -0.00446526913644)
(0.0286880693971 0.00818209999583 0.000118603873668)
(0.0267886595907 0.00506933466111 -0.00154430799692)
(0.0266101586419 0.00741498696905 -0.00105420025518)
(0.030609922085 0.00944311381556 0.00357350994241)
(0.0310194560094 0.00589255552677 0.00191214661457)
(0.0295635447152 0.00848417299232 0.00361605912934)
(0.0286821299892 0.0106198999878 0.00674583668081)
(0.030801332154 0.00674191964564 0.00546517913808)
(0.028925847823 0.00961027650793 0.00829795540645)
(0.0236303519305 0.011618391831 0.00893316603606)
(0.0272082656216 0.00744109538795 0.00833881093859)
(0.0253526062079 0.0105928072455 0.0121423842791)
(0.0165404606462 0.0123854071372 0.0100466179669)
(0.0209004241506 0.00804089350091 0.00981458909117)
(0.019397514961 0.0114196131882 0.0147597942029)
(0.00844379866322 0.0128311237862 0.0105062418966)
(0.0128383441843 0.00843810957956 0.0105080768769)
(0.0119569064153 0.011953484546 0.0161837699311)
(5.58955798239e-07 0.0129730056378 0.0106214890957)
(0.00428567623171 0.00862796099968 0.0107326557911)
(0.00401196327376 0.0122058939537 0.0167322295575)
(-0.00844356948693 0.0128265018338 0.0105079690271)
(-0.0042875193706 0.00862555904998 0.0107333989234)
(-0.00400811138104 0.0122036617286 0.0167334383161)
(-0.0165423129168 0.0123755859397 0.0100492790167)
(-0.0128419148994 0.00843066031711 0.0105098570672)
(-0.0119548289857 0.0119465077221 0.016186756493)
(-0.0236350135819 0.0116035461506 0.0089350961907)
(-0.0209061930248 0.0080283762227 0.00981663832295)
(-0.0193981499562 0.0114072383004 0.014763375149)
(-0.0286882110932 0.010601046883 0.00674619893991)
(-0.0272160728583 0.00742448741393 0.0083386761201)
(-0.0253559620312 0.0105759247245 0.0121442402214)
(-0.0306156056863 0.00942173999601 0.00357286790525)
(-0.0308091291318 0.00672201512887 0.00546344672504)
(-0.0289300130814 0.00958943658058 0.00829781664876)
(-0.0286919038325 0.00816112571531 0.000117907110069)
(-0.0310246438036 0.00587118867023 0.00190900250535)
(-0.0295665102158 0.00846135855529 0.00361472035835)
(-0.0228931793296 0.0070571106043 -0.00266408999017)
(-0.0267910468026 0.00505004547009 -0.00154622353317)
(-0.0266117446634 0.00739360344013 -0.00105483885408)
(-0.0143174760521 0.00623715674339 -0.00366857602678)
(-0.0192193030264 0.00440016128324 -0.00373236370233)
(-0.0205957500357 0.00654139792993 -0.00446511130996)
(-0.00532173354681 0.0056583214312 -0.00180163057984)
(-0.00943873630265 0.00395085907878 -0.00358581628057)
(-0.0121837649626 0.00597638339789 -0.00530974924335)
(-0.00203451469132 0.00362233540784 -7.64485160141e-06)
(-0.0042668574113 0.00564464616857 -0.00194970208992)
(0.00559004683884 0.00192684533456 -0.00179231239323)
(0.00212272162557 -1.73163929132e-05 -5.23528264624e-06)
(0.00445440933626 0.00192086977619 -0.00194567239546)
(0.014826220109 0.00213110750451 -0.00364881344333)
(0.00962867807403 -1.10022357786e-06 -0.0035789324159)
(0.0125896239256 0.00204447008376 -0.00527377060996)
(0.0235974456361 0.00241284904787 -0.00261194446681)
(0.0195247419359 1.10765634992e-05 -0.00371664227954)
(0.0212049596816 0.00224332118697 -0.00436667184017)
(0.0295145806171 0.00278557707276 0.000249234743982)
(0.0271761372883 1.90139035541e-05 -0.00150365750202)
(0.027342905977 0.00253290560554 -0.000866807907818)
(0.0314452399198 0.00320589339419 0.00380381581024)
(0.0314509848337 2.20100032891e-05 0.00200703769896)
(0.0303485231058 0.0028920145876 0.00393989435417)
(0.0294342419937 0.00358999392739 0.00705815339586)
(0.0311996441195 1.89622101629e-05 0.00560508142529)
(0.0296556441007 0.00326608689397 0.00873396275722)
(0.024195522444 0.00390941303757 0.0092202339937)
(0.0275459047746 1.28541440463e-05 0.00851394984783)
(0.0259758901008 0.00358550693446 0.0126669660245)
(0.0169315875183 0.00414846356818 0.0102760480011)