/*--------------------------------*- C++ -*----------------------------------*\
| =========                 |                                                 |
| \\      /  F ield         | OpenFOAM: The Open Source CFD Toolbox           |
|  \\    /   O peration     | Version:  3.0.1                                 |
|   \\  /    A nd           | Web:      www.OpenFOAM.org                      |
|    \\/     M anipulation  |                                                 |
\*---------------------------------------------------------------------------*/
FoamFile
{
    version     2.0;
    format      ascii;
    class       volScalarField;
    location    "7.6";
    object      ddt0(epsilon);
}
// * * * * * * * * * * * * * * * * * * * * * * * * * * * * * * * * * * * * * //

dimensions      [0 2 -4 0 0 0 0];

internalField   nonuniform List<scalar> 
7968
(
-2.15649612085e-05
-2.73239009513e-05
-3.29437025901e-05
-3.68289522132e-05
-3.92057332886e-05
-4.03715059912e-05
-4.07884716751e-05
-4.05500313861e-05
-3.99387566425e-05
-3.93045737567e-05
-3.93086792947e-05
-3.99476765528e-05
-4.05624796832e-05
-4.08030941821e-05
-4.03871843563e-05
-3.92207495791e-05
-3.68427797019e-05
-3.29551862607e-05
-2.73325995368e-05
-2.15688824775e-05
-2.73232407113e-05
-5.38733496645e-05
-7.61695860574e-05
-9.05908096308e-05
-9.81864257582e-05
-0.000100638682152
-0.00010044813225
-9.88870750734e-05
-9.71924496741e-05
-9.61365235792e-05
-9.61388088092e-05
-9.71947309273e-05
-9.88883869352e-05
-0.000100449892229
-0.000100644473217
-9.81972805121e-05
-9.06061574427e-05
-7.61856343572e-05
-5.38859438569e-05
-2.73284999495e-05
-3.2941386489e-05
-7.61674487901e-05
-0.000111136549919
-0.000133369028007
-0.000144911723358
-0.000148495092453
-0.00014784944354
-0.000145496769553
-0.000143432073751
-0.000142367163071
-0.000142365703837
-0.000143424833898
-0.000145481504766
-0.00014783008088
-0.000148479646234
-0.000144906553604
-0.000133373250313
-0.00011114616141
-7.61764231356e-05
-3.2946497747e-05
-3.68247991318e-05
-9.05871006359e-05
-0.000133369956707
-0.000159917751522
-0.000172944129851
-0.000176067316817
-0.000173864342972
-0.000166875252874
-0.00016452386957
-0.000163767611795
-0.000163765634172
-0.000164509592932
-0.000166844330336
-0.000173823013911
-0.000176026956142
-0.000172916555878
-0.000159903283379
-0.000133365818887
-9.05887535444e-05
-3.68291613569e-05
-3.92000614959e-05
-9.81870815472e-05
-0.000144924341191
-0.000172960010768
-0.000185244076312
-0.000184837195936
-0.000185375097157
-0.000183364794332
-0.000181507377661
-0.000180679744327
-0.000180675961733
-0.000181488901412
-0.000183329987375
-0.000185334567533
-0.000184794342649
-0.000185194254423
-0.000172923823004
-0.000144902859306
-9.81782238226e-05
-3.92029576283e-05
-4.03667038039e-05
-0.0001006531065
-0.00014853290098
-0.000176116897796
-0.000184861098026
-0.000190904879784
-0.000192722098052
-0.000191309708373
-0.000189128404895
-0.000187927130033
-0.000187922433335
-0.000189108431487
-0.000191274065765
-0.000192677581569
-0.000190856972214
-0.000184813966819
-0.000176063844315
-0.000148497978487
-0.00010063688924
-4.03685971172e-05
-4.07822007556e-05
-0.00010047653769
-0.000147917656296
-0.000173955867988
-0.000185433960072
-0.000192757286131
-0.000194238523131
-0.000191887682162
-0.000188629354209
-0.000186665245098
-0.000186660605188
-0.000188609929046
-0.000191854659525
-0.000194196146942
-0.000192711174669
-0.000185387714743
-0.00017390063877
-0.000147877727963
-0.000100455645645
-4.07826612821e-05
-4.05403062861e-05
-9.89246336891e-05
-0.000145588175399
-0.000166974795759
-0.000183458557234
-0.000191386034132
-0.000191932016652
-0.000188063643855
-0.000183387100205
-0.000180414546014
-0.000180411445544
-0.000183373178826
-0.000188039893047
-0.000191901429158
-0.000191352312929
-0.000183423110672
-0.00016693811115
-0.000145558197156
-9.89071902822e-05
-4.05399495536e-05
-3.99250160361e-05
-9.72269180735e-05
-0.000143524898612
-0.000164617609771
-0.000181610177072
-0.000189228496081
-0.00018870859233
-0.000183424797846
-0.000177103228554
-0.000172913354279
-0.000172913317964
-0.00017709893842
-0.000183417307443
-0.000188700085646
-0.000189221234924
-0.000181603730154
-0.000164611269771
-0.000143519181281
-9.72208430019e-05
-3.99238602087e-05
-3.92887056848e-05
-9.61584638651e-05
-0.000142445046706
-0.000163840885818
-0.000180769019486
-0.000188023533733
-0.000186747099641
-0.000180464716644
-0.000172931885246
-0.000167740413919
-0.000167745223824
-0.000172940866985
-0.000180478914568
-0.000186767537418
-0.00018804942656
-0.000180797283236
-0.000163867698961
-0.000142469430132
-9.61671768501e-05
-3.92860976116e-05
-3.92979210728e-05
-9.614786624e-05
-0.000142413098961
-0.000163809428584
-0.000180735051224
-0.000187993501098
-0.000186728236047
-0.00018046241837
-0.000172947169326
-0.000167769894901
-0.00016778024227
-0.000172971125702
-0.000180499699503
-0.000186777901128
-0.000188051795089
-0.00018079592684
-0.000163866251012
-0.000142468361031
-9.61706113336e-05
-3.92941177876e-05
-3.99408680664e-05
-9.71962496622e-05
-0.000143444987635
-0.00016452806392
-0.000181516744998
-0.000189147365734
-0.000188655256446
-0.000183413545123
-0.000177135659392
-0.000172978809817
-0.000172991806189
-0.000177168290304
-0.000183465279873
-0.000188723448842
-0.000189225180655
-0.00018159823783
-0.000164605751544
-0.000143518022286
-9.7230048201e-05
-3.99383366712e-05
-4.05595427432e-05
-9.88857169054e-05
-0.000145483361363
-0.00016684123266
-0.000183327984295
-0.0001912773725
-0.000191864374404
-0.000188051862104
-0.000183433511974
-0.000180501923223
-0.000180515692842
-0.000183468928576
-0.000188107351625
-0.000191935504179
-0.000191357857295
-0.000183413972549
-0.000166927527708
-0.000145559557496
-9.89232557879e-05
-4.05592563924e-05
-4.08036292834e-05
-0.000100446335436
-0.000147820635
-0.00017380144385
-0.000185308130898
-0.00019265122585
-0.000194173277822
-0.00019188177214
-0.000188685752748
-0.000186762256443
-0.000186775860742
-0.000188720105666
-0.000191933372567
-0.000194235427273
-0.000192718073105
-0.000185378292138
-0.000173882206594
-0.000147882646802
-0.000100478294787
-4.08050977054e-05
-4.03912886747e-05
-0.000100645486493
-0.000148469761496
-0.000175998288473
-0.000184757057372
-0.000190816678295
-0.000192670625822
-0.00019131235404
-0.000189187320896
-0.000188026450911
-0.00018803960739
-0.000189219457863
-0.000191356854701
-0.000192719908592
-0.00019086512399
-0.000184804101055
-0.000176047984445
-0.000148509015433
-0.000100666115154
-4.03930990662e-05
-3.92285778729e-05
-9.82082761398e-05
-0.000144907633034
-0.000172898736321
-0.00018515220734
-0.000184774411672
-0.000185345110591
-0.000183379441309
-0.000181568482979
-0.0001807748728
-0.000180787726526
-0.00018159880447
-0.000183418518116
-0.000185384939763
-0.00018480824278
-0.000185178350156
-0.000172922194975
-0.000144926524534
-9.82183071615e-05
-3.92304593531e-05
-3.68540247691e-05
-9.06323141535e-05
-0.000133394509055
-0.000159909700224
-0.000172909686199
-0.000176031144124
-0.000173857519453
-0.000166902462874
-0.000164587785941
-0.00016385781955
-0.00016387074021
-0.000164617704787
-0.00016693972903
-0.000173894289248
-0.000176056555241
-0.000172927016135
-0.000159922096528
-0.000133402997441
-9.06366465311e-05
-3.68564259086e-05
-3.29693600406e-05
-7.62242485351e-05
-0.000111184804012
-0.000133394214261
-0.000144916334165
-0.000148496077547
-0.000147866474053
-0.000145544393393
-0.000143512445125
-0.000142475445063
-0.00014248937342
-0.000143544784073
-0.000145584387689
-0.000147902391693
-0.000148522201184
-0.00014493440437
-0.000133405413523
-0.000111191782405
-7.62287770816e-05
-3.29732998576e-05
-2.73484657529e-05
-5.39240851107e-05
-7.62185364479e-05
-9.06262756935e-05
-9.82084089205e-05
-0.00010065738437
-0.000100472358144
-9.89254573079e-05
-9.72463633125e-05
-9.62022301996e-05
-9.62129381261e-05
-9.72710928354e-05
-9.89570503116e-05
-0.000100502392446
-0.000100681411731
-9.8227056513e-05
-9.06392477837e-05
-7.62280477991e-05
-5.39314010872e-05
-2.73538072392e-05
-2.15839703061e-05
-2.7350110352e-05
-3.29701473105e-05
-3.68532488178e-05
-3.92274250243e-05
-4.03923899192e-05
-4.08090315182e-05
-4.05710753577e-05
-3.9959243075e-05
-3.9324419932e-05
-3.93293979592e-05
-3.9970404947e-05
-4.05861370814e-05
-4.08249587621e-05
-4.04071910875e-05
-3.92403938773e-05
-3.68637093846e-05
-3.2978708611e-05
-2.73572426562e-05
-2.15888068784e-05
-1.54684634505e-05
-3.10238253344e-05
-4.7402135799e-05
-6.05509330585e-05
-6.94970433249e-05
-7.46234406394e-05
-7.62521452486e-05
-7.4557582661e-05
-7.07149403924e-05
-6.73545784652e-05
-6.7363589747e-05
-7.07407130447e-05
-7.45970295799e-05
-7.63002116444e-05
-7.46710302315e-05
-6.9540090165e-05
-6.05876475814e-05
-4.74320731384e-05
-3.10464312997e-05
-1.54805912813e-05
-3.10197470276e-05
-4.28845983174e-05
-5.92520524318e-05
-7.30530609067e-05
-8.30748690805e-05
-8.98910572669e-05
-9.38627627776e-05
-9.53944943313e-05
-9.51151220223e-05
-9.42190611133e-05
-9.42264448505e-05
-9.51346350189e-05
-9.54233789589e-05
-9.38972484687e-05
-8.99269515381e-05
-8.31088941444e-05
-7.30831582788e-05
-5.9277623648e-05
-4.29068999897e-05
-3.10352107346e-05
-4.73944815495e-05
-5.92517947475e-05
-7.87483301836e-05
-9.52106577331e-05
-0.000107075877123
-0.000114885485641
-0.000119487429032
-0.000121808344313
-0.000122505152586
-0.000121997710964
-0.000121995798247
-0.000122513541491
-0.000121820493102
-0.00011950244123
-0.000114902728253
-0.000107094503427
-9.52291282011e-05
-7.87649637683e-05
-5.92667165642e-05
-4.74086532669e-05
-6.05425391863e-05
-7.30552804914e-05
-9.52139903181e-05
-0.000113533814263
-0.000126243474964
-0.000133950967883
-0.000137506277614
-0.000139469734477
-0.000140515711728
-0.00014093378339
-0.000140935143814
-0.000140517597277
-0.00013947077321
-0.000137505487503
-0.000133952001825
-0.000126247740221
-0.00011354044741
-9.52214051788e-05
-7.30624868768e-05
-6.05505666722e-05
-6.94900820379e-05
-8.30821621517e-05
-0.000107085333357
-0.000126249940434
-0.000139061155452
-0.000146266936022
-0.000151085664571
-0.000153732543741
-0.00015500869789
-0.000155536640187
-0.000155537424616
-0.000155007621109
-0.000153728727469
-0.0001510802746
-0.000146261645752
-0.000139056484408
-0.000126246713044
-0.000107084591848
-8.30829839193e-05
-6.94930245511e-05
-7.46170572125e-05
-8.99028796402e-05
-0.000114902266467
-0.000133965518077
-0.000146272939528
-0.000155214633978
-0.000160925742175
-0.00016394894633
-0.000165255388052
-0.000165800825918
-0.000165800972289
-0.000165252566706
-0.000163942556114
-0.000160917441191
-0.000155206131722
-0.0001462647163
-0.000133956217002
-0.000114896842752
-8.99008605166e-05
-7.46184593771e-05
-7.62379432174e-05
-9.38738765883e-05
-0.000119509228073
-0.000137524315714
-0.000151097928811
-0.000160933987479
-0.000167088131177
-0.000170121203566
-0.000171079217492
-0.000171359932585
-0.000171359110608
-0.000171073751059
-0.000170113393754
-0.000167078524261
-0.00016092470459
-0.000151089190446
-0.000137514527965
-0.000119503494226
-9.38726628302e-05
-7.62409564166e-05
-7.45264738753e-05
-9.53983528376e-05
-0.000121831514436
-0.000139489583883
-0.000153752122149
-0.000163969504377
-0.000170137655141
-0.000172774460144
-0.000173433196263
-0.000173341002271
-0.000173340688074
-0.000173429398832
-0.0001727684096
-0.000170130500968
-0.000163962787691
-0.000153746254023
-0.000139484677999
-0.000121829324863
-9.53996462128e-05
-7.45300726738e-05
-7.06716108395e-05
-9.5107437754e-05
-0.000122524749213
-0.000140536058149
-0.000155033895428
-0.000165287675001
-0.000171116294642
-0.000173455673943
-0.000173465008402
-0.000172848969496
-0.000172850620055
-0.000173466545445
-0.000173455907942
-0.000171115355441
-0.000165287876623
-0.000155034658913
-0.000140537879256
-0.00012252877022
-9.51098362352e-05
-7.06676364241e-05
-6.73107254435e-05
-9.42033669271e-05
-0.000122037005901
-0.000140952249129
-0.000155562654383
-0.000165837256209
-0.000171400593225
-0.000173373626514
-0.000172863733483
-0.000171820423943
-0.000171824971904
-0.000172872859363
-0.000173384660681
-0.000171411149612
-0.000165847291427
-0.000155572458779
-0.000140962264346
-0.000122043758091
-9.42027325463e-05
-6.72921522447e-05
-6.73290473721e-05
-9.42105756975e-05
-0.000122020608291
-0.000140945095122
-0.000155555597126
-0.000165830961793
-0.000171395918074
-0.000173374183948
-0.000172871316304
-0.000171834261955
-0.00017184146054
-0.000172887806589
-0.000173395828205
-0.000171417947261
-0.000165850775322
-0.000155574073756
-0.000140963510424
-0.000122043706449
-9.42065600469e-05
-6.73001465206e-05
-7.07182311866e-05
-9.51221570506e-05
-0.000122511202365
-0.000140517106838
-0.00015501356786
-0.000165268956436
-0.000171100391196
-0.000173453180797
-0.00017348039427
-0.000172878879955
-0.000172887039138
-0.000173500396398
-0.000173481090726
-0.000171130341922
-0.000165295375089
-0.000155038170705
-0.000140541262171
-0.000122533928793
-9.51208921062e-05
-7.06894816389e-05
-7.4584097991e-05
-9.54150820945e-05
-0.000121814589579
-0.000139464558028
-0.000153725618061
-0.000163945395801
-0.000170121536887
-0.000172773837661
-0.000173454123744
-0.000173377312832
-0.000173385149946
-0.00017347394949
-0.00017280243248
-0.000170152464434
-0.000163973513259
-0.000153752313568
-0.000139491340634
-0.00012184019708
-9.54192547556e-05
-7.45648976588e-05
-7.62937098435e-05
-9.38942050847e-05
-0.000119498446093
-0.000137499421229
-0.000151074863109
-0.000160913259057
-0.000167074460705
-0.00017012291053
-0.000171101323136
-0.000171393237107
-0.000171400225219
-0.000171119045954
-0.000170148830146
-0.000167101830581
-0.000160938561117
-0.000151099272401
-0.000137525157801
-0.000119521984638
-9.39020248871e-05
-7.62876696267e-05
-7.4674978817e-05
-8.99336990573e-05
-0.000114906888292
-0.000133951052175
-0.000146259294602
-0.000155202660498
-0.000160918381964
-0.000163951903715
-0.000165272905909
-0.000165830830744
-0.000165837054656
-0.000165288704241
-0.000163973497157
-0.000160941060852
-0.000155223990471
-0.000146280150214
-0.000133973249835
-0.000114924703244
-8.99405409771e-05
-7.46754706795e-05
-6.95556721617e-05
-8.3128997112e-05
-0.000107112525243
-0.000126258551204
-0.000139060099545
-0.000146266393774
-0.000151087534774
-0.00015374044931
-0.000155026888586
-0.000155565638108
-0.000155571435045
-0.000155041599846
-0.00015376012921
-0.000151107960886
-0.000146285660229
-0.000139078617462
-0.000126274772779
-0.000107123977059
-8.31329227044e-05
-6.95585911675e-05
-6.0615241515e-05
-7.31184062796e-05
-9.52642554424e-05
-0.000113567777886
-0.000126263803139
-0.000133964599336
-0.000137519174258
-0.000139486873036
-0.000140539569168
-0.000140965811392
-0.000140972053128
-0.000140555364977
-0.000139508249167
-0.000137541411079
-0.000133985806547
-0.000126281920076
-0.000113581640706
-9.52726451765e-05
-7.31211944608e-05
-6.0620613504e-05
-4.74671596066e-05
-5.93255963316e-05
-7.88165376856e-05
-9.52656908696e-05
-0.000107118160556
-0.000114919920353
-0.000119519691334
-0.000121842375847
-0.000122542804608
-0.000122060755284
-0.000122068381507
-0.000122562243841
-0.000121869867007
-0.000119549520606
-0.000114947535458
-0.000107140902659
-9.528233401e-05
-7.88270061985e-05
-5.93313064726e-05
-4.74763747527e-05
-3.10802705974e-05
-4.29578668774e-05
-5.93294620517e-05
-7.31220037191e-05
-8.31339045733e-05
-8.99431167027e-05
-9.39111304155e-05
-9.5440379199e-05
-9.51571860532e-05
-9.42583282586e-05
-9.42664812434e-05
-9.5179640791e-05
-9.5473654362e-05
-9.39490983059e-05
-8.99795379318e-05
-8.31645261633e-05
-7.31452258707e-05
-5.93457646886e-05
-4.29689212461e-05
-3.10927106086e-05
-1.55065093872e-05
-3.10937255487e-05
-4.74816150067e-05
-6.06247270087e-05
-6.95623088883e-05
-7.46837088868e-05
-7.63108229498e-05
-7.46144313133e-05
-7.07677806797e-05
-6.74043459883e-05
-6.74137847414e-05
-7.07947265671e-05
-7.46560856701e-05
-7.63600990739e-05
-7.47321894931e-05
-6.96044569694e-05
-6.06583147584e-05
-4.75070057723e-05
-3.11121670544e-05
-1.55191299714e-05
-6.2386457007e-06
-2.52814531132e-05
-4.54163996299e-05
-6.19064854528e-05
-7.13412999225e-05
-7.32843366581e-05
-6.74525586053e-05
-5.47228528617e-05
-4.08103722721e-05
-3.23354099745e-05
-3.2344246022e-05
-4.0840203566e-05
-5.47742916839e-05
-6.75481886889e-05
-7.33787277678e-05
-7.14220566831e-05
-6.19679087307e-05
-4.54614383057e-05
-2.53151098988e-05
-6.26033278089e-06
-2.52681066448e-05
-4.10043369051e-05
-5.75314130605e-05
-7.23023345261e-05
-8.35471711216e-05
-9.10186660293e-05
-9.43415505577e-05
-9.33706207882e-05
-8.96208790904e-05
-8.6510489192e-05
-8.65227038477e-05
-8.96582920004e-05
-9.34328759225e-05
-9.4420112977e-05
-9.10951837488e-05
-8.3611398234e-05
-7.23506633575e-05
-5.75690540002e-05
-4.10380683014e-05
-2.53066616533e-05
-4.53950823766e-05
-5.75279169803e-05
-7.67353544817e-05
-9.48832018935e-05
-0.000109457048498
-0.000120292811451
-0.00012784492807
-0.000131616078687
-0.000129612617306
-0.000129117934314
-0.000129128499393
-0.000129629139842
-0.000131656238863
-0.000127897019397
-0.000120344772399
-0.000109501840606
-9.49179652942e-05
-7.67613980622e-05
-5.7555968132e-05
-4.54321023807e-05
-6.18847645319e-05
-7.23046923339e-05
-9.48895449945e-05
-0.000115626160348
-0.000131505405622
-0.000141438044409
-0.000149750597922
-0.0001545934784
-0.000156333846081
-0.000156891078666
-0.000156896421275
-0.000156344832692
-0.000154613834411
-0.000149776343538
-0.000141462575808
-0.000131530847833
-0.000115646890026
-9.490385992e-05
-7.23164316309e-05
-6.19027794969e-05
-7.13178589749e-05
-8.35570159093e-05
-0.000109471516928
-0.000131513167989
-0.000146419493505
-0.000157913653796
-0.000165766481413
-0.000170575046494
-0.000173031281664
-0.000174102559167
-0.000174105997169
-0.000173038548995
-0.00017058681661
-0.000165780104871
-0.000157925389715
-0.000146431100412
-0.000131522685557
-0.000109476385738
-8.35553276752e-05
-7.13176970708e-05
-7.32537741119e-05
-9.10303167788e-05
-0.00012031127945
-0.000141445813013
-0.000157917101622
-0.000169394512729
-0.000176972681466
-0.000181492619854
-0.000183828776043
-0.000184826082489
-0.000184827871476
-0.000183832150128
-0.000181501191832
-0.000176985983095
-0.000169403420162
-0.000157921039994
-0.000141447645916
-0.000120312246985
-9.10207221615e-05
-7.32368585346e-05
-6.74024103321e-05
-9.43431150837e-05
-0.000127860228991
-0.00014975835245
-0.000165770348534
-0.000176976002236
-0.000184236516798
-0.000188379973107
-0.000190440520345
-0.000191164155512
-0.000191164260061
-0.000190439255829
-0.000188385599827
-0.000184253533087
-0.000176991433731
-0.000165773518016
-0.000149759398536
-0.000127861382125
-9.43303006007e-05
-6.73684873987e-05
-5.46358232508e-05
-9.33549534996e-05
-0.000131621834145
-0.000154598035371
-0.000170579500644
-0.000181502986369
-0.000188392781595
-0.000192064334456
-0.000193488770404
-0.000193814556811
-0.000193814436953
-0.000193487241315
-0.000192070760198
-0.000188413849324
-0.000181525378222
-0.000170584637425
-0.000154598022516
-0.000131621787615
-9.33355077694e-05
-5.45785057156e-05
-4.07315323258e-05
-8.9590114444e-05
-0.000129604162036
-0.000156336127807
-0.000173039501516
-0.00018385002861
-0.000190473370074
-0.000193511707495
-0.000194188935003
-0.000194036026158
-0.000194037701896
-0.000194192354899
-0.000193525927357
-0.000190502029118
-0.000183877480362
-0.000173046212222
-0.000156334386752
-0.000129593406342
-8.9555564915e-05
-4.06221361593e-05
-3.22549811781e-05
-8.64664868928e-05
-0.000129073909389
-0.000156884524186
-0.000174112700116
-0.000184854231155
-0.000191206857522
-0.000193853812939
-0.000194054976221
-0.000193561974865
-0.000193566492473
-0.00019406619309
-0.000193879289042
-0.000191246248276
-0.000184887680776
-0.000174122027354
-0.000156885051233
-0.000129064868835
-8.64185725097e-05
-3.21101021595e-05
-3.2259083026e-05
-8.64724851598e-05
-0.000129085635589
-0.000156884881804
-0.000174110923543
-0.00018484997643
-0.000191201569741
-0.000193851955908
-0.000194058580414
-0.000193570664646
-0.000193577600808
-0.000194076709417
-0.000193887355957
-0.000191250932789
-0.000184889687178
-0.00017412288266
-0.000156885891736
-0.000129067581979
-8.64195178963e-05
-3.21066221544e-05
-4.07714914042e-05
-8.96127816873e-05
-0.000129603904023
-0.000156329194888
-0.000173031466567
-0.000183836553508
-0.000190456692907
-0.00019350423151
-0.000194195472007
-0.000194055204032
-0.000194063103027
-0.000194216372785
-0.000193544305327
-0.000190511777143
-0.000183880546227
-0.000173046635001
-0.000156335331995
-0.000129597152578
-8.95616824927e-05
-4.06212555076e-05
-5.47227376676e-05
-9.33936855738e-05
-0.000131630454271
-0.000154594237857
-0.000170572542662
-0.000181490843145
-0.000188379668694
-0.000192062232088
-0.000193504759168
-0.000193845189387
-0.000193852293793
-0.000193524137798
-0.000192100623532
-0.000188432551131
-0.000181532892067
-0.000170587002819
-0.000154602639064
-0.000131633729676
-9.33512122026e-05
-5.45932145275e-05
-6.749428095e-05
-9.43862680768e-05
-0.00012787641935
-0.000149762320351
-0.000165769972585
-0.000176973324741
-0.000184236339142
-0.000188389538714
-0.00019046576176
-0.000191199531641
-0.000191205143588
-0.00019048076398
-0.000188420156709
-0.000184278151926
-0.000177003884056
-0.000165780340407
-0.000149770490437
-0.000127881858822
-9.43552514419e-05
-6.74046672538e-05
-7.33459289915e-05
-9.10761061303e-05
-0.000120336305423
-0.000141459762976
-0.000157924480162
-0.000169398794647
-0.000176978069784
-0.000181502510439
-0.000183845126381
-0.000184847234156
-0.00018485167669
-0.000183856648573
-0.000181523828814
-0.00017700422576
-0.000169415821558
-0.000157933252971
-0.000141466125947
-0.00012033893701
-9.10503412382e-05
-7.3283483258e-05
-7.14085574451e-05
-8.36099457306e-05
-0.000109509529561
-0.000131539558373
-0.000146441325994
-0.000157927107876
-0.000165772333776
-0.000170573548501
-0.000173027822526
-0.000174099271411
-0.000174104121788
-0.000173040444867
-0.000170591965911
-0.000165790758541
-0.000157940638392
-0.000146452229604
-0.000131548638122
-0.000109506964281
-8.35847749418e-05
-7.13646843205e-05
-6.19711083479e-05
-7.23668368775e-05
-9.49435700088e-05
-0.000115671070174
-0.000131541395678
-0.000141463836414
-0.000149768279318
-0.00015460047544
-0.000156335179029
-0.000156887986877
-0.00015689397129
-0.000156351567236
-0.000154624066602
-0.000149792952977
-0.00014148423816
-0.000131559072284
-0.000115679537384
-9.4938103845e-05
-7.23442845818e-05
-6.19446628191e-05
-4.54730476868e-05
-5.75954401139e-05
-7.68030342557e-05
-9.49441318276e-05
-0.000109509893604
-0.00012033903285
-0.000127884044754
-0.000131645168614
-0.000129624601282
-0.00012910734491
-0.000129115459642
-0.000129647934041
-0.000131683372687
-0.000127926404715
-0.000120375573128
-0.000109534615139
-9.49548481947e-05
-7.67997747301e-05
-5.75796925102e-05
-4.54624166344e-05
-2.53222916579e-05
-4.1072213807e-05
-5.76079401667e-05
-7.23741096344e-05
-8.36097918967e-05
-9.10718953283e-05
-9.43853460607e-05
-9.34038687063e-05
-8.96413047949e-05
-8.65217534437e-05
-8.65354512889e-05
-8.9678604956e-05
-9.34573481069e-05
-9.44437363728e-05
-9.11216922894e-05
-8.36431885202e-05
-7.23909046307e-05
-5.76109447235e-05
-4.10666754919e-05
-2.53239013569e-05
-6.26202001709e-06
-2.5356578042e-05
-4.55099124209e-05
-6.19919273351e-05
-7.14142292953e-05
-7.3342192118e-05
-6.74933149484e-05
-5.47356037427e-05
-4.0799493627e-05
-3.23036030127e-05
-3.23194333998e-05
-4.08425932517e-05
-5.48013986243e-05
-6.75723414122e-05
-7.34156300139e-05
-7.14711720412e-05
-6.20313400805e-05
-4.55341722871e-05
-2.53694201517e-05
-6.27081888161e-06
-4.0094991197e-07
-2.32666786439e-05
-4.49185045249e-05
-5.99011515001e-05
-6.14401685403e-05
-5.15900158664e-05
-3.26327977812e-05
-1.25242138836e-05
-3.40369918835e-06
2.5803206167e-08
2.38341193457e-08
-3.40568240222e-06
-1.25562010526e-05
-3.25784791453e-05
-5.16389145101e-05
-6.15095875719e-05
-5.99256036238e-05
-4.49410823657e-05
-2.32868663472e-05
-4.25816641355e-07
-2.32309404917e-05
-4.20440313431e-05
-5.93090022929e-05
-7.34222741024e-05
-8.25355626133e-05
-8.59513458357e-05
-8.31972325868e-05
-7.65263642637e-05
-7.11857724508e-05
-6.88513837698e-05
-6.88609910235e-05
-7.12141301535e-05
-7.65689208883e-05
-8.32701273986e-05
-8.60319766039e-05
-8.26016579797e-05
-7.34609614814e-05
-5.93337907206e-05
-4.20749008707e-05
-2.32950672563e-05
-4.48618871391e-05
-5.92994580091e-05
-8.10798820488e-05
-0.000100594293282
-0.000116352213929
-0.000128025201838
-0.000135484142948
-0.000134783080651
-0.000137053404507
-0.000137361490332
-0.00013737384384
-0.00013708518753
-0.000134813580455
-0.000135555959702
-0.000128096460334
-0.000116404631584
-0.000100624746794
-8.1095696554e-05
-5.93190636859e-05
-4.49175223111e-05
-5.98241986943e-05
-7.34199615354e-05
-0.000100603651443
-0.000125119239658
-0.000144342917518
-0.000157236636513
-0.000167332984244
-0.000173013780963
-0.000176415929741
-0.000177788216499
-0.000177798006445
-0.000176440460729
-0.000173047232972
-0.000167387071647
-0.000157284715146
-0.000144372012488
-0.000125135307469
-0.000100601483228
-7.34063896977e-05
-5.983147061e-05
-6.13817526901e-05
-8.25437631817e-05
-0.000116374423892
-0.000144354794688
-0.000163868321292
-0.000178189647634
-0.000188230519232
-0.000194480349236
-0.000197869126881
-0.000199307932675
-0.000199314337448
-0.000197885911537
-0.000194514439357
-0.000188285836049
-0.00017823914615
-0.000163891400561
-0.000144355315565
-0.000116356298955
-8.2494325411e-05
-6.13178631975e-05
-5.15229672021e-05
-8.59653338287e-05
-0.00012805582081
-0.0001572490491
-0.000178190987144
-0.000192405642423
-0.00020167852927
-0.000207087783724
-0.000209713305264
-0.0002107155823
-0.000210718049163
-0.000209720276537
-0.000207117705089
-0.000201742390467
-0.000192475602929
-0.000178233014194
-0.000157250672515
-0.000128026570381
-8.58748554736e-05
-5.13683998204e-05
-3.25247179674e-05
-8.32154291567e-05
-0.000135515570192
-0.000167340932755
-0.000188226526223
-0.000201676877483
-0.000209850192167
-0.000214033761605
-0.000215653280804
-0.000216058492374
-0.00021605730852
-0.000215649749559
-0.00021405585042
-0.000209920190955
-0.000201765789634
-0.000188289921857
-0.000167349007017
-0.000135477264713
-8.30851833515e-05
-3.22914241171e-05
-1.2586993407e-05
-7.65544265722e-05
-0.000134796056316
-0.000173013958107
-0.000194469660019
-0.000207088727095
-0.00021404582013
-0.000216930889258
-0.000217370974311
-0.000217080812453
-0.000217078681632
-0.000217365652258
-0.000216952782279
-0.00021412174045
-0.000207189801607
-0.000194541763225
-0.000173020159085
-0.000134728692885
-7.63809819907e-05
-1.21797420034e-05
-3.43061715388e-06
-7.12025324026e-05
-0.00013703596377
-0.000176397654462
-0.000197856029495
-0.000209723657726
-0.000215685729241
-0.000217397528338
-0.000216744576481
-0.000215829933657
-0.000215830006236
-0.00021674544776
-0.000217432182103
-0.000215774055996
-0.000209832214116
-0.000197931562694
-0.000176411090763
-0.000136978852193
-7.10032833832e-05
-2.97210598785e-06
7.23980761032e-08
-6.88225830522e-05
-0.000137323700588
-0.000177763614119
-0.000199299898078
-0.000210734345446
-0.000216103219265
-0.000217129311379
-0.000215854670761
-0.000214567282994
-0.000214570887094
-0.000215865805927
-0.00021718018314
-0.000216207563003
-0.000210850690533
-0.000199377200002
-0.000177778067777
-0.000137267162183
-6.86295014543e-05
5.35984461516e-07
1.46086716381e-07
-6.87810661231e-05
-0.000137315322919
-0.000177760221422
-0.000199293467368
-0.000210721812402
-0.000216088051374
-0.000217119795836
-0.000215852907483
-0.000214571182448
-0.000214577904284
-0.0002158727084
-0.000217183965522
-0.000216207275567
-0.000210847639072
-0.00019937415713
-0.00017777504137
-0.000137260553945
-6.86098441675e-05
5.74086303332e-07
-3.24235187081e-06
-7.11033236403e-05
-0.000137010519771
-0.000176383723223
-0.000197836323
-0.000209689042463
-0.000215643116542
-0.000217369739705
-0.000216736459677
-0.000215837125079
-0.000215844818182
-0.000216758496184
-0.000217437945394
-0.000215769984829
-0.000209820406312
-0.000197919809531
-0.000176400276908
-0.000136960081369
-7.09525449983e-05
-2.86074752691e-06
-1.23610814019e-05
-7.64468068303e-05
-0.000134736897125
-0.000172985908313
-0.000194451457124
-0.000207060431882
-0.000214012981457
-0.000216915774433
-0.000217381298188
-0.000217109678369
-0.00021711537547
-0.000217398648175
-0.000216978610398
-0.000214133896434
-0.000207186217926
-0.000194531330119
-0.000173004004831
-0.000134697422064
-7.6314192524e-05
-1.20342598239e-05
-3.2443118482e-05
-8.3138599592e-05
-0.000135476036939
-0.000167332781658
-0.000188230720336
-0.000201680270703
-0.000209856478103
-0.00021405557798
-0.000215692599
-0.000216110620767
-0.000216113671626
-0.000215702233236
-0.00021410273889
-0.000209953745536
-0.000201780386796
-0.000188291058697
-0.000167338702912
-0.000135451747784
-8.30179007711e-05
-3.21441717915e-05
-5.14815363783e-05
-8.59128094025e-05
-0.000128024608916
-0.000157242388587
-0.000178201506469
-0.000192427462947
-0.000201704739405
-0.000207120357754
-0.000209751122087
-0.000210755612949
-0.000210756430871
-0.000209753269428
-0.000207149180926
-0.000201769670734
-0.000192492316561
-0.000178233821574
-0.000157235634456
-0.0001279932586
-8.58021825987e-05
-5.12528120831e-05
-6.13833810336e-05
-8.25078360858e-05
-0.000116345239749
-0.000144332821034
-0.000163864892418
-0.000178204224254
-0.000188249531004
-0.000194487200139
-0.000197867492445
-0.000199303547061
-0.000199305950579
-0.000197873827664
-0.000194509275141
-0.000188289117484
-0.000178238025884
-0.000163876836982
-0.000144324884585
-0.000116304962047
-8.24074139647e-05
-6.12072187563e-05
-5.98321687508e-05
-7.33937656819e-05
-0.000100579924398
-0.000125103383061
-0.000144329211694
-0.000157229679318
-0.000167320772191
-0.000172980924638
-0.000176369338528
-0.000177735542817
-0.000177742004596
-0.000176386516252
-0.000173007653854
-0.00016735490372
-0.000157252490057
-0.000144336258887
-0.000125088305455
-0.000100534555207
-7.33100438008e-05
-5.97133482308e-05
-4.48664312151e-05
-5.92899434902e-05
-8.10648901696e-05