/*--------------------------------*- C++ -*----------------------------------*\
| =========                 |                                                 |
| \\      /  F ield         | OpenFOAM: The Open Source CFD Toolbox           |
|  \\    /   O peration     | Version:  3.0.1                                 |
|   \\  /    A nd           | Web:      www.OpenFOAM.org                      |
|    \\/     M anipulation  |                                                 |
\*---------------------------------------------------------------------------*/
FoamFile
{
    version     2.0;
    format      ascii;
    class       surfaceVectorField;
    location    "2.7";
    object      ddt0(Uf);
}
// * * * * * * * * * * * * * * * * * * * * * * * * * * * * * * * * * * * * * //

dimensions      [0 1 -2 0 0 0 0];

internalField   nonuniform List<vector> 
45932
(
(0.000745061059094 4.4499482714e-05 -0.000213337651443)
(0.000330454706197 0.000280394938432 -0.000367476431796)
(0.000471670235883 0.000207001975217 -0.000653053892237)
(0.00135027895707 6.77883596172e-05 -0.000146281745409)
(0.00114091347566 0.00029672249303 -0.000442492720016)
(0.00125924168656 0.000289101014442 -0.000599584335696)
(0.00136674300129 0.000191006916305 -8.9648964783e-05)
(0.00157799203977 0.000564641332322 -0.000446274708592)
(0.00164656078732 0.000502662480934 -0.000573210424698)
(0.00074339242436 0.000306108196729 -5.09452050305e-05)
(0.00121704910655 0.000821698989421 -0.000403549368059)
(0.0012609721933 0.000688142504749 -0.000510494215882)
(-0.000236558183121 0.000356517618598 -3.03900937326e-05)
(0.000320100102973 0.000978740970743 -0.000386211507587)
(0.000333984182171 0.000804297735262 -0.000489352934636)
(-0.00130725030901 0.000314659879576 -1.14252058368e-05)
(-0.000790790101204 0.000983129463408 -0.000361102503049)
(-0.000807098319819 0.000804554528654 -0.000448370733416)
(-0.00218039163454 0.000199754184051 1.47650608315e-06)
(-0.00186778490777 0.000827404228993 -0.000329726193246)
(-0.00191053780674 0.000686192190943 -0.00039125874124)
(-0.00263461278293 5.90201943225e-05 8.17221959969e-06)
(-0.00255649659724 0.000567012687893 -0.000300773826692)
(-0.00260916918361 0.000497371895466 -0.000340088014388)
(-0.00260551570146 -6.32486004124e-05 1.14735936194e-05)
(-0.00274904400953 0.000254040707403 -0.000248431695815)
(-0.00281861399476 0.000271539075747 -0.000268608358459)
(-0.0022495923776 -0.000119932626379 1.34487263796e-05)
(-0.00245645395667 1.10219148129e-05 -0.000178517901877)
(-0.00252818439547 8.07234382671e-05 -0.000188980842157)
(-0.00182393886718 -0.000113576981498 1.40824648786e-05)
(-0.00202105284072 -9.90474854632e-05 -0.000107903775339)
(-0.00208540230248 -1.02660195029e-05 -0.000113851437913)
(-0.0014832982025 -8.63900062679e-05 1.27672724836e-05)
(-0.00162491403718 -0.000112880966079 -5.48405978342e-05)
(-0.00167291672182 -4.03270957433e-05 -5.75995093309e-05)
(-0.00126207041082 -5.75137329869e-05 1.03387705224e-05)
(-0.00134644232631 -8.93997828472e-05 -2.28984989141e-05)
(-0.00137834649429 -3.99083142555e-05 -2.1434094174e-05)
(-0.00113400600679 -3.51549762813e-05 5.2221866687e-06)
(-0.00118163880828 -5.93236053426e-05 -7.79628597504e-06)
(-0.0012016377689 -2.9403226824e-05 -4.9617454787e-06)
(-0.00105178550303 -2.1007637941e-05 -3.13551894009e-06)
(-0.00108503902383 -3.67279263595e-05 -5.41476131285e-06)
(-0.00109801469697 -1.96882047197e-05 -4.65213220835e-06)
(-0.000970075038163 -1.31619660909e-05 -1.42329148275e-05)
(-0.00100803202321 -2.3444172062e-05 -1.14576740221e-05)
(-0.00101789029794 -1.34277754794e-05 -1.76830842065e-05)
(-0.000859722011296 -8.53476419147e-06 -2.60912605562e-05)
(-0.000913870589523 -1.681329314e-05 -2.1909050806e-05)
(-0.000922240328316 -1.00777717671e-05 -3.86231707947e-05)
(-0.000709506163695 -5.37039570352e-06 -3.64184757091e-05)
(-0.000784146032023 -1.23769400373e-05 -3.27887538213e-05)
(-0.000790947056638 -7.76586718878e-06 -6.29715213794e-05)
(-0.000532492619982 -2.79504807601e-06 -4.22730654353e-05)
(-0.000620841806552 -9.66852133748e-06 -4.04576099493e-05)
(-0.000625248899737 -5.50019111399e-06 -7.90637653103e-05)
(-0.0003509935885 -1.1098147534e-07 -4.1542426121e-05)
(-0.000442380922763 -5.67069684069e-06 -4.22781126297e-05)
(-0.000443620568017 -3.09846013294e-06 -8.53027957187e-05)
(-0.000193939476736 2.26516127903e-06 -3.46880658404e-05)
(-0.000274501704154 -1.20594711662e-06 -3.73513004522e-05)
(-0.000272444078461 -3.73698037441e-07 -7.75578709195e-05)
(-8.19867422215e-05 3.88104952617e-06 -2.41285636532e-05)
(-0.000141631071495 2.57191140531e-06 -2.72794161031e-05)
(-0.000137152463645 1.82963447207e-06 -5.88080184773e-05)
(-2.04591087613e-05 4.51681965383e-06 -1.35923710037e-05)
(-5.64220572043e-05 4.90473852887e-06 -1.57006497164e-05)
(-5.12149149511e-05 3.08507514875e-06 -3.59541557936e-05)
(1.61665640165e-06 4.29197382558e-06 -6.60015910176e-06)
(-1.58692052412e-05 5.51971556704e-06 -6.37001606237e-06)
(-1.17756262928e-05 3.42925897361e-06 -1.68596717743e-05)
(6.91183718702e-06 3.36591929112e-06 -5.04680701998e-06)
(-3.26207701092e-06 4.80893863817e-06 -2.61458276854e-06)
(-1.31703140693e-06 3.02840058218e-06 -7.75199524793e-06)
(2.06153466018e-05 2.02538409016e-06 -8.8229708268e-06)
(5.63899937514e-06 2.9104583412e-06 -4.75534653319e-06)
(5.28775089199e-06 2.00686376403e-06 -1.00245619126e-05)
(6.24125571361e-05 6.98171113181e-07 -1.64327046776e-05)
(3.32600585285e-05 6.47339415806e-07 -1.16036019689e-05)
(3.09773030405e-05 1.02155166025e-06 -2.17611592634e-05)
(0.000141923401271 -9.12442169145e-07 -2.68913479915e-05)
(9.38848956204e-05 -1.33151165811e-06 -2.13198650222e-05)
(9.02621317478e-05 1.40787031351e-08 -3.85973817665e-05)
(0.000247656569744 -1.75414292771e-06 -3.26226856018e-05)
(0.000187351225292 -4.82290893436e-06 -3.28514545121e-05)
(0.000185597178187 -7.99712997246e-07 -4.81930055325e-05)
(0.000383679335663 -1.84853429205e-06 -3.23808041502e-05)
(0.000309172199432 -3.76378222011e-06 -3.377215722e-05)
(0.000309856879704 -1.2344002958e-06 -6.43905931813e-05)
(0.000520290823352 -2.30935681026e-06 -2.99108115534e-05)
(0.000445918818544 -4.46764862652e-06 -3.41593208807e-05)
(0.000447777024112 -1.56562551372e-06 -6.3985042296e-05)
(0.000637906893836 -2.73543268277e-06 -2.25574104689e-05)
(0.000573677151213 -4.98676071555e-06 -2.93994552079e-05)
(0.000577869494212 -1.72653482405e-06 -5.39748830687e-05)
(0.000716248464423 -3.16687570337e-06 -1.12762213047e-05)
(0.000672155240321 -5.30893596116e-06 -1.95277720349e-05)
(0.00067827404413 -1.70321115907e-06 -3.40213085936e-05)
(0.000744028676219 -3.67154614348e-06 1.92393380194e-06)
(0.000725567420193 -5.74658798909e-06 -6.77947377691e-06)
(0.000732710225849 -1.81915188539e-06 -8.31050449957e-06)
(0.000718773957242 -4.20209928945e-06 1.51436968091e-05)
(0.000727135303213 -6.43233983321e-06 6.74104449964e-06)
(0.000734354635097 -2.05390583216e-06 1.8873769997e-05)
(0.000644180237087 -4.61775077728e-06 2.7013528823e-05)
(0.00067772095353 -7.23455801239e-06 1.92419055599e-05)
(0.000684233723426 -2.37419955679e-06 4.43009523568e-05)
(0.000526919554174 -4.76169777465e-06 3.64537089544e-05)
(0.000582259483579 -7.79085785772e-06 2.99387903782e-05)
(0.000587400744648 -2.54883917177e-06 6.6118936445e-05)
(0.00037666002936 -4.090642523e-06 4.3353708864e-05)
(0.000449897654989 -7.66795855488e-06 3.76620115303e-05)
(0.000453200354322 -2.59952014664e-06 8.24322534774e-05)
(0.000199018876257 -1.73893075738e-06 4.75475719365e-05)
(0.0002892657586 -5.59435039742e-06 4.38796215131e-05)
(0.000290226298884 -1.57506088973e-06 9.40523731956e-05)
(0.000100789257128 -1.00737786786e-07 4.85850125208e-05)
(9.96807914215e-05 1.78221809933e-06 9.93342116507e-05)
(0.000710795769932 0.000556781765086 -0.000596631500369)
(0.000295314051165 0.0008203395429 -0.000497285391133)
(0.000435308154303 0.000676662910614 -0.000895660144726)
(0.00139441602196 0.000829573854137 -0.000742485683199)
(0.0012405472502 0.00106533455238 -0.000765426387898)
(0.00128080503592 0.000940174931593 -0.00111085202194)
(0.00142455187821 0.00124472068097 -0.000760175111868)
(0.0016977027173 0.00167040305701 -0.000792212505103)
(0.00163939385135 0.00143655022193 -0.00112139828586)
(0.000777602537602 0.00155296210896 -0.000738815670615)
(0.00129816712922 0.00217697664394 -0.000736177698215)
(0.00124349008122 0.00185084174838 -0.00103258976365)
(-0.000230929370039 0.00166807169365 -0.000716923916904)
(0.000350783572368 0.00246559718287 -0.000712279273116)
(0.000327033517908 0.00208274760329 -0.000983576895384)
(-0.00132678345023 0.0015543186362 -0.000679403490459)
(-0.000812010975501 0.00246314599797 -0.000681311824748)
(-0.000799562047114 0.00207443562709 -0.000933109105032)
(-0.00223222442713 0.00124217591322 -0.000631976526021)
(-0.00193042136675 0.00215952578365 -0.000641896960981)
(-0.00187977536893 0.00181988536833 -0.000880214477769)
(-0.00269314168909 0.000794655840252 -0.000557377742107)
(-0.0026710962644 0.00163374554545 -0.000610472334155)
(-0.00259018276402 0.00138826397095 -0.00083675051918)
(-0.00263611885362 0.000342317081175 -0.000438423191311)
(-0.00284963728321 0.00096357386396 -0.000541001534293)
(-0.00278028398918 0.000845246784035 -0.000738256976705)
(-0.00224819328647 4.01097939897e-05 -0.000299870403595)
(-0.00252426718032 0.000389346695087 -0.000420618769976)
(-0.00249905385686 0.000375212080642 -0.000572419596098)
(-0.00180880608765 -8.79420818546e-05 -0.000176826838052)
(-0.00203674244423 5.94125064967e-05 -0.00027444082369)
(-0.00205216243706 9.69773950141e-05 -0.000378343854537)
(-0.0014670371682 -0.000110236731958 -9.0506369232e-05)
(-0.00161180047421 -7.13188333601e-05 -0.000151483727058)
(-0.00164545510091 -2.31067840801e-05 -0.000212731140682)
(-0.0012519026653 -8.95262046939e-05 -4.10335554116e-05)
(-0.00132679097353 -9.39516166394e-05 -7.2611173084e-05)
(-0.00136130337528 -5.39293305367e-05 -0.00010337124991)
(-0.00113182443999 -6.1450542915e-05 -1.84332339566e-05)
(-0.00116620866625 -7.62097192359e-05 -3.11586651264e-05)
(-0.0011947953097 -4.80103141308e-05 -4.35491372299e-05)
(-0.0010554656445 -4.0398266799e-05 -1.37369163949e-05)
(-0.00107676301798 -5.35632685898e-05 -1.55745074269e-05)
(-0.00109921171018 -3.53403793581e-05 -2.17572036306e-05)
(-0.000976824153536 -2.82056549576e-05 -1.91338100006e-05)
(-0.0010054634483 -3.8105183034e-05 -1.59737620945e-05)
(-0.00102357946728 -2.65177631251e-05 -2.50711167921e-05)
(-0.000866906225288 -2.12850096965e-05 -2.86065440711e-05)
(-0.000914186382705 -3.00015516875e-05 -2.43005750692e-05)
(-0.000929469382161 -2.22664461043e-05 -4.21663357575e-05)
(-0.000717461517061 -1.62120231867e-05 -3.68278880616e-05)
(-0.000785317021396 -2.48753805637e-05 -3.42956702742e-05)
(-0.000797917007051 -1.95673673123e-05 -6.25997833005e-05)
(-0.000539906381695 -1.13163470196e-05 -4.04626571436e-05)
(-0.000622076763159 -1.91818284718e-05 -4.06492630713e-05)
(-0.000631612697782 -1.63100690862e-05 -7.96272985703e-05)
(-0.000358570660592 -5.64117977629e-06 -3.80869869608e-05)
(-0.000443394696898 -1.35067107151e-05 -4.09224475875e-05)
(-0.000449734811158 -1.13166153847e-05 -8.31938257912e-05)
(-0.000202428049316 3.29096197888e-08 -2.99426507149e-05)
(-0.000275910463265 -6.10055229948e-06 -3.47088552284e-05)
(-0.000279199766831 -5.13413371159e-06 -7.35471979146e-05)
(-9.18603609493e-05 4.26096551065e-06 -1.88515021663e-05)
(-0.000144269486391 4.14056451849e-07 -2.37729845307e-05)
(-0.000145548513357 3.5887917902e-07 -5.35110018327e-05)
(-3.19062584787e-05 6.35936566012e-06 -8.47829477504e-06)
(-6.06794030863e-05 4.80243045531e-06 -1.19745520722e-05)
(-6.16396142265e-05 3.92156119598e-06 -3.02760344731e-05)
(-1.13907649668e-05 6.41785679334e-06 -2.38443972916e-06)
(-2.16584319761e-05 6.48287602287e-06 -2.88171568678e-06)
(-2.40716015744e-05 5.25703592014e-06 -1.16296144556e-05)
(-6.64963735711e-06 4.84332353919e-06 -2.32312228176e-06)
(-1.02803447151e-05 5.90947584111e-06 -8.25404755876e-08)
(-1.5147296358e-05 4.8237947132e-06 -3.86432107628e-06)
(6.88634371353e-06 2.29710128496e-06 -7.53597767526e-06)
(-2.07559390168e-06 3.70322752456e-06 -3.29427244814e-06)
(-9.32856027013e-06 3.00533925746e-06 -7.91188566469e-06)
(4.8503348461e-05 -7.80249227514e-08 -1.64907623134e-05)
(2.56535176833e-05 8.22190262499e-07 -1.10420313655e-05)
(1.63733474299e-05 8.93978236916e-07 -2.12793680955e-05)
(0.000127243675194 -3.46872540467e-06 -2.72799715428e-05)
(8.59442308336e-05 -8.87137987304e-07 -2.21553303656e-05)
(7.61173149004e-05 -9.79912809593e-07 -4.00632767869e-05)
(0.000236326468565 -5.34777008518e-06 -3.40009261303e-05)
(0.000180480132179 -6.7893408408e-06 -3.19326767864e-05)
(0.000172345541302 -2.91720671124e-06 -5.27971741949e-05)
(0.000372241046115 -5.24125632082e-06 -3.55506739505e-05)
(0.000303693529158 -5.44860355121e-06 -3.56488698527e-05)
(0.000297633871096 -3.67758541766e-06 -6.64893776808e-05)
(0.000509708934833 -5.94658411807e-06 -3.36479645352e-05)
(0.00044048434601 -6.24834155579e-06 -3.65758886842e-05)
(0.000436632400975 -4.14284130711e-06 -6.71788929056e-05)
(0.000628198536116 -6.45250550839e-06 -2.63698167739e-05)
(0.000568821736969 -6.58517155649e-06 -3.19504758356e-05)
(0.000567913363542 -4.19720649801e-06 -5.788718146e-05)
(0.000707366742206 -6.95910406664e-06 -1.50310245071e-05)
(0.000667744927372 -6.67333137328e-06 -2.18925778693e-05)
(0.00066931756426 -3.93815772162e-06 -3.84779247826e-05)
(0.000736055590904 -7.68331085165e-06 -1.96236307921e-06)
(0.000721457520428 -6.98878510778e-06 -9.12723700453e-06)
(0.00072453095419 -3.98629595847e-06 -1.33817029562e-05)
(0.000711792741664 -8.57901886759e-06 1.08392532505e-05)
(0.000723324314416 -7.65468471846e-06 4.25884622965e-06)
(0.000726955645993 -4.38120183617e-06 1.30394406814e-05)
(0.000638386393163 -9.35117068023e-06 2.21671671151e-05)
(0.000674453421576 -8.52523394361e-06 1.63970228294e-05)
(0.000677798881273 -4.95398677622e-06 3.76162332253e-05)
(0.000522830501097 -9.55114282036e-06 3.11470929541e-05)
(0.000579756888909 -9.04090829229e-06 2.67694748762e-05)
(0.000582072309663 -5.41343232328e-06 5.8559605372e-05)
(0.000374610423899 -8.18873417346e-06 3.81879241794e-05)
(0.000448759695978 -8.71493583183e-06 3.41868361004e-05)
(0.00044913213382 -5.37563324016e-06 7.46145845928e-05)
(0.000200480980052 -3.28528907835e-06 4.49170620974e-05)
(0.000290458736747 -6.18951063897e-06 4.10074937187e-05)
(0.000288013223792 -3.52496063666e-06 8.71241038474e-05)
(0.000102787010493 1.13163559844e-06 4.92280353734e-05)
(9.90727497729e-05 2.83708319153e-06 9.85905099256e-05)
(0.000801045650704 0.00129966853256 -0.000666080278662)
(0.000362123851759 0.00134717169199 -0.000496161125105)
(0.000492799552594 0.00123846262754 -0.000927638022892)
(0.0015704449665 0.00186508667357 -0.000815153209802)
(0.00148998070848 0.00183456412759 -0.000767664404449)
(0.00144216305604 0.00168493626587 -0.0011543706889)
(0.00156943593076 0.00253951318028 -0.000768215091451)
(0.00194792375266 0.00269320754158 -0.000674008946198)
(0.00177035313501 0.00238888276166 -0.00102300293156)
(0.000853003074253 0.00300566072059 -0.000709641300715)
(0.00145837975363 0.0033628327293 -0.000534053243297)
(0.00131378353155 0.00294899131794 -0.000828738616255)
(-0.000227423341251 0.00316836694218 -0.00067666718096)
(0.000406570654092 0.00373506383984 -0.000478177970025)
(0.000348088554864 0.00325239038451 -0.000730727552667)
(-0.00139182158792 0.00298522588376 -0.00064380529527)
(-0.000864019011638 0.00372371075204 -0.000445862874774)
(-0.000823101273881 0.0032335498669 -0.000679951211744)
(-0.00235634415413 0.00249076015714 -0.000620392769115)
(-0.00207615384229 0.00331145093953 -0.00043533604212)
(-0.00193646909195 0.00287606133339 -0.000670971981936)
(-0.00284829243937 0.00176673074658 -0.000594096126342)
(-0.00289228644616 0.00259521087383 -0.000471096865486)
(-0.00268089689399 0.00226463631957 -0.000716280193091)
(-0.00277262774412 0.000993311313162 -0.000523197112958)
(-0.00308237616384 0.00166085452967 -0.00049662264351)
(-0.0028748791544 0.00148633049165 -0.000735446439432)
(-0.00232575030372 0.000403148028123 -0.000395189190071)
(-0.00270301872301 0.000818403202631 -0.00045332964102)
(-0.00257442616225 0.000770143426033 -0.000652623478832)
(-0.00182458222657 7.51929037446e-05 -0.000249097712697)
(-0.00212436484588 0.000278815522067 -0.000326182891254)
(-0.00208057422316 0.000295006156899 -0.00047012550228)
(-0.00145062845501 -5.44967376165e-05 -0.00013358853091)
(-0.00163033862027 2.15754962857e-05 -0.000191504178003)
(-0.00163823616737 5.52807277649e-05 -0.00028010213313)
(-0.00122729311852 -7.98599974914e-05 -6.27362827989e-05)
(-0.00131346964888 -6.45241646272e-05 -9.59720343667e-05)
(-0.00134070865636 -3.174201142e-05 -0.000141409434752)
(-0.00111118447863 -6.81347416508e-05 -2.82999385967e-05)
(-0.00114628458236 -7.23748577908e-05 -4.29311240426e-05)
(-0.00117484197451 -4.84207886673e-05 -6.22524975671e-05)
(-0.00104214991473 -5.14612329415e-05 -1.78113531265e-05)
(-0.00106081548853 -5.90275246122e-05 -2.09326117779e-05)
(-0.00108542185551 -4.28463802693e-05 -2.94340856978e-05)
(-0.000969170079137 -4.00350385377e-05 -2.11405271632e-05)
(-0.000995355568992 -4.66558331078e-05 -1.87062760018e-05)
(-0.00101576945945 -3.6135367371e-05 -2.83139101789e-05)
(-0.000861972001896 -3.3273331681e-05 -2.99897012723e-05)
(-0.000907956914096 -3.96612030924e-05 -2.63699316229e-05)
(-0.000925069739893 -3.2794884555e-05 -4.42940189109e-05)
(-0.000712955950743 -2.76151765632e-05 -3.8117045284e-05)
(-0.000780381888537 -3.48831703567e-05 -3.61514791116e-05)
(-0.000794538159834 -3.0353300875e-05 -6.48362379324e-05)
(-0.000535776040533 -2.1029211691e-05 -4.11090535152e-05)
(-0.000617062314597 -2.91986883831e-05 -4.25042388598e-05)
(-0.00062774246852 -2.647840421e-05 -7.89035944461e-05)
(-0.000353875373469 -1.3145191789e-05 -3.7544315855e-05)
(-0.000437985766283 -2.09924324346e-05 -4.17401386312e-05)
(-0.000445099336017 -1.96078775257e-05 -8.38036314459e-05)
(-0.000198196916166 -5.05061708354e-06 -2.85391890441e-05)
(-0.000270638077552 -1.16211778225e-05 -3.45552120897e-05)
(-0.000274716973226 -1.0988589842e-05 -7.26724824997e-05)
(-8.90295287899e-05 1.36488556068e-06 -1.68960344365e-05)
(-0.000140026472587 -3.08732226373e-06 -2.27735301789e-05)
(-0.000142132877369 -2.97488352848e-06 -5.14518240166e-05)
(-3.03588956417e-05 5.05201713862e-06 -6.3779729839e-06)
(-5.79658785384e-05 2.8247836391e-06 -1.05793572068e-05)
(-5.98310769877e-05 2.59170110567e-06 -2.77415722905e-05)
(-1.10124442685e-05 5.93723974294e-06 -5.79816433207e-07)
(-2.04790961679e-05 5.4699848617e-06 -1.46965556777e-06)
(-2.38500524169e-05 5.10835777494e-06 -9.05000513778e-06)
(-7.0737243578e-06 4.69520738921e-06 -1.05369064196e-06)
(-1.02774123264e-05 5.30239164856e-06 1.0122385135e-06)
(-1.61437491071e-05 5.08777308914e-06 -1.73671981215e-06)
(5.99935975345e-06 2.12950360652e-06 -6.80032613834e-06)
(-2.78573773307e-06 3.33363830624e-06 -2.60338481556e-06)
(-1.10157297171e-05 3.36140993208e-06 -6.50150968734e-06)
(4.77735085442e-05 -7.67681620371e-07 -1.67065994176e-05)
(2.47875933047e-05 1.62821613563e-07 -1.06992500504e-05)
(1.46389716349e-05 8.54536263618e-07 -2.05101258588e-05)
(0.000125326532424 -4.07148018955e-06 -2.68080356091e-05)
(8.48890286315e-05 -3.65443296888e-06 -2.21850416788e-05)
(7.44465566659e-05 -1.437826063e-06 -3.62462402164e-05)
(0.00023758028779 -5.8386030577e-06 -3.35806205087e-05)
(0.000180217584229 -5.45465717497e-06 -3.10200384395e-05)
(0.000171082777988 -3.72008851334e-06 -5.76716116947e-05)
(0.000372407181265 -6.05465534048e-06 -3.66740845864e-05)
(0.000304224129948 -6.15391375244e-06 -3.65073114078e-05)
(0.00029698870692 -4.52897060293e-06 -6.69110473369e-05)
(0.00050997333168 -6.51096959596e-06 -3.48783999846e-05)
(0.000440900590998 -6.87459890774e-06 -3.74861435533e-05)
(0.000436313672706 -4.84038323956e-06 -6.83672674833e-05)
(0.000628624713609 -6.56347706145e-06 -2.7473236931e-05)
(0.000569435809175 -6.84361494663e-06 -3.27844070491e-05)
(0.000567899952086 -4.55211550291e-06 -5.92932158854e-05)
(0.000707622428745 -6.63787800602e-06 -1.59887903667e-05)
(0.000668300489636 -6.66090737215e-06 -2.25121992873e-05)
(0.000669327912471 -4.02632545144e-06 -3.9755423897e-05)
(0.00073603258286 -7.02740884229e-06 -2.90602769567e-06)
(0.000721765632413 -6.74424073394e-06 -9.62647493383e-06)
(0.000724320867954 -3.84547846072e-06 -1.47148018961e-05)
(0.000711617331747 -7.72450558952e-06 9.81661580852e-06)
(0.00072335662077 -7.23549171913e-06 3.75766625033e-06)
(0.000726496234101 -4.10268313619e-06 1.14890872698e-05)
(0.000638306600029 -8.35917198085e-06 2.09993305905e-05)
(0.000674421492558 -7.96334455972e-06 1.58427566765e-05)
(0.000677230512459 -4.64809202374e-06 3.57302036636e-05)
(0.000523232418221 -8.40481382041e-06 2.98092180225e-05)
(0.00057990996961 -8.35606140344e-06 2.60766510723e-05)
(0.000581567464857 -5.05822940396e-06 5.63969350272e-05)
(0.000376130204182 -6.92301556797e-06 3.70064056397e-05)
(0.000449559469385 -7.96658869579e-06 3.3359516485e-05)
(0.000448852303334 -4.93401946117e-06 7.22773066183e-05)
(0.000201953377727 -2.131759835e-06 4.53184669947e-05)
(0.000292784184203 -5.37729143741e-06 4.05175490219e-05)
(0.000288594912149 -2.97220678675e-06 8.57712240336e-05)
(0.000104497182152 1.13939088359e-06 5.05600342128e-05)
(9.9479208571e-05 2.86668069643e-06 0.000100594375203)
(0.00102230559106 0.00185986435757 -0.000597745250892)
(0.00051114682792 0.00172162607538 -0.000464812794731)
(0.0006383436648 0.00167743345846 -0.000885845537984)
(0.00190293031833 0.00262577839206 -0.000626520140845)
(0.00186787467781 0.00235678630732 -0.000631996322178)
(0.00173846609636 0.00222395887448 -0.000963010231048)
(0.0018322637407 0.00345586878872 -0.000439847098044)
(0.00231408339887 0.00334157391091 -0.000358248116358)
(0.0020275107908 0.00303083166895 -0.00061396024716)
(0.000991954231574 0.00401207029088 -0.000302589912607)
(0.00170428839841 0.00405703950808 -9.20956268687e-05)
(0.00146937772975 0.00364410248045 -0.000275652127883)
(-0.000227671324306 0.00420381069202 -0.000247373663839)
(0.000494346762104 0.00446278118904 2.36828260727e-05)
(0.000396514900948 0.00397538509035 -0.00012014208766)
(-0.00152566434372 0.00397292743 -0.000237393621623)
(-0.000954942753318 0.00444571222372 5.32390308536e-05)
(-0.000880811609082 0.0039464263225 -7.54654176317e-05)
(-0.00259515250612 0.00336028097866 -0.000286040138491)
(-0.00231203804553 0.00397680065917 -6.4133418145e-07)
(-0.00208278180965 0.00353239139438 -0.000132678635116)
(-0.00314956055793 0.00245916839394 -0.000373623382654)
(-0.00321969964709 0.00318123746858 -0.000150669495978)
(-0.00288904469993 0.00282855506957 -0.000310108174326)
(-0.00305420554404 0.00147679377974 -0.000426755171572)
(-0.00343523763498 0.00211658827099 -0.000314908389773)
(-0.00310298859712 0.00192155819811 -0.000503960189331)
(-0.0025126822567 0.000694977971322 -0.000384323342203)
(-0.00298738395133 0.00113106107901 -0.000397268576683)
(-0.00276362415786 0.00106142951391 -0.000583581386115)
(-0.00191099686982 0.000225495385349 -0.00026858935656)
(-0.00229001748116 0.000461363087746 -0.00033218601635)
(-0.00218891849729 0.000459093033025 -0.000483493368491)
(-0.00146883156861 1.05583312754e-05 -0.00015388768146)
(-0.00169563670042 0.000111860412216 -0.00021155452583)
(-0.00167609437992 0.000133191728454 -0.000311561924481)
(-0.0012170275255 -5.72909478085e-05 -7.61668756104e-05)
(-0.0013231153017 -2.48482541376e-05 -0.000111709402992)
(-0.00133996512094 -1.22792562349e-06 -0.000165874224737)
(-0.00109546590116 -6.40727400671e-05 -3.55637972238e-05)
(-0.00113616407502 -5.78970120181e-05 -5.1850200606e-05)
(-0.00116210755916 -3.96283309862e-05 -7.56160729081e-05)
(-0.00103001783094 -5.51074605442e-05 -2.18275346532e-05)
(-0.00104883623977 -5.6187220256e-05 -2.58632884793e-05)
(-0.00107345275032 -4.35791570808e-05 -3.59386749375e-05)
(-0.000961614131407 -4.68390311563e-05 -2.39356804615e-05)
(-0.000986827686269 -4.92147572585e-05 -2.18562291247e-05)
(-0.0010079959706 -4.1096918857e-05 -3.20019269045e-05)
(-0.000856698188726 -4.13305528337e-05 -3.25317094622e-05)
(-0.000902352960611 -4.47102323601e-05 -2.92058818394e-05)
(-0.000920134150276 -3.98207095678e-05 -4.77401154035e-05)
(-0.000707935598665 -3.59234997189e-05 -4.05386726875e-05)
(-0.000775598217637 -4.10056842154e-05 -3.89616120457e-05)
(-0.000790142072767 -3.81230338416e-05 -6.85717104551e-05)
(-0.000529937777746 -2.83964154492e-05 -4.31353239758e-05)
(-0.000611630389409 -3.5272146694e-05 -4.50694018497e-05)
(-0.000622527264493 -3.36707416023e-05 -8.32419273761e-05)
(-0.000347755248979 -1.89494261178e-05 -3.87510348659e-05)
(-0.000431854518865 -2.60748864159e-05 -4.38741914287e-05)
(-0.000438901549932 -2.57741085564e-05 -8.63454201367e-05)
(-0.000192641465887 -9.36655847631e-06 -2.87895532245e-05)
(-0.000264657691772 -1.59817090864e-05 -3.55732959513e-05)
(-0.000268452938603 -1.55442725028e-05 -7.35546871461e-05)
(-8.48827745378e-05 -1.55977861893e-06 -1.64568529492e-05)
(-0.000135090687763 -6.31512888956e-06 -2.29032133209e-05)
(-0.000136958892652 -5.92694348874e-06 -5.10253049306e-05)
(-2.79472688816e-05 3.13873029612e-06 -5.67103979068e-06)
(-5.47144730329e-05 4.25869530477e-07 -1.02085643711e-05)
(-5.6429246703e-05 8.54249740229e-07 -2.64531642904e-05)
(-9.94722071394e-06 4.65784668221e-06 1.2239937894e-07)
(-1.89202737485e-05 3.75259914603e-06 -1.03236458002e-06)
(-2.22068348772e-05 4.15703213857e-06 -7.66977033098e-06)
(-7.07121655787e-06 3.77274242862e-06 -5.37455660095e-07)
(-1.00070250954e-05 3.96557327987e-06 1.440439337e-06)
(-1.58368882268e-05 4.53437266879e-06 -4.73004246917e-07)
(5.35870344336e-06 1.41387873466e-06 -6.50230872764e-06)
(-3.29895267043e-06 2.35044267493e-06 -2.42528463047e-06)
(-1.15192460429e-05 2.99783294279e-06 -5.56578734894e-06)
(4.67587457919e-05 -1.76883055169e-06 -1.61776923117e-05)
(2.38539952514e-05 -2.71519079085e-07 -1.07952577042e-05)
(1.38850980721e-05 4.08015372777e-07 -2.05494336509e-05)
(0.000125332873279 -4.48864222449e-06 -2.63970445092e-05)
(8.4177632177e-05 -3.33355220657e-06 -2.19664597174e-05)
(7.38543729168e-05 -2.16932217431e-06 -3.98454122408e-05)
(0.000238054182128 -5.94947591111e-06 -3.39467293386e-05)
(0.000180130480566 -5.48097399476e-06 -3.13106904814e-05)
(0.000170941447028 -4.15205032995e-06 -5.65409431133e-05)
(0.000372830684278 -6.69422203451e-06 -3.73193703747e-05)
(0.000304485115349 -6.60709909355e-06 -3.71678929168e-05)
(0.000297325452721 -5.0298373334e-06 -6.71304721304e-05)
(0.000510600257183 -6.89512565999e-06 -3.53921506178e-05)
(0.000441416053538 -7.01398446742e-06 -3.80496915815e-05)
(0.000436994665959 -5.1908530599e-06 -6.89477312419e-05)
(0.000629369741874 -6.66502945872e-06 -2.78233694054e-05)
(0.000570142755779 -6.73344749412e-06 -3.32181006811e-05)
(0.000568785366025 -4.67990836552e-06 -5.97164531062e-05)
(0.000708156422729 -6.50546463671e-06 -1.61498838544e-05)
(0.000668916847589 -6.32887951844e-06 -2.27373431483e-05)
(0.000670125360199 -4.03420165128e-06 -3.99705009475e-05)
(0.000736254415473 -6.69607283328e-06 -2.96278098783e-06)
(0.000722120925732 -6.22869514357e-06 -9.70356955569e-06)
(0.000724816706684 -3.74089155365e-06 -1.48348691973e-05)
(0.000711639704778 -7.21307146459e-06 9.78380711834e-06)
(0.00072344126032 -6.55202027426e-06 3.73955264088e-06)
(0.000726662381818 -3.93003292401e-06 1.1316825693e-05)
(0.00063837748111 -7.69491446762e-06 2.09200771583e-05)
(0.000674428526057 -7.11310835628e-06 1.58266994015e-05)
(0.000677204399901 -4.41774785862e-06 3.54071687115e-05)
(0.000523696437023 -7.64044296158e-06 2.96269495348e-05)
(0.000580091307264 -7.38435428261e-06 2.59858830494e-05)
(0.000581537886346 -4.78122139369e-06 5.59003352563e-05)
(0.000377110109091 -6.21888443709e-06 3.68706598672e-05)
(0.0004503250816 -6.91131906893e-06 3.31381426334e-05)
(0.000449070235682 -4.60013195084e-06 7.17010680262e-05)
(0.000203397519759 -2.10619598491e-06 4.575911624e-05)
(0.000294827832197 -4.66964600375e-06 4.04658787529e-05)
(0.00028964665747 -2.72986888635e-06 8.56423732715e-05)
(0.000106027517563 6.39954176602e-07 5.12466470959e-05)
(0.000100284131163 2.11719128836e-06 0.000101832474053)
(0.00132863674999 0.00218350106391 -0.000499063866016)
(0.000707173397956 0.00188822856639 -0.000434165784338)
(0.000837606258324 0.00194236481511 -0.000831128761432)
(0.00232764885885 0.00302542156398 -0.000363724297691)
(0.00230109502357 0.00255215444838 -0.000466049144092)
(0.00210658471866 0.00249942973327 -0.000695433409312)
(0.00216748736985 0.00389027912138 -1.04966451819e-05)
(0.00272784212983 0.00353492863418 -8.55355095774e-06)
(0.00235451058156 0.00331036032891 -0.000114550846349)
(0.00117861465428 0.00445831056861 0.000234177111811)
(0.00198780523286 0.00417966723397 0.000373449090306)
(0.00168228949634 0.00390078246988 0.000369483428067)
(-0.000231247130841 0.0046578868411 0.000324295520766)
(0.000596932145816 0.00457286106297 0.000546389501823)
(0.000468176631671 0.00423177875163 0.000591551143853)
(-0.00171223854396 0.00440441660843 0.000289991318295)
(-0.00106412997718 0.00455495937386 0.00056949435164)
(-0.00096977628515 0.00419718088729 0.000627599745514)
(-0.00290413865272 0.0037527586311 0.000134729308331)
(-0.0025872630323 0.00408817804331 0.000448720190981)
(-0.00229348486315 0.00376200296888 0.000481470331639)
(-0.00353253195944 0.00279957850887 -9.19545030976e-05)
(-0.00358404335456 0.0033249785693 0.00019168551852)
(-0.00316418722638 0.00304607129451 0.000168493765212)
(-0.00342313273383 0.00174548561711 -0.000285421794884)
(-0.00383927174184 0.00227233013154 -0.000109771618916)
(-0.00340401629049 0.00211714987997 -0.000211302341471)
(-0.00277869970098 0.000883764191038 -0.00034513125083)
(-0.00332544576486 0.00127565208281 -0.0003204851702)
(-0.00302329225541 0.001223182973 -0.000467042543739)
(-0.00205206958058 0.000340183438279 -0.00027515118562)
(-0.00250500548963 0.000568032622146 -0.000325666068987)
(-0.0023547526806 0.000568288937014 -0.000470066910694)
(-0.00152129965881 7.19405948414e-05 -0.000169376247363)
(-0.00179523512061 0.000177837081991 -0.000226432969453)