/*--------------------------------*- C++ -*----------------------------------*\
| =========                 |                                                 |
| \\      /  F ield         | OpenFOAM: The Open Source CFD Toolbox           |
|  \\    /   O peration     | Version:  3.0.1                                 |
|   \\  /    A nd           | Web:      www.OpenFOAM.org                      |
|    \\/     M anipulation  |                                                 |
\*---------------------------------------------------------------------------*/
FoamFile
{
    version     2.0;
    format      ascii;
    class       surfaceScalarField;
    location    "0.9";
    object      meshPhiCN_0;
}
// * * * * * * * * * * * * * * * * * * * * * * * * * * * * * * * * * * * * * //

dimensions      [0 3 -1 0 0 0 0];

internalField   nonuniform List<scalar> 
22672
(
0
0
0
0
0
0
0
0
0
0
0
0
0
0
0
0
0
0
0
0
0
0
0
0
0
0
0
0
0
0
0
0
0
0
0
0
0
0
0
0
0
0
0
0
0
0
0
0
0
0
0
0
0
0
0
0
0
0
0
0
0
0
0
0
0
0
0
0
0
0
0
0
0
0
0
0
0
0
0
0
0
0
0
0
0
0
0
0
0
0
0
0
0
0
0
0
0
0
0
0
0
0
0
0
0
0
0
0
0
0
0
0
0
0
0
0
0
0
0
0
0
0
0
0
0
0
0
0
0
0
0
0
0
0
0
0
0
0
0
0
0
0
0
0
0
0
0
0
0
0
0
0
0
0
0
0
0
0
0
0
0
0
0
0
0
0
0
0
0
0
0
0
0
0
0
0
0
0
0
0
0
0
0
0
0
0
0
0
0
0
0
0
0
0
0
0
0
0
0
0
0
0
0
0
0
0
0
0
0
0
0
0
0
0
0
0
0
0
0
0
0
0
0
0
0
0
0
0
0
0
0
0
0
0
0
0
0
0
0
0
0
0
0
0
0
0
0
0
0
0
0
0
0
0
0
0
0
0
0
0
0
0
0
0
0
0
0
0
0
0
0
0
0
0
0
0
0
0
0
0
0
0
0
0
0
0
0
0
0
0
0
0
0
0
0
0
0
0
0
0
0
0
0
0
0
0
0
0
0
0
0
0
0
0
0
0
0
0
0
0
0
0
0
0
0
0
0
0
0
0
0
0
0
0
0
0
0
0
0
0
0
0
0
0
0
0
0
0
0
0
0
0
0
0
0
0
0
0
0
0
0
0
0
0
0
0
0
0
0
0
0
0
0
0
0
0
0
0
0
0
0
0
0
0
0
0
0
0
0
0
0
0
0
0
0
0
0
0
0
0
0
0
0
0
0
0
0
0
0
0
0
0
0
0
0
0
0
0
0
0
0
0
0
0
0
0
0
0
0
0
0
0
0
0
0
0
0
0
0
0
0
0
0
0
0
0
0
0
0
0
0
0
0
0
0
0
0
0
0
0
0
0
0
0
0
0
0
0
0
0
0
0
0
0
0
0
0
0
0
0
0
0
0
0
0
0
0
0
0
0
0
0
0
0
0
0
0
0
0
0
0
0
0
0
0
0
0
0
0
0
0
0
0
0
0
0
0
0
0
0
0
0
0
0
0
0
0
0
0
0
0
0
0
0
0
0
0
0
0
0
0
0
0
0
0
0
0
0
0
0
0
0
0
0
0
0
0
0
0
0
0
0
0
0
0
0
0
0
0
0
0
0
0
0
0
0
0
0
0
0
0
0
0
0
0
0
0
0
0
0
0
0
0
0
0
0
0
0
0
0
0
0
0
0
0
0
0
0
0
0
0
0
0
0
0
0
0
0
0
0
0
0
0
0
0
0
0
0
0
0
0
0
0
0
0
0
0
0
0
0
0
0
0
0
0
0
0
0
0
0
0
0
0
0
0
0
0
0
0
0
0
0
0
0
0
0
0
0
0
0
0
0
0
0
0
0
0
0
0
0
0
0
0
0
0
0
0
0
0
0
0
0
0
0
0
0
0
0
0
0
0
0
0
0
0
0
0
0
0
0
0
0
0
0
0
0
0
0
0
0
0
0
0
0
0
0
0
0
0
0
0
0
0
0
0
0
0
0
0
0
0
0
0
0
0
0
0
0
0
0
0
0
0
0
0
0
0
0
0
0
0
0
0
0
0
0
0
0
0
0
0
0
0
0
0
0
0
0
0
0
0
0
0
0
0
0
0
0
0
0
0
0
0
0
0
0
0
0
0
0
0
0
0
0
0
0
0
0
0
0
0
0
0
0
0
0
0
0
0
0
0
0
0
0
0
0
0
0
0
0
0
0
0
0
0
0
0
0
0
0
0
0
0
0
0
0
0
0
0
0
0
0
0
0
0
0
0
0
0
0
0
0
0
0
0
0
0
0
0
0
0
0
0
0
0
0
0
0
0
0
0
0
0
0
0
0
0
0
0
0
0
0
0
0
0
0
0
0
0
0
0
0
0
0
0
0
0
0
0
0
0
0
0
0
0
0
0
0
0
0
0
0
0
0
0
0
0
0
0
0
0
0
0
0
0
0
0
0
0
0
0
0
0
0
0
0
0
0
0
0
0
0
0
0
0
0
0
0
0
0
0
0
0
0
0
0
0
0
0
0
0
0
0
0
0
0
0
0
0
0
0
0
0
0
0
0
0
0
0
0
0
0
0
0
0
0
0
0
0
0
0
0
0
0
0
0
0
0
0
0
0
0
0
0
0
0
0
0
0
0
0
0
0
0
0
0
0
0
0
0
0
0
0
0
0
0
0
0
0
0
0
0
0
0
0
0
0
0
0
0
0
0
0
0
0
0
0
0
0
0
0
0
0
0
0
0
0
0
0
0
0
0
0
0
0
0
0
0
0
0
0
0
0
0
0
0
0
0
0
0
0
0
0
0
0
0
0
0
0
0
0
0
0
0
0
0
0
0
0
0
0
0
0
0
0
0
0
0
0
0
0
0
0
0
0
0
0
0
0
0
0
0
0
0
0
0
0
0
0
0
0
0
0
0
0
0
0
0
0
0
0
0
0
0
0
0
0
0
0
0
0
0
0
0
0
0
0
0
0
0
0
0
0
0
0
0
0
0
0
0
0
0
0
0
0
0
0
0
0
0
0
0
0
0
0
0
0
0
0
0
0
0
0
0
0
0
0
0
0
0
0
0
0
0
0
0
0
0
0
0
0
0
0
0
0
0
0
0
0
0
0
0
0
0
0
0
0
0
0
0
0
0
0
0
0
0
0
0
0
0
0
0
0
0
0
0
0
0
0
0
0
0
0
0
0
0
0
0
0
0
0
0
0
0
0
0
0
0
0
0
0
0
0
0
0
0
0
0
0
0
0
0
0
0
0
0
0
0
0
0
0
0
0
0
0
0
0
0
0
0
0
0
0
0
0
0
0
0
0
0
0
0
0
0
0
0
0
0
0
0
0
0
0
0
0
0
0
0
0
0
0
0
0
0
0
0
0
0
0
0
0
0
0
0
0
0
0
0
0
0
0
0
0
0
0
0
0
0
0
0
0
0
0
0
0
0
0
0
0
0
0
0
0
0
0
0
0
0
0
0
0
0
0
0
0
0
0
0
0
0
0
0
0
0
0
0
0
0
0
0
0
0
0
0
0
0
0
0
0
0
0
0
0
0
0
0
0
0
0
0
0
0
0
0
0
0
0
0
0
0
0
0
0
0
0
0
0
0
0
0
0
0
0
0
0
0
0
0
0
0
0
0
0
0
0
0
0
0
0
0
0
0
0
0
0
0
0
0
0
0
0
0
0
0
0
0
0
0
0
0
0
0
0
0
0
0
0
0
0
0
0
0
0
0
0
0
0
0
0
0
0
0
0
0
0
0
0
0
0
0
0
0
0
0
0
0
0
0
0
0
0
0
0
0
0
0
0
0
0
0
0
0
0
0
0
0
0
0
0
0
0
0
0
0
0
0
0
0
0
0
0
0
0
0
0
0
0
0
0
0
0
0
0
0
0
0
0
0
0
0
0
0
0
0
0
0
0
0
0
0
0
0
0
0
0
0
0
0
0
0
0
0
0
0
0
0
0
0
0
0
0
0
0
0
0
0
0
0
0
0
0
0
0
0
0
0
0
0
0
0
0
0
0
0
0
0
0
0
0
0
0
0
0
0
0
0
0
0
0
0
0
0
0
0
0
0
0
0
0
0
0
0
0
0
0
0
0
0
0
0
0
0
0
0
0
0
0
0
0
0
0
0
0
0
0
0
0
0
0
0
0
0
0
0
0
0
0
0
0
0
0
0
0
0
0
0
0
0
0
0
0
0
0
0
0
0
0
0
0
0
0
0
0
0
0
0
0
0
0
0
0
0
0
0
0
0
0
0
0
0
0
0
0
0
0
0
0
0
0
0
0
0
0
0
0
0
0
0
0
0
0
0
0
0
0
0
0
0
0
0
0
0
0
0
0
0
0
0
0
0
0
0
0
0
0
0
0
0
0
0
0
0
0
0
0
0
0
0
0
0
0
0
0
0
0
0
0
0
0
0
0
0
0
0
0
0
0
0
0
0
0
0
0
0
0
0
0
0
0
0
0
0
0
0
0
0
0
0
0
0
0
0
0
0
0
0
0
0
0
0
0
0
0
0
0
0
0
0
0
0
0
0
0
0
0
0
0
0
0
0
0
0
0
0
0
0
0
0
0
0
0
0
0
0
0
0
0
0
0
0
0
0
0
0
0
0
0
0
0
0
0
0
0
0
0
0
0
0
0
0
0
0
0
0
0
0
0
0
0
0
0
0
0
0
0
0
0
0
0
0
0
0
0
0
0
0
0
0
0
0
0
0
0
0
0
0
0
0
0
0
0
0
0
0
0
0
0
0
0
0
0
0
0
0
0
0
0
0
0
0
0
0
0
0
0
0
0
0
0
0
0
0
0
0
0
0
0
0
0
0
0
0
0
0
0
0
0
0
0
0
0
0
0
0
0
0
0
0
0
0
0
0
0
0
0
0
0
0
0
0
0
0
0
0
0
0
0
0
0
0
0
0
0
0
0
0
0
0
0
0
0
0
0
0
0
0
0
0
0
0
0
0
0
0
0
0
0
0
0
0
0
0
0
0
0
0
0
0
0
0
0
0
0
0
0
0
0
0
0
0
0
0
0
0
0
0
0
0
0
0
0
0
0
0
0
0
0
0
0
0
0
0
0
0
0
0
0
0
0
0
0
0
0
0
0
0
0
0
0
0
0
0
0
0
0
0
0
0
0
0
0
0
0
0
0
0
0
0
0
0
0
0
0
0
0
0
0
0
0
0
0
0
0
0
0
0
0
0
0
0
0
0
0
0
0
0
0
0
0
0
0
0
0
0
0
0
0
0
0
0
0
0
0
0
0
0
0
0
0
0
0
0
0
0
0
0
0
0
0
0
0
0
0
0
0
0
0
0
0
0
0
0
0
0
0
0
0
0
0
0
0
0
0
0
0
0
0
0
0
0
0
0
0
0
0
0
0
0
0
0
0
0
0
0
0
0
0
0
0
0
0
0
0
0
0
0
0
0
0
0
0
0
0
0
0
0
0
0
0
0
0
0
0
0
0
0
0
0
0
0
0
0
0
0
0
0
0
0
0
0
0
0
0
0
0
0
0
0
0
0
0
0
0
0
0
0
0
0
0
0
0
0
0
0
0
0
0
0
0
0
0
0
0
0
0
0
0
0
0
0
0
0
0
0
0
0
0
0
0
0
0
0
0
0
0
0
0
0
0
0
0
0
0
0
0
0
0
0
0
0
0
0
0
0
0
0
0
0
0
0
0
0
0
0
0
0
0
0
0
0
0
0
0
0
0
0
0
0
0
0
0
0
0
0
0
0
0
0
0
0
0
0
0
0
0
0
0
0
0
0
0
0
0
0
0
0
0
0
0
0
0
0
0
0
0
0
0
0
0
0
0
0
0
0
0
0
0
0
0
0
0
0
0
0
0
0
0
0
0
0
0
0
0
0
0
0
0
0
0
0
0
0
0
0
0
0
0
0
0
0
0
0
0
0
0
0
0
0
0
0
0
0
0
0
0
0
0
0
0
0
0
0
0
0
0
0
0
0
0
0
0
0
0
0
0
0
0
0
0
0
0
0
0
0
0
0
0
0
0
0
0
0
0
0
0
0
0
0
0
0
0
0
0
0
0
0
0
0
0
0
0
0
0
0
0
0
0
0
0
0
0
0
0
0
0
0
0
0
0
0
0
0
0
0
0
0
0
0
0
0
0
0
0
0
-1.26083691256e-09
5.83841880235e-09
9.73379419219e-09
-2.26352511866e-09
1.43455662359e-08
2.47605385077e-08
-2.26379270074e-09
1.50420087761e-08
2.75995007132e-08
-2.26406034369e-09
1.1095231616e-08
2.26922542565e-08
-2.26432795201e-09
7.1478598305e-09
1.77856024789e-08
-2.2645955383e-09
3.19989337711e-09
1.28795453504e-08
-1.26133501506e-09
-1.45734192169e-10
6.75109433224e-09
0
-7.5868875559e-10
1.53766320195e-09
0
0
0
0
0
0
0
0
0
0
0
0
0
0
0
0
0
0
0
0
0
0
0
0
0
0
0
0
0
0
0
0
-4.56233170363e-10
1.96512446168e-08
3.00020412976e-08
-2.46057240863e-09
6.31916006901e-08
1.08648637821e-07
-3.7989097969e-09
8.86976537565e-08
1.68684425751e-07
-3.80337721482e-09
7.98654400975e-08
1.64554280931e-07
-3.80784457347e-09
5.89457891078e-08
1.33530918583e-07
-3.81231196197e-09
3.80093537612e-08
1.02523746195e-07
-3.81677912718e-09
1.70561341114e-08
7.15327637177e-08
-2.47710233687e-09
-2.35561522398e-09
3.72097447839e-08
-4.59589401614e-10
-1.09080551178e-08
8.22277038751e-09
0
-5.2637824872e-09
-9.6688497081e-10
0
0
0
0
0
0
0
0
0
0
0
0
0
0
0
0
0
0
0
0
0
0
0
0
0
0
9.38077665749e-10
8.03709949741e-09
1.14401170952e-08
6.53392955552e-09
5.97821697169e-08
1.16722223651e-07
1.23579320981e-08
1.36302388458e-07
3.00789292128e-07
1.47335116223e-08
1.6704726988e-07
3.9864082032e-07
1.47328648949e-08
1.45901013691e-07
3.69369836138e-07
1.47322207825e-08
1.07745284269e-07
2.95540888091e-07
1.47315793284e-08
6.95334782645e-08
2.21751234747e-07
1.47309405183e-08
3.12655956646e-08
1.48000876045e-07
1.2354848164e-08
-4.88282954881e-09
7.06551171193e-08
6.53174411792e-09
-2.48095525516e-08
7.74783458717e-09
9.37862357457e-10
-1.68236722988e-08
-9.56233597033e-09
0
-2.95849110956e-09
-2.22068472208e-09
0
0
0
0
0
0
0
0
0
0
0
0
0
0
0
0
0
0
0
0
0
0
0
4.59459223102e-09
1.44289233269e-08
3.10600409675e-08
2.63620966602e-08
8.05188672125e-08
1.97585750701e-07
4.88905277153e-08
1.67611565332e-07
4.36058286118e-07
5.80990669098e-08
1.99194075003e-07
5.38668382431e-07
5.81308399159e-08
1.72762217961e-07
4.8624130629e-07
5.81626228569e-08
1.27604069063e-07
3.82127398013e-07
5.8194415661e-08
8.23672732312e-08
2.78036062211e-07
5.8226218412e-08
3.7051830516e-08
1.7396729893e-07
4.90252087449e-08
-5.95424171367e-09
6.83893228321e-08
2.64135734135e-08
-3.08646360444e-08
-1.19883010668e-08
4.59637690044e-09
-2.30319782803e-08
-2.65427077808e-08
0
-5.31220131878e-09
-7.12925467817e-09
0
0
0
0
0
0
0
0
0
0
0
0
0
0
0
0
0
0
0
0
0
0
0
9.28639015917e-09
1.44291015852e-08
3.83155604822e-08
4.921283233e-08
8.0524765646e-08
2.15939611191e-07
8.97705958583e-08
1.67636072505e-07
4.54615296214e-07
1.0628530792e-07
1.99224862684e-07
5.4840336477e-07
1.06360275515e-07
1.72780780241e-07
4.86454915956e-07
1.06435255638e-07
1.27608969459e-07
3.73641813813e-07
1.06510248244e-07
8.23585116949e-08
2.60828711682e-07
1.06585253404e-07
3.70294069315e-08
1.48015609589e-07
9.00914145006e-08
-5.98897374664e-09
3.6808556301e-08
4.93408840854e-08
-3.0894777708e-08
-3.99602046764e-08
9.29206191451e-09
-2.30420031774e-08
-4.17122650493e-08
0
-5.3125931988e-09
-1.07390038772e-08
0
0
0
0
0
0
0
0
0
0
0
0
0
0
0
0
0
0
0
0
0
0
0
1.32332080918e-08
1.44292798126e-08
3.6474220618e-08
7.01391238198e-08
8.05306634873e-08
2.04351293996e-07
1.27966849015e-07
1.67660579826e-07
4.27015195813e-07
1.51525975377e-07
1.9925565419e-07
5.09322090175e-07
1.51640269268e-07
1.72799347883e-07
4.44013416042e-07
1.51754575758e-07
1.276138751e-07
3.31200313908e-07
1.51868894666e-07
8.23497553593e-08
2.18387211804e-07
1.51983226192e-07
3.70069886698e-08
1.05574109703e-07
1.28455907759e-07
-6.02370165178e-09
-2.32848131898e-09
7.03343150792e-08
-3.0924917921e-08
-6.76573734656e-08
1.3241852996e-08
-2.30520277834e-08
-5.33405727579e-08
0
-5.31298504034e-09
-1.25818124888e-08
0
0
0
0
0
0
0
0
0
0
0
0
0
0
0
0
0
0
0
0
0
0
0
1.71802324461e-08
1.44294580654e-08
3.46326743199e-08
9.10712451105e-08
8.05365606605e-08
1.92757354025e-07
1.66182589453e-07
1.6768508731e-07
3.99401443415e-07
1.96793979279e-07
1.9928644948e-07
4.7023297129e-07
1.96947599513e-07
1.7281792075e-07
4.01571916146e-07
1.97101232283e-07
1.27618786058e-07
2.88758814025e-07
1.97254877624e-07
8.2341004327e-08
1.75945711911e-07
1.97408535488e-07
3.69845756499e-08
6.31326098071e-08
1.66839888312e-07
-6.05842553598e-09
-4.14576746902e-08
9.1333575936e-08
-3.09550566686e-08
-9.53408902147e-08
1.71918506695e-08
-2.30620519814e-08
-6.49632576288e-08
0
-5.31337689998e-09
-1.44244146525e-08
0
0
0
0
0
0
0
0
0
0
0
0
0
0
0
0
0
0
0
0
0
0
0
2.1127463219e-08
1.44296361905e-08
3.27909215778e-08
1.12009196201e-07
8.0542457151e-08
1.81157791237e-07
2.04417817233e-07
1.67709594919e-07
3.71774039017e-07
2.42089319707e-07
1.99317248605e-07
4.31136008115e-07
2.42282266272e-07
1.7283649883e-07
3.59130416208e-07
2.4247522537e-07
1.27623702219e-07
2.46317314112e-07
2.42668197047e-07
8.23322584734e-08
1.33504211985e-07
2.42861181219e-07
3.69621678472e-08
2.0691109877e-08
2.05243356182e-07
-6.09314506825e-09
-8.05790237438e-08
1.1233866662e-07
-3.09851939082e-08
-1.23010754978e-07
2.11420547842e-08
-2.30720759192e-08
-7.65803196779e-08
0
-5.31376878984e-09
-1.62668103449e-08
0
0
0
0
0
0
0
0
0
0
0
0
0
0
0
0
0
0
0
0
0
0
0
1.90856395762e-08
8.03743114443e-09
2.42918887292e-08
1.17408241764e-07
5.98019345064e-08
1.48295421468e-07
2.20855767018e-07
1.36401313545e-07
3.1297800141e-07
2.63394056741e-07
1.67178371593e-07
3.61715099303e-07
2.6359000543e-07
1.45980425695e-07
2.93586611453e-07
2.63785962884e-07
1.07766256991e-07
1.89607863671e-07
2.63981929239e-07
6.9496011605e-08
8.56065433639e-08
2.64177904359e-07
3.11696897117e-08
-1.84173493907e-08
2.21682945066e-07
-5.03105539349e-09
-1.08349356652e-07
1.17719816274e-07
-2.49341247497e-08
-1.35058302819e-07
1.90960522337e-08
-1.68604618306e-08
-7.58499815392e-08
0
-2.95922041842e-09
-1.38950024157e-08
0
0
0
0
0
0
0
0
0
0
0
0
0
0
0
0
0
0
0
0
0
0
0
7.53529641695e-09
0
8.35820231577e-09
8.06376405376e-08
1.96541100161e-08
7.8971429351e-08
1.73511542681e-07
6.32218777979e-08
1.9053177964e-07
2.13328670201e-07
8.87488462411e-08
2.297793276e-07
2.13442830836e-07
7.98970993535e-08
1.83009598584e-07
2.13556991765e-07
5.89541340849e-08
1.09415899994e-07
2.13671153014e-07
3.79943845038e-08
3.57829067767e-08
2.13785314676e-07
1.7017850623e-08
-3.78893811188e-08
1.73966354213e-07
-2.414271424e-09
-9.76842505171e-08
8.07709280462e-08
-1.09512486534e-08
-1.02251132538e-07
7.53695234934e-09
-5.27090307922e-09
-4.72602584191e-08
0
0
-5.30080498364e-09
0
0
0
0
0
0
0
0
0
0
0
0
0
0
0
0
0
0
0
0
0
0
0
0
0
0
2.44598307463e-08
0
1.83589741131e-08
7.41580200081e-08
5.83875811372e-09
6.11372835433e-08
9.97852445773e-08
1.43475412545e-08
8.42657871612e-08
9.98091186122e-08
1.50434094286e-08
6.75364735739e-08
9.98329915776e-08
1.10956001238e-08
3.66100135458e-08
9.98568633262e-08
7.14719615639e-09
5.6673636304e-09
9.98807338858e-08
3.1981975621e-09
-2.52914762347e-08
7.42388503202e-08
-1.48292901077e-10
-4.70007559772e-08
2.4472438334e-08
-7.59690895543e-10
-3.92067295938e-08
0
0
-1.26012321434e-08
0
0
0
0
0
0
0
0
0
0
0
0
0
0
0
0
0
0
0
0
0
0
0
0
0
0
0
0
0
0
0
0
9.73498079069e-09
0
4.60012854802e-09
1.74787614144e-08
0
1.04051845254e-08
1.74794934633e-08
0
9.15680530427e-09
1.74802255085e-08
0
4.25311735644e-09
1.74809575329e-08
0
-6.51165217251e-10
1.74816895801e-08
0
-5.55604246427e-09
9.73634330182e-09
0
-7.59985966617e-09
0
0
-3.59562444291e-09
0
0
0
0
0
0
0
0
0
0
0
0
0
0
0
0
0
0
0
0
0
0
0
0
0
0
0
0
0
0
0
0
0
0
0
0
0
0
0
0
0
0
0
0
0
0
0
0
0
0
0
0
0
0
0
0
0
0
0
0
0
0
0
0
0
0
0
0
0
0
0
0
0
0
0
0
0
0
0
0
0
0
0
0
0
0
0
0
0
0
0
0
0
0
0
0
0
0
0
0
0
0
0
0
0
0
0
0
0
0
0
0
0
0
0
0
0
0
0
0
0
0
0
0
0
0
0
0
0
0
0
0
0
0
0
0
0
0
0
0
0
0
0
0
0
0
0
0
0
0
0
0
0
0
0
0
0
0
0
0
0
0
0
0
0
0
0
0
0
0
0
0
0
0
0
0
0
0
0
0
0
0
0
0
0
0
0
0
0
0
0
0
0
0
0
0
0
0
0
0
0
0
0
0
0
0
0
0
0
0
0
0
0
0
0
0
0
0
0
0
0
0
0
0
0
0
0
0
0
0
0
0
0
0
0
0
0
0
0
0
0
0
0
0
0
0
0
0
0
0
0
0
0
0
0
0
0
0
0
0
0
0
0
0
0
0
0
0
0
0
0
0
0
0
0
0
0
0
0
0
0
0
0
0
0
0
0
0
0
0
0
0
0
0
0
0
0
0
0
0
0
0
0
0
0
0
0
0
0
0
0
0
0
0
0
0
0
0
0
0
0
0
0
0
0
0
0
0
0
0
0
0
0
0
0
0
0
0
0
0
0
0
0
0
0
0
0
0
0
0
0
0
0
0
0
0
0
0
0
0
0
0
0
0
0
0
0
0
0
0
0
0
0
0
0
0
0
0
0
0
0
0
0
0
0
0
0
0
0
0
0
0
0
0
0
0
0
0
0
0
0
0
0
0
0
0
0
0
0
0
0
0
0
0
0
0
0
0
0
0
0
0
0
0
0
-1.78341931374e-09
1.33761526661e-08
2.08529924429e-08
-5.60691649029e-09
4.9304631006e-08
7.89034497153e-08
-7.39046107117e-09
7.51075668181e-08
1.24426663221e-07
-7.39851464231e-09
7.017822585e-08
1.2251797568e-07
-7.40656808315e-09
5.37982241306e-08
1.02080942786e-07
-7.41462146468e-09
3.74079404619e-08
8.16541918239e-08
-7.42267483127e-09
2.10073748507e-08
6.12377228201e-08
-5.63470601578e-09
5.02877042275e-09
3.71334147152e-08
-1.78714598616e-09
-3.78909512731e-09
1.28477813136e-08
0
-2.41445744091e-09
1.23043816495e-09
0
0
0
0
0
0
0
0
0
0
0
0
0
0
0
0
0
0
0
0
0
0
0
0
0
0
4.4400276038e-10
3.52028409359e-08
5.1379800508e-08
-1.27439511071e-10
1.43050976591e-07
2.3370862486e-07
-4.0266809446e-09
2.66484117265e-07
4.76377927699e-07
-6.3937347529e-09
3.13701142886e-07
5.95341086061e-07
-6.48764122151e-09
2.77650034957e-07
5.53897688887e-07
-6.58154679686e-09
2.12703763823e-07
4.56539317644e-07
-6.6754514393e-09
1.47613650172e-07
3.59315107106e-07
-6.76935517588e-09
8.23796940133e-08
2.6222505716e-07
-4.44126754293e-09
1.84507197733e-08
1.55694278948e-07
-3.21011327735e-10
-2.58762262679e-08
5.25898162776e-08
4.24697471674e-10
-2.95298671342e-08
-1.16032812778e-09
0
-1.00703390207e-08
-4.91627072559e-09
0
0
0
0
0
0
0
0
0
0
0
0
0
0
0
0
0
0
0
0
2.16401988641e-09
1.73223205193e-08
2.39189086293e-08
1.79938589846e-08
1.41086575721e-07
2.49183665312e-07
4.00517575164e-08
3.81017027339e-07
7.28098800259e-07
5.64744550191e-08
5.9368020719e-07
1.16879679308e-06
6.19756094759e-08
6.52774293779e-07
1.3099994383e-06
6.17577408214e-08
5.66177649389e-07
1.17816037797e-06
6.15399136169e-08
4.32835548702e-07
9.58679349644e-07
6.13221275646e-08
2.9901368919e-07
7.39550455079e-07
6.11043825748e-08
1.64712070966e-07
5.2077369415e-07
5.54246596179e-08
3.25731014197e-08
2.90810166628e-07
3.93901655976e-08
-6.43433087513e-08
7.67787905631e-08
1.78296003945e-08
-8.36815149667e-08
-3.79430944411e-08
2.16080850604e-09
-4.18511931231e-08
-3.51731557246e-08
0
-6.36543052591e-09
-5.51723605556e-09
0
0
0
0
0
0
0
0
0
0
0
0
0
0
0
0
0
1.52063109343e-08
5.45791805766e-08
9.64833712743e-08
7.39714995741e-08
2.68112417071e-07
5.47489328166e-07
1.51618120764e-07
6.08060366379e-07
1.26175544311e-06
2.13931330094e-07
8.80750960868e-07
1.7979277163e-06
2.37375594004e-07
9.35553461213e-07
1.91341986283e-06
2.37314251264e-07
8.04078204229e-07
1.68476823054e-06
2.37253061003e-07
6.1421658183e-07
1.34971589313e-06
2.37192022637e-07
4.23500988337e-07
1.01507710329e-06
2.37131135937e-07
2.3193142366e-07
6.8085186103e-07
2.13603258701e-07
4.28405001315e-08
3.3785643751e-07
1.51326049511e-07
-1.01059545383e-07
3.07294916088e-08
7.38420970711e-08
-1.38016926974e-07
-1.28482425168e-07
1.51931153307e-08
-8.21623179779e-08
-1.04083307882e-07
0
-2.00798700649e-08
-2.5811916081e-08
0
0
0
0
0
0
0
0
0
0
0
0
0
0
0
0
0
3.84025359489e-08
7.19485161829e-08
1.64375904868e-07
1.54676533756e-07
3.24192440425e-07
7.47793782335e-07
3.07206100931e-07
7.01128823703e-07
1.54995058306e-06
4.30247792681e-07
9.92805707356e-07
2.10032188749e-06
4.77052209814e-07
1.04408049157e-06
2.1775863673e-06
4.77518816831e-07
8.94958772537e-07
1.88613269281e-06
4.77985669287e-07
6.83439474632e-07
1.48320895457e-06
4.78452766756e-07
4.70903713185e-07
1.08047030092e-06
4.78920109075e-07
2.57351488191e-07
6.77916731843e-07
4.32566952816e-07
4.63099930943e-08
2.71748587728e-07
3.08852759781e-07
-1.16069609901e-07
-7.66343981566e-08
1.55220408414e-07
-1.61110011007e-07
-2.39972130048e-07
3.84400547612e-08
-1.0038099458e-07
-1.80787907089e-07
0
-2.64903595335e-08
-5.0892544805e-08
0
0
0
0
0
0
0
0
0
0
0
0
0
0
0
0
0
5.89161771523e-08
7.19527925584e-08
1.79820490273e-07
2.28994560317e-07
3.24271117093e-07
7.78311267873e-07
4.54713167281e-07
7.01443900082e-07
1.56633918078e-06
6.37595453045e-07
9.9334696931e-07
2.08513519173e-06
7.07536121694e-07
1.04458639137e-06
2.13090867953e-06
7.08587876531e-07
8.95268964969e-07
1.8169419659e-06
7.09639886366e-07
6.83572666629e-07
1.39605741482e-06
7.10692151173e-07
4.70859904684e-07
9.75172863696e-07
7.11744671039e-07
2.5713067924e-07
5.54288312554e-07
6.42874704574e-07
4.58783031737e-08
1.36357941231e-07
4.58603492342e-07
-1.16596047487e-07
-2.03503226094e-07
2.30399732695e-07
-1.61461577734e-07
-3.35057550529e-07
5.90338461499e-08
-1.00488764638e-07
-2.32071409122e-07
0
-2.64983276951e-08
-6.50219826518e-08
0
0
0
0
0
0
0
0
0
0
0
0
0
0
0
0
0
7.5293533047e-08
7.19570684253e-08
1.7219586559e-07
2.93952018101e-07
3.24349780131e-07
7.4238982265e-07
5.88255301902e-07
7.01758947719e-07
1.48537431965e-06
8.28097206517e-07
9.93888241011e-07
1.96060418309e-06
9.20150698397e-07
1.04509237076e-06
1.97961705773e-06
9.21710743272e-07
8.9557926497e-07
1.65814728625e-06
9.23271043085e-07
6.83705966031e-07
1.23726273509e-06
9.24831597835e-07
4.70816203665e-07
8.16378184006e-07
9.26392407623e-07
2.56909977749e-07
3.95493632879e-07
8.35938658131e-07
4.54467224013e-08
-1.53978054139e-08
5.94064858881e-07
-1.17122403085e-07
-3.29071137933e-07
2.96076461158e-07
-1.61813108491e-07
-4.16905153975e-07
7.54728952621e-08
-1.00596527908e-07
-2.68329103516e-07
0
-2.65062955124e-08
-7.26723733834e-08
0
0
0
0
0
0
0
0
0
0
0
0
0
0
0
0
0
9.16744597142e-08
7.1961343726e-08
1.64567670145e-07
3.58959490956e-07
3.24428429565e-07
7.06421739212e-07
7.21964443528e-07
7.02073967033e-07
1.40428690651e-06
1.0188964895e-06
9.94429522514e-07
1.83592909199e-06
1.13311953184e-06
1.04559842965e-06
1.82826090911e-06
1.13518786669e-06
8.95889672323e-07
1.49935260656e-06
1.13725645654e-06
6.83839373e-07
1.07846805544e-06
1.13932530133e-06
4.70772610129e-07
6.57583504303e-07
1.14139440112e-06
2.5668938375e-07
2.36698953165e-07
1.0293001411e-06
4.50152504987e-08
-1.67089025317e-07
7.29693232465e-07
-1.17648676914e-07
-4.54494967343e-07
3.61803204669e-07
-1.62164603359e-07
-4.98630205481e-07
9.19155151028e-08
-1.00704284342e-07
-3.04540159659e-07
0
-2.65142629908e-08
-8.03191932694e-08
0
0
0
0
0
0
0
0
0
0
0
0
0
0
0
0
0
1.08058957227e-07
7.19656184728e-08
1.56935903859e-07
4.24016978863e-07
3.24507065321e-07
6.70407017545e-07
8.55840592239e-07
7.02388957702e-07
1.32307694145e-06
1.20999330197e-06
9.94970814095e-07
1.71110991851e-06
1.34644262212e-06
1.04610456833e-06
1.67684023376e-06
1.34901924691e-06
8.96200187233e-07
1.34055792688e-06
1.35159612668e-06
6.83972887392e-07
9.19673375732e-07
1.35417326154e-06
4.70729124076e-07
4.98788824605e-07
1.35675065121e-06
2.56468897291e-07
7.79042734902e-08
1.2229591537e-06
4.45838875388e-08
-3.18715718435e-07
8.65488613115e-07
-1.18174869152e-07
-5.79774714364e-07
4.27579963217e-07
-1.62516062415e-07
-5.80232705092e-07
1.08361705929e-07
-1.00812034063e-07
-3.40704577655e-07
0
-2.65222302563e-08
-8.79624423634e-08
0
0
0
0
0
0
0
0
0
0
0
0
0
0
0
0
0
1.08450168163e-07
5.4593928977e-08
1.31651852247e-07
4.49603207798e-07
2.68447413724e-07
5.84036748349e-07
9.26986620667e-07
6.09541805888e-07
1.16993142575e-06
1.32345039817e-06
8.83408960629e-07
1.50951938962e-06
1.47687508562e-06
9.38075301047e-07
1.45826501781e-06
1.47973427289e-06
8.05621013737e-07
1.13204546922e-06
1.48259366038e-06
6.14867432608e-07
7.3023867489e-07
1.48545324817e-06
4.23259880309e-07
3.28246795947e-07
1.48831303663e-06
2.30798356938e-07
-7.39301676507e-08
1.33778525828e-06
4.06513927975e-08
-4.45679815111e-07
9.37515001413e-07
-1.03683467561e-07
-6.67340434078e-07
4.53365169017e-07
-1.3970133883e-07
-6.20579905515e-07
1.08737100162e-07
-8.26387167342e-08
-3.44835575694e-07
0
-2.0107359998e-08
-8.36161312009e-08
0
0
0
0
0
0
0
0
0
0
0
0
0
0
0
0
0
6.82884446644e-08
1.73242968041e-08
7.16203610739e-08
3.66112294797e-07
1.41222747766e-07
3.88444453017e-07
8.09338902325e-07
3.81882584228e-07
8.51277562137e-07
1.19631381571e-06
5.95495351162e-07
1.13093788541e-06
1.34832055055e-06
6.5458970012e-07
1.08856959676e-06
1.35068628704e-06
5.6727758089e-07
8.1814999639e-07
1.35305207149e-06
4.33267885004e-07
4.8559231963e-07
1.35541790435e-06
2.98778430562e-07
1.52621095215e-07
1.3577837862e-06
1.63809217312e-07
-1.80763676799e-07
1.20797567878e-06
3.08978466502e-08
-4.80959233242e-07
8.17400555657e-07
-6.6231499309e-08
-6.32085264849e-07
3.68588684582e-07
-8.4729809867e-08
-5.37037764769e-07
6.84041604663e-08
-4.20749610286e-08
-2.62645601673e-07
0
-6.36911594276e-09
-5.06216237547e-08
0
0
0
0
0
0
0
0
0
0
0
0
0
0
0
0
0
1.79536692252e-08
0
1.65380769237e-08
1.90514138158e-07
3.52140398328e-08
1.60802564946e-07
5.04624692431e-07
1.43229043723e-07
4.3940742074e-07
8.02874439011e-07
2.67032621463e-07
6.4333193425e-07
9.25391441616e-07
3.14324092928e-07
6.31854628291e-07
9.26599610303e-07
2.78017625425e-07
4.58777314212e-07
9.27807733645e-07
2.12821406966e-07
2.41419043604e-07
9.2901581165e-07
1.47481345942e-07
2.37086392939e-08
9.30223844713e-07
8.19974424917e-08
-1.94353898681e-07
8.08578179304e-07
1.77969087045e-08
-3.81996151268e-07
5.0799540635e-07
-2.65099542239e-08
-4.44842692594e-07
1.91210096404e-07
-2.97849192211e-08
-3.24995927184e-07
1.79624539647e-08
-1.00927830388e-08
-1.23259935028e-07
0
0
-1.2891378464e-08
0
0
0
0
0
0
0
0
0
0
0
0
0
0
0
0
0
0
0
0
4.57131135114e-08
0
3.02108543292e-08
1.82792016476e-07
1.33782913091e-08
1.26661379128e-07
3.46325766824e-07
4.93324867416e-08
2.30548762064e-07
4.18482364403e-07
7.51571011195e-08
2.44430719316e-07
4.18768663296e-07
7.02073099503e-08
1.72482412145e-07
4.19054937483e-07
5.38058869783e-08
7.59322245451e-08
4.19341186951e-07
3.73941819904e-08
-2.0752123682e-08
4.19627411716e-07
2.09721951178e-08
-1.17570632611e-07
3.47554099343e-07
4.97202433716e-09
-1.93239369842e-07
1.83303231428e-07
-3.82994814807e-09
-1.92017514723e-07
4.5756870777e-08
-2.41915982509e-09
-1.07875573042e-07
0
0
-2.60621686589e-08
0
0
0
0
0
0
0
0
0
0
0
0
0
0
0
0
0
0
0
0
0
0
0
0
0
0
2.19040033624e-08
0
9.79131506976e-09
6.90557277846e-08
0
3.2932227299e-08
9.10665697959e-08
0
4.34088683743e-08
9.108265575e-08
0
3.03701427836e-08
9.10987407792e-08
0
9.99501715541e-09
9.11148248246e-08
0
-1.03903904325e-08
9.11309079639e-08
0
-3.07860799966e-08
6.91112277198e-08
0
-4.37611121635e-08
2.1911445485e-08
0
-3.30904663893e-08
0
0
-9.8291735002e-09
0
0
0
0
0
0
0
0
0
0
0
0
0
0
0
0
0
0
0
0
0
0
0
0
0
0
0
0
0
0
0
0
0
0
0
0
0
0
0
0
0
0
0
0
0
0
0
0
0
0
0
0
0
0
0
0
0
0
0
0
0
0
0
0
0
0
0
0
0
0
0
0
0
0
0
0
0
0
0
0
0
0
0
0
0
0
0
0
0
0
0
0
0
0
0
0
0
0
0
0
0
0
0
0
0
0
0
0
0
0
0
0
0
0
0
0
0
0
0
0
0
0
0
0
0
0
0
0
0
0
0
0
0
0
0
0
0
0
0
0
0
0
0
0
0
0
0
0
0
0
0
0
0
0
0
0
0
0
0
0
0
0
0
0
0
0
0
0
0
0
0
0
0
0
0
0
0
0
0
0
0
0
0
0
0
0
0
0
0
0
0
0
0
0
0
0
0
0
0
0
0
0
0
0
0
0
0
0
0
0
0
0
0
0
0
0
0
0
0
0
0
0
0
0
0
0
0
0
0
0
0
0
0
0
0
0
0
0
0
0
0
0
0
0
0
0
0
0
0
0
0
0
0
0
0
0
0
0
0
0
0
0
0
0
0
0
0
0
0
0
0
0
0
0
0
0
0
0
0
0
0
0
0
0
0
0
0
0
0
0
0
0
0
0
0
0
0
0
0
0
0
0
0
0
-1.30369688235e-09
1.42969138527e-08
2.17740367347e-08
-4.08431775903e-09
5.31246092779e-08
8.27273446654e-08
-5.37962668765e-09
8.18374391608e-08
1.31168610474e-07
-5.39110764432e-09
7.78391090925e-08
1.30192575396e-07
-5.40258854876e-09
6.14610771037e-08
1.09753572753e-07
-5.4140693828e-09
4.50727631882e-08
8.93248520337e-08
-5.42555009446e-09
2.8674167365e-08
6.89064132943e-08
-4.12393346736e-09
1.17712701287e-08
4.38760244735e-08
-1.30900926528e-09
4.06751724241e-11
1.66780593173e-08
0
-1.49267888553e-09
2.15227328133e-09
0
0
0
0
0
0
0
0
0
0
0
0
0
0
0
0
0
0
0
0
0
0
0
4.04070946339e-11
1.10692679144e-09
1.56210322343e-09
2.84274153745e-09
6.86752773075e-08
9.85406697714e-08
5.0800358795e-09
2.44584589166e-07
3.59267289878e-07
3.28019625628e-09
4.32186830934e-07
6.53859363079e-07
1.9249071128e-09
5.04491417259e-07
7.88065919233e-07
1.66606569307e-09
4.50701883106e-07
7.32313393627e-07
1.4072216386e-09
3.54802962952e-07
6.11066293575e-07
1.14837502513e-09
2.58667669894e-07
4.9005556638e-07
8.89525856113e-10
1.62296003902e-07
3.69281212137e-07
2.10063665297e-09
6.47920670576e-08
2.35014921164e-07
4.45902426312e-09
-1.16696372097e-08
9.68966656032e-08
2.74506943717e-09
-3.38438152093e-08
1.12958199297e-08
4.03821966207e-11
-1.47426055923e-08
-5.29487165905e-09
0
-3.30149936469e-10
-2.22909377603e-10
0
0
0
0
0
0
0
0
0
0
0
0
0
0
0
0
0
1.10803718652e-08
7.57529577705e-08
1.04943628194e-07
4.51621693209e-08
3.62764784517e-07
5.52221892456e-07
8.61956312549e-08
8.03691713174e-07
1.26752139858e-06
1.15864750322e-07
1.1477013633e-06
1.8393596364e-06
1.25904858494e-07
1.21969171303e-06
1.99466263094e-06
1.24935915568e-07
1.06407906998e-06
1.79384820291e-06
1.23966996631e-07
8.36724444748e-07
1.48016806251e-06
1.22998101312e-07
6.08419114017e-07
1.16733643742e-06
1.22029229565e-07
3.79163077796e-07
8.55353327744e-07
1.11024502722e-07
1.47510719736e-07
5.24535615637e-07
8.26847909326e-08
-4.64111075256e-08
1.98272984492e-07
4.39497727274e-08
-1.2584217392e-07
-1.47703801855e-08
1.09837328113e-08
-8.67331984986e-08
-5.76391849194e-08
0
-2.26435786816e-08
-1.9318661213e-08
0
0
0
0
0
0
0
0
0
0
0
0
0
0
4.61754214284e-09
2.02156634907e-08
2.63733329702e-08
6.64871339929e-08
2.4632116765e-07
4.05590175165e-07
1.93793851779e-07
8.14238220189e-07
1.35333934952e-06
3.3539321144e-07
1.48799730381e-06
2.45132577424e-06
4.41252728611e-07
1.9259732914e-06
3.16708212617e-06
4.79110487924e-07
1.96573087496e-06
3.25922665825e-06
4.77738566661e-07
1.69814310936e-06
2.87162768201e-06
4.7636682012e-07
1.33542195997e-06
2.33803260005e-06
4.74995246885e-07
9.70698767353e-07
1.80584105376e-06
4.73623845761e-07
6.03973531678e-07
1.27505304315e-06
4.34106147862e-07
2.33032280967e-07
7.2587371702e-07
3.29382050458e-07
-8.81646975102e-08
2.02522723074e-07
1.90815493627e-07
-2.46865799976e-07
-1.39618042228e-07
6.59295789633e-08
-2.04950908075e-07
-2.03707311256e-07
4.61240803518e-09
-7.65357918908e-08
-9.03927717364e-08
0
-7.41982566732e-09
-7.96906531386e-09
0
0
0
0
0
0
0
0
0
0
0
2.53993768229e-08
6.36841540746e-08
1.06687981377e-07
1.86025342608e-07
4.42015686013e-07
7.95177413757e-07
4.62971147508e-07
1.21110297055e-06
2.1200501905e-06
7.53707394998e-07
2.02324620886e-06
3.42168112905e-06
9.66462357552e-07
2.50747443394e-06
4.16999690104e-06
1.04337287667e-06
2.5128547425e-06
4.16360463036e-06
1.04284947331e-06
2.16115384123e-06
3.60928833021e-06
1.04232653361e-06
1.69986792108e-06
2.89299076413e-06
1.04180405531e-06
1.23565877363e-06
2.17802800557e-06
1.04128203614e-06
7.68526398852e-07
1.46440005466e-06
9.63648848853e-07
2.95480441623e-07
7.37174007338e-07
7.51071295786e-07
-1.20952516149e-07
6.4989322505e-08
4.61324529099e-07
-3.44489436518e-07
-3.61413830077e-07
1.85493995207e-07
-3.13348759322e-07
-4.21385744679e-07
2.53715722066e-08
-1.41403078039e-07
-2.14226960858e-07
0
-2.34160743031e-08
-3.59912809153e-08
0
0
0
0
0
0
0
0
0
0
0
5.63329187778e-08
8.39444841608e-08
1.8232963944e-07
3.29134385292e-07
5.24219785765e-07
1.04565220363e-06
7.69250679614e-07
1.36626291966e-06
2.51623291051e-06
1.21946944167e-06
2.22447289786e-06
3.86227242844e-06
1.54598298334e-06
2.72233315975e-06
4.57297748377e-06
1.66510033377e-06
2.71316994476e-06
4.48147294338e-06
1.66661452366e-06
2.33003490814e-06
3.8278725514e-06
1.66812936926e-06
1.83264113934e-06
3.01166417073e-06
1.66964486929e-06
1.33196339903e-06
2.19600165223e-06
1.67116102274e-06
8.28001687103e-07
1.38088499593e-06
1.55401475137e-06
3.17283245227e-07
5.59626992383e-07
1.22662003201e-06
-1.34551009648e-07
-1.75345891187e-07
7.73260192265e-07
-3.8261594711e-07
-6.13281230767e-07
3.30169756112e-07
-3.56866184038e-07
-6.29465109128e-07
5.63664955174e-08
-1.69159282236e-07
-3.33350114672e-07
0
-3.08977360597e-08
-6.88164269847e-08
0
0
0
0
0
0
0
0
0
0
0
7.92976078201e-08
8.39499508297e-08
2.00232447082e-07
4.45047288493e-07
5.24385095119e-07
1.08328811325e-06
1.02914255518e-06
1.3671224644e-06
2.53482897379e-06
1.62460895428e-06
2.22632799083e-06
3.82691171733e-06
2.05652885668e-06
2.72469238604e-06
4.47173718281e-06
2.21515238157e-06
2.7150793555e-06
4.32561757014e-06
2.2187025723e-06
2.33117540075e-06
3.63789104126e-06
2.22225341013e-06