/*--------------------------------*- C++ -*----------------------------------*\
| =========                 |                                                 |
| \\      /  F ield         | OpenFOAM: The Open Source CFD Toolbox           |
|  \\    /   O peration     | Version:  3.0.1                                 |
|   \\  /    A nd           | Web:      www.OpenFOAM.org                      |
|    \\/     M anipulation  |                                                 |
\*---------------------------------------------------------------------------*/
FoamFile
{
    version     2.0;
    format      ascii;
    class       volScalarField;
    location    "8.9";
    object      epsilon_0;
}
// * * * * * * * * * * * * * * * * * * * * * * * * * * * * * * * * * * * * * //

dimensions      [0 2 -3 0 0 0 0];

internalField   nonuniform List<scalar> 
7968
(
4.46488397055e-05
5.76669458359e-05
6.93966553454e-05
7.73319229239e-05
8.19912503163e-05
8.44613461956e-05
8.53443658484e-05
8.5351665514e-05
8.50650961328e-05
8.4582625337e-05
8.41999589743e-05
8.41180159657e-05
8.40260572006e-05
8.36498113477e-05
8.24805163634e-05
7.9904670917e-05
7.52680365383e-05
6.78522449525e-05
5.69452603286e-05
4.45027650324e-05
5.75959573144e-05
0.000119317985266
0.000171574891417
0.000208948064494
0.000233626582185
0.000247662310009
0.000253983818332
0.000255083621823
0.000253371570992
0.000250718469477
0.00024824950139
0.000246184162928
0.000243721399988
0.000239360629789
0.00023118612965
0.000217152335027
0.000194824163351
0.000161621517558
0.000114403589233
5.71325064407e-05
6.91618744871e-05
0.000171727285185
0.000259343691978
0.000322972877208
0.000365847775011
0.000391421929636
0.000403733815092
0.000406792796211
0.000404461227086
0.000399782226408
0.000394584748692
0.000389253936328
0.000382839404026
0.000373211730277
0.000357420079156
0.000332198998542
0.000293898613101
0.00023861392147
0.000161303149996
6.82939377128e-05
7.71503476474e-05
0.000209492955164
0.000323590533621
0.000407118630301
0.000463823225817
0.000497852070448
0.00051426439057
0.00051828110171
0.00051497471862
0.000508650207516
0.00050038585015
0.000491314887833
0.000481391451417
0.00046764789504
0.000446283941137
0.000413068213954
0.000363342737546
0.000292243741441
0.000193621429556
7.57412301105e-05
8.21527068837e-05
0.000234850269667
0.000367866181769
0.000465528188546
0.000531556283347
0.000570833500372
0.00059116061435
0.000598071573096
0.000594567662051
0.000585597178192
0.000574451591552
0.000562220761562
0.000548014891862
0.000528843688035
0.000502554383315
0.000464574100205
0.000407838222361
0.000326525548834
0.000214100158439
7.99943447345e-05
8.48544515151e-05
0.000250130238561
0.000395586520128
0.000502330528314
0.000573904836341
0.000618786558439
0.000642390737252
0.000647508265644
0.000640843231394
0.000628633228244
0.000614982156329
0.000601174971374
0.0005860535623
0.000565913458709
0.000536026259988
0.000492535273075
0.000432211820067
0.000345377089279
0.000225198607327
8.20014574671e-05
8.59658591992e-05
0.000257965341661
0.000410610457905
0.000522365697569
0.000597423042977
0.000646534816827
0.000668560885324
0.000670188641027
0.000659707862742
0.000644353303048
0.000628773576911
0.000614363925994
0.000599739172791
0.000580618028346
0.000551331223092
0.000506199267993
0.000442066431529
0.0003530874767
0.000229488526415
8.28213218414e-05
8.60454236616e-05
0.000260717888722
0.000416762745507
0.000530598578683
0.000609306776332
0.000657502958257
0.000676499032764
0.000674298243339
0.000660239068613
0.000642299447646
0.000625474660425
0.000611162477585
0.000597734633217
0.000580469307213
0.000553155350928
0.000509323213016
0.000443457383445
0.000353810563978
0.000229662770201
8.30975542117e-05
8.57464108313e-05
0.000260702694187
0.000417725312298
0.000531808738554
0.000611734934309
0.000658016422349
0.000674043407943
0.000668670807822
0.000651945960294
0.000632274605217
0.000614843361089
0.000600998343668
0.000588853117436
0.000573415215299
0.000548171754439
0.000506304207802
0.000441679017467
0.000351246617788
0.000227934858729
8.29010466653e-05
8.54000276989e-05
0.000259723767495
0.000416369077101
0.000529704323953
0.000609171794389
0.000653664153326
0.000667636067275
0.000660383098112
0.000642260978848
0.000621810619162
0.00060424559846
0.000590896461609
0.000579710606959
0.000565518625991
0.000541735482307
0.000501446233658
0.000438282903143
0.000348111223015
0.000225992902964
8.25165235321e-05
8.52529216573e-05
0.000258838262221
0.000414283651198
0.000526278524682
0.000604310877583
0.000647704410742
0.000660940287535
0.000653346906224
0.000635223121321
0.00061497062028
0.000597659389288
0.000584589949452
0.000573738139209
0.000559950458239
0.000536727035971
0.000497231508918
0.000435083445352
0.000345788601421
0.000224733337037
8.21931367016e-05
8.54647501858e-05
0.000258134342965
0.000411654609919
0.000521887750713
0.000597670804701
0.000640728365591
0.000654549144538
0.000648087471797
0.00063124916013
0.000612086283392
0.000595421565278
0.000582417389933
0.000571196337391
0.000556940597855
0.00053337757819
0.000493885072081
0.000432262675936
0.000344382936261
0.000224328242133
8.21484768763e-05
8.57015591298e-05
0.000256646393844
0.000407210852099
0.000515078201688
0.000587445425382
0.00063050857853
0.000645845862404
0.000641642810703
0.000627078916172
0.000609689778456
0.000593984214461
0.00058103355593
0.000569135418987
0.000553899907604
0.000529458146446
0.000489554644243
0.000428376189135
0.000342643635563
0.000223946054712
8.21425963664e-05
8.55200305605e-05
0.000252717965838
0.000398475639775
0.000502776017585
0.000570165809124
0.000612680048239
0.000629797449583
0.000628460600176
0.000616850120879
0.000601777214672
0.000587386507622
0.000574711201181
0.000562205096053
0.000545977411877
0.000520689683832
0.000480663713195
0.000420971122073
0.000338322502095
0.000221981287469
8.16667210274e-05
8.43209352234e-05
0.000244247307083
0.00038219656566
0.000480862719257
0.000544557748357
0.000582130952013
0.000600094219759
0.0006015289435
0.000593114237155
0.000580757417123
0.000568133205096
0.000556211642381
0.000543608036963
0.000526971416126
0.000501638752911
0.000462804383313
0.00040758110994
0.000328337189259
0.000216451778444
8.03627115387e-05
8.15864171002e-05
0.000229045776463
0.000354866072315
0.000444803230978
0.000503283393978
0.000535804947372
0.000550831541847
0.00055392968395
0.000548399568316
0.000538927137326
0.000528529705214
0.000518048145506
0.000506299894935
0.000490527438172
0.000466944514975
0.000433161847332
0.000382778964104
0.000309135028275
0.000205005664312
7.81488188829e-05
7.66475764157e-05
0.000204587195646
0.00031270403694
0.000389818830749
0.000440229304936
0.000468592824282
0.000480408955776
0.000481250203243
0.000476757891659
0.000469946078303
0.000462130829023
0.000453906005308
0.000444601634792
0.000432767697477
0.00041442986509
0.000385467668405
0.000341302775127
0.000276819572408
0.000185375426527
7.4011831495e-05
6.88076678571e-05
0.000168395173467
0.000251938937653
0.000311200516986
0.000349792856702
0.000371511874248
0.000380671242361
0.000381494069123
0.00037782476564
0.000372583761547
0.000367400480418
0.000362511897185
0.000356875330854
0.000348500340533
0.000334710065185
0.000312348553425
0.000277859299434
0.000227207088607
0.000155005727346
6.69242303059e-05
5.74279101722e-05
0.000117797678938
0.000168154654132
0.000203507942539
0.000226275337786
0.000238675777136
0.000243631195065
0.000243820082364
0.000241596142296
0.000238746827854
0.000236227487521
0.000234140850352
0.000231757731701
0.000227689589524
0.000220171643117
0.000207207551147
0.000186398642879
0.000155350166946
0.00011076443569
5.63074847289e-05
4.46063855214e-05
5.75436181252e-05
6.91319761392e-05
7.69344959682e-05
8.14239847451e-05
8.37233015985e-05
8.45445581247e-05
8.46281851486e-05
8.43833123565e-05
8.39411634878e-05
8.35251543903e-05
8.32377530295e-05
8.29497688625e-05
8.23008877639e-05
8.09270330575e-05
7.82636069935e-05
7.38035817179e-05
6.66414008528e-05
5.6096186609e-05
4.42229315785e-05
5.67393330741e-05
0.000111723132647
0.000161100839284
0.000198262714572
0.000224047614084
0.000240172111652
0.000248682495627
0.000251599651477
0.000250970611184
0.000248805104557
0.000246207065407
0.000243445374234
0.000239853022898
0.000233897691532
0.000223946276552
0.000208349228163
0.000185171385998
0.000152330193782
0.000107871622563
5.61476099554e-05
0.000111788409845
0.000148177836973
0.000193934144843
0.000231125060677
0.00025806724628
0.000275494305195
0.000285085964468
0.000288841239591
0.000288782413603
0.000286610069435
0.000283390573256
0.000279387745363
0.000274087194374
0.000266358082969
0.000254689547385
0.000237460819108
0.000213092788911
0.000180439444557
0.000140118282895
0.000107704189703
0.000161241636838
0.000194236726761
0.000248388243827
0.000294161284751
0.000328088713183
0.000350392268309
0.000362774653189
0.00036757345046
0.000367253376374
0.000363898853894
0.000358890088718
0.000352665511011
0.00034473096996
0.000333857871432
0.000318262718831
0.000296066824451
0.000265631136517
0.000226175997177
0.000179724812006
0.000151980412897
0.000198728415902
0.000231994862331
0.000294828839455
0.00034875824889
0.000389029957609
0.000415549049573
0.000430159777695
0.000435529755843
0.000434635185368
0.000429859379274
0.000422826620822
0.000414246427301
0.00040376690724
0.000390125203482
0.000371188928648
0.000344797317365
0.000309117709499
0.000263486528322
0.000210782886363
0.000183995598994
0.000225187555211
0.000259814805158
0.000329854353391
0.00039025543629
0.000435320204491
0.000464876604851
0.000481189763948
0.000486791466622
0.00048465741099
0.000477944149897
0.000468911352791
0.000458457200236
0.000446068875767
0.000430137728434
0.000408575558032
0.000379283452493
0.000339984340388
0.000289888456012
0.000232370528024
0.00020530649291
0.000242319876408
0.00027844911833
0.000353705898585
0.000418594880726
0.00046682879601
0.000498622228526
0.000515321531253
0.000519479482623
0.000515091612315
0.000506091892073
0.000495253680971
0.000483642168215
0.000470595166491
0.000454105221613
0.000431464605984
0.00040023864315
0.000358842541477
0.000306143796989
0.000245614695709
0.000217974392266
0.000252127647345
0.000289537281887
0.000368062746769
0.000435600074998
0.000485703088502
0.000518229134745
0.000533598748483
0.000535285988976
0.000528167551903
0.000516870231045
0.000504578805602
0.000492460413498
0.000479694084898
0.000463890034914
0.000441813084461
0.000410483891271
0.00036809222365
0.000314309199588
0.000252371826172
0.00022413740764
0.000256677518261
0.000295037997854
0.000375214225412
0.000443895468436
0.000494845301122
0.00052649875665
0.000539708615002
0.000538647369244
0.000528907196464
0.000515663676704
0.000502383147827
0.000490252942422
0.000478291005887
0.000463797046779
0.000443137486095
0.000412903876135
0.000370845841315
0.00031693592143
0.000254713763641
0.000225723850946
0.000257904182498
0.000296905037713
0.000377558811212
0.000446315646722
0.000497048378264
0.000527280075057
0.000538348244944
0.000534957195509
0.000523212777322
0.000508644452468
0.000494857064402
0.000482995015499
0.000471932500452
0.000458770464921
0.000439639239508
0.000410862938008
0.000369902027872
0.000316494781906
0.000254615498497
0.000225094724045
0.000257492869758
0.000296737297104
0.000377077816179
0.00044526169629
0.000495193621547
0.000524117958725
0.000533663555509
0.000528836906338
0.000516005320602
0.000500837829796
0.000486952170432
0.000475429621528
0.000465048355662
0.000452828298213
0.000434823552297
0.000407251169139
0.000367416415428
0.000314857600504
0.00025357609053
0.000223799998241
0.000256610948661
0.00029547757036
0.000374932086095
0.00044213172172
0.000491092796841
0.000519201945112
0.000528148636961
0.000522981739937
0.000510061970482
0.000494997552324
0.00048132536286
0.000470070606958
0.000459993987559
0.000448149262824
0.000430649504208
0.000403743896532
0.000364710764314
0.000312976668539
0.000252401068257
0.000222704311974
0.000255341205939
0.000293231270304
0.000371311588168
0.000437224444349
0.00048512144398
0.000512954376462
0.000522232693858
0.00051778239641
0.000505699093798
0.000491357151616
0.000478147480121
0.000467053378016
0.000456897875723
0.000444880743759
0.000427288200593
0.00040051670445
0.00036193134605
0.00031093967628
0.000251150969279
0.000221921790888
0.000252613730925
0.000289247732491
0.000365411014994
0.000429670164243
0.000476187551356
0.000504020128686
0.000514298933988
0.000511389092531
0.000500892158487
0.000487797498919
0.000475295498422
0.000464351498441
0.00045390223961
0.000441368789074
0.000423313197964
0.000396378529595
0.000358110824029
0.000307949199805
0.000249144786838
0.000220782009152
0.000246986187906
0.000282164083096
0.000355620908193
0.00041758899541
0.000462140670197
0.000489746993653
0.000501223355772
0.000500294797193
0.000491888363112
0.000480474000573
0.000468974071087
0.000458331705094
0.000447629022391
0.000434563048849
0.00041606180954
0.000389096510913
0.000351469129445
0.000302554709652
0.000245115807626
0.000217802108028
0.000236697361287
0.000270271033991
0.000339908216228
0.000398649949992
0.000440846035476
0.00046713458389
0.000479358797404
0.000480354648448
0.000474215274607
0.000464778542076
0.000454618106933
0.000444613873518
0.000434002328802
0.000420786697166
0.000402320298018
0.000375967904662
0.000339817564586
0.000292791517185
0.000237412181259
0.000211174277578
0.000219837911576
0.000251792796114
0.000316235231332
0.000370537247505
0.000409640578388
0.00043380097798
0.000445655782721
0.000447978696194
0.000443900778115
0.000436538482378
0.000428029660764
0.000419133701218
0.000409229779587
0.00039663286732
0.000379129604756
0.000354545446834
0.000320765167438
0.000276512176709
0.00022421024301
0.000198792084457
0.000194429527091
0.000225122917741
0.000282947752318
0.000331443104952
0.000366420759864
0.000388162007824
0.000398819256449
0.000401343051201
0.000398722792134
0.000393293295247
0.000386643526734
0.000379352616073
0.000370922181872
0.000359996946238
0.00034464252729
0.000322686172931
0.000292105382576
0.000251776768842
0.000203755297139
0.000178635792107
0.000158554538788
0.000189298491104
0.000239494344448
0.000280995455055
0.000310779229614
0.000329361494446
0.000338672622365
0.000341218535159
0.000339515168448
0.000335630295244
0.000330858396796
0.000325560485743
0.000319194616845
0.00031049220223
0.000297764868684
0.000279105126324
0.000252713411218
0.000217440966452
0.000174673313628
0.000148512231325
0.000110766195706
0.000145462646704
0.000188560619759
0.000222873534443
0.000247035670056
0.000261987740313
0.000269561000869
0.000271859606299
0.000270938992373
0.000268457952388
0.000265399153905
0.000261974072735
0.000257648611679
0.000251308302317
0.000241500211391
0.000226588331849
0.000204900027472
0.000175062266867
0.000137269779855
0.000106197882656
5.65860418312e-05
0.000110555930252
0.000158132422454
0.000193212207472
0.000216916136954
0.000231166531713
0.000238164445281
0.00023996042987
0.000238752853073
0.000236413575668
0.000233895921523
0.000231366575897
0.000228217725633
0.000223184564714
0.000214535742657
0.000200578208165
0.000179409320457
0.000148775550557
0.000106311533514
5.54712897174e-05
6.91563224564e-05
0.000166388609574
0.000256579816973
0.000326454970892
0.000376324320196
0.000408371441452
0.000425750217854
0.000432170136221
0.000431374383884
0.000426530063295
0.000419681524876
0.000411433131479
0.000400988370932
0.000386386271607
0.000364961805947
0.000333791319298
0.000289934521435
0.00023056275642
0.000153448699263
6.71638759637e-05
0.000166630354096
0.000205541966682
0.000266511399123
0.000318574576061
0.0003576305237
0.000383652932372
0.000398320415272
0.000404129512677
0.000403775768634
0.000399618466008
0.00039322672746
0.000385134094125
0.00037482834748
0.000360975589706
0.000341767634326
0.000315301762518
0.000280058265288
0.000235567659365
0.000184440309029
0.000153082255449
0.000257102203181
0.000267163065794
0.000327455447418
0.000382816855389
0.000425798736429
0.000455031764882
0.000471640976964
0.000478035483426
0.000477043558388
0.000471331218202
0.00046277201845
0.000452114706565
0.000438928172974
0.000421843367362
0.000399071481983
0.00036877057959
0.000329847732064
0.000282980923377
0.000233728620207
0.000229329961965
0.000327719586692
0.000320229912597
0.000383885613184
0.000444540784392
0.000492215236527
0.00052461158788
0.000542578827056
0.000548770864121
0.000546229734355
0.000538156125099
0.000526920919389
0.000513572454418
0.000497711127247
0.000477778360077
0.000452004191933
0.00041824344105
0.000375491579696
0.000325008094827
0.000274282387757
0.000285834352614
0.000378965741485
0.000360687855047
0.000428392562181
0.000493839256959
0.000545160853446
0.000579442960095
0.00059751206646
0.000601671119806
0.000595972748027
0.000584566990353
0.000570447052929
0.000554961872238
0.000537632840127
0.000516595092834
0.000489384067258
0.000453614389715
0.000408505148687
0.000355405634809
0.00030294672542
0.000323918463924
0.000413042019983
0.000388536578767
0.000459663428646
0.000528522111629
0.000581896733873
0.000616609516155
0.000632471741915
0.000632541865831
0.000622209433016
0.000606742303841
0.000589765730724
0.00057287678103
0.000555414144706
0.000535059991738
0.000508728782485
0.000473379905184
0.000427649031397
0.000373551397028
0.00032022371503
0.00034637518549
0.000433062809018
0.000405465061509
0.000478879780988
0.000549553588761
0.000603532254648
0.000636609497477
0.000648369735523
0.000642904942246
0.000627176857087
0.000607522778164
0.000588093020219
0.000570602190592
0.000554141005312
0.000535898367407
0.000512162822827
0.000479218025546
0.000435018228151
0.000381367668724
0.000328263908423
0.000356842540218
0.000442677627816
0.000413967918369
0.000488480037378
0.00055953865821
0.000612686470948
0.000642813288577
0.000649643104521
0.00063851148634
0.000617739294924
0.000594522906128
0.000573356046881
0.000555907536776
0.000541025026342
0.000525478823211
0.00050499955788
0.0004753661218
0.000433869293433
0.000382036074929
0.000329965323979
0.000359320036439
0.000445526035281
0.000416707866942
0.000491319826357
0.000561805156542
0.000613240001375
0.000640144486372
0.000642600153592
0.000626900045141
0.000602360170481
0.000576724980982
0.000554617502891
0.000537545293445
0.000524153110282
0.000510974415054
0.000493408414892
0.000466882482314
0.000428287258138
0.000378837603294
0.000328217133845
0.000357568034689
0.000444603150295
0.000415931207245
0.000489884644531
0.000559279725895
0.000608894616844
0.000633307034993
0.000632846623219
0.000614381437296
0.000587773059858
0.000560994837126
0.000538628911109
0.000521997800464
0.000509608148249
0.000497927863996
0.000482271728416
0.000457939565018
0.000421630363688
0.000374291802429
0.0003252506278
0.000354385790903
0.000441680995969
0.000412998088381
0.000485737027645
0.000553755027514
0.000602035435224
0.000625203472699
0.000623689912041
0.000604496800797
0.000577554407956
0.000550784305998
0.000528647053586
0.000512342443356
0.000500331540314
0.00048914039728
0.000474188572689
0.000450859842446
0.000415863622488
0.000370014619607
0.000322344638255
0.000351356802668
0.000437025130662
0.000408144824271
0.000479205455882
0.000545687398585
0.000593182027903
0.000616407360629
0.000615709896506
0.000597761068695
0.00057208064401
0.000546300067434
0.000524737673459
0.000508580086132
0.000496351847894
0.000484730848164
0.000469379860083
0.000445930924549
0.000411279362699
0.000366247282455
0.000319607119833
0.000348787627131
0.000429346895577
0.000400475526503
0.000469390407474
0.000534169145217
0.000581005615639
0.00060520676011
0.000606871068385
0.000591890753392
0.000568903552096
0.00054501547963
0.000524377270946
0.000508265258229
0.000495375748607
0.000482630618005
0.000466059389073
0.000441657598898
0.000406653709869
0.000361976255184
0.000316160072373
0.000345487882508
0.000416223474819
0.00038824243281
0.000454462112781
0.000517080414704
0.00056289846253
0.000588239003022
0.000593128443054
0.000582317291032
0.00056317640409
0.0005420453367
0.000522824932387
0.000506893240336
0.000493208989346
0.000479049472965
0.000460906875142
0.000435205177071
0.000399662202674
0.000355255862407
0.000310324395771
0.000339124216944
0.000394591112737
0.000369274081144
0.000432186857809
0.000491889464097
0.000536019876411
0.000561905383504
0.000569842607916
0.000563510920756
0.000548788419813
0.000531066022492
0.000513866343904
0.000498579989199
0.000484447041048
0.000469178257068
0.000449726072126
0.000423070271111
0.000387451162581
0.000343750408403
0.00029991173394
0.000326679592551
0.000361205768816
0.000341434365132
0.00040057113052
0.000456550276834
0.000498365473781
0.000523616803557
0.000533551759038
0.000531022406006
0.000520528518799
0.000506449653825
0.000491801899471
0.000477850130302
0.000464058909427
0.000448544905919
0.000428721999697
0.000402153073687
0.000367333189478
0.000325201398018
0.000282632686685
0.00030480738979
0.00031297478591
0.000303107700852
0.0003585290451
0.00041020251326
0.000448934338696
0.00047286827633
0.000483296589914
0.000483330281777
0.000476291831478
0.000465661079473
0.000453867439156
0.000441936331629
0.000429458800768
0.000414869669074
0.000395972058155
0.000370754045259
0.000337927350737
0.000297891461193
0.000256514040245
0.000270079145228
0.000247164717039
0.000253949008539
0.000306968409262
0.000354525736717
0.000389821233355
0.000411866369629
0.000422139809206
0.000423395104517
0.000418753709859
0.000411062942085
0.00040213458619
0.000392669727378
0.000382283583669
0.000369669639444
0.000352900657602
0.000330058688355
0.000299704847708
0.000261777205327
0.000220532925683
0.000219055167336
0.000162115024323
0.000197152212768
0.000252191715034
0.000297983722786
0.000330934504197
0.000351346219643
0.000361182993837
0.000363188091355
0.000360229561436
0.000354722534611
0.000348200395538
0.000341163686593
0.000333110032344
0.000322713302105
0.000308153703549
0.000287479962055
0.00025889946727
0.000221373225341
0.000176554677491
0.000148658408313
6.85249179944e-05
0.000161617933119
0.000245846484288
0.000309233987009
0.000352713134157
0.000378943023574
0.000391468238005
0.000394264991385
0.000391183147072
0.000385314641597
0.000378544227014
0.000371405788954
0.000363106262979
0.000351760610257
0.000334813506774
0.000309322314935
0.000272121127643
0.000219803332812
0.000148971494713
6.5853418649e-05
8.33943335679e-05
0.000233024867647
0.000372539442088
0.000482095174593
0.000561653429627
0.000613567755317
0.000641967508258
0.000652292171819
0.000650316082544
0.000640981306474
0.00062754736544
0.000611182755334
0.000590948505621
0.000564124195769
0.000526946365449
0.000475337063716
0.000405626640604
0.000314818523923
0.000200979779652
7.75786777516e-05
0.000233651760658
0.00028339521318
0.000369146256875
0.000444356905538
0.0005022137113
0.000541710091692
0.000564508295424
0.000573758582233
0.000573177533452
0.000566131170261
0.000554941118807
0.000540535077864
0.000522381491884
0.00049875122705
0.000467285292835
0.000425698238375
0.000372584396169
0.00030837173999
0.000238033833866
0.000200243902817
0.000373772757562
0.000370226577339
0.000449963121406
0.000526607252531
0.000588054716529
0.000631019661349
0.000656033125261
0.000665837776349
0.000664255409695
0.000655072088015
0.000641033947881
0.000623367421829
0.00060162788175
0.000574029849985
0.000538232640858
0.000492158033611
0.000435112573954
0.00036933690787
0.00030429985037
0.000311591289006
0.000484611875014
0.000446885460718
0.00052808961613
0.000610221337478
0.000676968325818
0.000723455062073
0.000749448564959
0.0007576458009
0.000752493824756
0.000739027381048
0.000720789303929
0.000699485862439
0.000674579288286
0.000643945691658
0.000605040277309
0.000555396012263
0.000494261662763
0.000424885772455
0.000359806098907
0.000394976368633
0.000566380688186
0.000506631610983
0.000591515295164
0.000679109326475
0.000750106825763
0.000798299178994
0.000821828116619
0.000823834158212
0.000811340487028
0.000791112206989
0.000767707085195
0.00074335058768
0.00071727738491
0.000686701879068
0.000648174170176
0.00059817814325
0.000535693635769
0.000464306840756
0.000398558625396
0.000450563794066
0.000621452859439
0.000548524747089
0.000637139977126
0.000728766696749
0.000802108086743
0.000848136316427
0.000864001172438
0.000855338394382
0.000832178703452
0.000803345192808
0.000774522842631
0.000748298543966
0.000723556934227
0.000696435164953
0.000662112353854
0.000616208668738
0.000556251771135
0.000485503203995
0.000420239935703
0.000481411465757
0.000653953370425
0.000574335357705
0.000665706935126
0.000759516621307
0.000832464464035
0.000871934564062
0.000876286085591
0.000853983503203
0.000818508635714
0.000780760766964
0.000747301681174
0.000720737274704
0.000699450840944
0.000678352260101
0.000651097612263
0.000612043461677
0.000558109924207
0.000490874878406
0.000427667057863
0.000492864822933
0.000669310631109
0.000587305418949
0.000680126640093
0.000774165749257
0.00084395117097
0.000874942207985
0.000866694040981
0.000830693208678
0.000783838350413
0.000738628902466
0.000701999741737
0.000676164193318
0.000658964228914
0.00064439556765
0.000624912694673
0.000593748014147
0.000547037151537
0.00048548554131
0.000425398760632
0.000491618548327
0.000673202302826
0.000591158858539
0.000684213713439
0.000777075062426
0.000842668125631
0.000865835447549
0.000846976523915
0.00080018066075
0.00074498792005
0.000694831382253
0.000656519066057
0.000631617595255
0.000617528614843
0.000607960122982
0.000594755136507
0.000570437138969
0.000530343568519
0.0004744733448
0.000418188907273
0.000484132017451
0.000670375672402
0.000589170446182
0.000681512826892
0.000772580712167
0.000834719900137
0.000852470415963
0.000826840027176
0.000773577903367
0.00071376506685
0.000661207087583
0.000622361403941
0.000598193179156
0.000585786282317
0.000578907433413
0.000569352118141
0.000549425589159
0.000514024890853
0.000462669365386
0.000410002645653
0.000475356831282
0.000663674231669
0.000583380097686
0.00067430502407
0.000763615477639
0.000823824720803
0.000839401808891
0.000811546328023
0.000756453471978
0.000695562294566
0.000642670646717
0.000603971132407
0.000580117744147
0.000568048728801
0.000561674386286
0.000553050948069
0.000534689026992
0.000501509425136
0.000452897868359
0.000402943859277
0.000467994270931
0.000653659523281
0.000574208180857
0.000663070203628
0.000750738164907
0.000810647204461
0.000827390302262
0.000801911516399
0.00074953430764
0.000690805730441
0.000639230139295
0.000601002404272
0.000576902824079
0.000563949788597
0.000556197207669
0.000546117927629
0.000526734881012
0.000493400553029
0.000445699076623
0.000397372660667
0.0004624242888
0.000638574599387
0.000560468704838
0.000646518492336
0.000732246213354
0.000792783771551
0.000813482946135
0.000794589220875
0.00074929999831
0.000695958118529
0.00064737888909
0.000609957692264
0.000585028676385
0.000569986031023
0.0005591619582
0.000545651113621
0.000523208017753
0.000487854397834
0.000439587727696
0.000392000276844
0.000456916261021
0.000614887344715
0.000539804455779
0.000622169958126
0.000705034344876
0.000765749844036
0.000791846657441
0.000782386792303
0.000747619748521
0.000702693267268
0.000659140397539
0.000623406626917
0.00059748140914
0.000579427677381
0.000564303073268
0.000546123395882
0.000519526826548
0.000481135973554
0.000431545403421
0.000384304016391
0.000447994394042
0.000578148586053
0.000509402354479
0.000587243853301
0.000666057109523
0.000725188927987
0.000755957713271
0.000756193874242
0.00073310843426
0.00069837100941
0.00066170130502
0.000629120796248
0.000603073551027
0.000582325728682
0.000563002598885
0.000540286899788
0.000509722081964
0.000468389684708
0.000417802715468
0.000371053748728
0.000430971153306
0.000523835051206
0.000466722114698
0.000539651878176
0.000613393894767
0.000669476858879
0.000701906128156
0.000709475458098
0.000696671183605
0.000671946664299
0.000643028414428
0.000615085418124
0.000590564994808
0.000568796095756
0.000546948460144
0.000521309887538
0.000488139055319
0.000445330959125
0.000395051841722
0.000348972647355
0.000400812321151
0.000448008461736
0.000410245697906
0.000479007179708
0.000547127569069
0.00059922509086
0.000630700249942
0.000641961855807
0.000636399078467
0.000619859611255
0.000598224911861
0.000575659349142
0.000554240244868
0.000533624664131
0.000511716605959
0.000485576278164
0.000452146827135
0.000410144975493
0.000361547993667
0.000315616002883
0.000352711996819
0.00034746595896
0.000340437006331
0.000407998396153
0.000471361608338
0.000519251915433
0.000548734227998
0.000560842352802
0.000559031830448
0.0005481101534
0.000532462133793
0.000515162294621
0.000497784994671
0.000480055945781
0.000460234449948
0.000435943944951
0.000404756083568
0.000365181605176
0.000318080159364
0.00027024458064
0.000282370202807
0.000220114498202
0.000262644669353
0.000336955716462
0.000400102890805
0.000445944597302
0.000473879744134
0.000486038953247
0.000486135192411
0.000478467253889
0.000466807731128
0.000453713797881
0.000440266264239
0.000426025077704
0.000409323841573
0.000387766098204
0.000358819864372
0.000320440182544
0.000271925566851
0.000216212618377
0.000186291178699
8.11749284366e-05
0.000219063039726
0.000344295912593
0.000439108611446
0.000504200135239
0.000542643866902
0.000559292413704
0.00056022055536
0.000551630074308
0.000538594208053
0.000524318886429
0.00050990701451
0.000494434002319
0.000475300513283
0.000448842084988
0.000410934556926
0.000357425466786
0.000284128647714
0.000186968936774
7.46547752307e-05
0.000104467770261
0.0003292441392
0.0005376787047
0.000703839510807
0.000827363909104
0.000910100073535
0.000956917524189
0.000975322031563
0.000973676076525
0.000959224999836
0.00093687742696
0.000908574493708
0.000873194014169
0.00082691657991
0.000764371088189
0.00068021778827
0.000570365569059
0.000432482084345
0.000265929493479
9.02435244859e-05
0.000330587768477
0.000396539076823
0.000520728953108
0.000633155346952
0.000722623805378
0.000786168389357
0.000824991222965