/*--------------------------------*- C++ -*----------------------------------*\
| =========                 |                                                 |
| \\      /  F ield         | OpenFOAM: The Open Source CFD Toolbox           |
|  \\    /   O peration     | Version:  3.0.1                                 |
|   \\  /    A nd           | Web:      www.OpenFOAM.org                      |
|    \\/     M anipulation  |                                                 |
\*---------------------------------------------------------------------------*/
FoamFile
{
    version     2.0;
    format      ascii;
    class       volScalarField;
    location    "8.9";
    object      epsilon;
}
// * * * * * * * * * * * * * * * * * * * * * * * * * * * * * * * * * * * * * //

dimensions      [0 2 -3 0 0 0 0];

internalField   nonuniform List<scalar> 
7968
(
4.44737731798e-05
5.74553444148e-05
6.91546588505e-05
7.70702536478e-05
8.17179747082e-05
8.41823350846e-05
8.50633125678e-05
8.50691898772e-05
8.47825506438e-05
8.42999616407e-05
8.3916118756e-05
8.38312771214e-05
8.37376419522e-05
8.33608399274e-05
8.21935419101e-05
7.96240562245e-05
7.50001998412e-05
6.76059518662e-05
5.67314919449e-05
4.43275864421e-05
5.73842467663e-05
0.000118939760916
0.000171064032627
0.000208347974857
0.000232971301897
0.000246976941952
0.000253284744183
0.000254379986018
0.000252666440712
0.000250010841156
0.000247536325017
0.000245463170716
0.000242994486176
0.000238634828644
0.000230473613223
0.000216471537084
0.000194201386841
0.000161092097123
0.000114012845229
5.69196462976e-05
6.89195619905e-05
0.000171215795567
0.000258613180223
0.00032209304793
0.000364874375338
0.00039039632511
0.000402683448277
0.000405733067459
0.000403397843041
0.000398714786469
0.000393510549793
0.000388171862667
0.000381752397197
0.000372130871465
0.000356364602358
0.000331198038601
0.000292993449449
0.000237860151833
0.000160773024765
6.80488763965e-05
7.68880736138e-05
0.000208890974771
0.000322708820476
0.000406045843176
0.000462630574716
0.000496592158553
0.000512971249161
0.000516973207698
0.000513657868371
0.00050732279803
0.000499053162163
0.000489980184238
0.000480054315385
0.000466321924954
0.000444992681502
0.000411847743772
0.000362244324524
0.000291336765184
0.000192996776034
7.54747857143e-05
8.18787604444e-05
0.000234191483729
0.000366887853681
0.000464331930778
0.000530223786757
0.000569422894557
0.000589695350739
0.000596578765721
0.000593060719276
0.000584081562101
0.000572930126603
0.000560697874714
0.000546499163389
0.000527353644103
0.000501106799498
0.00046320850811
0.000406612378488
0.000325518264846
0.000213414434525
7.97150364305e-05
8.45747658196e-05
0.000249439692292
0.000394552550701
0.000501062711453
0.000572489893489
0.000617266083471
0.000640809792459
0.000645895237832
0.000639213103371
0.000626992153689
0.000613333362426
0.000599523538067
0.000584410301641
0.000564300591534
0.000534475052346
0.000491077471074
0.000430905419755
0.000344307399308
0.000224477347339
8.17139449316e-05
8.56842667645e-05
0.000257259820065
0.000409548561846
0.000521060699376
0.000595947874815
0.000644948841389
0.000666910249926
0.000668502759646
0.000658001956352
0.000642633528962
0.000627043349972
0.000612628804073
0.000598011434671
0.00057892222548
0.00054970279506
0.000504684701016
0.000440711449104
0.000351980930286
0.000228747003187
8.25311020718e-05
8.57640190847e-05
0.000260007164143
0.000415689066572
0.000529276388056
0.000607799602865
0.000655880766109
0.000674809490462
0.000672570863848
0.000658488867656
0.00064053238534
0.000623694183341
0.000609374504469
0.000595952643046
0.000578719576817
0.000551475589149
0.000507763936183
0.000442081053697
0.000352683398315
0.000228910980774
8.28058911095e-05
8.546494102e-05
0.000259990612919
0.000416646573678
0.000530477606678
0.000610210035971
0.000656374273384
0.00067233200124
0.000666919361861
0.000650169338001
0.00063047885127
0.000613031662967
0.000599176661504
0.000587036087649
0.000571630475369
0.000546458550219
0.000504715078784
0.000440280381533
0.0003501078316
0.000227177970523
8.26089736396e-05
8.51182801006e-05
0.000259010145759
0.000415285903909
0.000528365169809
0.000607635277062
0.0006520090882
0.000665910204152
0.000658615332179
0.000640466386574
0.000619995432779
0.000602413003133
0.000589052157127
0.000577870130948
0.000563710765274
0.000540000375353
0.000499837451714
0.000436868521293
0.000346963662723
0.000225232535035
8.22245145973e-05
8.49707941329e-05
0.000258120677499
0.000413193894428
0.000524931234911
0.000602765348604
0.000646039277789
0.000659203078471
0.000651566352362
0.000633414452284
0.000613140556681
0.000595811517422
0.000582730173175
0.000571882497878
0.000558128323336
0.000534978764368
0.000495610967528
0.000433659188945
0.000344633564913
0.00022396910873
8.1901031173e-05
8.5182130269e-05
0.000257410971533
0.000410557094093
0.000520532837953
0.000596119824138
0.000639057087787
0.000652805002556
0.000646299255809
0.000629432138149
0.0006102476702
0.000593565630215
0.000580551551407
0.000569335925832
0.000555114585038
0.000531626102941
0.000492261757043
0.000430835690305
0.000343222907991
0.000223560020481
8.18552969608e-05
8.54179713913e-05
0.000255918773808
0.000406108920568
0.000513719725055
0.000585898272691
0.000628841726382
0.000644106277466
0.000639859371175
0.000625267105678
0.000607857145559
0.000592135844875
0.000579177981838
0.00056728700601
0.000552086549105
0.000527719174087
0.000487942639287
0.000426957204785
0.000341485038971
0.000223177184564
8.1849203712e-05
8.52358500796e-05
0.000251992363902
0.000397379802099
0.000501426730947
0.000568644762367
0.000611038349438
0.000628084440283
0.000626705095809
0.000615067777746
0.000599975876835
0.000585571552389
0.000572891449388
0.000560394165447
0.000544201716369
0.000518986960957
0.000479083800377
0.00041956982623
0.000337177210762
0.000221219656277
8.13748222235e-05
8.40386443549e-05
0.000243536108859
0.00038112714179
0.000479547713364
0.000543085472305
0.000580548224286
0.000598443679081
0.000599838506757
0.000591399412424
0.000579026002052
0.00056639045194
0.000554466063869
0.000541872230136
0.000525269803099
0.000500006010535
0.000461285176866
0.00040621645283
0.000327226759066
0.000215710261192
8.00746258009e-05
8.13101681342e-05
0.000228368132999
0.000353854635531
0.000443561783718
0.000501894569941
0.000534327416432
0.000549294518328
0.00055235720226
0.000546805940742
0.000537319513852
0.000526912810023
0.000516429445038
0.000504690537986
0.000488948387566
0.000465424402207
0.000431724821828
0.00038149696177
0.000308090209529
0.000204302511593
7.78680251178e-05
7.63835479542e-05
0.000203969981105
0.000311794661103
0.000388706985026
0.000438986654857
0.000467272168461
0.000479044890251
0.000479862639398
0.00047535578988
0.000468532641
0.000460709551451
0.000452482229446
0.000443178166637
0.000431357684642
0.000413063482837
0.000384184908183
0.000340157514378
0.000275882689103
0.000184737958767
7.37445370589e-05
6.85643298446e-05
0.000167873316818
0.000251188568449
0.000310291332134
0.000348780626776
0.00037043821557
0.000379564101156
0.000380369939038
0.00037669082859
0.000371441654969
0.00036624983648
0.000361354170532
0.000355717000222
0.000347354137853
0.000333598136562
0.000311302479313
0.000276921780625
0.000226434050222
0.000154468433585
6.66790798852e-05
5.72158851021e-05
0.000117414189032
0.000167632865825
0.000202890754712
0.00022559662074
0.000237961864588
0.000242898138331
0.000243077868715
0.000240848784283
0.000237994715507
0.000235469496198
0.000233376528409
0.000230990332917
0.000226927301952
0.000219428690595
0.000206503765987
0.000185760800449
0.000154812964523
0.000110371579907
5.60951271403e-05
4.44314668372e-05
5.73321653184e-05
6.88894943821e-05
7.66715655144e-05
8.1148739633e-05
8.34405298551e-05
8.42587642252e-05
8.43406541298e-05
8.40950992118e-05
8.36524949984e-05
8.32356452888e-05
8.29466591406e-05
8.26570148e-05
8.20084008434e-05
8.06371199511e-05
7.79814473186e-05
7.35354180697e-05
6.63957260737e-05
5.58834016575e-05
4.40486143208e-05
5.65300648328e-05
0.000111361223008
0.000160613820833
0.000197688090706
0.000223415823629
0.000239506234812
0.00024799853856
0.000250909031501
0.00025027627882
0.000248107422012
0.000245504374659
0.000242736640313
0.000239140932216
0.000233190708972
0.00022325686665
0.000207694748073
0.000184575739135
0.000151825206131
0.000107497839069
5.59361775032e-05
0.000111426698269
0.000147721863107
0.000193361425875
0.000230463045476
0.000257344488152
0.00027473439227
0.000284306026139
0.000288052105141
0.000287989422613
0.000285814936352
0.000282593423456
0.000278589581267
0.000273290774383
0.000265570649568
0.000253922539791
0.000236730648481
0.000212421469833
0.000179854373191
0.000139647914256
0.000107330249662
0.000160754570891
0.000193663911885
0.000247678827886
0.00029334344914
0.000327195763775
0.000349452931347
0.000361810211303
0.000366597534686
0.000366273380002
0.000362917930618
0.000357909471434
0.00035168726437
0.000343758734023
0.000332899877796
0.000317332251449
0.000295182576028
0.000264817645561
0.000225462589655
0.000179138576169
0.000151474853294
0.00019815294863
0.000231331845917
0.000294009673483
0.000347813571736
0.00038799758276
0.000414461775298
0.000429041739272
0.00043439640609
0.00043349575186
0.000428719154221
0.000421688985056
0.000413115129827
0.000402646327508
0.000389024390488
0.00037012269406
0.000343786226431
0.000308188568025
0.000262670832956
0.000210108245709
0.000183397909037
0.000224553686704
0.000259089286715
0.00032895750041
0.000389220154404
0.000434187345919
0.00046368050354
0.000479954502076
0.000485536918479
0.000483395491179
0.000476681431986
0.00046765199179
0.000457206126762
0.00044483274162
0.000428927849133
0.000407407355228
0.00037817775788
0.000338969838844
0.000288998490134
0.000231633528757
0.000204646829569
0.000241650417667
0.000277684107394
0.000352759228247
0.000417500840897
0.000465628963543
0.000497349252212
0.000514005411183
0.00051814123887
0.000513744272863
0.000504742683467
0.000493907221814
0.000482304125615
0.000469273468142
0.000452813365838
0.000430221297148
0.000399066094601
0.000357768138717
0.000305202530621
0.000244835806731
0.000217274675206
0.000251438575329
0.000288749648089
0.000367087163424
0.000434471107129
0.000484459225115
0.000516908624247
0.00053223221306
0.000533895079586
0.000526765677848
0.000515464756416
0.000503174445635
0.000491063232786
0.000478312835298
0.000462540065138
0.000440515371846
0.000409263733594
0.000366977745481
0.000313333742132
0.00025156577952
0.000223412541685
0.000255978823938
0.00029423855126
0.000374223385013
0.000442747649332
0.000493577613955
0.000525151940618
0.000538313833041
0.000537226358897
0.000527473328163
0.000514224208251
0.000500942716424
0.000488817758001
0.000476870400755
0.000462407772218
0.000441802175237
0.000411649944659
0.000369704218922
0.000315938300009
0.000253890701498
0.000224985499877
0.000257201928314
0.000296099536445
0.000376560120304
0.000445157627238
0.000495768657454
0.000525920104395
0.000536939017268
0.000533520114777
0.000521761042728
0.000507185233901
0.000493394951842
0.000481536237325
0.000470486867952
0.000457355603533
0.000438278952852
0.000409586066463
0.000368741179464
0.000315483506468
0.000253781788908
0.000224348815532
0.000256788713462
0.000295927849193
0.000376074439315
0.000444097698774
0.000493908071331
0.000522751839666
0.000532247223609
0.000527391246036
0.000514543364448
0.000499366863967
0.000485476918737
0.000473956377161
0.000463587396811
0.000451397597347
0.000433447591138
0.000405959598627
0.000366242828629
0.000313836581359
0.000252735448157
0.000223049646786
0.000255902259689
0.000294664533854
0.000373925421353
0.00044096519601
0.000489805106473
0.00051783369135
0.000526729482318
0.0005215320007
0.000508594532915
0.000493519967402
0.000479842755752
0.000468589542457
0.000458525198931
0.000446710595598
0.000429265629215
0.000402444690206
0.000363530197894
0.000311949815243
0.000251556082779
0.00022195099028
0.000254626367436
0.000292415541352
0.000370303449994
0.00043605865858
0.000483835461389
0.000511588272874
0.000520815509629
0.000516333916517
0.000504232015736
0.000489879274713
0.000476664442226
0.000465572190649
0.000455429641665
0.000443442857308
0.000425905041753
0.000399217790809
0.000360750421914
0.000309911711757
0.000250304598619
0.00022116478878
0.000251897011449
0.000288433084697
0.000364406094963
0.000428510396147
0.000474910470984
0.000502664344184
0.000512892817831
0.000509951942077
0.000499436372002
0.000486330931934
0.00047382410539
0.000462882586994
0.000452447135438
0.000439943936348
0.000421942287983
0.000395090260377
0.00035693816088
0.000306926654365
0.000248302125447
0.000220025779784
0.000246275611025
0.000281358424927
0.000354628553837
0.000416445469761
0.000460885350267
0.00048841538798
0.000499843304728
0.000498885113363
0.000490461042583
0.000479036654403
0.000467532609271
0.000456893314425
0.000446204900518
0.000433168392616
0.000414719138873
0.000387833144897
0.000350316296021
0.000301546908355
0.000244285463972
0.000217055503263
0.000236005576297
0.000269487358447
0.000338943904458
0.000397539952999
0.000439631698039
0.000465847870455
0.000478026662112
0.000478995259595
0.000472840072619
0.000463394632115
0.000453230945221
0.000443230107734
0.000432632449977
0.000419444478146
0.000401026491401
0.000374747916246
0.000338700481832
0.000291814408092
0.000236606993924
0.000210450443326
0.000219183356028
0.000251049725419
0.000315321162545
0.000369485358367
0.00040849100027
0.000432586895563
0.000444400372005
0.000446699154424
0.000442607655279
0.000435238104977
0.000426726737124
0.000417833959296
0.000407942268265
0.000395370147935
0.000377909652126
0.000353390624622
0.000319706498647
0.000275586601913
0.000223447945897
0.000198111168415
0.000193836972325
0.000224444602987
0.000282112482333
0.000330481418116
0.000365369642033
0.000387052912986
0.000397675109908
0.000400178732277
0.000397547333218
0.000392111759143
0.000385459598736
0.000378170780075
0.000369749295553
0.000358843891026
0.000343524711313
0.00032162746339
0.000291135331317
0.000250929222352
0.000203058932011
0.000178020831962
0.000158055436942
0.000188713265496
0.000238770252673
0.000280160371996
0.000309865747296
0.00032839741063
0.000337678418497
0.000340207521116
0.000338494865876
0.000334604573539
0.000329829492195
0.000324531488691
0.000318171487457
0.000309484978652
0.000296788058108
0.000278179759419
0.000251865980504
0.00021670229738
0.000174070887713
0.000147995152257
0.000110398412739
0.000144997506882
0.0001879748926
0.000222194433894
0.0002462913676
0.000261201549846
0.000268749906256
0.000271034652337
0.000270106141599
0.000267619888677
0.000264557246768
0.000261130450075
0.000256808236713
0.000250479585524
0.000240695933186
0.00022582655835
0.000204203983052
0.000174460028514
0.000136789572524
0.000105818851852
5.63763081915e-05
0.000110187880684
0.000157632930049
0.000192618898618
0.00021625967925
0.000230470361332
0.000237445177821
0.000239229488415
0.000238015094186
0.000235670660333
0.000233147953974
0.000230614089913
0.000227464507218
0.000222439076256
0.00021381364479
0.000199897293021
0.000178794331426
0.000148258572965
0.000105932665157
5.52598995507e-05
6.89204511205e-05
0.000165905280988
0.00025588065657
0.000325600838369
0.000375369246188
0.000407357903971
0.000424708154723
0.00043111779252
0.000430320327625
0.000425476289447
0.000418627102847
0.000410378644737
0.000399937150419
0.000385349610686
0.000363957948183
0.000332846781586
0.000289086059843
0.000229859655236
0.000152953560274
6.69223753346e-05
0.000166147271554
0.000204959314363
0.000265778268459
0.000317722976702
0.000356698905787
0.000382674665907
0.000397320247104
0.000403123285529
0.000402771852532
0.000398620045032
0.000392234563978
0.000384149338817
0.000373854583184
0.000360019499984
0.000340841912405
0.000314424238675
0.00027925273747
0.000234862728989
0.000183862537897
0.000152586452447
0.000256402259161
0.000266429012923
0.000326576265235
0.000381817570548
0.000424716786022
0.000453901020063
0.00047048705897
0.000476875398165
0.000475887574546
0.000470184253729
0.000461636465989
0.000450992966601
0.00043782480269
0.000420765255804
0.000398030358944
0.000367782830287
0.000328934030626
0.000282163967937
0.00023302196905
0.000228625081327
0.000326861898048
0.000319374782022
0.000382883688715
0.000443414491808
0.00049100217382
0.000523345536741
0.00054128565562
0.000547467613753
0.000544930315088
0.000536867341137
0.000525647109542
0.000512317808498
0.000496481739153
0.000476581658778
0.000450851584079
0.000417150856078
0.000374478163968
0.000324093524668
0.000273473224246
0.000284981494999
0.000378002763743
0.000359748677366
0.000427304462148
0.00049262349525
0.000543854071813
0.000578076422676
0.000596114506519
0.000600262013049
0.00059456526069
0.000583169321634
0.000569064957807
0.000553601096585
0.000536301095605
0.00051530196859
0.000488142071564
0.000452438628923
0.00040741390686
0.000354417007616
0.000302063335054
0.000322964713198
0.000412015129646
0.000387545814671
0.000458523159361
0.000527252450058
0.000580531791737
0.000615181609459
0.000631009006822
0.000631063849449
0.000620729564534
0.000605269537449
0.00058830679765
0.000571438709964
0.000554006265737
0.000533693267965
0.000507418173583
0.000472142059666
0.000426501039005
0.000372509824878
0.000319289050023
0.000345354663009
0.000432001450264
0.000404447074854
0.000477713662981
0.000548258166365
0.000602138532431
0.000635151862687
0.000646873844996
0.000641389549057
0.000625655244178
0.000606004282886
0.000586584930693
0.000569112418152
0.000552680063555
0.000534479213394
0.000510802325008
0.000477934487836
0.000433830127601
0.000380289579619
0.000327294759557
0.000355778949549
0.000441600021381
0.000412938348479
0.000487305228695
0.000558235563262
0.000611286539255
0.000641348860146
0.000648137501077
0.00063698197487
0.000616198703157
0.000592980820571
0.000571820130916
0.000554386446276
0.000539529775477
0.000524024366675
0.000503604313886
0.000474049999532
0.000432652250263
0.00038093454818
0.0003289732666
0.000358229118344
0.000444441125238
0.00041567476282
0.000490145408026
0.000560502923847
0.000611846424066
0.000638687095284
0.000641099157205
0.0006253707088
0.000600814716588
0.00057517332162
0.000553067930934
0.000536006960083
0.000522637362696
0.000509497522826
0.000491990085205
0.000465543973462
0.000427049617495
0.000377717156344
0.000327209181754
0.000356459317058
0.000443513258393
0.00041489716472
0.000488714384787
0.000557985894075
0.000607513401011
0.0006318630773
0.000631357152498
0.000612859410634
0.000586229872205
0.00055944089235
0.000537073430619
0.00052045066394
0.00050808124543
0.000496438065489
0.000480839452759
0.000456586835378
0.000420378967279
0.000373158644006
0.00032423260848
0.000353264494374
0.000440585223779
0.000411962991657
0.000484570822793
0.000552470540624
0.000600667715999
0.000623774986108
0.000622215044879
0.000602986033961
0.000576017959999
0.000549232878051
0.00052709094293
0.000510792618848
0.000498800794817
0.000487645751625
0.000472750501257
0.000449500366437
0.000414604739017
0.000368873783195
0.000321320083036
0.000350226005948
0.000435923379312
0.000407108779575
0.000478042893446
0.000544413654927
0.000591827728286
0.000614995302842
0.000614252462407
0.000596266475306
0.000570557518758
0.000544758772924
0.000523189117699
0.000507036286194
0.000494826659976
0.000483241076909
0.000467945477045
0.000444573299659
0.000410020256583
0.000365104556835
0.000318579472009
0.000347652688738
0.000428244142689
0.000399442125238
0.000468234157027
0.000532908151914
0.000579666741453
0.000603814090796
0.000605436517681
0.000590421016571
0.000567405492479
0.000543498092032
0.000522851046424
0.000506742366996
0.000493870671072
0.000481159369208
0.000464641037516
0.000440312719101
0.000405403800292
0.000360839823217
0.000315135217989
0.000344356431241
0.000415132051779
0.000387220642514
0.000453319127825
0.00051583600536
0.000561580117218
0.000586871635723
0.000591724882147
0.000580883782498
0.000561718248576
0.000540569465319
0.000521340319256
0.000505410807421
0.000491742331069
0.000477613919721
0.00045951973827
0.000433886588656
0.000398433581
0.000354137495881
0.000309314320299
0.000338010116534
0.000393532549875
0.000368279867392
0.000431070978703
0.000490672992383
0.000534733737901
0.000560573083387
0.000568480163557
0.000562125495664
0.000547384455018
0.000529648397498
0.000512441628404
0.000497156978027
0.000483037254944
0.000467795856066
0.000448386655439
0.000421793636226
0.000386258797774
0.000342661899503
0.00029893176761
0.000325603827054
0.000360212314355
0.000340491639031
0.000399504365963
0.000455381384356
0.000497127732963
0.000522334626913
0.000532244311716
0.000529698257571
0.00051919229104
0.000505104836674
0.000490452770386
0.000476502959369
0.000462722773696
0.000447232219336
0.00042744793215
0.000400935869972
0.000366194781747
0.000324163692731
0.000281703963289
0.000303799637954
0.000312090081795
0.000302247903239
0.000357541174972
0.000409109165703
0.00044777004665
0.000471661169037
0.000482065486446
0.000482085745678
0.00047504001414
0.000464405021084
0.000452609782089
0.000440681215887
0.000428213042145
0.000413644278627
0.000394782344165
0.000369615391425
0.000336864463186
0.000296929438654
0.00025566355254
0.000269179393656
0.000246443357308
0.000253208051062
0.000306092994419
0.000353540465356
0.000388761163517
0.000410761253465
0.000421010407365
0.000422253869929
0.000417607307045
0.000409914963515
0.000400986654072
0.000391524416691
0.000381145434346
0.00036854892165
0.000351812167933
0.00032902104653
0.000298742947281
0.000260917782018
0.000219792349336
0.000218315805694
0.000161618774079
0.00019655982006
0.000251450832867
0.000297125779063
0.00032999634499
0.000350358957629
0.000360169028918
0.000362161388873
0.000359197446015
0.000353688203008
0.000347165247446
0.000340129939932
0.0003320828451
0.000321702641182
0.000307174083909
0.000286551682044
0.000258049461832
0.000220632990805
0.000175952447926
0.000148144594391
6.82868156121e-05
0.000161120866125
0.000245124384738
0.00030834913358
0.000351719748238
0.000377883267148
0.000390371759096
0.000393150179593
0.000390059433147
0.000384185663719
0.000377411056953
0.000370270346736
0.000361975273798
0.000350647074586
0.000333737937933
0.000308314771309
0.000271221690141
0.000219064357777
0.000148458011659
6.56106119928e-05
8.31396718327e-05
0.000232415585895
0.000371619731784
0.000480958378809
0.000560382114651
0.000612225727635
0.000640598884121
0.000650923390242
0.000648959539964
0.000639640205551
0.000626220775736
0.000609870412281
0.000589654693814
0.000562858615766
0.000525728662125
0.00047419760005
0.000404608606303
0.000313981472492
0.000200401785888
7.73166737021e-05
0.000233042133008
0.000282649454097
0.000368205044044
0.00044326763106
0.000501030469706
0.000540478196972
0.000563260406014
0.000572515533252
0.000571950518644
0.000564924954859
0.000553757153263
0.000539374292165
0.000521246837939
0.000497649628906
0.000466228603918
0.000424702015573
0.000371673074466
0.000307574174631
0.000237375683643
0.000199664323154
0.00037284967523
0.000369282969703
0.000448855138789
0.000525368221258
0.000586731113778
0.000629651461819
0.000654649217077
0.000664458951425
0.000662894053433
0.000653735223597
0.000639725642987
0.000622090769388
0.000600387000925
0.000572831405476
0.000537086139632
0.000491076103233
0.000434110887611
0.000368434089994
0.000303501352846
0.000310751353619
0.000483466739691
0.000445790513017
0.00052684907129
0.000608860954002
0.00067552913676
0.000721970853185
0.000747942695493
0.000756141065276
0.00075100486614
0.000737563401171
0.000719357114365
0.000698091467042
0.000673229214239
0.000642647993863
0.000603801441123
0.00055422688019
0.000493172919048
0.00042388951864
0.000358896405635
0.000393953910321
0.000565095496543
0.000505440117346
0.000590192621073
0.000677676151263
0.000748596955485
0.000796738640487
0.000820245090433
0.000822247423849
0.000809763424417
0.000789555514866
0.000766180217669
0.000741862716751
0.000715837977613
0.000685320317841
0.000646860202546
0.000596941251423
0.000534537822258
0.000463240547046
0.000397569738937
0.000449418399544
0.00062009175821
0.000547283908996
0.000635781255705
0.000727305278208
0.000800566299664
0.000846547565156
0.000862384983805
0.000853709126167
0.000830548812035
0.000801726882232
0.000772928376944
0.000746740619207
0.000722048714302
0.000694988183228
0.000660737550584
0.000614915792719
0.000555049324443
0.000484387901562
0.000419197297869
0.000480185456852
0.000652561448649
0.000573080242734
0.000664347504773
0.000758062968375
0.000830935343013
0.000870355719407
0.000874671171538
0.00085234282986
0.000816853999913
0.000779106380003
0.000745662638537
0.000719128886177
0.000697890541042
0.000676855374589
0.000649676517677
0.000610708456678
0.000556868793423
0.000489727537191
0.000426588491132
0.00049158668321
0.00066791463749
0.000586057802012
0.000678788744395
0.000772740713638
0.000842459708496
0.000873399779387
0.00086510622055
0.000829065806968
0.00078218271444
0.000736961672076
0.000700337189957
0.000674525486736
0.000657369224881
0.000642863034643
0.000623457519132
0.000592381875124
0.000545768230468
0.000484313395651
0.000424295300085
0.000490306216733
0.000671813544423
0.000589928747276
0.000682909338984
0.000775692950607
0.000841230002021
0.000864346199807
0.000845433767386
0.000798585340468
0.000743350500325
0.000693170308763
0.000654852960502
0.00062996762604
0.000615915938151
0.000606406196064
0.000593277643628
0.000569049635067
0.000529054915093
0.000473282824855
0.000417067639032
0.000482795915387
0.000668994427902
0.00058795858101
0.00068024361551
0.000771248204535
0.000833340446461
0.000851041891852
0.000825352385468
0.000772026301096
0.000712157611784
0.000659563508358
0.000620703233737
0.000596544344454
0.000584169424843
0.000577345585383
0.000567864497618
0.000548026739039
0.00051272405123
0.000461466009412
0.000408870370554
0.00047400349173
0.000662295212816
0.000582181706475
0.000673065484081
0.00076232763998
0.000822501319577
0.000838034611165
0.000810118154316
0.000754952874
0.000693993399865
0.000641053188287
0.000602329413064
0.000578479357493
0.000566438966493
0.000560117366417
0.000551565772648
0.000533289566099
0.000500204383734
0.000451686777071
0.000401801185131
0.000466626840674
0.000652277099714
0.000573016900549
0.00066185149796
0.000749484732919
0.00080937221878
0.000826080899191
0.000800545219459
0.00074809351487
0.000689289464229
0.00063765562209
0.000599394609963
0.000575292218247
0.000562364720341
0.000554662335637
0.000544650927811
0.000525347743358
0.000492100955444
0.000444486933299
0.000396224444011
0.000461047486433
0.000637188844921
0.000559280992904
0.000645313129651
0.000731024829006
0.0007915478581
0.000812225267933
0.00079328629092
0.000747930216506
0.00069451537323
0.000645874723582
0.000608415191478
0.000583476457913
0.00056845371952
0.000557673289662
0.000544221779001
0.000521848346033
0.000486571764899
0.00043838345109
0.000390854164715
0.000455539421373
0.000613508226929
0.000538622948244
0.000620973144893
0.000703830053211
0.000764540551297
0.000790630716188
0.000781143672393
0.000746327168129
0.000701340613418
0.000657732091735
0.000621959616543
0.000596019473156
0.000577976124928
0.000562883036737
0.00054474906853
0.000518208428675
0.000479881989118
0.000430359990555
0.000383168406687
0.00044663444095
0.000576799801671
0.000508239003521
0.000586057346387
0.000664861355688
0.000723992153113
0.00075476809262
0.000754996215482
0.000731883177359
0.000697105252297
0.000660393032665
0.000627778574859
0.000601713480831
0.000580966687142
0.000561661214582
0.000538976392654
0.00050845362241
0.000467174263132
0.000416649719058
0.000369947815108
0.000429654285532
0.000522557670439
0.000465601292518
0.000538488560077
0.000612209225083
0.000668292594258
0.000700727868262
0.000708301326247
0.000695488410177
0.000670743264659
0.000641798582187
0.000613830745898
0.000589293671306
0.000567519824867
0.000545679732599
0.00052006136134
0.000486924275405
0.000444162795648
0.000393940689868
0.000347918425268
0.000399575034019
0.000446863770896
0.000409205583152
0.000477893157565
0.000545967583036
0.000598050755429
0.000629528496395
0.000640793989106
0.000635233922677
0.000618688541877
0.000597041429694
0.000574461371862
0.000553030601966
0.000532410037938
0.000510506211357
0.000484382493816
0.000450986416203
0.000409029626406
0.000360500502361
0.000314643088968
0.000351605284129
0.000346536140548
0.000339526787266
0.00040697119361
0.000470253413804
0.000518103568528
0.000547573337078
0.000559681848904
0.000557874577767
0.000546953541338
0.0005313024332
0.000513997053869
0.000496615063736
0.000478886339192
0.000459071787883
0.000434798650591
0.000403648852757
0.000364135551915
0.000317121784941
0.000269389325121
0.000281463265615
0.000219495596977
0.000261910133565
0.000336047230183
0.000399069205934
0.000444836855719
0.000472736313421
0.000484883243599
0.000484978379834
0.000477312570103
0.000465654328308
0.000452560381693
0.000439113433622
0.00042487715748
0.000408189763102
0.000386661317367
0.000357767026202
0.000319468222905
0.000271070658642
0.000215508161632
0.000185672590813
8.09158073532e-05
0.000218442524567
0.000343365491592
0.00043796552259
0.000502926472393
0.000541299626116
0.000557916312279
0.000558833779327
0.000550241349769
0.000537205169197
0.000522928831636
0.000508516979527
0.000493050364439
0.000473938045507
0.00044752520706
0.000409697373099
0.000356319258211
0.000283222313967
0.000186350736665
7.43879811455e-05
0.000104185682137
0.000328452253088
0.000536479105614
0.0007023720225
0.000825740198974
0.000908402186474
0.000955200728806
0.000973619977952
0.000972006569227
0.000957595686416
0.000935290265009
0.000907029971772
0.000871695090817
0.000825472495136
0.000763000325441
0.00067895014146
0.00056924456492
0.000431561135955
0.00026529769298
8.99676074334e-05
0.000329793547265
0.00039556798629
0.000519529543324
0.000631794946683
0.000721170351463
0.000784674824123
0.000823494169685
0.000841436049212