/*--------------------------------*- C++ -*----------------------------------*\
| =========                 |                                                 |
| \\      /  F ield         | OpenFOAM: The Open Source CFD Toolbox           |
|  \\    /   O peration     | Version:  3.0.1                                 |
|   \\  /    A nd           | Web:      www.OpenFOAM.org                      |
|    \\/     M anipulation  |                                                 |
\*---------------------------------------------------------------------------*/
FoamFile
{
    version     2.0;
    format      ascii;
    class       volVectorField;
    location    "6.1";
    object      ddt0(rho,U);
}
// * * * * * * * * * * * * * * * * * * * * * * * * * * * * * * * * * * * * * //

dimensions      [1 -2 -2 0 0 0 0];

internalField   nonuniform List<vector> 
7968
(
(-0.00080314783794 -0.0336576839939 0.0367952484377)
(0.0407601805218 -0.041904290115 0.0150321062137)
(0.113433152626 -0.0416790308851 0.00155428045942)
(0.195106953242 -0.0434978823925 -0.00737302196425)
(0.283260641906 -0.0401871735324 -0.0147636436371)
(0.376289019761 -0.0316976489202 -0.020523617813)
(0.473543374736 -0.0249738064532 -0.0274611359844)
(0.574181800402 -0.0161426045725 -0.0306407077101)
(0.66963564518 -0.00917037240915 -0.0316752072919)
(0.753508513319 -0.00539903092764 -0.0278150458454)
(0.820417941578 -0.00316688160808 -0.0198123441024)
(0.863831205708 -0.00270026270009 -0.00765165624319)
(0.879157432511 -0.00483714333085 0.00916900638471)
(0.86214577992 -0.00899443764808 0.0271001675738)
(0.809679724228 -0.0125868438488 0.0461721695322)
(0.722506124405 -0.0171996279055 0.0629539910001)
(0.60631216078 -0.0191466098902 0.0776125026794)
(0.462749020625 -0.0169585106915 0.0898441135762)
(0.300993012963 -0.0137709411191 0.103861154605)
(0.112574825513 -0.00515520069591 0.120208776583)
(-0.00763067954573 -0.0573981143852 0.0156742863771)
(0.056107927359 -0.0471421335139 -0.0533874949335)
(0.134164095172 -0.035334990353 -0.0751513297764)
(0.205983573461 -0.0287016985961 -0.0754696494895)
(0.283455720518 -0.0213708796665 -0.0731056920223)
(0.367772452131 -0.0106848612311 -0.0727003971929)
(0.460257516582 0.000400168049576 -0.0751007085768)
(0.561186540296 0.0134928691554 -0.077009795047)
(0.662306183679 0.0255776717939 -0.0771301812244)
(0.755501485362 0.0366036874821 -0.0749029117977)
(0.832230340102 0.0447015812147 -0.0689177461343)
(0.88406519406 0.0499151015014 -0.0589326796515)
(0.903418753027 0.0525070940411 -0.0457630826342)
(0.884896185012 0.052623887223 -0.0312211433549)
(0.826332969901 0.0514054515945 -0.016030653216)
(0.729386764923 0.0478591816888 -0.00347559615376)
(0.602955927608 0.0441448569876 0.00664933528815)
(0.454065422123 0.0408599218844 0.01654640485)
(0.298326270604 0.0358355033977 0.0395862354863)
(0.12323234911 0.0204811398132 0.0985094435569)
(-0.00910262425576 -0.0516406329048 -0.00112534054151)
(0.0667449786053 -0.0349441580271 -0.0772779285287)
(0.139421902322 -0.0317432266107 -0.082049398449)
(0.201655366429 -0.0315891065208 -0.0707768525539)
(0.269563552987 -0.0297730153329 -0.063547760167)
(0.350618655576 -0.0223083931407 -0.0629725768053)
(0.44643536756 -0.00862998795531 -0.0674443668954)
(0.554311007455 0.0109831983627 -0.0727694938792)
(0.664421293181 0.0339918679589 -0.0761315304643)
(0.766775478542 0.0551049567952 -0.0752804952102)
(0.852317644434 0.0724424833662 -0.0693469396038)
(0.9107037467 0.0856420517803 -0.0585851449653)
(0.93357990962 0.0929840278955 -0.0432796804209)
(0.915587483708 0.0986242037506 -0.0262129131506)
(0.853763006657 0.103436880608 -0.00998995520534)
(0.75013321251 0.106973982258 0.00157812024465)
(0.614644349194 0.110208204792 0.00713155300495)
(0.458852070656 0.11167994235 0.00767645485805)
(0.290115163995 0.109065316417 0.0169159573895)
(0.119241608609 0.0825176196242 0.0885018776433)
(-0.00929453777927 -0.0308183641945 -0.0137907731507)
(0.0737531993667 -0.020555465592 -0.0836254926923)
(0.138769112074 -0.0277977096032 -0.0758478688608)
(0.194194180119 -0.0363838344833 -0.0612378261338)
(0.259811096701 -0.0387134105974 -0.0565562176711)
(0.344041835367 -0.0298904107384 -0.0608200896959)
(0.446645396587 -0.0100544674344 -0.0687311361585)
(0.563523831903 0.0185410934826 -0.0748310090901)
(0.681538079486 0.0512280050269 -0.0798627329057)
(0.789400125145 0.0819551384991 -0.0779544104777)
(0.879401366338 0.10713580044 -0.0705001658173)
(0.938870714184 0.125364298758 -0.0586038432122)
(0.96207803984 0.137389743777 -0.0396719813919)
(0.944079817605 0.145848475537 -0.0183253541808)
(0.879279926635 0.153407211119 0.000986667420151)
(0.770403817164 0.160809871327 0.0149071285107)
(0.627223408596 0.168803453144 0.0204761034813)
(0.462795937636 0.174733809756 0.0168293320674)
(0.286259872694 0.172922163996 0.0154298798013)
(0.11964827115 0.162303747317 0.080862030728)
(-0.00499085977934 0.0103550040484 -0.0264796973973)
(0.0816339678101 0.00790349879489 -0.0882775733456)
(0.139332644559 -0.00885768306451 -0.0753960446902)
(0.191830055013 -0.021330314932 -0.0633067768727)
(0.2599423228 -0.0220950949345 -0.0643279277646)
(0.351162001416 -0.00910326120986 -0.0727999245056)
(0.463456414864 0.0184220416905 -0.0821479521296)
(0.587971293841 0.0567799781497 -0.0876851945938)
(0.71112392409 0.0986611706211 -0.0882849292814)
(0.821228533235 0.137779587889 -0.083013419491)
(0.90969125995 0.168413498041 -0.0723109443763)
(0.967882610887 0.188834294435 -0.0567551349572)
(0.988468019812 0.202833139564 -0.0367878702804)
(0.966163614091 0.210603855153 -0.0153105151464)
(0.898265855058 0.217055189498 0.00576084199483)
(0.785078235167 0.224237477209 0.0223432439054)
(0.63566599193 0.233362113578 0.0299285357769)
(0.46117031367 0.242564300519 0.0259988471383)
(0.28505915439 0.247209797806 0.0209083009869)
(0.123838233955 0.243768413548 0.0708538574103)
(0.00281558647297 0.0684749488935 -0.0384422184331)
(0.0913106171305 0.0558659049281 -0.0948798678803)
(0.145235840307 0.0347252436628 -0.0823710253909)
(0.199977025301 0.0229697393837 -0.0752230907747)
(0.273445490153 0.0257324817304 -0.0760316391934)
(0.373441648085 0.0472577476561 -0.0905301177726)
(0.496471891821 0.0833657407046 -0.0980513561548)
(0.62820900188 0.130386876404 -0.0991078371187)
(0.752694620145 0.180281915327 -0.093619326902)
(0.85904205585 0.224642169118 -0.0834971155281)
(0.94064650128 0.257825608956 -0.0699459240917)
(0.991619679143 0.278728338456 -0.0532610135428)
(1.0057299614 0.289738509556 -0.033726235175)
(0.978456166411 0.294261305966 -0.0127446386962)
(0.907273353387 0.297403498688 0.00819853248332)
(0.790764581517 0.301734239041 0.0252584197942)
(0.637420579565 0.309406911409 0.0344726688527)
(0.458322599383 0.319217827547 0.0312434098118)
(0.276265227965 0.330489807987 0.0232437728011)
(0.116137583521 0.325454026928 0.0660896733999)
(0.0105951103199 0.137787413408 -0.0474899966355)
(0.102775709921 0.126922929067 -0.102912398369)
(0.156318505905 0.107927122681 -0.0941476854996)
(0.215254321964 0.100669145977 -0.0921782985146)
(0.298799044958 0.108111816044 -0.0997933910124)
(0.410105364871 0.137252594753 -0.107348671171)
(0.54180217917 0.180122514659 -0.110151590287)
(0.677706697247 0.232429057728 -0.104505564906)
(0.800321314366 0.286242045031 -0.0917260540456)
(0.899051589848 0.332089340975 -0.0760134788932)
(0.969966567156 0.36583355108 -0.0608034217886)
(1.01042570847 0.385494749266 -0.0453330072809)
(1.01582554825 0.39326313967 -0.028068949258)
(0.982593598408 0.393827037003 -0.00954717292352)
(0.90827164947 0.392453712196 0.00953600072109)
(0.789642712624 0.392540343086 0.0261163279579)
(0.634052177057 0.39668113906 0.0355635708368)
(0.452893653369 0.404622014016 0.0326387265958)
(0.267219438019 0.41590970541 0.0235105364993)
(0.109202585007 0.416395866817 0.060821481317)
(0.0265128063528 0.24487833719 -0.0379985568038)
(0.122684391431 0.223779840927 -0.108679166248)
(0.17342419262 0.208402550108 -0.106426997316)
(0.237618800411 0.209906964011 -0.107264497299)
(0.330951054431 0.220656205753 -0.115572262281)
(0.453416262897 0.252574116818 -0.118699164025)
(0.593121503972 0.29665231802 -0.115204358965)
(0.731209077801 0.347971021859 -0.0998021916304)
(0.849198701984 0.398652109156 -0.0731556652241)
(0.938496628791 0.444572201303 -0.0583858150771)
(0.996910942454 0.475879178646 -0.040275557178)
(1.02569670808 0.492960309823 -0.0262102561281)
(1.02027742042 0.499989632724 -0.01525563793)
(0.980426236539 0.498890700087 -0.00140843244818)
(0.902850904031 0.495412410211 0.0137633343072)
(0.782907994658 0.492732745634 0.027789402404)
(0.626769781108 0.493540117046 0.0346344515768)
(0.445951377978 0.499040205661 0.0330707590602)
(0.260621432147 0.507938065749 0.0242510714236)
(0.102979504439 0.510591843522 0.0548914006139)
(0.0245623923687 0.361387913266 -0.0609513362999)
(0.123756212683 0.334792054123 -0.117170392549)
(0.191777827185 0.324726737408 -0.117464323499)
(0.262268853235 0.32968308045 -0.126115056696)
(0.362024627495 0.346710694279 -0.126112263333)
(0.495860348551 0.377755893058 -0.123441072809)
(0.642030357581 0.417324989645 -0.113192488418)
(0.780060581497 0.460499461259 -0.0838300399735)
(0.895574473334 0.506436263902 -0.0640146074328)
(0.973781043235 0.544100138175 -0.0400997682463)
(1.01970309868 0.571675921425 -0.0218217006673)
(1.0362236756 0.588306625556 -0.0078010431611)
(1.02327837448 0.595472712908 0.00231391557973)
(0.976756488796 0.596493796087 0.0107796351773)
(0.896105642651 0.594820827623 0.0217144372203)
(0.774930672818 0.592660142145 0.0329741090982)
(0.619075846407 0.592293186805 0.0386555423271)
(0.439181931182 0.594873198579 0.0365592020904)
(0.254672137585 0.599111311098 0.0281887071418)
(0.0969759955205 0.598030843105 0.0544940067368)
(0.025213652924 0.456299472843 -0.0655368949686)
(0.128696092036 0.446523205328 -0.120323572301)
(0.202965965019 0.446025625014 -0.120854384597)
(0.283722692568 0.453202714003 -0.124800211091)
(0.393866730933 0.475060216977 -0.127387180151)
(0.531266844694 0.50122571568 -0.121886530574)
(0.6797960386 0.531137347048 -0.105990915516)
(0.820556002426 0.562937058098 -0.079057582647)
(0.930951608952 0.59382606478 -0.0495542412379)
(1.00241031634 0.621618838507 -0.0218829632651)
(1.04017933537 0.643940687033 -0.0030918492116)
(1.04832377523 0.660949580086 0.00807078374065)
(1.03016933172 0.672280274539 0.0205657903387)
(0.977701773359 0.678865852181 0.0238777175255)
(0.894124795421 0.682321031724 0.0322378727122)
(0.771406054542 0.683502343561 0.0416234146443)
(0.615036511671 0.683974274644 0.0462595112758)
(0.435251039504 0.684035073145 0.0441483663568)
(0.250881990263 0.683142749071 0.035245948152)
(0.0937098025868 0.677361349235 0.0588406133795)
(0.0258907290545 0.548320320226 -0.0612217124375)
(0.132699274703 0.551558438592 -0.117118030826)
(0.212346039448 0.561740417651 -0.11744526094)
(0.299198946715 0.574049681432 -0.118950974274)
(0.414396677573 0.594849658931 -0.121552280862)
(0.553375364579 0.613164773191 -0.1149378699)
(0.702886596906 0.630604311395 -0.0979655000963)
(0.843266153737 0.646805641626 -0.069840891212)
(0.952494677024 0.662371419639 -0.0394158037297)
(1.02212928676 0.678381189678 -0.0109588873527)
(1.05754234976 0.695178040286 0.00869773767305)
(1.06301066944 0.711945837988 0.0204352259075)
(1.04175798497 0.728506723265 0.0328739001153)
(0.986322473599 0.741525528578 0.0367202252604)
(0.899888192572 0.751185237984 0.0449616220113)
(0.774902240738 0.756766435427 0.054115101949)
(0.616870854594 0.758849811959 0.0585272966542)
(0.435807571021 0.757191520992 0.0562234279159)
(0.250470167893 0.751345721376 0.0462900798587)
(0.092700955018 0.74107171536 0.0675265654837)
(0.0251802004472 0.626181818695 -0.0511184211897)
(0.13396871444 0.63892377339 -0.108296737741)
(0.215723654258 0.658457910712 -0.106585565363)
(0.30761912146 0.676916072672 -0.10250121562)
(0.42553299795 0.694424127541 -0.107970665366)
(0.561548385544 0.704454714894 -0.102614680261)
(0.70976833135 0.709661630974 -0.0885682439252)
(0.847173038429 0.713112070033 -0.0550918260614)
(0.959768880259 0.711515377045 -0.0328567855534)
(1.03232607085 0.716020059777 -0.00669648424101)
(1.07117409979 0.726890934515 0.0138394052156)
(1.07951661264 0.743223513915 0.0290058734244)
(1.0573087153 0.762428598431 0.0397602232241)
(1.00207161185 0.780810344844 0.048997808804)
(0.913072350153 0.795372790807 0.0594900528151)
(0.785337922392 0.804495749433 0.069888345763)
(0.624714784767 0.808315457384 0.0747666951454)
(0.441118256788 0.80447650267 0.0722647048805)
(0.253773926855 0.794949694797 0.0610008365532)
(0.0941703354384 0.781862756277 0.0803243171173)
(0.0207484758863 0.676185800055 -0.0389935808155)
(0.131881489516 0.697456596133 -0.0953714951317)
(0.219484570886 0.724352062923 -0.0911180405049)
(0.310538519866 0.74861623479 -0.0876771964371)
(0.42466597192 0.762640616411 -0.0890472703349)
(0.557806074233 0.766073268381 -0.0850178829434)
(0.702191188201 0.76188544662 -0.0748127999442)
(0.840191735557 0.751970990306 -0.0538428029944)
(0.953302054324 0.743439541048 -0.0215237253415)
(1.0339885788 0.736525159474 -0.00147545402224)
(1.08114711824 0.741529253724 0.0194125637731)
(1.09519496575 0.754270295673 0.033427589707)
(1.07588842244 0.773152660265 0.0476140938137)
(1.02141506559 0.793281053811 0.0613097907272)
(0.930510776342 0.809858288697 0.075187702584)
(0.800517902131 0.820229967288 0.0871596469583)
(0.636281870747 0.823807437255 0.0911780779178)
(0.449629418749 0.819066332595 0.0892645648941)
(0.261346199641 0.80765350666 0.0777959151544)
(0.0985152356269 0.794774897553 0.0956666754525)
(0.0171703854217 0.693753444938 -0.0188629931354)
(0.131635337762 0.718614306391 -0.0789257091267)
(0.221456811359 0.748901549488 -0.0718190177314)
(0.311673580172 0.77396359072 -0.0652502975222)
(0.42081324601 0.788314349131 -0.0653979391153)
(0.548158477881 0.788777240361 -0.0627169380348)
(0.686745216063 0.779169511429 -0.0564813918537)
(0.822555401373 0.762085861092 -0.0425867543645)
(0.939295584879 0.743549123441 -0.022755675318)
(1.02732300356 0.731871281449 -0.00202574149221)
(1.08358054057 0.730723740302 0.0178838641833)
(1.10621580584 0.740137888259 0.0370243439434)
(1.09214904404 0.756512198023 0.0557379414764)
(1.03943977214 0.775012122328 0.0738255806161)
(0.947308212994 0.790534472405 0.0909882890319)
(0.815011270661 0.800101231679 0.104767702103)
(0.649284209161 0.802147149921 0.110940199612)
(0.461038993757 0.797511641428 0.107378163209)
(0.27230779987 0.785228901627 0.0954088309207)
(0.106251419036 0.774022594734 0.11308201102)
(0.0137236603686 0.677881847584 0.00245711341848)
(0.129709693922 0.697678407254 -0.061419487635)
(0.223545812216 0.726827013426 -0.0522061255612)
(0.313617347981 0.751188123312 -0.0415785989363)
(0.417769381907 0.765304223519 -0.0400234685993)
(0.538546355055 0.764838688342 -0.0379869971111)
(0.670128069567 0.753400459604 -0.0347547307576)
(0.802657888763 0.733786722427 -0.0264794602902)
(0.921105072575 0.712313359117 -0.0127175033771)
(1.01562311727 0.696581248234 0.0041180907661)
(1.08055371407 0.691168968153 0.0230006768218)
(1.11091185139 0.695938936444 0.0436626841064)
(1.10219932764 0.707592445376 0.0652716873015)
(1.05194933889 0.722237381117 0.0863667091863)
(0.959669846267 0.735191676903 0.105509197447)
(0.826347880818 0.742751038526 0.118747094512)
(0.660120724954 0.744098178737 0.126871691119)
(0.471079665013 0.739498814544 0.123402688124)
(0.282063584957 0.726984659281 0.113405301306)
(0.112502834294 0.726807246716 0.137111312771)
(0.0090879331642 0.624870047066 0.0218501743346)
(0.12624591325 0.63495292143 -0.0458312505759)
(0.226520064521 0.657964903174 -0.0364673546928)
(0.318365931271 0.678842985512 -0.0214838602038)
(0.419164750251 0.691089627563 -0.0155171152898)
(0.53316760424 0.690344745212 -0.0141997083862)
(0.657076388923 0.679144290279 -0.0125930029757)
(0.784453469869 0.660227772353 -0.00849617547172)
(0.902382559226 0.638774271201 9.02247987481e-05)
(1.00092162055 0.621837376447 0.0130236688928)
(1.07221009526 0.613746864763 0.030040312985)
(1.10840096506 0.615394679441 0.0505665947208)
(1.10423061136 0.621547501301 0.0736323702791)
(1.05731880922 0.632119222593 0.0963340617119)
(0.965857717998 0.641739831019 0.11634880951)
(0.832904871106 0.64834522939 0.130478729109)
(0.667806257527 0.650606522679 0.1373538955)
(0.478418497165 0.648956400979 0.134507340117)
(0.297904956234 0.645671718376 0.129700397521)
(0.126098036709 0.64227819716 0.152376048834)
(0.00723227002786 0.538077635689 0.0394433865807)
(0.122730775495 0.536169812702 -0.0328688483761)
(0.230655468763 0.549509744292 -0.0276137599489)
(0.326662587307 0.563389593048 -0.0109617425766)
(0.426104161781 0.571274976005 -0.000646165940725)
(0.535168074626 0.569098198707 0.00312132161863)
(0.652099579271 0.558894697118 0.00365056748982)
(0.773304331575 0.542270545359 0.00518033238723)
(0.887900843671 0.52346214496 0.0101604101275)
(0.986601260538 0.508087149484 0.0197948523818)
(1.06113083538 0.499338837606 0.0342078043397)
(1.09927322903 0.497630793421 0.0514772426213)
(1.09735943685 0.502020723406 0.0748158602424)
(1.05364256371 0.509620436003 0.0990887632847)
(0.964527465119 0.516899805025 0.119027838963)
(0.834827054419 0.523817516819 0.133247552792)
(0.673407931233 0.528746434867 0.139894358347)
(0.49122806315 0.531703129256 0.13842714906)
(0.301775637823 0.537461001216 0.135712889549)
(0.11902151586 0.534130587021 0.173735975671)
(0.00907097795809 0.419252860071 0.0544385019913)
(0.119026886467 0.409327072274 -0.0203719349866)
(0.233713956264 0.414472403027 -0.0255911149424)
(0.335051867493 0.419095869605 -0.0125925569656)
(0.436691867953 0.417601165732 -0.00096640244861)
(0.543964576049 0.412999196932 0.00546070894747)
(0.655731645025 0.403987809547 0.00745482209924)
(0.770847064089 0.390921731766 0.008655233052)
(0.879992275186 0.376543443541 0.0123766229669)
(0.974839701907 0.364588894219 0.0201113594705)
(1.0465368153 0.357331711182 0.0326377022419)
(1.08544208017 0.354409953181 0.0499971271264)
(1.08528259398 0.358461526976 0.0711682633957)
(1.04245454505 0.36416249768 0.0928623946021)
(0.956698835162 0.371218018199 0.112247445634)
(0.831769888238 0.379350403029 0.126717000125)
(0.675531007512 0.389489933482 0.134886837377)
(0.49751777311 0.395905566238 0.137996916017)
(0.308577539546 0.400955455664 0.144348680149)
(0.118551924368 0.413584251949 0.189179964899)
(0.0110438910772 0.27794882621 0.0710960471144)
(0.11248129679 0.273647750746 0.0056859051944)
(0.232505350587 0.263403537765 -0.0158950503701)
(0.336420473214 0.258347561263 -0.014558848358)
(0.445128659808 0.25686967548 -0.00600699131106)
(0.558144237785 0.248072825966 -0.000956006928708)
(0.667708660803 0.238500981696 0.00125820943218)
(0.777469159124 0.229465849476 0.00352156362893)
(0.879262619457 0.220430400204 0.00828648908511)
(0.967071606397 0.213051346178 0.0156304894092)
(1.03272239955 0.209060627798 0.0268960264657)
(1.06786885294 0.208468269983 0.0425072347079)
(1.06617181544 0.212081051619 0.0617423595586)
(1.02441362724 0.215746630334 0.0828295648592)
(0.943091365905 0.22369296884 0.102755014698)
(0.826561627562 0.233415150033 0.119712675112)
(0.677275671957 0.239315207138 0.13111846177)
(0.500393167094 0.249158015489 0.143004797928)
(0.314289765835 0.262566088402 0.1623343278)
(0.119288681956 0.274564232341 0.204955551571)
(0.0195132750623 0.10623664849 0.0891099260344)
(0.0946965386769 0.117105755003 0.0674318691227)
(0.203994729006 0.111843509547 0.0590299795724)
(0.327301439445 0.111666264608 0.054219898887)
(0.44680880145 0.115762646475 0.0474656538119)
(0.559513372891 0.10858824799 0.0458283436713)
(0.673162804481 0.102136707892 0.0435215018224)
(0.782787214361 0.0954158418547 0.0414057435616)
(0.87858199656 0.0889251765041 0.0439290608389)
(0.959280518516 0.0852048000555 0.050709825708)
(1.01812835625 0.0833866389636 0.0610941603335)
(1.04836440142 0.0836927324776 0.0753964402919)
(1.04253739594 0.0863296658026 0.0931737469198)
(1.00298642438 0.0886495910063 0.118082724256)
(0.92980493358 0.0940032233853 0.139340501613)
(0.815136505844 0.0996717829431 0.15907941646)
(0.675866134398 0.0973251934502 0.179622152176)
(0.516514073203 0.0995040857077 0.193695485257)
(0.327676926726 0.106190314419 0.20464502974)
(0.116324605165 0.104565397748 0.220412819944)
(0.0252349603945 -0.00824869617215 0.0161042152628)
(0.0786287048262 0.00906874032323 -0.0344029182597)
(0.131693563098 0.0220533189697 -0.0669655917294)
(0.183364824291 0.02671386894 -0.0894575273901)
(0.247178985586 0.027778213667 -0.11081483666)
(0.328599498698 0.029396012247 -0.132168626015)
(0.42898694826 0.0324251251247 -0.152052751052)
(0.540818684562 0.0361258212134 -0.163478363009)
(0.65529597669 0.0410991739136 -0.165831511844)
(0.763753452651 0.0459666167868 -0.156011425011)
(0.855365743171 0.0501335897433 -0.13320566576)
(0.920474751891 0.0534128817357 -0.0975791849288)
(0.949281102097 0.0556724596745 -0.0509756166271)
(0.936056113797 0.0572126960322 0.00244857060212)
(0.878611479689 0.0580285256998 0.0597288576787)
(0.774820150927 0.0581826194476 0.114664718816)
(0.631274667746 0.0570453193541 0.162009696255)
(0.457797150417 0.052137168614 0.201544681677)
(0.272058949322 0.0385846082967 0.240387236583)
(0.0881909181203 0.0152714445232 0.282791739912)
(0.0489375668064 -0.0252272963686 -0.036455606859)
(0.0930182971504 -0.0187283230763 -0.0802569450352)
(0.116827179527 -0.0210456788472 -0.0850462484648)
(0.142728971056 -0.0301760876426 -0.0834634892022)
(0.190617428305 -0.0391198982738 -0.0906724684961)
(0.267697143974 -0.0418287343526 -0.10826677019)
(0.372493614131 -0.0367632275826 -0.130185411584)
(0.498026975569 -0.026061958093 -0.148787173749)
(0.633014666393 -0.0109922730632 -0.157983686512)
(0.76439336554 0.00416503456415 -0.153725943026)
(0.878699200085 0.0171814344107 -0.133357616365)
(0.962976804712 0.0272419996041 -0.0976752281378)
(1.00594684279 0.0353674567588 -0.0499397973432)
(0.99990579337 0.0439943140402 0.00443614996953)
(0.941315106957 0.0530091236429 0.0594667024074)
(0.830587297669 0.0628710507015 0.108501493767)
(0.674082500805 0.0723371765194 0.145565619851)
(0.483903710869 0.0779222791264 0.170393753614)
(0.278267851159 0.0740426146212 0.192731652239)
(0.0792121903043 0.0539137477528 0.234646872871)
(0.0635666609946 -0.0420135698926 -0.0796171347844)
(0.0926448575257 -0.0635024221086 -0.0937012882611)
(0.0961732876426 -0.0874081306729 -0.0748227691207)
(0.11078987951 -0.110879952097 -0.0672862707458)
(0.156352811752 -0.127314619984 -0.0796213403519)
(0.237649916434 -0.132125400779 -0.105633557871)
(0.351125380416 -0.124436446644 -0.1353808184)
(0.487792817628 -0.106193871369 -0.159456751582)
(0.63462334174 -0.0830968433103 -0.171006216442)
(0.777277674852 -0.0582957616061 -0.166833188683)
(0.901323068457 -0.0358756411707 -0.144438720293)
(0.993734531903 -0.0175869212823 -0.105540679949)
(1.0433205372 -0.00184799855911 -0.0525814015474)
(1.04121058956 0.0158749447084 0.00725650638293)
(0.983191654784 0.0332384749841 0.0675661407317)
(0.870193355476 0.0522652186275 0.120045083663)
(0.707871264385 0.0723907824181 0.157107997244)
(0.507525887559 0.0904492868078 0.175304403816)
(0.286051615348 0.102075597328 0.179780750628)
(0.0720284237499 0.103481798161 0.208342325769)
(0.0684398046941 -0.0514404483043 -0.116547275088)
(0.0836641855235 -0.0983101936497 -0.10699793326)
(0.0739589927158 -0.134783616433 -0.0818078424593)
(0.0857361059633 -0.162444191438 -0.0836545295204)
(0.134994178998 -0.17753224298 -0.1114651501)
(0.224628576079 -0.178732533815 -0.148893679169)
(0.349704201173 -0.164988854065 -0.184621937472)
(0.496383200751 -0.139005092036 -0.210061862065)
(0.651038417796 -0.106696927519 -0.220024608785)
(0.799733765318 -0.0736758137924 -0.211086955075)
(0.926633037549 -0.0441489973428 -0.183454413386)
(1.02078082656 -0.0195615441806 -0.138968158888)
(1.07477032189 0.00108826680798 -0.0773848636695)
(1.07555610855 0.019980938495 -0.0121731538785)
(1.01689157765 0.0396613034839 0.0557064667707)
(0.902651698309 0.061552414247 0.116482898506)
(0.73707438817 0.0855229241809 0.160966677898)
(0.529640451573 0.109742346207 0.181446433141)
(0.296529016258 0.131768726336 0.178503567479)
(0.0703506566738 0.15417675467 0.188733783753)
(0.0696020408152 -0.0362920352944 -0.155504467337)
(0.0742985745844 -0.100974916611 -0.133157519969)
(0.0572899410313 -0.141069752681 -0.113002600265)
(0.0713721160304 -0.165744109467 -0.131024673179)
(0.12763724223 -0.169529287867 -0.173343217902)
(0.227548597675 -0.167846154076 -0.218810834396)
(0.364120603214 -0.14527664151 -0.255982947945)
(0.520862757588 -0.110923520367 -0.276880095629)
(0.680992600954 -0.0701615894321 -0.278697227192)
(0.83054696381 -0.0309212106666 -0.261624823412)
(0.956846920925 0.00311930125064 -0.226962331587)
(1.04943161008 0.0308198691716 -0.176961273167)
(1.09934430192 0.0525428684246 -0.113591797379)
(1.09844065558 0.06813963278 -0.0424641815405)
(1.04161794613 0.0851185011862 0.0312878243161)
(0.927706017635 0.104422778801 0.0989876678013)
(0.759567429561 0.127325975694 0.151174874165)
(0.54724130879 0.151786791963 0.178341686759)
(0.3067678603 0.178807789927 0.176548457053)
(0.0719874125721 0.21533475828 0.166609680474)
(0.0708160376658 0.0118354547317 -0.196603384336)
(0.0701164194607 -0.0611168938117 -0.170510471441)
(0.0512337650868 -0.0989436198903 -0.160221835133)
(0.0747926529668 -0.11782241521 -0.192568827532)
(0.1343368773 -0.117993346479 -0.251136262705)
(0.240557638012 -0.100726572213 -0.292920555803)
(0.39347567722 -0.0676299142879 -0.3240626319)
(0.557644555085 -0.0252081528287 -0.334554751038)
(0.719965054442 0.0209377365309 -0.324077200409)
(0.867004267606 0.064133060772 -0.29643457873)
(0.988045433516 0.0998656132202 -0.25497547506)
(1.07445489352 0.126528705257 -0.202028505894)
(1.11888477525 0.144986171944 -0.138745922958)
(1.11474175763 0.158004123453 -0.0678148924715)
(1.05696169553 0.169833142715 0.00669286614842)
(0.942917350167 0.183451885339 0.0773877790317)
(0.773515963875 0.201259525433 0.134736330765)
(0.557867222113 0.221981472985 0.166460397262)
(0.312448132274 0.248784182967 0.165707268661)
(0.0724231868353 0.290548406727 0.14866937054)
(0.072336340227 0.0999252805291 -0.233198740231)
(0.0715391793297 0.0222278037538 -0.21125586496)
(0.0537206503767 -0.00935775137495 -0.211131653433)
(0.0783709642937 -0.0193284342938 -0.251911354958)
(0.154033968404 -0.0165824225153 -0.307917092241)
(0.277550750963 0.0152359869074 -0.351978643474)
(0.43444366211 0.0551671993461 -0.373502440949)
(0.602659595337 0.101846710981 -0.369487446065)
(0.764556274669 0.150332278038 -0.344108351145)
(0.906228391161 0.194576171857 -0.304602707406)
(1.01885615362 0.229819558753 -0.257150039274)
(1.09625078759 0.254529813274 -0.203799611973)
(1.13300507612 0.26966026169 -0.144297455948)
(1.12383415348 0.278305537959 -0.0786698596234)
(1.06388701914 0.284449394207 -0.00855693103563)
(0.949566448965 0.291403390027 0.0608620878207)
(0.778626594515 0.301441315562 0.123770084488)
(0.560607889886 0.317419837654 0.152304615853)
(0.313642497496 0.340358766257 0.152457600935)
(0.0722727975133 0.379859928734 0.132511326995)
(0.0690865679727 0.197127777376 -0.252197290128)
(0.0721455120295 0.139665070933 -0.246598149407)
(0.0649134704248 0.119225864827 -0.255570727699)
(0.0961074328109 0.116485500475 -0.301227275568)
(0.181519067066 0.134447538989 -0.354137235323)
(0.315817035773 0.165704342678 -0.39125576817)
(0.479085325203 0.206417988632 -0.399579932103)
(0.649907941036 0.252237082137 -0.37968058632)
(0.810443341579 0.300460131318 -0.342260136081)
(0.944922834166 0.341337816372 -0.288436938721)
(1.04751398084 0.373973051775 -0.236202664077)
(1.11491408733 0.395551537536 -0.182192769507)
(1.14281926502 0.40794955449 -0.128913649512)
(1.12750260045 0.413685923679 -0.0717783129487)
(1.06403553588 0.416163476731 -0.00967877503466)
(0.947501249747 0.418276584476 0.0534544345783)
(0.777213654177 0.422277468743 0.108575661917)
(0.559808464336 0.432827069379 0.141442872983)
(0.310811454797 0.449744421169 0.142920561498)
(0.0709794124336 0.481238282283 0.121756810401)
(0.0798715713564 0.310176845044 -0.28064339157)
(0.0898742596748 0.281889920555 -0.273817780067)
(0.0787282023989 0.274929523393 -0.286345292833)
(0.119065969669 0.281550143482 -0.334606182822)
(0.215275878346 0.302344594005 -0.38075294042)
(0.353830393795 0.332092806777 -0.408522561876)
(0.521423719741 0.368824588979 -0.403979124818)
(0.695244161786 0.409716013569 -0.373507104669)
(0.851818240543 0.449406209777 -0.313227979842)
(0.979787424663 0.484795617405 -0.249458006383)
(1.07314701389 0.512796982252 -0.192456016954)
(1.1303929467 0.532096931838 -0.144141286705)
(1.15004047305 0.543447607101 -0.0977447240537)
(1.1289393065 0.549073356894 -0.0492999507296)
(1.06190137142 0.551186899343 0.00436951991422)
(0.943664377402 0.552018527447 0.0607975597083)
(0.772911315527 0.553935397553 0.111042033535)
(0.555638368845 0.558760435386 0.142558366711)
(0.307288251227 0.568167523139 0.143853329438)
(0.0702434453174 0.587355836279 0.122941057725)
(0.0853264472819 0.446403638979 -0.286613123788)
(0.102903357316 0.436681846112 -0.282871560873)
(0.0978141966864 0.44184063651 -0.295483317814)
(0.14123380107 0.457496971595 -0.339477218761)
(0.240268036851 0.474997173187 -0.383205261122)
(0.384893464688 0.499593671743 -0.404436396844)
(0.555521193762 0.527971179601 -0.390680242957)
(0.729012952788 0.557821663763 -0.347820050404)
(0.88395631578 0.587043834234 -0.278545364597)
(1.00693044263 0.613458223601 -0.207680082669)
(1.09388532299 0.635642010249 -0.148272374841)
(1.14431066219 0.652734880375 -0.101802187492)
(1.15737774319 0.664742329646 -0.0614332385987)
(1.13192505948 0.672620875579 -0.0174930517516)
(1.06152737764 0.677042335483 0.0311172396993)
(0.941207418037 0.679104167392 0.0829734436303)
(0.769614762529 0.680268879343 0.129619302848)
(0.552269727714 0.681784517682 0.158622406094)
(0.304637183889 0.683687696675 0.159088566259)
(0.0699011434781 0.687260749057 0.137286070037)
(0.0887240488631 0.569312554509 -0.273011231869)