/*--------------------------------*- C++ -*----------------------------------*\
| =========                 |                                                 |
| \\      /  F ield         | OpenFOAM: The Open Source CFD Toolbox           |
|  \\    /   O peration     | Version:  3.0.1                                 |
|   \\  /    A nd           | Web:      www.OpenFOAM.org                      |
|    \\/     M anipulation  |                                                 |
\*---------------------------------------------------------------------------*/
FoamFile
{
    version     2.0;
    format      ascii;
    class       volVectorField;
    location    "6.1";
    object      ddt0(U);
}
// * * * * * * * * * * * * * * * * * * * * * * * * * * * * * * * * * * * * * //

dimensions      [0 1 -2 0 0 0 0];

internalField   nonuniform List<vector> 
7968
(
(-7.95195879149e-07 -3.33244395979e-05 3.64309390472e-05)
(4.0356614378e-05 -4.14893961534e-05 1.48832734789e-05)
(0.000112310052105 -4.1266367213e-05 1.53889154397e-06)
(0.000193175201229 -4.30672102896e-05 -7.30002174678e-06)
(0.000280456081095 -3.97892807252e-05 -1.46174689477e-05)
(0.000372563385902 -3.13838108121e-05 -2.03204136762e-05)
(0.000468854826471 -2.47265410428e-05 -2.71892435489e-05)
(0.000568496832081 -1.59827768045e-05 -3.03373343664e-05)
(0.000663005589287 -9.07957664272e-06 -3.13615913781e-05)
(0.000746048032989 -5.34557517588e-06 -2.75396493519e-05)
(0.000812294991661 -3.13552634463e-06 -1.96161822796e-05)
(0.000855278421493 -2.67352742583e-06 -7.57589727047e-06)
(0.000870452903477 -4.78925082262e-06 9.07822414328e-06)
(0.000853609683089 -8.90538380998e-06 2.68318490829e-05)
(0.000801663093295 -1.24622216324e-05 4.57150193388e-05)
(0.000715352598421 -1.70293345599e-05 6.23306841586e-05)
(0.000600309070079 -1.89570394953e-05 7.68440620588e-05)
(0.000458167347154 -1.6790604645e-05 8.89545678972e-05)
(0.000298012884122 -1.36345951675e-05 0.000102832826342)
(0.00011146022328 -5.10415910486e-06 0.000119018590676)
(-7.5551282631e-06 -5.6829816223e-05 1.55190954229e-05)
(5.55524033257e-05 -4.66753797168e-05 -5.28589058748e-05)
(0.000132835737794 -3.49851389634e-05 -7.44072572044e-05)
(0.000203944132139 -2.84175233624e-05 -7.47224252371e-05)
(0.000280649228235 -2.11592867985e-05 -7.23818732894e-05)
(0.000364131140723 -1.05790705259e-05 -7.19805912802e-05)
(0.000455700511467 3.96205989682e-07 -7.43571372048e-05)
(0.000555630237917 1.33592763915e-05 -7.62473218287e-05)
(0.000655748696712 2.53244275187e-05 -7.63665160637e-05)
(0.000748021272636 3.62412747347e-05 -7.41612988096e-05)
(0.000823990435744 4.42589913016e-05 -6.82353922122e-05)
(0.000875312073327 4.94208925756e-05 -5.83491877738e-05)
(0.000894474012898 5.19872218228e-05 -4.53099828062e-05)
(0.000876134836645 5.21028586366e-05 -3.09120231237e-05)
(0.000818151455348 5.08964867273e-05 -1.58719338773e-05)
(0.000722165113785 4.73853284048e-05 -3.44118431065e-06)
(0.000596986066939 4.37077791956e-05 6.58350028531e-06)
(0.000449569724874 4.04553682023e-05 1.63825790594e-05)
(0.000295372545153 3.54806964334e-05 3.91942925607e-05)
(0.000122012226842 2.02783562507e-05 9.75341025316e-05)
(-9.01249926312e-06 -5.11293395097e-05 -1.11419855595e-06)
(6.6084137233e-05 -3.45981762645e-05 -7.65128005235e-05)
(0.000138041487448 -3.14289372384e-05 -8.12370281673e-05)
(0.000199658778643 -3.12763430898e-05 -7.00760916376e-05)
(0.000266894606917 -2.94782330029e-05 -6.29185744228e-05)
(0.000347147183739 -2.20875179611e-05 -6.23490859459e-05)
(0.000442015215406 -8.54454252999e-06 -6.67766008865e-05)
(0.000548822779659 1.08744538244e-05 -7.20490038407e-05)
(0.000657842864536 3.36553148109e-05 -7.53777529349e-05)
(0.000759183642121 5.45593631637e-05 -7.45351437725e-05)
(0.000843878855876 7.17252310556e-05 -6.86603362414e-05)
(0.000901686877921 8.47941106736e-05 -5.80050940251e-05)
(0.000924336544178 9.2063393956e-05 -4.28511687335e-05)
(0.000906522261097 9.76477264857e-05 -2.5953379357e-05)
(0.000845309907581 0.000102412753077 -9.89104475776e-06)
(0.000742706151 0.000105914833918 1.5624952917e-06)
(0.000608558761578 0.000109117034448 7.06094356923e-06)
(0.000454308980848 0.000110574200346 7.60045035448e-06)
(0.000287242736629 0.000107985461799 1.67484726628e-05)
(0.000118060998623 8.17006134892e-05 8.7625621429e-05)
(-9.20251265273e-06 -3.05132318758e-05 -1.36542308422e-05)
(7.302296967e-05 -2.03519461307e-05 -8.27975175171e-05)
(0.00013739516047 -2.75224847557e-05 -7.50968998622e-05)
(0.000192271465465 -3.60235984983e-05 -6.06315110236e-05)
(0.000257238709605 -3.83301095024e-05 -5.59962551199e-05)
(0.000340635480562 -2.95944660776e-05 -6.021791059e-05)
(0.000442223164938 -9.95491825182e-06 -6.80506298599e-05)
(0.000557944388022 1.83575182997e-05 -7.409010801e-05)
(0.000674790177709 5.07207970564e-05 -7.90720127779e-05)
(0.000781584282322 8.11437014841e-05 -7.71825846314e-05)
(0.000870694422116 0.000106075049941 -6.98021443735e-05)
(0.000929574964538 0.000124123068077 -5.80236071408e-05)
(0.000952552514693 0.000136029449284 -3.9279189497e-05)
(0.000934732492679 0.000144404431225 -1.81439150305e-05)
(0.000870574184787 0.000151888327841 9.76898435784e-07)
(0.000762776056598 0.000159217694383 1.47595331789e-05)
(0.000621013275838 0.000167132131826 2.02733697835e-05)
(0.00045821379964 0.000173003772036 1.66627050172e-05)
(0.000283425616528 0.000171210063362 1.52771087142e-05)
(0.000118463634802 0.000160696779522 8.00614165624e-05)
(-4.94144532607e-06 1.02524792559e-05 -2.62175221756e-05)
(8.08257107031e-05 7.82524633158e-06 -8.74035379659e-05)
(0.000137953113424 -8.76998323218e-06 -7.46495491983e-05)
(0.000189930747538 -2.11191236948e-05 -6.26799771017e-05)
(0.000257368636436 -2.18763316183e-05 -6.36910175887e-05)
(0.000347685149917 -9.01312991068e-06 -7.20791331739e-05)
(0.000458867737489 1.82396452382e-05 -8.13346060689e-05)
(0.000582149795882 5.62178001482e-05 -8.68170243503e-05)
(0.000704083093158 9.76843273474e-05 -8.74108210707e-05)
(0.000813097557658 0.000136415433554 -8.21915044466e-05)
(0.000900684415792 0.000166746037664 -7.1594994432e-05)
(0.000958299614739 0.000186964647956 -5.61932029279e-05)
(0.000978681207734 0.000200824890657 -3.6423633941e-05)
(0.000956597637714 0.000208518668468 -1.51589258875e-05)
(0.00088937213372 0.000214906128216 5.70380395527e-06)
(0.000777305183334 0.000222017304167 2.21220236687e-05)
(0.000629372269238 0.000231051597602 2.96322136404e-05)
(0.000456604270961 0.000240162673781 2.57414328102e-05)
(0.000282236786525 0.000244762176046 2.07012881058e-05)
(0.000122612112827 0.000241354864899 7.01523340696e-05)
(2.78770937918e-06 6.77969791026e-05 -3.8061602409e-05)
(9.04065516144e-05 5.53127771566e-05 -9.39404632478e-05)
(0.00014379786169 3.43814293691e-05 -8.15554706841e-05)
(0.000197997054753 2.27423162214e-05 -7.44783076977e-05)
(0.000270738109062 2.54777046836e-05 -7.52788506865e-05)
(0.000369744206025 4.67898491643e-05 -8.96337799728e-05)
(0.000491556328535 8.25403373314e-05 -9.70805506483e-05)
(0.000621989110772 0.000129095917232 -9.81265714046e-05)
(0.000745242198163 0.000178496945868 -9.26924028732e-05)
(0.00085053668896 0.000222417989226 -8.2670411414e-05)
(0.000931333169584 0.000255272880155 -6.92533901898e-05)
(0.000981801662518 0.000275968651937 -5.27336767751e-05)
(0.000995772239007 0.000286869811442 -3.33923120545e-05)
(0.000968768481595 0.000291347827689 -1.26184541547e-05)
(0.000898290448898 0.000294458909592 8.11735889438e-06)
(0.000782935229225 0.000298746771327 2.50083364299e-05)
(0.000631109484718 0.000306343476642 3.41313552997e-05)
(0.000453784751864 0.000316057254997 3.09340691206e-05)
(0.000273529928679 0.000327217631671 2.30136364367e-05)
(0.000114987706457 0.00032223170983 6.5435320198e-05)
(1.04902082375e-05 0.000136423181592 -4.7019798649e-05)
(0.000101758128635 0.000125666266403 -0.000101893463731)
(0.000154770797926 0.000106858537308 -9.32155301976e-05)
(0.000213123091053 9.96724217595e-05 -9.12656420937e-05)
(0.000295840638572 0.000107041402024 -9.8805337636e-05)
(0.000406044915713 0.000135893658171 -0.000106285813041)
(0.000536437801158 0.000178339123425 -0.000109060980482)
(0.000670996729948 0.000230127779929 -0.000103470856343)
(0.000792397340956 0.000283407965377 -9.08178752927e-05)
(0.000890150088958 0.000328801327698 -7.52608701913e-05)
(0.000960362937778 0.000362211436713 -6.02014077115e-05)
(0.00100042149354 0.00038167796957 -4.48841656246e-05)
(0.00100576786956 0.000389369445218 -2.77910388693e-05)
(0.000972864948919 0.000389927759409 -9.45264645893e-06)
(0.000899278860861 0.000388568031877 9.44158487239e-06)
(0.000781824467945 0.000388653805036 2.58577504534e-05)
(0.00062777443273 0.00039275360303 3.5211456274e-05)
(0.000448409557791 0.000400615855461 3.2315570887e-05)
(0.000264573701009 0.000411791787535 2.32777589102e-05)
(0.000108121371294 0.000412273135462 6.02192884326e-05)
(2.62503033196e-05 0.000242453799198 -3.76223334691e-05)
(0.000121469694486 0.000221564198938 -0.000107603134899)
(0.000171707121406 0.000206339158523 -0.000105373264669)
(0.000235266139021 0.000207828677239 -0.000106202472573)
(0.000327674311318 0.000218471490844 -0.000114427982456)
(0.000448926992967 0.000250073382988 -0.000117523924778)
(0.000587249013834 0.000293715166357 -0.000114063721747)
(0.000723969383962 0.000344525764217 -9.88140511192e-05)
(0.000840790794043 0.00039470505857 -7.24313517071e-05)
(0.000929204582961 0.000440170496339 -5.78077377001e-05)
(0.000987040537083 0.00047116750361 -3.98767892852e-05)
(0.00101554129513 0.000488079514676 -2.59507486417e-05)
(0.00101017566379 0.000495039240321 -1.51045920099e-05)
(0.000970719046078 0.000493951188205 -1.39448757246e-06)
(0.000893911786169 0.000490507336843 1.36270636706e-05)
(0.000775156430354 0.000487854203598 2.75142598059e-05)
(0.000620564139711 0.000488653581233 3.42915362147e-05)
(0.0004415360178 0.000494099213526 3.27433258022e-05)
(0.000258041021928 0.00050290897599 2.40109618055e-05)
(0.000101959905386 0.000505536478734 5.43479213999e-05)
(2.43192003651e-05 0.000357809815115 -6.03478577227e-05)
(0.000122530903646 0.00033147728131 -0.000116010289652)
(0.000189879036817 0.000321511621196 -0.000116301310395)
(0.000259672131916 0.000326418891535 -0.000124866392768)
(0.000358440225242 0.000343277915127 -0.000124863627062)
(0.000490950840149 0.000374015735701 -0.000122218883969)
(0.000635673621367 0.000413193059054 -0.000112071770711)
(0.000772337209403 0.000455940060653 -8.30000395777e-05)
(0.00088670739934 0.000501422043467 -6.33807994384e-05)
(0.000964139646767 0.000538713008094 -3.9702740838e-05)
(0.00100960702839 0.000566015763788 -2.16056442251e-05)
(0.00102596403525 0.000582481807481 -7.72380510997e-06)
(0.00101314690542 0.000589576943473 2.29100552446e-06)
(0.000967085632471 0.000590587916918 1.06729061161e-05)
(0.000887233309555 0.000588931512499 2.14994427924e-05)
(0.000767258091899 0.000586792219945 3.26476327705e-05)
(0.000612946382581 0.000586428897827 3.82728141852e-05)
(0.00043483359523 0.000588983364929 3.61972297925e-05)
(0.000252150631272 0.000593179515939 2.79096110315e-05)
(9.6015837149e-05 0.000592109745648 5.39544621156e-05)
(2.4964012796e-05 0.00045178165628 -6.48880148204e-05)
(0.000127421873303 0.000442102183493 -0.000119132249803)
(0.000200956401009 0.000441609529717 -0.000119657806532)
(0.000280913556998 0.000448715558419 -0.000123564565437)
(0.00038996706033 0.000470356650473 -0.000126125920942)
(0.000526006776925 0.000496263084832 -0.000120679733242)
(0.000673065384752 0.000525878561434 -0.000104941500511)
(0.00081243168557 0.000557363423859 -7.8274834304e-05)
(0.000921734266289 0.000587946598792 -4.90636051859e-05)
(0.000992485461724 0.000615464196542 -2.16663002625e-05)
(0.00102988053007 0.000637565036666 -3.06123684317e-06)
(0.00103794433191 0.000654405524837 7.99087499071e-06)
(0.00101996963537 0.000665624034197 2.03621686521e-05)
(0.000968021557781 0.0006721444081 2.36413044806e-05)
(0.000885272074675 0.000675565377945 3.19186858536e-05)
(0.000763768370834 0.000676734993624 4.1211301628e-05)
(0.000608947041259 0.000677202252123 4.58014963126e-05)
(0.000430941623271 0.000677262448659 4.37112538186e-05)
(0.000248398010162 0.000676378959476 3.48969783683e-05)
(9.27819827593e-05 0.000670654801223 5.8258033049e-05)
(2.56343852025e-05 0.000542891406164 -6.06155568689e-05)
(0.000131385420498 0.000546097463952 -0.000115958446362)
(0.000210243603414 0.000556178631338 -0.000116282436574)
(0.000296236580906 0.000568366021219 -0.000117773241856)
(0.000410293740172 0.000588960058347 -0.000120348792933)
(0.000547896400573 0.000607093834843 -0.000113799871189)
(0.00069592732367 0.000624360704351 -9.69955446498e-05)
(0.000834916983898 0.000640401625372 -6.91493972397e-05)
(0.000943064036657 0.000655813286772 -3.90255482473e-05)
(0.00101200919481 0.000671664544236 -1.08503835175e-05)
(0.00104707163343 0.000688295089392 8.61162145844e-06)
(0.00105248581133 0.000704896869295 2.0232896938e-05)
(0.00103144354948 0.000721293785411 3.25484159557e-05)
(0.000976556904553 0.000734183691662 3.63566586737e-05)
(0.000890978408487 0.00074374776038 4.45164574369e-05)
(0.000767229941325 0.000749273698443 5.35793088604e-05)
(0.00061076322237 0.000751336447484 5.79478184695e-05)
(0.000431492644575 0.000749694575239 5.56667603127e-05)
(0.00024799026524 0.000743906654828 4.58317622363e-05)
(9.17831237802e-05 0.000733734371644 6.68579856274e-05)
(2.49308915319e-05 0.000619981998708 -5.06122982076e-05)
(0.000132642291524 0.000632597795436 -0.000107224492813)
(0.000213587776493 0.000651938525457 -0.000105530262736)
(0.000304573387584 0.000670213933338 -0.000101486352099)
(0.00042131979995 0.00068754864113 -0.000106901648877)
(0.000555988500539 0.000697479915736 -0.000101598693328)
(0.000702740922129 0.000702635278192 -8.7691330619e-05)
(0.000838785186564 0.000706051554488 -5.45463624371e-05)
(0.000950266218078 0.000704470670342 -3.2531470845e-05)
(0.00102210502065 0.000708930752255 -6.63018241685e-06)
(0.00106056841563 0.000719693994569 1.37023814016e-05)
(0.00106882832934 0.000735864865262 2.87186865588e-05)
(0.00104684031218 0.000754879800427 3.93665576477e-05)
(0.000992150110738 0.00077307954935 4.85126819841e-05)
(0.000904032029855 0.00078749781268 5.89010423911e-05)
(0.000777562299398 0.000796530444983 6.91963819435e-05)
(0.000618529489868 0.000800312334043 7.4026430837e-05)
(0.000436750749295 0.000796511388782 7.1549212753e-05)
(0.000251261313718 0.00078707890574 6.03968678745e-05)
(9.32379558796e-05 0.000774121540868 7.95290268488e-05)
(2.0543045432e-05 0.000669490891144 -3.86075057579e-05)
(0.000130575732194 0.000690551085281 -9.44272229027e-05)
(0.000217311456323 0.00071718026032 -9.0215881688e-05)
(0.000307463881055 0.000741204192861 -8.68091053833e-05)
(0.000420461358337 0.000755089719219 -8.81656141929e-05)
(0.000552283241815 0.000758488384536 -8.41761217261e-05)
(0.000695238800199 0.000754342026356 -7.40720791526e-05)
(0.000831873005502 0.000744525732976 -5.33097059351e-05)
(0.000943863420123 0.000736078753513 -2.131061915e-05)
(0.00102375106812 0.000729232831163 -1.46084556659e-06)
(0.00107044269133 0.000734187379925 1.92203601714e-05)
(0.00108435145124 0.000746802272943 3.30966234723e-05)
(0.00106523606182 0.000765497683431 4.71426671423e-05)
(0.00101130204514 0.000785426785951 6.07027630963e-05)
(0.000921297798358 0.000801839889799 7.44432698852e-05)
(0.000792591982308 0.000812108878503 8.62966801568e-05)
(0.000629982050245 0.000815650927976 9.02753246711e-05)
(0.000445177642326 0.000810956764946 8.83807573209e-05)
(0.000258758613506 0.000799656937287 7.70256585687e-05)
(9.75398372543e-05 0.000786905839161 9.4719480646e-05)
(1.70003816056e-05 0.000686884598948 -1.86762308271e-05)
(0.000130332017587 0.000711499313259 -7.81442664621e-05)
(0.000219264169662 0.000741486682661 -7.11079383479e-05)
(0.00030858770314 0.000766300584871 -6.46042549725e-05)
(0.000416646778228 0.000780509256565 -6.47504347676e-05)
(0.000542731166219 0.000780967564714 -6.20959782522e-05)
(0.000679945758478 0.000771454961811 -5.59221701521e-05)
(0.000814411288488 0.000754540456526 -4.21651033312e-05)
(0.000929995628593 0.000736187250931 -2.2530371602e-05)
(0.00101715148867 0.000724625031138 -2.00568464578e-06)
(0.00107285202037 0.000723488851784 1.7706796221e-05)
(0.0010952631741 0.000732809790356 3.66577662806e-05)
(0.00108133568717 0.000749021978241 5.51860806697e-05)
(0.00102914828925 0.000767338734979 7.30946342734e-05)
(0.000937928923756 0.00078270739842 9.0087414883e-05)
(0.00080694185214 0.000792179437306 0.000103730398122)
(0.000642855652634 0.000794205098932 0.000109841781794)
(0.000456474251244 0.000789615486562 0.000106315013079)
(0.000269611683039 0.000777454358046 9.44641890304e-05)
(0.000105199424788 0.000766359004687 0.000111962387148)
(1.35877825432e-05 0.000671170146123 2.43278556285e-06)
(0.000128425439527 0.000690770700252 -6.0811373896e-05)
(0.000221332487343 0.000719630706362 -5.1689233229e-05)
(0.000310512225724 0.00074375061714 -4.11669296399e-05)
(0.000413633051393 0.000757726953979 -3.96271966329e-05)
(0.000533214212926 0.000757266028062 -3.76108882288e-05)
(0.000663493138186 0.000745941049113 -3.44106245124e-05)
(0.000794710780953 0.000726521507353 -2.6217287416e-05)
(0.000911985220371 0.000705260751601 -1.25915875021e-05)
(0.00100556744284 0.000689684404192 4.0773175902e-06)
(0.00106985516244 0.000684325711043 2.27729473483e-05)
(0.00109991272415 0.000689048451925 4.32303803033e-05)
(0.00109128646301 0.00070058657958 6.46254329718e-05)
(0.0010415339989 0.000715086515957 8.55115932537e-05)
(0.00095016816462 0.000727912551389 0.000104464551928)
(0.000818166218632 0.000735397067847 0.000117571380705)
(0.000653584876192 0.000736730870037 0.000125615535761)
(0.000466415509914 0.000732177044103 0.00012218087933)
(0.000279270876195 0.000719786791367 0.000112282476541)
(0.000111388944846 0.000719611135363 0.000135753775021)
(8.99795362792e-06 0.000618683214917 2.16338359749e-05)
(0.000124995953713 0.000628666258842 -4.53774758177e-05)
(0.000224277291605 0.000651450399182 -3.61062917751e-05)
(0.000315213793337 0.000672121767834 -2.12711487167e-05)
(0.000415014604209 0.000684247156003 -1.5363480485e-05)
(0.00052788871707 0.000683509648725 -1.40591172141e-05)
(0.000650570682102 0.000672420089385 -1.24683197779e-05)
(0.000776686603831 0.000653690863716 -8.41205492249e-06)
(0.000893448078441 0.000632449773466 8.93314839071e-08)
(0.000991011505497 0.00061568057074 1.28947216761e-05)
(0.00106159415372 0.000607670163132 2.97428841436e-05)
(0.00109742669808 0.000609301662813 5.00659353672e-05)
(0.00109329763501 0.000615393565644 7.290333691e-05)
(0.00104685030616 0.000625860616429 9.53802591207e-05)
(0.000956294770296 0.000635385971306 0.000115196841099)
(0.000824658288224 0.000641925969693 0.000129186860504)
(0.000661194314383 0.000644164873939 0.00013599395594)
(0.000473681680361 0.000642531090078 0.000133175584274)
(0.000294955402212 0.000639278929085 0.00012841623517)
(0.000124849541296 0.000635919007089 0.000150867375083)
(7.16066339392e-06 0.000532750134346 3.90528580007e-05)
(0.000121515619302 0.000530861200695 -3.25434142338e-05)
(0.00022837175125 0.000544069053755 -2.73403563851e-05)
(0.000323428304264 0.000557811478266 -1.08532104719e-05)
(0.000421885308694 0.000565618788123 -6.39768258143e-07)
(0.000529869380818 0.000563463563077 3.09041744419e-06)
(0.000645643147793 0.000553361086255 3.61442325724e-06)
(0.000765647853045 0.000536901530058 5.12904196754e-06)
(0.000879109746209 0.000518279351445 1.00598120075e-05)
(0.000976832931226 0.000503056583647 1.95988637443e-05)
(0.00105062458948 0.000494394888718 3.38691132076e-05)
(0.00108838933567 0.000492703755863 5.09675669518e-05)
(0.00108649449193 0.000497050221194 7.40751091509e-05)
(0.00104321045912 0.000504574689112 9.81076864205e-05)
(0.000954977688236 0.000511781985173 0.000117849345508)
(0.000826561440019 0.000518631204771 0.000131928270091)
(0.000666740525974 0.000523511321651 0.000138509265691)
(0.000486364418961 0.000526438741837 0.000137056583228)
(0.000298787760221 0.000532139605164 0.000134369197573)
(0.00011784308501 0.000528842165368 0.000172015817496)
(8.98116629514e-06 0.000415101841655 5.3899506922e-05)
(0.000117848402443 0.000405274328984 -2.017023266e-05)
(0.000231399956697 0.000410368715868 -2.53377375667e-05)
(0.00033173452227 0.000414946405549 -1.24678781838e-05)
(0.000432368186092 0.000413466500724 -9.56834107596e-07)
(0.000538578788167 0.000408910095973 5.40664252228e-06)
(0.0006492392525 0.000399987930244 7.38101197944e-06)
(0.000763214914939 0.000387051219571 8.56953767521e-06)
(0.000871279480382 0.000372815290634 1.22540821454e-05)
(0.00096518782367 0.000360979103187 1.99122370995e-05)
(0.00103617506466 0.000353793773447 3.23145566752e-05)
(0.00107469512888 0.000350900943743 4.95021060657e-05)
(0.00107453722177 0.000354912402947 7.04636271245e-05)
(0.00103213321293 0.000360556928396 9.19429649526e-05)
(0.000947226569468 0.000367542592276 0.000111136084786)
(0.00082353454281 0.000375594458445 0.000125462376361)
(0.000668842581695 0.000385633597507 0.000133551324135)
(0.000492591854564 0.000391985709146 0.000136630609918)
(0.000305522316382 0.000396985599667 0.000142919485296)
(0.000117378142938 0.000409489358365 0.000187306895939)
(1.0934545621e-05 0.000275196857633 7.03921258559e-05)
(0.000111367620585 0.000270938367075 5.62960910335e-06)
(0.000230203317413 0.000260795581945 -1.57376736338e-05)
(0.00033308957744 0.000255789664617 -1.44147013447e-05)
(0.000440721445354 0.000254326411366 -5.94751614957e-06)
(0.000552618057213 0.000245616659372 -9.46541513555e-07)
(0.000661097683963 0.000236139585838 1.24575191303e-06)
(0.000769771444677 0.000227193910372 3.48669666231e-06)
(0.000870557048967 0.000218247920994 8.20444463873e-06)
(0.000957496639997 0.000210941926909 1.54757320883e-05)
(0.0010224974253 0.000206990720592 2.6629729174e-05)
(0.001057295894 0.000206404227706 4.20863709979e-05)
(0.00105561565885 0.000209981239226 6.11310490679e-05)
(0.00101427091806 0.000213610525084 8.20094701576e-05)
(0.000933753827628 0.00022147818697 0.000101737638315)
(0.000818377849071 0.000231104108944 0.000118527401102)
(0.000670569972235 0.000236945749642 0.000129820259178)
(0.000495438779301 0.000246691104445 0.000141588908839)
(0.000311177985975 0.000259966424161 0.000160727057227)
(0.000118107605897 0.000271845774595 0.000202926288685)
(1.93200743191e-05 0.000105184800485 8.8227649539e-05)
(9.3758949185e-05 0.000115946292082 6.67642268542e-05)
(0.000201974979214 0.000110736148066 5.84455243291e-05)
(0.000324060831134 0.000110560658028 5.36830682049e-05)
(0.000442384951931 0.000114616481658 4.69956968435e-05)
(0.000553973636526 0.000107513116822 4.53745976944e-05)
(0.000666497826218 0.000101125453358 4.30905958638e-05)
(0.000775036845902 9.44711305492e-05 4.09957857046e-05)
(0.000869883164911 8.8044729212e-05 4.34941196424e-05)
(0.0009497826916 8.43611881738e-05 5.02077482258e-05)
(0.00100804787747 8.25610286768e-05 6.0489267657e-05)
(0.00103798455586 8.28640915619e-05 7.46499408831e-05)
(0.0010322152435 8.54749166363e-05 9.2251234574e-05)
(0.000993055865723 8.77718722834e-05 0.000116913588373)
(0.000920598944138 9.30724984013e-05 0.000137960892686)
(0.00080706584737 9.86849336071e-05 0.000157504372732)
(0.000669174390493 9.63615776735e-05 0.000177843715025)
(0.000511400072478 9.85188967403e-05 0.000191777708175)
(0.000324432600719 0.000105138925167 0.000202618841327)
(0.000115172876401 0.00010353009678 0.000218230514796)
(2.49851093015e-05 -8.16702591301e-06 1.59447675869e-05)
(7.78502027982e-05 8.97895081506e-06 -3.40622953066e-05)
(0.000130389666434 2.18349692769e-05 -6.63025660687e-05)
(0.000181549330981 2.64493751881e-05 -8.85718092971e-05)
(0.000244731668897 2.75031818485e-05 -0.00010971766006)
(0.000325346038315 2.91049626208e-05 -0.000130860025757)
(0.000424739552733 3.21040842819e-05 -0.000150547278269)
(0.00053546404412 3.57681398152e-05 -0.000161859765356)
(0.000648807897713 4.06922513996e-05 -0.000164189615687)
(0.000756191537279 4.5511501769e-05 -0.000154466757436)
(0.000846896775417 4.96372175676e-05 -0.000131886797782)
(0.000911361140486 5.28840413225e-05 -9.66130543849e-05)
(0.000939882279304 5.51212472025e-05 -5.04709075516e-05)
(0.000926788231482 5.66462336953e-05 2.42432732883e-06)
(0.000869912356128 5.74539858414e-05 5.91374828501e-05)
(0.000767148664284 5.76065539085e-05 0.00011352942457)
(0.000625024423511 5.6480514212e-05 0.000160405639856)
(0.000453264505363 5.16209590238e-05 0.00019954918978)
(0.000269365296358 3.8202582472e-05 0.000238007164934)
(8.73177407131e-05 1.51202421021e-05 0.000279991821695)
(4.8453036442e-05 -2.4977521157e-05 -3.60946602565e-05)
(9.20973239114e-05 -1.8542894135e-05 -7.94623218171e-05)
(0.000115670474779 -2.08373057893e-05 -8.42042064007e-05)
(0.000141315812927 -2.98773144976e-05 -8.26371180221e-05)
(0.000188730127035 -3.87325725483e-05 -8.97747212833e-05)
(0.000265046677202 -4.1414588468e-05 -0.00010719482197)
(0.000368805558545 -3.63992352303e-05 -0.000128896447113)
(0.000493096015415 -2.5803918904e-05 -0.000147314033414)
(0.000626747194449 -1.08834386765e-05 -0.000156419491596)
(0.000756825114396 4.12379659816e-06 -0.000152203903986)
(0.000869999208005 1.70113211987e-05 -0.000132037243925)
(0.000953442380903 2.69722768357e-05 -9.67081466711e-05)
(0.000995986973055 3.50172839196e-05 -4.94453439041e-05)
(0.00099000573601 4.35587267726e-05 4.39222769255e-06)
(0.000931995155403 5.24842808345e-05 5.88779231756e-05)
(0.000822363661059 6.2248565051e-05 0.000107427221552)
(0.000667408416638 7.16209668509e-05 0.00014412437609)
(0.000479112585018 7.71507714123e-05 0.000168706686746)
(0.000275512723919 7.33095194269e-05 0.000190823418058)
(7.84279111924e-05 5.337994827e-05 0.000232323636506)
(6.29372881134e-05 -4.15975939531e-05 -7.88288463212e-05)
(9.17275817086e-05 -6.28736852559e-05 -9.27735527338e-05)
(9.52210768739e-05 -8.65427036366e-05 -7.40819496244e-05)
(0.00010969295001 -0.000109782130789 -6.66200700453e-05)
(0.000154804764111 -0.000126054079192 -7.88330102495e-05)
(0.000235296946964 -0.000130817228494 -0.000104587681061)
(0.000347648891501 -0.000123204402617 -0.000134040414257)
(0.00048296318577 -0.0001051424469 -0.000157877971864)
(0.000628339942317 -8.22741022874e-05 -0.000169313085586)
(0.000769581856289 -5.77185758477e-05 -0.000165181374934)
(0.00089239907768 -3.55204368028e-05 -0.000143008633953)
(0.000983895576142 -1.74127933488e-05 -0.000104495722722)
(0.00103299063089 -1.82970154359e-06 -5.20607936113e-05)
(0.00103090157382 1.5717767038e-05 7.18465978513e-06)
(0.000973457083945 3.29093811724e-05 6.68971690412e-05)
(0.000861577579679 5.17477412152e-05 0.000118856518478)
(0.000700862638005 7.1674041998e-05 0.000155552472519)
(0.000502500878771 8.95537493148e-05 0.000173568716649)
(0.000283219421137 0.00010106494785 0.000178000743196)
(7.13152710395e-05 0.000102457225902 0.000206279530465)
(6.77621828655e-05 -5.0931136935e-05 -0.000115393341672)
(8.28358272509e-05 -9.73368253959e-05 -0.000105938547782)
(7.32267254611e-05 -0.000133449125181 -8.0997863821e-05)
(8.48872336271e-05 -0.000160835833107 -8.28262668518e-05)
(0.000133657602969 -0.000175774498 -0.000110361534753)
(0.000222404530771 -0.000176962904767 -0.000147419484326)
(0.000346241783339 -0.000163355301054 -0.000182793997497)
(0.000491468515595 -0.000137628803996 -0.000207982041648)
(0.000644592492867 -0.000105640522296 -0.000217846147311)
(0.000791815609226 -7.29463502895e-05 -0.000208996985223)
(0.000917458453019 -4.37118785572e-05 -0.000181638033055)
(0.0010106740857 -1.93678655254e-05 -0.000137592236523)
(0.00106412903157 1.07749188907e-06 -7.66186769005e-05)
(0.00106490703817 1.97831074209e-05 -1.20526276024e-05)
(0.0010068233442 3.92686173108e-05 5.51549175947e-05)
(0.000893714552781 6.09429844031e-05 0.000115329602481)
(0.000729776621951 8.46761625553e-05 0.000159372948414)
(0.000524396486706 0.000108655788323 0.000179649933803)
(0.000293593085404 0.000130464085481 0.000176736205424)
(6.96541155186e-05 0.000152650252149 0.000186865132429)
(6.89129116983e-05 -3.59327082124e-05 -0.000153964819145)
(7.35629451331e-05 -9.99751649613e-05 -0.000131839128682)
(5.67227138925e-05 -0.000139673022456 -0.000111883762638)
(7.06654614164e-05 -0.00016410307868 -0.000129727399188)
(0.000126373507158 -0.000167850780066 -0.000171626948418)
(0.000225295641262 -0.000166184310966 -0.000216644390491)
(0.000360515448727 -0.000143838258921 -0.000253448463312)
(0.000515705700582 -0.00010982526769 -0.000274138708543)
(0.000674250099955 -6.94669202297e-05 -0.000275937848705)
(0.000822323726545 -3.06150600661e-05 -0.000259034478626)
(0.000947373189035 3.08841707984e-06 -0.000224715179789)
(0.0010390411981 3.05147219521e-05 -0.000175209181354)
(0.00108845970487 5.20226420046e-05 -0.000112467126118)
(0.00108756500553 6.74649829506e-05 -4.20437440995e-05)
(0.00103130489716 8.42757437487e-05 3.09780438773e-05)
(0.00091852080954 0.000103388889902 9.80075918825e-05)
(0.000752046959961 0.000126065322469 0.000149678093232)
(0.00054182307801 0.000150283952439 0.000176575927484)
(0.000303730554753 0.00017703741577 0.000174800452527)
(7.12746659129e-05 0.00021320273097 0.000164960079678)
(7.0114888778e-05 1.17182720114e-05 -0.000194656816174)
(6.94221974858e-05 -6.05117760511e-05 -0.000168822248952)
(5.07265000859e-05 -9.79639800894e-05 -0.00015863548033)
(7.40521316502e-05 -0.000116655856644 -0.000190662205477)
(0.000133006809208 -0.000116825095524 -0.000248649765054)
(0.000238175879219 -9.97292794184e-05 -0.00029002035228)
(0.000389579878436 -6.69603111761e-05 -0.00032085409099)
(0.000552123321866 -2.49585671572e-05 -0.00033124232776)
(0.000712836687567 2.07304322088e-05 -0.000320868515256)
(0.000858420066936 6.34980799722e-05 -0.000293499582901)
(0.000978262805462 9.88768447725e-05 -0.000252450965405)
(0.00106381672626 0.000125275945799 -0.000200028223658)
(0.00110780670816 0.000143550665292 -0.000137372200948)
(0.00110370471052 0.000156439726191 -6.71434578926e-05)
(0.00104649672825 0.00016815162645 6.62660014695e-06)
(0.000933581534819 0.000181635530039 7.66215633977e-05)
(0.000765857389975 0.000199266856865 0.000133402307688)