/*--------------------------------*- C++ -*----------------------------------*\
| =========                 |                                                 |
| \\      /  F ield         | OpenFOAM: The Open Source CFD Toolbox           |
|  \\    /   O peration     | Version:  3.0.1                                 |
|   \\  /    A nd           | Web:      www.OpenFOAM.org                      |
|    \\/     M anipulation  |                                                 |
\*---------------------------------------------------------------------------*/
FoamFile
{
    version     2.0;
    format      ascii;
    class       surfaceScalarField;
    location    "1.1";
    object      alphaPhi;
}
// * * * * * * * * * * * * * * * * * * * * * * * * * * * * * * * * * * * * * //

dimensions      [0 3 -1 0 0 0 0];

internalField   nonuniform List<scalar> 
45932
(
2.36325820575e-06
2.04279311744e-06
-4.40435018661e-06
4.3773463054e-06
2.61494667718e-06
-4.6273362445e-06
4.43088694387e-06
4.93202758404e-06
-4.98145432452e-06
2.27839080857e-06
7.52256348566e-06
-5.36662192172e-06
-9.13715004632e-07
8.8663938114e-06
-5.67171455884e-06
-4.22527163683e-06
8.91297605113e-06
-5.60252244824e-06
-6.70195418831e-06
7.6217107749e-06
-5.1406034431e-06
-7.35005714362e-06
5.07446708672e-06
-4.42376495095e-06
-6.27505122472e-06
2.45493806625e-06
-3.52681101503e-06
-4.57289562106e-06
8.47051319384e-07
-2.5489344377e-06
-3.02380799305e-06
1.20401258042e-07
-1.66937274329e-06
-1.83530935404e-06
-1.69193675988e-07
-1.02140321011e-06
-9.97517092518e-07
-2.45369564716e-07
-5.92734779497e-07
-4.15994765999e-07
-2.32030327941e-07
-3.49782127823e-07
5.87690211862e-09
-1.96341554161e-07
-2.25898769848e-07
3.29463470702e-07
-1.58752552069e-07
-1.64451466423e-07
5.88839752905e-07
-1.27973291137e-07
-1.291872931e-07
7.95274807672e-07
-1.05218834584e-07
-1.00538685147e-07
9.54000984804e-07
-8.92502881001e-08
-6.95787579163e-08
1.0671167536e-06
-7.84599194006e-08
-3.49385702228e-08
1.13654599292e-06
-7.10044313848e-08
1.51135422236e-09
1.16705228987e-06
-6.69535036717e-08
3.64862299267e-08
1.16369038946e-06
-6.49907719525e-08
6.83780268568e-08
1.13265268642e-06
-6.44144191586e-08
9.55547747113e-08
1.07992392551e-06
-6.48443038753e-08
1.17530566792e-07
1.01158023262e-06
-6.59212887309e-08
1.34267581839e-07
9.32909196942e-07
-6.74605385015e-08
1.4606041599e-07
8.48588157865e-07
-6.91960713547e-08
1.53518896988e-07
7.62215804497e-07
-7.10365126891e-08
1.57408585587e-07
6.76581472192e-07
-7.28936963563e-08
1.5852802821e-07
5.93698035462e-07
-7.47035216725e-08
1.57586754534e-07
5.14916638029e-07
-7.64078447125e-08
1.55189485495e-07
4.41249854175e-07
-7.80267382244e-08
1.51693207197e-07
3.73055725557e-07
-7.94268995727e-08
1.4762173075e-07
3.11747940121e-07
-8.09024520816e-08
1.42210231978e-07
2.5510251456e-07
-8.17819634837e-08
1.38427383309e-07
2.07170075422e-07
-8.25191175978e-08
1.30451550926e-07
1.56543505595e-07
-8.16020242953e-08
1.32228588422e-07
1.01631140734e-07
-8.11071086179e-08
1.36019467794e-07
-8.46361281054e-08
1.86267263659e-07
2.44080330941e-06
5.01924476385e-06
-5.41574521946e-06
4.83798851626e-06
7.046375322e-06
-6.82380154323e-06
4.973665196e-06
1.24625171088e-05
-7.66007994377e-06
2.61374993728e-06
1.81252765248e-05
-8.23669263595e-06
-8.66406888926e-07
2.1015014736e-05
-8.66306447151e-06
-4.47363070536e-06
2.10747029864e-05
-8.5473798314e-06
-7.17548788974e-06
1.82120775903e-05
-7.88363851966e-06
-7.8279240784e-06
1.25830090822e-05
-6.8507187492e-06
-6.56456574455e-06
6.65479330495e-06
-5.46283430059e-06
-4.67063352831e-06
2.83224809211e-06
-3.87843631051e-06
-3.01101104638e-06
9.50473501962e-07
-2.4897875646e-06
-1.78208265446e-06
1.20420758593e-07
-1.52005792712e-06
-9.39027938565e-07
-1.81046408507e-07
-9.0854321014e-07
-3.56235653245e-07
-2.67119592885e-07
-5.48174625335e-07
5.90446891521e-08
-2.58488723734e-07
-3.53478465995e-07
3.7610824015e-07
-2.26222184419e-07
-2.49932697402e-07
6.30349293849e-07
-1.91521699849e-07
-1.88383593905e-07
8.32010636461e-07
-1.63238176397e-07
-1.42979452102e-07
9.87211955981e-07
-1.41777303622e-07
-1.02047118431e-07
1.09661582977e-06
-1.27383855489e-07
-6.06482285662e-08
1.16229941011e-06
-1.18908526373e-07
-1.7805072714e-08
1.18945027814e-06
-1.12394775089e-07
1.82435886026e-08
1.1831389573e-06
-1.10022704619e-07
5.14444240327e-08
1.14928825881e-06
-1.09513486708e-07
7.89475868534e-08
1.09410758531e-06
-1.10210854619e-07
1.00544978566e-07
1.0234614298e-06
-1.11793911388e-07
1.16378584886e-07
9.4283588252e-07
-1.13816255375e-07
1.2696684084e-07
8.56710875573e-07
-1.16120467705e-07
1.33048134973e-07
7.68719598381e-07
-1.18527696571e-07
1.35482619215e-07
6.81632995291e-07
-1.20933606702e-07
1.35126512895e-07
5.97440797796e-07
-1.23229757133e-07
1.32718348019e-07
5.17468821427e-07
-1.25326160851e-07
1.28890349055e-07
4.4268592121e-07
-1.27210916678e-07
1.23966597448e-07
3.73468344723e-07
-1.2872344433e-07
1.1851471113e-07
3.11026767073e-07
-1.3006893571e-07
1.11608055233e-07
2.53670803315e-07
-1.30738888574e-07
1.06312882581e-07
2.04692477007e-07
-1.30598408002e-07
9.70576103551e-08
1.54115803971e-07
-1.29028726074e-07
9.80033685787e-08
9.7184142853e-08
-1.26944789942e-07
1.02769336289e-07
-1.27656939368e-07
1.40204948594e-07
2.96250997328e-06
7.78483815566e-06
-5.72509982781e-06
5.96613864939e-06
1.15873489847e-05
-7.53935881662e-06
6.15822534396e-06
2.00241266629e-05
-7.7439898426e-06
3.29432902827e-06
2.84681249905e-05
-7.47467744879e-06
-8.40495079841e-07
3.26985146143e-05
-7.53989466175e-06
-5.10810640481e-06
3.27493396069e-05
-7.40270076157e-06
-8.33261612373e-06
2.85028949355e-05
-7.05547391339e-06
-9.04530282235e-06
2.00602619163e-05
-6.76075278913e-06
-7.39976713062e-06
1.10000411011e-05
-5.98756841059e-06
-5.08238610132e-06
5.00242747694e-06
-4.48848240369e-06
-3.17356366793e-06
1.96817209276e-06
-2.92598652492e-06
-1.82726981274e-06
5.63408906092e-07
-1.79007446971e-06
-9.36154474939e-07
1.83203861183e-09
-1.07563251719e-06
-3.40850947944e-07
-2.01283591509e-07
-6.61962513331e-07
7.82447885568e-08
-2.46443689551e-07
-4.31508584472e-07
3.92169998002e-07
-2.33064576912e-07
-3.07386321791e-07
6.40601077404e-07
-2.04874980861e-07
-2.35256712055e-07
8.40257373419e-07
-1.78084864095e-07
-1.8249478725e-07
9.92228485905e-07
-1.57063508703e-07
-1.36374888537e-07
1.09984567671e-06
-1.42199183526e-07
-9.22916030817e-08
1.16437019028e-06
-1.33062660237e-07
-5.04177588019e-08
1.19006939882e-06
-1.27611721514e-07
-1.04727328053e-08
1.1829023307e-06
-1.24358375626e-07
2.14562166803e-08
1.14860272435e-06
-1.23922104868e-07
4.8787104652e-08
1.09300885184e-06
-1.24719189645e-07
6.99649051737e-08
1.02219525908e-06
-1.26251804831e-07
8.52597464355e-08
9.41405359647e-07
-1.28277380505e-07
9.52274949145e-08
8.55180391029e-07
-1.30527314349e-07
1.0066138227e-07
7.671068349e-07
-1.32929316949e-07
1.02472372376e-07
6.79940186476e-07
-1.35282625e-07
1.01516294036e-07
5.95639583173e-07
-1.37480479923e-07
9.85513235264e-08
5.15492566723e-07
-1.39410497559e-07
9.42312196284e-08
4.40430786272e-07
-1.41011969761e-07
8.88628385389e-08
3.70788287034e-07
-1.42154227213e-07
8.30728620627e-08
3.0773318622e-07
-1.42896321522e-07
7.58824804693e-08
2.49774859137e-07
-1.43052085109e-07
7.02715172459e-08
2.00048594397e-07
-1.42012886857e-07
6.11407372302e-08
1.49126728e-07
-1.39710192963e-07
6.16033269601e-08
9.28173379679e-08
-1.36209496381e-07
6.55734099153e-08
-1.29291683839e-07
9.44422598145e-08
3.94699734046e-06
9.77103659163e-06
-5.93077292097e-06
7.83747694972e-06
1.50069557102e-05
-7.30380206989e-06
8.03203237153e-06
2.5595098621e-05
-5.76165101522e-06
4.34284613978e-06
3.58587518567e-05
-3.68059375186e-06
-8.27597898068e-07
4.08551683914e-05
-2.98218049721e-06
-6.13745118533e-06
4.0907253846e-05
-2.83284196632e-06
-1.02068121984e-05
3.58001011759e-05
-3.22137356212e-06
-1.10554155541e-05
2.55275066722e-05
-4.61138062264e-06
-8.83829687642e-06
1.42702242643e-05
-5.48466901626e-06
-5.84941192042e-06
6.68256059463e-06
-4.66768841756e-06
-3.52437096438e-06
2.80311519845e-06
-3.16110628675e-06
-1.9664676426e-06
9.63677411795e-07
-1.95774536285e-06
-9.79541522503e-07
1.92709370507e-07
-1.17928654826e-06
-3.46665086402e-07
-1.03826509941e-07
-7.3206019826e-07
8.43985760531e-08
-1.94269873885e-07
-4.83793095258e-07
4.00857635706e-07
-2.03858168542e-07
-3.46005322528e-07
6.47954897249e-07
-1.85249988917e-07
-2.66930357108e-07
8.44349093623e-07
-1.62870704422e-07
-2.11170280363e-07
9.9560215909e-07
-1.44351905658e-07
-1.62368551322e-07
1.10148948924e-06
-1.30786416338e-07
-1.16855601301e-07
1.1649663501e-06
-1.22137867455e-07
-7.43766559608e-08
1.19005978679e-06
-1.17141408656e-07
-3.54678326635e-08
1.18214847553e-06
-1.14198399814e-07
-2.20323791466e-09
1.14747791464e-06
-1.13748595792e-07
2.44604689142e-08
1.09178401399e-06
-1.14329194035e-07
4.53571061547e-08
1.02082819069e-06
-1.1570356147e-07
6.03244047145e-08
9.4004602293e-07
-1.17423093961e-07
6.999909641e-08
8.53806782032e-07
-1.19407878116e-07
7.51356321185e-08
7.65762997195e-07
-1.21579605507e-07
7.66870337584e-08
6.78643204383e-07
-1.23653923544e-07
7.54914356445e-08
5.94389072139e-07
-1.25556393163e-07
7.23303743664e-08
5.14266703221e-07
-1.27158036612e-07
6.7869903844e-08
4.39189036358e-07
-1.28356759574e-07
6.24224454539e-08
3.69464938358e-07
-1.2906818501e-07
5.66380500877e-08
3.06246728016e-07
-1.29256173044e-07
4.95780558217e-08
2.48218574844e-07
-1.28984900588e-07
4.39609624094e-08
1.98437098153e-07
-1.27467824523e-07
3.52365030456e-08
1.48006633826e-07
-1.24889946813e-07
3.56105987014e-08
9.24109834261e-08
-1.20955578479e-07
4.03403395786e-08
-1.10090641887e-07
7.31852241533e-08
5.2929410575e-06
1.06550522376e-05
-6.17247396278e-06
1.02518112547e-05
1.65737163428e-05
-6.52286173568e-06
1.03814245678e-05
2.79410560054e-05
-2.46143140429e-06
5.62862112082e-06
3.86022056535e-05
2.01757027103e-06
-8.2332052814e-07
4.36765891797e-05
3.65711014022e-06
-7.42881575435e-06
4.37023090771e-05
3.81767892681e-06
-1.25699104376e-05
3.84824495098e-05
2.47646497924e-06
-1.36323905437e-05
2.77620638703e-05
-1.16713142819e-06
-1.07232198287e-05
1.57497086485e-05
-4.38261497593e-06
-6.88363896844e-06
7.50483113637e-06
-4.6609917059e-06
-4.01485207185e-06
3.2593253073e-06
-3.32527165836e-06
-2.17717681784e-06
1.21412156791e-06
-2.08955439326e-06
-1.06009701559e-06
3.36359505511e-07
-1.26045517421e-06
-3.71029052627e-07
-1.72571036929e-08
-7.78030835735e-07
8.1671439223e-08
-1.31670410733e-07
-5.16125289958e-07
4.0543714029e-07
-1.60192809947e-07
-3.6788691883e-07
6.53469738004e-07
-1.50730669096e-07
-2.82811920534e-07
8.48346298938e-07
-1.33410446954e-07
-2.24470534821e-07
9.98329452856e-07
-1.18015757628e-07
-1.74725040492e-07
1.10310205333e-06
-1.06694289938e-07
-1.28317599602e-07
1.1658582243e-06
-9.88955082196e-08
-8.56542992985e-08
1.19032655376e-06
-9.45446982816e-08
-4.71134229442e-08
1.18180236326e-06
-9.21630175668e-08
-1.3459737608e-08
1.14686399079e-06
-9.16907852454e-08
1.28720790337e-08
1.09094681972e-06
-9.21225832438e-08
3.35903876514e-08
1.01995898645e-06
-9.31206261937e-08
4.84062958982e-08
9.39121045667e-07
-9.45193896501e-08
5.79405532741e-08
8.52889530422e-07
-9.61159110536e-08
6.29769314429e-08
7.64869296949e-07
-9.79605183817e-08
6.43862861429e-08
6.77807963987e-07
-9.96885168778e-08
6.30948922897e-08
5.93633456851e-07
-1.01241189203e-07
5.98600917128e-08
5.13601843164e-07
-1.02496791907e-07
5.5370365061e-08
4.38608210183e-07
-1.03334159725e-07
4.9971028052e-08
3.68954073013e-07
-1.0369000105e-07
4.42759475185e-08
3.05771597066e-07
-1.03545305474e-07
3.747160234e-08
2.47915442691e-07
-1.03086501401e-07
3.19580952499e-08
1.98394321087e-07
-1.01596691623e-07
2.36502433291e-08
1.48776148978e-07
-9.92166135793e-08
2.39458577405e-08
9.38301670862e-08
-9.59833250729e-08
2.99629999221e-08
-8.59108554372e-08
6.96386963767e-08
6.79979467301e-06
1.02899911299e-05
-6.43193824836e-06
1.28674877021e-05
1.59841006541e-05
-5.46952464476e-06
1.2863773769e-05
2.65609900824e-05
1.39220238683e-06
6.95922371997e-06
3.61799056501e-05
8.33629472235e-06
-8.28153039093e-07
4.0612664735e-05
1.0849669889e-05
-8.7784541258e-06
4.06529177638e-05
1.10155228501e-05
-1.50807563462e-05
3.60155972564e-05
8.76855171472e-06
-1.64151197667e-05
2.63289072144e-05
2.7817030088e-06
-1.27991770864e-05
1.51543692125e-05
-3.01803427861e-06
-8.04127570452e-06
7.33385578843e-06
-4.58419599675e-06
-4.57473206674e-06
3.25937492121e-06
-3.46710656766e-06
-2.42431676493e-06
1.27068299587e-06
-2.20830632983e-06
-1.16068277591e-06
4.02119113863e-07
-1.33048038717e-06
-4.08634769843e-07
4.44258810532e-08
-8.13913610034e-07
7.27643789427e-08
-8.12011612601e-08
-5.34206623589e-07
4.07009155935e-07
-1.1503508926e-07
-3.79973855468e-07
6.5756680829e-07
-1.13145403876e-07
-2.88441597229e-07
8.52107556613e-07
-1.00427636407e-07
-2.27673347356e-07
9.99914861701e-07
-8.82041072016e-08
-1.77662365357e-07
1.10477821128e-06
-7.92504087299e-08
-1.30671695802e-07
1.16669664927e-06
-7.31033349925e-08
-8.7460719251e-08
1.19079194561e-06
-6.91905728413e-08
-4.93057389971e-08
1.18169994405e-06
-6.75301066107e-08
-1.56026789817e-08
1.14654270273e-06
-6.69445798976e-08
1.03678143864e-08
1.09045723576e-06
-6.71878675557e-08
3.10307995233e-08
1.01941085497e-06
-6.78716147828e-08
4.58230173893e-08
9.38559302808e-07
-6.88571016871e-08
5.53482763076e-08
8.52285038627e-07
-7.0163799207e-08
6.0327789487e-08
7.6427434497e-07
-7.1659257663e-08
6.16879051899e-08
6.77263968099e-07
-7.30381896897e-08
6.03646233469e-08
5.93168637739e-07
-7.4264508268e-08
5.71194997024e-08
5.13238022315e-07
-7.52093929404e-08
5.26432125609e-08
4.38358464364e-07
-7.57710961378e-08
4.73164894496e-08
3.68801132719e-07
-7.59219080948e-08
4.17892331291e-08
3.05696556401e-07
-7.56061740711e-08
3.51654388459e-08
2.48040521193e-07
-7.50920763294e-08
2.96616040295e-08
1.98815940697e-07
-7.39032759118e-08
2.15298611625e-08
1.49820084705e-07
-7.2105857938e-08
2.1881112563e-08
9.5392320327e-08
-6.9892764613e-08
2.83127838804e-08
-6.22765538167e-08
7.17687857926e-08
8.23561194794e-06
8.74200912831e-06
-6.68406177717e-06
1.52870078104e-05
1.34128405159e-05
-4.47295879252e-06
1.51115752986e-05
2.19118535514e-05
4.83938657613e-06
8.12792716483e-06
2.9377836662e-05
1.37894035231e-05
-8.34982744425e-07
3.27141061739e-05
1.68705210667e-05
-9.97981813952e-06
3.27434796159e-05
1.70517401263e-05
-1.73602605769e-05
2.9217786288e-05
1.41831647975e-05
-1.9002685932e-05
2.16772284733e-05
6.29714160436e-06
-1.47700494849e-05
1.26898335073e-05
-1.75741307704e-06
-9.15925922722e-06
6.24419852638e-06
-4.51987307685e-06
-5.1240539959e-06
2.826752544e-06
-3.60130185231e-06
-2.67186402244e-06
1.13524780719e-06
-2.31844223245e-06
-1.26155988051e-06
3.84819524214e-07
-1.39375817258e-06
-4.43935514349e-07
7.05214846885e-08
-8.45266617559e-07
6.33946802828e-08
-4.21228116024e-08
-5.46711635931e-07
4.0651492032e-07
-7.51291423777e-08
-3.8502489566e-07
6.60421429265e-07
-7.81120847767e-08
-2.89207759649e-07
8.55132506002e-07
-6.92304458796e-08
-2.26064098085e-07
1.00217194277e-06
-6.03117753441e-08
-1.75007508771e-07
1.10531430592e-06
-5.35065755057e-08
-1.28704221568e-07
1.1676758127e-06
-4.87359633751e-08
-8.54215510251e-08
1.19108961028e-06
-4.56432924734e-08
-4.70198053272e-08
1.1817949039e-06
-4.43796338092e-08
-1.3819918421e-08
1.14634707038e-06
-4.41248970256e-08
1.24767662576e-08
1.09023930703e-06
-4.42186506127e-08
3.31865341038e-08
1.01911218604e-06
-4.46701163878e-08
4.80195541904e-08
9.38167827764e-07
-4.54195429429e-08
5.75322288677e-08
8.51870026201e-07
-4.64131384525e-08
6.25518767488e-08
7.63865951084e-07
-4.75575366603e-08
6.38781580505e-08
6.76891872782e-07
-4.8610069582e-08
6.25354753696e-08
5.92873890203e-07
-4.95350662865e-08
5.92951477064e-08
5.13037356458e-07
-5.02291055308e-08
5.48580067727e-08
4.38259220047e-07
-5.06091889316e-08
4.9616566499e-08
3.68802149304e-07
-5.06717174684e-08
4.4206874496e-08
3.05767459991e-07
-5.03614432452e-08
3.77899525495e-08
2.48254075286e-07
-4.99437303129e-08
3.23650324723e-08
1.99239153252e-07
-4.90840691666e-08
2.41949936145e-08
1.50599321176e-07
-4.78992735683e-08
2.442401885e-08
9.64880197646e-08
-4.64975477238e-08
3.07061866638e-08
-4.06733552887e-08
7.48750743665e-08
9.40081863801e-06
6.27617631579e-06
-6.93093236211e-06
1.7199629406e-05
9.46167063083e-06
-3.83944472861e-06
1.68607922041e-05
1.51670086365e-05
7.09989561491e-06
9.01698896807e-06
2.00326076625e-05
1.71915806621e-05
-8.41782478146e-07
2.21231391015e-05
2.04483050233e-05
-1.08994680859e-05
2.21466239395e-05
2.06539917727e-05
-1.91388659277e-05
1.99057772949e-05
1.75500527827e-05
-2.1054796829e-05
1.49983271766e-05
8.60151547685e-06
-1.63799631487e-05
8.93157236442e-06
-9.13899773304e-07
-1.00920126679e-05
4.47346071491e-06
-4.51316222714e-06
-5.59156215871e-06
2.05644231962e-06
-3.72940801394e-06
-2.88558377026e-06
8.43542388646e-07
-2.41404761424e-06
-1.35192844946e-06
2.97583902605e-07
-1.44806816458e-06
-4.78281877565e-07
6.74795829465e-08
-8.70836440602e-07
5.27815164987e-08
-1.75238451774e-08
-5.57194951396e-07
4.04960915901e-07
-4.28377142431e-08
-3.85715019063e-07
6.62040639393e-07
-4.63660083772e-08
-2.89451354471e-07
8.57110757581e-07
-4.12514665354e-08
-2.23220787447e-07
1.00370456423e-06
-3.53978647093e-08
-1.71578910503e-07
1.10618752812e-06
-3.09029286395e-08
-1.25099635289e-07
1.16787087549e-06
-2.7698877572e-08
-8.18728478238e-08
1.19143746722e-06
-2.57198019882e-08
-4.29017364965e-08
1.18181984906e-06
-2.48493618528e-08
-9.98916004455e-09
1.14635576506e-06
-2.45911735373e-08
1.59261312351e-08
1.09008684832e-06
-2.46964481747e-08
3.66997526212e-08
1.01892120265e-06
-2.49842320935e-08
5.1606040488e-08
9.3790380961e-07
-2.55260905951e-08
6.11434362267e-08
8.51581892878e-07
-2.62468067508e-08
6.61375950416e-08
7.63582615759e-07
-2.70617690156e-08
6.74791539406e-08
6.76646931217e-07
-2.78035261313e-08
6.61298585357e-08
5.92680405138e-07
-2.84615067927e-08
6.28936492689e-08
5.12920405565e-07
-2.89548379773e-08
5.84869721679e-08
4.38222194674e-07
-2.9222091329e-08
5.33105845376e-08
3.68847524883e-07
-2.92618437738e-08
4.79654290382e-08
3.05860192752e-07
-2.90408914436e-08
4.16667744371e-08
2.48440929433e-07
-2.87747300559e-08
3.62502932831e-08
1.995219749e-07
-2.82496164699e-08
2.80726605827e-08
1.51027145986e-07
-2.75662504164e-08
2.81487083108e-08
9.70748044588e-08
-2.65155014057e-08
3.39835402984e-08
-2.12149051663e-08
7.76059389921e-08
1.01854731251e-05
3.24577083129e-06
-7.15199696281e-06
1.84652882727e-05
4.81992505956e-06
-3.62863014931e-06
1.79916964993e-05
7.61152209545e-06
8.04207533205e-06
9.56682296105e-06
9.94743130986e-06
1.85128542008e-05
-8.44529292131e-07
1.09108239014e-05
2.16268009741e-05
-1.1480901221e-05
1.09269595864e-05
2.18546126079e-05
-2.0286846934e-05
9.88061338348e-06
1.88338401558e-05
-2.24149485438e-05
7.52783294394e-06
9.59631604914e-06
-1.74730959419e-05
4.54608260252e-06
-5.46416773376e-07
-1.07426063162e-05
2.3069410223e-06
-4.56222922685e-06
-5.92529123646e-06
1.07255401627e-06
-3.83124251788e-06
-3.04095014437e-06
4.46664574335e-07
-2.48732393388e-06
-1.41768853759e-06
1.62408446458e-07
-1.48852946227e-06
-5.02460112562e-07
4.15326162788e-08
-8.89918790952e-07
4.50057828301e-08
-2.28265480651e-09
-5.64554548031e-07
4.04029940471e-07
-1.63145664067e-08
-3.86878759863e-07
6.62939733061e-07
-1.8292346844e-08
-2.88169372343e-07
8.58473836104e-07
-1.60438358999e-08
-2.20909674209e-07
1.00483810966e-06
-1.31918167819e-08
-1.68626882677e-07
1.10699348402e-06
-1.09569207833e-08
-1.22137095357e-07
1.16786173971e-06
-9.43239267967e-09
-7.89592044329e-08
1.19165046209e-06
-8.6108448706e-09
-3.98603563568e-08
1.18194143291e-06
-8.21289460853e-09
-6.92140131693e-09
1.14634761512e-06
-7.97787352771e-09
1.89202996208e-08
1.09006382773e-06
-8.08309716563e-09
3.9719115503e-08
1.01875960405e-06
-8.33078661094e-09
5.46323239948e-08
9.37722014724e-07
-8.67951195693e-09
6.42158311516e-08
8.51386637559e-07
-9.14036966679e-09
6.92192298721e-08
7.63392110061e-07
-9.64383136898e-09
7.05514178818e-08
6.76476481615e-07
-1.01083623601e-08
6.92186855781e-08
5.92551061821e-07
-1.05204073639e-08
6.59864557294e-08
5.12846534772e-07
-1.08415861794e-08
6.15921067059e-08
4.38206409761e-07
-1.10302905419e-08
5.64483194214e-08
3.68888200378e-07
-1.10962074491e-08
5.11525674814e-08
3.05928127193e-07
-1.10072630244e-08
4.49276377441e-08
2.48560204907e-07
-1.09216623401e-08
3.95147694674e-08
1.99682022185e-07
-1.06960313407e-08
3.13169467956e-08
1.51214954591e-07
-1.03996638981e-08
3.12745792356e-08
9.72976263312e-08
-9.3441635987e-09
3.67486411172e-08
-3.46527269522e-09
7.95497073476e-08
1.05718471792e-05
-3.50626825892e-08
-7.28718592451e-06
1.90773439592e-05
-5.03940379368e-08
-3.62781950564e-06
1.85306721927e-05
-7.32256251371e-08
8.24832137313e-06
9.82244651804e-06
-9.36399254853e-08
1.87538038503e-05
-8.45316249015e-07
-1.04771329344e-07
2.16852956994e-05
-1.17467961058e-05
-1.02784849277e-07
2.19335492685e-05
-2.08364030909e-05
-9.12952843896e-08
1.90596340041e-05
-2.30678653687e-05
-6.83416559222e-08
9.83825053194e-06
-1.80145562691e-05
-4.38413005285e-08
-4.61813473478e-07
-1.10689909821e-05
-2.300973988e-08
-4.61104885738e-06
-6.09552171984e-06
-9.43222105889e-09
-3.89041913583e-06
-3.12160767466e-06
-1.42700018858e-09
-2.52452298088e-06
-1.45261908092e-06
3.12332989338e-09
-1.51008912377e-06
-5.17376150336e-07
5.58461090249e-09
-8.99227717904e-07
4.02253051362e-08
6.81136692672e-09
-5.69041810013e-07
4.03933385135e-07
7.28377942864e-09
-3.87601305294e-07
6.63351250888e-07
7.42141006171e-09
-2.87000179813e-07
8.59170646879e-07
7.48153359353e-09
-2.19501326182e-07
1.00539278279e-06
7.46135409e-09
-1.6697966358e-07
1.10736698997e-06
7.40212478135e-09
-1.20379371057e-07
1.16799027569e-06
7.32235603127e-09
-7.72887542489e-08
1.1917501017e-06
7.27966251857e-09
-3.85406557836e-08
1.18198240033e-06
7.16135207557e-09
-5.65497250054e-09
1.14634052937e-06
7.02769094052e-09
2.0605702206e-08
1.08997388843e-06
6.85869017324e-09
4.13905135644e-08
1.01864211618e-06
6.67562152298e-09
5.62990134662e-08
9.37569046643e-07
6.47683832065e-09
6.58898971408e-08
8.51251764386e-07
6.26359967219e-09
7.09337537366e-08
7.63273455265e-07
6.05252851514e-09
7.22676464001e-08
6.76365803895e-07
5.85125961896e-09
7.09403700199e-08
5.92468537392e-07
5.66927532543e-09
6.77140805142e-08
5.12797152367e-07
5.5122366625e-09
6.33186276645e-08
4.3819076186e-07
5.38728690073e-09
5.81888080409e-08
3.68900281473e-07
5.27898677291e-09
5.29152807748e-08
3.05952067672e-07
5.19676636034e-09
4.67441784447e-08
2.48601300933e-07
5.07839618065e-09
4.13491458648e-08
1.997135783e-07
4.99528019062e-09
3.31850198475e-08
1.51249470866e-07
4.99425119944e-09
3.30581057501e-08
9.73100840539e-08
6.26094971539e-09
3.83216491393e-08
1.32472398019e-08
8.06147110679e-08
1.05673933299e-05
-3.31212088206e-06
-7.28742867839e-06
1.90715418861e-05
-4.91539745116e-06
-3.63035084264e-06
1.85231581368e-05
-7.75162140853e-06
8.23977442685e-06
9.82127083887e-06
-1.01258725872e-05
1.87434538593e-05
-8.44168893881e-07
-1.11075378673e-05
2.16691819388e-05
-1.17435251751e-05
-1.11241877373e-05
2.19231587742e-05
-2.08307809889e-05
-1.00519611808e-05
1.90457884054e-05
-2.30632011995e-05
-7.65703031715e-06
9.83018767568e-06
-1.80101120572e-05
-4.6292119723e-06
-4.66140594296e-07
-1.10656496152e-05
-2.35050956329e-06
-4.61196755995e-06
-6.09325183091e-06
-1.09027503147e-06
-3.8904945614e-06
-3.12030833878e-06
-4.48864944888e-07
-2.52415200165e-06
-1.45192427453e-06
-1.5588088839e-07
-1.5097931386e-06
-5.17163831956e-07
-3.03803288533e-08
-8.99020082833e-07
4.04441388851e-08
1.60000851599e-08
-5.68836722961e-07
4.03856750999e-07
3.08179758102e-08
-3.87451821979e-07
6.63341483517e-07
3.30740750379e-08
-2.86941972588e-07
8.59125819104e-07
3.09934666631e-08
-2.19465396151e-07
1.0053577046e-06
2.80552139106e-08
-1.66910181547e-07
1.10734639165e-06
2.56901511188e-08
-1.20307261368e-07
1.16803169356e-06
2.40364392899e-08
-7.72313798383e-08
1.19171843502e-06
2.30837288063e-08
-3.84535440027e-08
1.18194357013e-06
2.24664802046e-08
-5.58353236098e-09
1.1463052607e-06
2.19567343617e-08
2.06963856105e-08
1.08992123336e-06
2.17198904808e-08
4.14762853385e-08
1.01859624794e-06
2.16057083451e-08
5.63889415298e-08
9.37518429486e-07
2.15481037826e-08
6.59717242641e-08
8.5119848581e-07
2.15915005528e-08
7.10092752949e-08
7.63223417783e-07
2.16693692648e-08
7.23445788479e-08
6.76328052009e-07
2.17301375149e-08
7.10164869149e-08
5.92430254653e-07
2.1776436304e-08
6.77908371592e-08
5.12762880114e-07
2.17840834434e-08
6.33923495414e-08
4.38159840872e-07
2.17255892317e-08
5.82629441096e-08
3.6887617382e-07
2.15764862682e-08
5.2989309328e-08
3.05911816682e-07
2.13294754219e-08
4.68217650058e-08
2.48541542683e-07
2.10053211365e-08
4.14323959656e-08
1.99628978506e-07
2.06033211274e-08
3.32896534037e-08
1.51135846052e-07
2.02764213818e-08
3.31975189257e-08
9.72180791839e-08
2.17296721072e-08
3.84812971189e-08
2.98928923515e-08
8.05876529361e-08
1.01761335704e-05
-6.33241726029e-06
-7.15196326486e-06
1.84494138389e-05
-9.54294798194e-06
-3.63600558803e-06
1.79774193571e-05
-1.52871651902e-05
8.02185460766e-06
9.56080629882e-06
-2.01872388392e-05
1.84831681649e-05
-8.43259437438e-07
-2.22885485839e-05
2.15871543394e-05
-1.14721403344e-05
-2.23138030078e-05
2.18155636531e-05
-2.02714379367e-05
-2.00509397051e-05
1.88011090869e-05
-2.23979882884e-05
-1.51074843765e-05
9.57502858163e-06
-1.74599005065e-05
-9.00257770421e-06
-5.57872446854e-07
-1.0733503321e-05
-4.51062223986e-06
-4.56559394555e-06
-5.9192299837e-06
-2.07066565771e-06
-3.83135087542e-06
-3.0374417452e-06
-8.44094327645e-07
-2.48652575952e-06
-1.41576450105e-06
-2.90345235135e-07
-1.48773513604e-06
-5.01484151793e-07
-5.60403271838e-08
-8.89263662489e-07
4.58414828979e-08
3.12675562327e-08
-5.63916008247e-07
4.03930387066e-07
5.71781245826e-08
-3.86325778031e-07
6.62937104431e-07
6.10092439749e-08
-2.87866165707e-07
8.58411901897e-07
5.60890340623e-08
-2.20716477394e-07
1.00472945381e-06
5.00728821909e-08
-1.68407587849e-07
1.10690685701e-06
4.54251644176e-08
-1.21913871337e-07
1.16799679803e-06
4.21463007268e-08
-7.87358292643e-08
1.19157979764e-06
4.0029692268e-08
-3.96765941131e-08
1.18182208044e-06
3.88757284916e-08
-6.69333480101e-09
1.14620072938e-06
3.8314516137e-08
1.91874816731e-08
1.08990665644e-06
3.80837450533e-08
3.99829359432e-08
1.0185891064e-06
3.80000800432e-08
5.48921211073e-08
9.37564513552e-07
3.81361181659e-08
6.44794684087e-08
8.51215783045e-07
3.8457697564e-08
6.94627779991e-08
7.63240196867e-07
3.88262634029e-08
7.08029240982e-08
6.76340736193e-07
3.91611096378e-08
6.946848717e-08
5.92433140735e-07
3.9452728944e-08
6.62329827452e-08
5.12751112218e-07
3.96454068218e-08
6.18232013866e-08
4.3812742803e-07
3.96755692685e-08
5.66770646926e-08
3.68816226275e-07
3.95111054155e-08
5.13767008936e-08
3.05835172983e-07
3.91353672401e-08
4.51712081527e-08
2.4842817938e-07
3.86297336998e-08
3.97729438375e-08
1.99474440179e-07
3.79239513794e-08
3.1623739091e-08
1.50962455254e-07
3.71351756905e-08
3.1665723939e-08
9.69930372859e-08
3.84369025922e-08
3.72778012741e-08
4.73272606231e-08
7.95498815314e-08
9.38712196714e-06
-8.78398924328e-06
-6.93206521243e-06
1.71751917509e-05
-1.34736304446e-05
-3.85000872624e-06
1.68381659342e-05
-2.20035124892e-05
7.06796924349e-06
9.00678042439e-06
-2.94926256293e-05
1.71441627284e-05
-8.40289058704e-07
-3.28399464e-05
2.0392442013e-05
-1.08849217173e-05
-3.28691779359e-05
2.05999808902e-05
-1.91147941414e-05
-2.93256606856e-05
1.7502352928e-05
-2.10301195394e-05
-2.17585969097e-05
8.57100898662e-06
-1.63599396462e-05
-1.27425898484e-05
-9.31355888708e-07
-1.00777431829e-05
-6.27018311644e-06
-4.51752263202e-06
-5.58289117725e-06
-2.83538863618e-06
-3.72950917109e-06
-2.88004388351e-06
-1.13317110877e-06
-2.41307137408e-06
-1.34809059676e-06
-3.76280185579e-07
-1.44707633069e-06
-4.76178193853e-07
-5.85282844339e-08
-8.69742446744e-07
5.37178288254e-08
5.55691059632e-08
-5.56227632096e-07
4.05249526385e-07
8.89321150871e-08
-3.84561685135e-07
6.62107759773e-07
9.22903249609e-08
-2.88753428388e-07
8.57030400828e-07
8.37078715833e-08
-2.2270878261e-07
1.00359388668e-06
7.46403718668e-08
-1.7118725234e-07
1.1061298609e-06
6.76950826102e-08
-1.24757063048e-07
1.16787119597e-06
6.27222128401e-08
-8.13192448998e-08
1.19129114126e-06
5.94859511484e-08
-4.24109593099e-08
1.18165129317e-06
5.79121921796e-08
-9.46907131182e-09
1.14614989228e-06
5.7364879047e-08
1.64320568178e-08
1.08984003024e-06
5.713225175e-08
3.72007434559e-08
1.01865913109e-06
5.72226849303e-08
5.20922723319e-08
9.37638504497e-07
5.75508492906e-08
6.16307256044e-08
8.51307514097e-07
5.81648295997e-08
6.66022069554e-08
7.63329570161e-07
5.88455564631e-08
6.79416261496e-08
6.76418698528e-07
5.94867887896e-08
6.65849931362e-08
5.92486696603e-07
6.00557429102e-08
6.33306196445e-08
5.12765060971e-07
6.04623904711e-08
5.8906642118e-08
4.38092840054e-07
6.06271418235e-08
5.37211748056e-08
3.68731270083e-07
6.04977039327e-08
4.837496569e-08
3.05711552305e-07
6.00406526334e-08
4.21146656675e-08
2.48241887679e-07
5.93750828811e-08
3.67191985552e-08
1.99175296871e-07
5.82782858264e-08
2.86998254985e-08
1.50557271395e-07
5.69077872069e-08
2.88608532348e-08
9.65326396875e-08
5.76212929342e-08
3.48472565884e-08
6.61858133615e-08
7.76563456522e-08
8.2193606273e-06
-1.03161065346e-05
-6.68398735116e-06
1.52568580176e-05
-1.60224585599e-05
-4.48308958105e-06
1.50835613598e-05
-2.66160827895e-05
4.8014027421e-06
8.11469764375e-06
-3.62475825828e-05
1.37279305577e-05
-8.32539591503e-07
-4.06994013343e-05
1.68043392279e-05
-9.96118220789e-06
-4.073009272e-05
1.69883572671e-05
-1.732988923e-05
-3.60815174068e-05
1.41279245094e-05
-1.89716112942e-05
-2.63798228163e-05
6.26242650141e-06
-1.47423098476e-05
-1.51829876624e-05
-1.77609371316e-06
-9.14030051409e-06
-7.34684311829e-06
-4.52439958176e-06
-5.11245410455e-06
-3.26155285574e-06
-3.6003710022e-06
-2.66396856172e-06
-1.26564513195e-06
-2.3165343896e-06
-1.25668948703e-06
-3.92264030496e-07
-1.39174385941e-06
-4.41045807273e-07
-3.23608447373e-08
-8.4354587865e-07