/*--------------------------------*- C++ -*----------------------------------*\
| =========                 |                                                 |
| \\      /  F ield         | OpenFOAM: The Open Source CFD Toolbox           |
|  \\    /   O peration     | Version:  3.0.1                                 |
|   \\  /    A nd           | Web:      www.OpenFOAM.org                      |
|    \\/     M anipulation  |                                                 |
\*---------------------------------------------------------------------------*/
FoamFile
{
    version     2.0;
    format      ascii;
    class       volScalarField;
    location    "1.1";
    object      nut;
}
// * * * * * * * * * * * * * * * * * * * * * * * * * * * * * * * * * * * * * //

dimensions      [0 2 -1 0 0 0 0];

internalField   nonuniform List<scalar> 
15984
(
0.000452731249628
0.000460708251233
0.000462743090889
0.00046301834391
0.000462975832992
0.000462967619189
0.000463025549362
0.000463040496091
0.000462941150643
0.000462744752414
0.000462539306111
0.000462391790087
0.000462292560189
0.000462232681226
0.000462203493345
0.000462195839946
0.000462193211369
0.000462190672419
0.000462187817681
0.000462184590396
0.000462181262935
0.00046217811473
0.000462174346276
0.000462170192061
0.000462165855181
0.00046216149948
0.000462157252005
0.000462153207613
0.000462149429646
0.000462145961781
0.000462142829378
0.000462140043512
0.000462137616371
0.0004621355013
0.000462133512533
0.000462128445276
0.000462092110056
0.000461799264619
0.000459937975825
0.000452314288459
0.000491835424611
0.000530993760795
0.00054139481655
0.000543067196808
0.000543178994103
0.000543149158168
0.000543228280686
0.000543450590942
0.000543504955772
0.00054320100131
0.000542760225689
0.000542379146181
0.000542114089041
0.000541941956378
0.000541840775877
0.0005417873337
0.000541754642247
0.000541732304025
0.000541716468833
0.00054170471161
0.000541696218847
0.000541692398274
0.000541689748038
0.000541686968887
0.000541684109508
0.0005416812371
0.00054167841579
0.000541675705094
0.000541673149793
0.000541670792439
0.000541668665816
0.000541666793188
0.000541665190213
0.000541663582445
0.000541659271895
0.000541624365833
0.000541338858591
0.000539387493594
0.000529073978795
0.000490401933168
0.000503643356752
0.000569507835809
0.000586999079437
0.000590093352382
0.000590397693273
0.000590395807839
0.000590580816888
0.000591086131431
0.000591357402484
0.000591013048975
0.000590415726941
0.000589910966368
0.000589553486929
0.000589329019118
0.000589195253024
0.000589122131445
0.000589077271282
0.000589046646568
0.000589024567695
0.000589008436361
0.000588996757453
0.00058898866564
0.000588985703157
0.000588983446657
0.000588981193985
0.000588978956405
0.00058897676455
0.00058897465549
0.00058897266042
0.000588970819083
0.000588969165286
0.000588967721756
0.000588966473653
0.000588964689739
0.000588955354727
0.000588875675783
0.000588281601942
0.000584646800376
0.000567126555718
0.000501749027107
0.00050731026054
0.000587533081612
0.000609378033413
0.000613210458668
0.000613534481366
0.000613572851628
0.000614031086577
0.00061515795373
0.000616018689545
0.000615826995939
0.000615132777164
0.000614522051107
0.000614100631255
0.000613838245752
0.000613684739569
0.000613599759788
0.000613548089822
0.000613513128068
0.000613487780491
0.000613469130951
0.000613455390358
0.000613445503812
0.000613439368794
0.000613437204879
0.000613435243728
0.000613433326052
0.000613431463708
0.000613429673967
0.000613427981742
0.000613426422322
0.000613425032909
0.000613423834454
0.000613422770212
0.000613420570963
0.000613405522757
0.000613280735675
0.000612409544345
0.000607450876853
0.000585098091791
0.000505159110727
0.000508508041455
0.00059514305925
0.00061903153936
0.000623452078991
0.000624067489718
0.000624196920267
0.000624707334312
0.000626058648267
0.000627891889706
0.000628085513272
0.000627360491027
0.000626662762637
0.000626179516538
0.000625884535394
0.000625715843276
0.000625622485229
0.000625566126508
0.000625528539859
0.000625501591456
0.000625481574143
0.000625466882363
0.000625456173461
0.000625448854364
0.000625445840296
0.000625444020228
0.000625442266182
0.000625440568189
0.000625438942229
0.000625437408498
0.000625436000529
0.000625434751301
0.000625433686034
0.000625432701079
0.000625430043601
0.000625409986455
0.000625248715829
0.000624169668042
0.000618305843294
0.000593048021197
0.000506198945867
0.000508925754093
0.00059774688918
0.000622500351967
0.000627831444239
0.00062839630069
0.000628555943734
0.000629298921496
0.000630777016306
0.000632971182683
0.000633714418284
0.000633016066433
0.000632251795774
0.000631714204558
0.000631389036805
0.000631205681177
0.000631106981882
0.000631046890779
0.000631007587589
0.000630979844613
0.000630959259477
0.00063094402429
0.000630933159235
0.000630925623601
0.00063092235891
0.000630920600392
0.000630918917626
0.000630917293226
0.000630915736442
0.000630914269441
0.000630912923605
0.000630911725228
0.000630910696531
0.000630909701418
0.000630906615074
0.000630882957239
0.000630697243238
0.000629486218949
0.000623085761508
0.000596279482712
0.000506517098915
0.000509084522079
0.000598243813027
0.000623708073845
0.000628947160033
0.000629341811184
0.000629518012946
0.000630540488543
0.000632500282188
0.000634769695656
0.000636082264192
0.000635437664252
0.000634623447501
0.000634041293116
0.000633690078194
0.000633493533215
0.000633390151313
0.000633327743851
0.000633287166368
0.000633258881978
0.000633238277059
0.000633223085005
0.000633212149827
0.000633204760376
0.000633201745914
0.000633200012023
0.000633198357827
0.000633196765546
0.000633195231165
0.000633193788794
0.000633192454981
0.000633191260146
0.000633190218565
0.000633189167246
0.000633185772062
0.000633159951326
0.000632960447357
0.000631677899407
0.00062500184631
0.000597469738765
0.000506611568321
0.000509162164867
0.000598108381258
0.000623830944118
0.000628855616278
0.000629056700389
0.000629242643833
0.000630524301391
0.000632890779881
0.000635264873925
0.00063700920042
0.000636408157135
0.000635555585073
0.000634938496232
0.000634566557997
0.000634359905453
0.000634251612026
0.000634188587059
0.000634146770511
0.000634118308518
0.000634097661151
0.00063408249598
0.000634071611008
0.000634064506943
0.000634061973806
0.000634060247914
0.000634058603674
0.000634057023564
0.000634055504887
0.000634054067816
0.000634052733112
0.000634051527623
0.000634050462512
0.00063404935552
0.000634045782712
0.000634018858617
0.000633812700453
0.000632496703659
0.000625697368605
0.000597865722379
0.000506637984158
0.000509214412825
0.000597951348453
0.000623718703914
0.000628581610522
0.000628623556443
0.000628816652944
0.000630293850276
0.000632910395975
0.000635389461758
0.000637364115707
0.000636780644891
0.000635899051239
0.000635257537247
0.000634871117535
0.000634657319314
0.00063454568732
0.000634481798449
0.000634439577565
0.000634410931219
0.00063439037596
0.000634375236774
0.000634364504874
0.000634357704299
0.000634355403614
0.000634353686439
0.000634352043174
0.000634350468227
0.000634348958846
0.000634347526345
0.000634346188344
0.000634344972744
0.000634343887047
0.00063434274844
0.000634339082297
0.0006343116735
0.000634102738496
0.000632773136772
0.000625925535923
0.000597984722344
0.000506644804074
0.000509244896319
0.000597891228187
0.000623647056003
0.00062843498407
0.000628380775021
0.000628579614104
0.000630167038859
0.000632892019035
0.000635434781819
0.000637490693449
0.000636908172692
0.000636010265019
0.000635356051602
0.000634961915434
0.000634744891913
0.000634631397497
0.000634566784799
0.000634524517127
0.000634495804362
0.000634475270583
0.000634460226849
0.000634449645156
0.00063444297845
0.000634440759695
0.000634439046271
0.00063443740684
0.000634435832582
0.000634434328632
0.000634432899941
0.000634431561853
0.000634430341247
0.000634429246534
0.000634428095059
0.000634424388452
0.000634396801775
0.000634186923588
0.000632852789928
0.000625989613642
0.000598015564035
0.000506646357586
0.000509245130803
0.000597892855071
0.000623648121034
0.000628436595232
0.000628383190654
0.000628581877225
0.000630168762184
0.000632893018793
0.000635436426734
0.000637490966789
0.000636908013343
0.000636010051103
0.000635355862976
0.000634961786556
0.000634744790593
0.000634631304685
0.000634566735894
0.000634524486116
0.000634495762354
0.000634475228199
0.000634460196512
0.000634449605107
0.000634442949888
0.000634440737087
0.000634439025418
0.000634437387347
0.000634435814327
0.000634434312064
0.000634432886104
0.000634431550234
0.000634430331392
0.000634429238572
0.000634428087472
0.000634424380465
0.000634396790385
0.000634186905938
0.000632852751931
0.000625989555913
0.000598015491119
0.000506646389718
0.000509214738035
0.000597955786849
0.000623721861346
0.000628586223567
0.00062862961581
0.000628822661577
0.000630298319934
0.000632913125679
0.000635394010538
0.000637364819161
0.000636780160657
0.000635898395636
0.000635256945938
0.000634870692875
0.000634656962385
0.00063454541119
0.000634481618634
0.000634439449895
0.000634410794949
0.000634390246787
0.000634375128603
0.000634364398405
0.000634357614066
0.000634355332678
0.000634353621445
0.000634351981591
0.000634350410719
0.000634348906773
0.000634347480198
0.000634346148462
0.000634344938375
0.000634343857837
0.000634342722371
0.000634339054635
0.00063431163274
0.000634102677598
0.00063277301313
0.0006259253522
0.000597984490807
0.000506644888137
0.000509162414229
0.000598114784634
0.000623835756285
0.000628862547367
0.000629064796431
0.000629250595165
0.000630530742974
0.000632894652713
0.000635271312539
0.000637009956021
0.000636407302053
0.000635554508973
0.000634937524164
0.000634565815719
0.00063435931969
0.000634251025221
0.000634188182564
0.000634146449055
0.000634118045283
0.000634097434855
0.000634082224866
0.000634071366908
0.000634064295801
0.000634061835372
0.000634060118524
0.000634058480757
0.000634056906611
0.000634055397333
0.000634053967645
0.000634052643719
0.000634051445434
0.000634050385272
0.000634049284595
0.000634045707759
0.000634018760659
0.00063381256684
0.000632496458963
0.000625697026949
0.000597865304801
0.000506638100447
0.000509084116331
0.000598250245105
0.000623713615435
0.000628955222659
0.000629350665354
0.000629526650203
0.000630547669706
0.000632504420782
0.000634776250266
0.000636082528148
0.000635436127232
0.000634621719401
0.000634039838299
0.000633688945826
0.000633492616518
0.00063338929872
0.000633327181178
0.000633286533897
0.000633258405436
0.000633237836083
0.000633222640901
0.000633211705227
0.000633204386435
0.000633201485866
0.000633199762859
0.000633198116818
0.0006331965315
0.000633195010454
0.000633193578621
0.000633192259904
0.000633191074068
0.00063319003918
0.000633188984421
0.000633185588423
0.000633159728801
0.000632960170971
0.000631677464195
0.000625001276887
0.000597469087044
0.000506611668555
0.000508924341073
0.00059775186989
0.00062250583704
0.000627839167603
0.00062840461539
0.000628564093637
0.000629305565967
0.000630780926052
0.000632976106186
0.000633713483209
0.000633013569989
0.000632249297809
0.000631712257884
0.0006313873804
0.000631204086516
0.0006311059345
0.000631045874871
0.000631006588722
0.00063097896232
0.000630958448225
0.000630943306152
0.000630932468638
0.000630925005054
0.000630921865223
0.000630920119962
0.000630918446514
0.000630916832267
0.000630915289607
0.000630913840275
0.000630912508085
0.000630911319418
0.000630910298827
0.000630909296463
0.000630906203416
0.000630882493314
0.000630696705077
0.000629485472596
0.000623084865381
0.000596278527331
0.000506517116338
0.000508505646246
0.000595145714706
0.000619042591892
0.000623458504224
0.000624074689045
0.00062420409825
0.000624712898102
0.000626069217698
0.000627893725355
0.000628082772211
0.000627356778797
0.000626659565361
0.000626176951517
0.000625882005188
0.000625713539617
0.000625620969391
0.000625564573379
0.000625527027408
0.000625500257899
0.000625480310729
0.000625465689095
0.000625455048214
0.000625447815537
0.000625444972991
0.000625443169065
0.000625441427703
0.000625439744173
0.000625438132633
0.00062543661778
0.000625435227763
0.000625433990621
0.000625432930827
0.000625431948441
0.000625429266115
0.000625409154417
0.000625247799671
0.000624168506137
0.000618304530337
0.000593046716638
0.00050619879576
0.000507306857354
0.000587532466835
0.000609383876807
0.00061322285987
0.000613550319399
0.000613588461335
0.000614043575534
0.000615163487946
0.000616017210764
0.000615822498873
0.000615128121625
0.000614518063521
0.000614097126623
0.00061383482755
0.000613682531316
0.000613597580893
0.000613546038713
0.000613511192243
0.000613485965719
0.000613467399541
0.000613453801962
0.000613443921035
0.000613438011449
0.000613435940274
0.000613433997396
0.000613432096446
0.000613430250152
0.000613428474364
0.000613426799329
0.000613425260928
0.000613423883243
0.00061342270029
0.000613421637655
0.000613419420193
0.000613404317041
0.000613279442265
0.000612408000453
0.000607449197758
0.00058509649783
0.000505158728951
0.00050363962031
0.000569505113537
0.000586999518116
0.000590099690346
0.00059040627711
0.000590404757296
0.000590587152208
0.000591087093014
0.000591353528944
0.000591007647808
0.000590410717962
0.000589906671318
0.00058954940627
0.000589326062691
0.000589192798911
0.000589119868242
0.00058907514475
0.000589044680543
0.000589022742149
0.000589006721736
0.000588995143553
0.000588987211965
0.000588984384136
0.0005889821418
0.000588979904665
0.000588977681549
0.000588975504488
0.000588973408201
0.0005889714307
0.000588969609624
0.000588967974197
0.000588966552959
0.000588965317673
0.000588963538473
0.000588954171185
0.000588874424846
0.000588280132673
0.000584645188196
0.000567125057339
0.000501748534558
0.000491832332602
0.000530989825522
0.000541392560741
0.000543068460836
0.000543181986392
0.000543152453287
0.000543230014693
0.000543448725172
0.000543500253268
0.000543195670706
0.000542755734326
0.000542374598505
0.000542110743991
0.000541939548634
0.000541838960018
0.000541785717897
0.000541753204603
0.000541731065774
0.000541715322114
0.000541703698188
0.000541695426169
0.000541691755762
0.000541689110736
0.000541686336042
0.000541683483044
0.000541680617048
0.000541677804138
0.000541675102387
0.000541672561734
0.000541670223222
0.000541668118046
0.000541666272003
0.000541664693983
0.00054166311167
0.000541658804987
0.000541623871898
0.000541338225693
0.000539386676137
0.000529073178364
0.000490401763747
0.000452729618291
0.000460705348682
0.000462739815361
0.000463015937196
0.000462974077456
0.000462965924792
0.000463023072795
0.00046303708941
0.000462937249484
0.000462740882726
0.000462536200669
0.00046238994752
0.00046229150753
0.000462232103731
0.00046220327128
0.000462195807
0.000462193338151
0.000462190954715
0.000462188252913
0.00046218515094
0.000462182103919
0.000462178950792
0.000462175179895
0.00046217102451
0.00046216668795
0.000462162334373
0.000462158091883
0.000462154055415
0.000462150290537
0.000462146840731
0.000462143730989
0.000462140974813
0.000462138580893
0.000462136505538
0.000462134555713
0.000462129520117
0.000462093180545
0.000461800213161
0.000459938780348
0.000452315034581
0.000490697874663
0.000529473238387
0.000539840128516
0.000541576827647
0.00054169334548
0.000541705006228
0.000541862753373
0.000542143217363
0.000542328412387
0.000542287336927
0.000542131587594
0.000541976678879
0.000541863411871
0.000541808597883
0.000541773656944
0.000541756715278
0.000541745716459
0.000541736620712
0.000541728867805
0.000541722322428
0.000541716969048
0.00054171204647
0.000541707589795
0.000541703529897
0.000541699841064
0.00054169650881
0.000541693520788
0.000541690868212
0.000541688529672
0.000541686497609
0.000541684757973
0.000541683291225
0.000541682100232
0.000541680828326
0.000541676889141
0.000541642043223
0.000541356574807
0.00053940489075
0.00052909164243
0.000490423480994
0.00130259094926
0.00196866413421
0.00213805731504
0.00216802600418
0.00216986338633
0.00217051356475
0.00217531197588
0.00218484037559
0.00219431168173
0.0021992377446
0.00220056118162
0.00220048761907
0.00219996138027
0.00219934568303
0.00219889380961
0.00219857033212
0.00219833259707
0.00219815481457
0.00219802160377
0.00219792236869
0.00219784942358
0.00219779884572
0.0021977710278
0.00219776038426
0.00219776245891
0.00219777366466
0.00219779104238
0.0021978122691
0.00219783556801
0.0021978597355
0.00219788398919
0.00219790774931
0.00219793030032
0.00219794247136
0.00219786216166
0.00219696718714
0.00219034866002
0.00215170864
0.0019759929944
0.00130223738541
0.00137200566906
0.00256167681314
0.00286563524084
0.00292983928343
0.00293840095861
0.00294011671895
0.00294557808024
0.00295617332345
0.00296596430657
0.00296984607759
0.0029695714898
0.0029681988997
0.00296687780851
0.00296581333877
0.00296507413815
0.0029645702442
0.00296421330121
0.00296395171272
0.00296375778283
0.00296361514546
0.00296351253936
0.00296344145404
0.00296339697249
0.00296337886804
0.00296338044171
0.00296339617453
0.00296342158575
0.00296345308075
0.00296348783793
0.00296352401151
0.00296356031123
0.0029635956551
0.00296362775789
0.00296363236625
0.00296340363573
0.00296133742471
0.00294759439056
0.00287487247118
0.00256733932334
0.00137069594027
0.00139571143637
0.00284371762234
0.00323634969727
0.0033249546232
0.0033380411549
0.00334082400284
0.00334848909194
0.00336303383909
0.00337578434277
0.00338009652114
0.00337878824255
0.00337635618705
0.00337434289831
0.0033729183366
0.00337196335219
0.00337133128775
0.00337089721883
0.00337058666113
0.00337036019005
0.0033701964796
0.00337008167172
0.003370005356
0.0033699591527
0.00336993794873
0.00336993969261
0.00336995831919
0.00336998840417
0.00337002566996
0.00337006668162
0.00337010924676
0.00337015169863
0.00337019250204
0.00337022724246
0.00337021408774
0.00336981290676
0.00336656769549
0.00334642158602
0.00324678907087
0.00285075052689
0.00139381901694
0.00140415597608
0.00297703031904
0.00342244701036
0.00352294548625
0.00353602813795
0.00353947927623
0.00355212564054
0.00357577017376
0.00359509634137
0.00360168216468
0.00360001263844
0.00359676404251
0.00359416374369
0.00359241816553
0.0035912886986
0.00359055704808
0.00359006621714
0.00358972188775
0.00358947453953
0.00358929760497
0.00358917527207
0.00358909570374
0.0035890494099
0.00358902863003
0.00358903076632
0.00358905127003
0.0035890841324
0.00358912469616
0.00358916929516
0.00358921537727
0.00358926101452
0.00358930423883
0.0035893385485
0.00358930623379
0.00358874999085
0.0035845209158
0.00355939145104
0.00344053887664
0.00298870680295
0.00140198701029
0.00140710501207
0.00303305075957
0.00350418015308
0.00360182700269
0.00361230550711
0.00361634558675
0.00363526105152
0.00367337674664
0.00370428507775
0.00371465259854
0.00371321014984
0.00370938388227
0.00370630649686
0.00370428517239
0.00370301136955
0.00370220321947
0.00370166919802
0.00370130055647
0.00370103907333
0.00370085306828
0.00370072515175
0.0037006426407
0.00370059525404
0.00370057435068
0.0037005769367
0.00370059869292
0.00370063335458
0.00370067597396
0.00370072280249
0.00370077108424
0.00370081867338
0.0037008633166
0.0037008971121
0.00370084996245
0.00370018124022
0.00369526103391
0.00366677787431
0.00353572182511
0.00305175535824
0.00140487400945
0.00140803610476
0.00305145563888
0.00352877330379
0.00362147510726
0.00362848549091
0.0036328745285
0.0036576494255
0.00370803299882
0.00375253230181
0.00376716985072
0.00376630244117
0.00376210857988
0.00375867011692
0.00375642908477
0.00375504179349
0.00375417534973
0.00375361029045
0.00375322428045
0.00375295309215
0.00375276158847
0.00375262947393
0.00375254434291
0.00375249526567
0.00375247366578
0.00375247663585
0.00375249917792
0.00375253504732
0.00375257896718
0.00375262734841
0.003752677125
0.00375272607495
0.00375277180029
0.00375280542877
0.00375274960479
0.0037520124296
0.00374667911055
0.00371624697205
0.00357838931288
0.00307790586955
0.00140585377599
0.00140828265234
0.0030547876393
0.00353149522447
0.00361940028976
0.00362351166173
0.00362804399433
0.00365710995653
0.00371616998957
0.0037709904605
0.0037891519481
0.00378888207899
0.00378446711612
0.00378077509294
0.00377837471893
0.00377690358827
0.00377599447339
0.00377540859687
0.00377501134252
0.00377473382463
0.00377453890774
0.00377440433724
0.00377431703101
0.00377426650528
0.00377424393176
0.00377424709846
0.00377427006793
0.00377430661806
0.00377435152163
0.00377440088019
0.00377445167896
0.00377450158052
0.0037745481004
0.00377458181502
0.00377452186897
0.00377374933945
0.00376820413201
0.0037367909517
0.003595619929
0.00308764077897
0.0014061640539
0.0014083405594
0.00305399976296
0.00352946382589
0.00361445046599
0.00361698973967
0.00362155518007
0.00365294751297
0.00371664468804
0.00377710195185
0.00379743163886
0.00379756448085
0.00379301718423
0.00378916343142
0.00378665980606
0.00378513446171
0.00378419705379
0.00378359849768
0.00378319433063
0.0037829132147
0.00378271634952
0.00378258041949
0.00378249146828
0.00378243983763
0.003782416887
0.00378242028405
0.00378244340397
0.0037824802896
0.00378252575497
0.00378257573977
0.0037826271165
0.00378267760582
0.00378272463351
0.00378275861825
0.00378269687788
0.00378190867767
0.00377626982427
0.00374442894861
0.00360185128644
0.00309088384587
0.00140625423496
0.00140835711925
0.00305312611631
0.00352813556625
0.00361197722508
0.00361398780371
0.00361853953037
0.0036507868762
0.00371624598769
0.00377881864109
0.00380007561909
0.00380038500512
0.00379577072045
0.00379183738652
0.00378928361889
0.00378773086556
0.00378677965373
0.00378617488312
0.00378576765648
0.00378548498716
0.00378528718908
0.00378515056519
0.00378506093776
0.00378500865968
0.00378498560031
0.00378498911138
0.00378501233176
0.00378504930767
0.0037850950322
0.00378514531938
0.00378519697203
0.00378524774291
0.00378529505474
0.00378532924913
0.00378526684205
0.00378447293912
0.0037788008118
0.00374680941901
0.00360374726431
0.00309180107103
0.00140627698863
0.00140835758682
0.00305314362427
0.00352816710398
0.00361202287807
0.00361404610335
0.00361859033046
0.00365084059774
0.00371627984384
0.00377883164012
0.00380007870217
0.00380038481889
0.00379576992853
0.00379183663844
0.00378928294943
0.00378773025944
0.00378677909579
0.00378617442325
0.0037857672677
0.00378548460837
0.00378528680899
0.00378515020239
0.00378506048776
0.00378500819184
0.00378498513683
0.00378498866086
0.00378501188459
0.00378504886493
0.0037850946045
0.00378514492174
0.00378519660025
0.00378524739484
0.00378529474081
0.00378532894555
0.00378526653013
0.00378447258208
0.00377880038948
0.00374680882685
0.00360374642401
0.00309180009192
0.00140627689145
0.00140834171944
0.00305404978546
0.00352955885446
0.00361458240311
0.00361714848877
0.00362171306288
0.00365308646266
0.00371673695809
0.00377713800006
0.00379743990463
0.00379756355535
0.00379301464344
0.00378916107973
0.00378665771547
0.00378513257972
0.00378419526192
0.00378359701849
0.00378319297085
0.00378291195912
0.00378271506312
0.00378257911642
0.0037824899826
0.00378243827457
0.00378241533629
0.00378241880045
0.00378244192718
0.00378247883287
0.00378252435459
0.00378257441073
0.00378262586931
0.00378267644571
0.00378272358225
0.00378275763532
0.00378269588134
0.00378190750703
0.00377626844576
0.00374442707463
0.00360184875551
0.0030908808018
0.0014062538902
0.00140828402777
0.00305486158761
0.00353164318648
0.00361960769591
0.00362374237385
0.00362827063905
0.00365731427816
0.00371630396034
0.0037710427811
0.00378916226726
0.00378887913606
0.00378446200894
0.00378077048761
0.00377837075764
0.00377689983274
0.00377599089121
0.00377540545447
0.00377500829556
0.0037747310218
0.00377453610148
0.00377440132714
0.00377431379262
0.00377426331956
0.00377424062513
0.00377424390547
0.00377426694053
0.00377430353175
0.00377434855162
0.00377439805685
0.00377444903006
0.00377449908421
0.00377454573732
0.0037745795899
0.00377451965558
0.00377374683416
0.0037682012615
0.00373678710521
0.00359561515282
0.00308763554249
0.00140616338012
0.00140803693692
0.00305153997109
0.00352894990653
0.00362173073641
0.00362875893875
0.00363313970806
0.0036578862426
0.00370818378114
0.00375258777476
0.00376717709165
0.00376629510858
0.00376209941755
0.00375866194486
0.00375642179478
0.00375503485717
0.00375416893901
0.00375360403967
0.00375321800787
0.00375294724019
0.00375275562852
0.00375262321966
0.00375253786677
0.00375248868401
0.00375246709622
0.00375247023128
0.00375249290037
0.00375252886223
0.00375257302704
0.00375262169311
0.0037526717937
0.00375272098625
0.00375276692293
0.00375280055018
0.00375274494581
0.00375200738879
0.00374667353908
0.00371624010007
0.00357838134541
0.00307789798092
0.00140585258843
0.00140710470906
0.00303313011744
0.00350435112191
0.00360208656595
0.0036125804882
0.00361661237477
0.00363549202851
0.00367351749385
0.003704329186
0.00371465063983
0.00371319524962
0.00370936824774
0.00370629235238
0.00370427214366
0.00370299890685
0.00370219155638
0.0037016575693
0.00370128874487
0.00370102756093
0.00370084151387
0.00370071328782
0.00370063056035
0.00370058306534
0.00370056221039
0.00370056508072
0.00370058703811
0.00370062193882
0.00370066488861
0.00370071220158
0.00370076090452
0.00370080879071
0.00370085375758
0.00370088754377
0.00370084069135
0.00370017144409
0.00369525048184
0.00366676607781
0.0035357095348
0.00305174412474
0.00140487206623
0.0014041544508
0.00297709183811
0.00342255981805
0.00352315395538
0.00353625787813
0.00353970733129
0.00355231148117
0.00357586193651
0.00359511820581
0.00360166691866
0.00359998802564
0.00359674000623
0.00359414157243
0.00359239730585
0.00359126916641
0.00359053824412
0.00359004738988
0.00358970294384
0.00358945556192
0.00358927847677
0.00358915590097
0.00358907624589
0.0035890297368
0.00358900899982
0.00358901152166
0.00358903237931
0.00358906565561
0.00358910665862
0.00358915179423
0.00358919837559
0.00358924436741
0.00358928791511
0.00358932250271
0.00358929002077
0.003588733506
0.00358450392837
0.00355937312047
0.00344052035354
0.00298869158083
0.00140198404306
0.00139570891837
0.00284375639712
0.00323641797626
0.00332507225475
0.00333817595192
0.0033409582978
0.00334859891711
0.00336308674353
0.0033757838467
0.00338006939559
0.00337875565084
0.00337632472082
0.00337431353829
0.00337289101882
0.00337193790055
0.00337130609597
0.00337087203554
0.00337056118683
0.00337033451301
0.00337017057834
0.00337005540862
0.0033699788241
0.00336993244348
0.00336991145545
0.00336991366951
0.0033699328041
0.00336996338585
0.00337000109964
0.00337004265271
0.0033700857357
0.00337012851354
0.00337016967661
0.00337020455509
0.00337019132169
0.00336978977026
0.00336654384166
0.00334639598422
0.00324676409808
0.00285073056579
0.00139381491048
0.00137200344705
0.00256169634855
0.00286567162472
0.00292991002558
0.00293848555357
0.00294020288924
0.00294564707
0.0029562009652
0.00296595274339
0.00296981558962
0.00296953824052
0.00296816585918
0.00296684707652
0.00296578517065
0.00296504769983
0.00296454377556
0.0029641866263
0.00296392476911
0.00296373073513
0.00296358779302
0.00296348471246
0.00296341328966
0.0029633689256
0.00296335117504
0.00296335319458
0.00296336938634
0.00296339523935
0.00296342710375
0.00296346227398
0.00296349883983
0.00296353540354
0.00296357101277
0.0029636031539
0.00296360773806
0.00296337848808
0.00296131151808
0.00294756650216
0.00287484477317
0.0025673169567
0.0013706913166
0.00130259113745
0.00196867573932
0.00213808124347
0.00216807540527
0.00216992258576
0.00217057435183
0.00217536182834
0.00218486231722
0.002194306356
0.00219921873094
0.002200539724
0.00220046450641
0.00219993786756
0.00219932564437
0.00219887479779
0.00219855122088
0.00219831328285
0.00219813515459
0.00219800176652
0.00219790213616
0.00219782869741
0.00219777807878
0.00219775040179
0.00219773994723
0.00219774225627
0.00219775367674
0.00219777126458
0.00219779266715
0.00219781617424
0.00219784055308
0.00219786496286
0.0021978888705
0.00219791144914
0.00219792363866
0.0021978429603
0.0021969473763
0.00219032692564
0.00215168624965
0.00197597370323
0.00130223308915
0.000490696796056
0.000529470978208
0.000539837733698
0.000541575920734
0.000541693302621
0.000541705170729
0.000541861915353
0.00054214064982
0.000542324621049
0.000542283298419
0.000542128064912
0.000541973534731
0.000541861314159
0.00054180666091
0.000541772136737
0.000541755326821
0.000541744392034
0.000541735257338
0.000541727592756
0.000541720988486
0.000541715546129
0.000541710595246
0.000541706109416
0.000541702028724
0.000541698322406
0.0005416949747
0.000541691975935
0.000541689316368
0.000541686984018
0.000541684965029
0.000541683243098
0.000541681805037
0.000541680639274
0.000541679395923
0.000541675450161
0.000541640531733
0.000541354818472
0.000539402700894
0.000529089281292
0.000490422336315
0.000501993391958
0.000566962983214
0.00058437494087
0.000587656617891
0.000588018647928
0.000588079053385
0.000588327550859
0.000588805301165
0.000589229979001
0.000589365692655
0.000589312385244
0.000589216231057
0.00058913207054
0.000589088662923
0.000589068493791
0.000589057684087
0.000589050945606
0.000589045210768
0.000589039775549
0.000589034642544
0.000589029670581
0.000589025007329
0.000589020673558
0.000589016665834
0.000589012990625
0.000589009654011
0.000589006650689
0.000589003975306
0.000589001614139
0.000588999550364
0.000588997769359
0.000588996230433
0.000588994888055
0.000588992873759
0.000588983212788
0.000588902950005
0.000588307626782
0.000584672990299
0.000567154269777
0.000501788803326
0.00137023106227
0.00254855880907
0.00284439025982
0.00290297647822
0.00290905863128
0.00291096687975
0.00291923447325
0.00293507379801
0.00295136634534
0.00296083850956
0.0029644152886
0.00296539603303
0.00296536692968
0.00296495924895
0.00296456470567
0.00296426786019
0.0029640475909
0.00296388582414
0.00296376895564
0.00296368658172
0.00296363062023
0.0029635959757
0.00296358026212
0.00296357852423
0.00296358673281
0.00296360173223
0.00296362101896
0.00296364265711
0.00296366523016
0.00296368780819
0.00296370981001