/*--------------------------------*- C++ -*----------------------------------*\
| =========                 |                                                 |
| \\      /  F ield         | OpenFOAM: The Open Source CFD Toolbox           |
|  \\    /   O peration     | Version:  3.0.1                                 |
|   \\  /    A nd           | Web:      www.OpenFOAM.org                      |
|    \\/     M anipulation  |                                                 |
\*---------------------------------------------------------------------------*/
FoamFile
{
    version     2.0;
    format      ascii;
    class       volScalarField;
    location    "1.1";
    object      p_rgh;
}
// * * * * * * * * * * * * * * * * * * * * * * * * * * * * * * * * * * * * * //

dimensions      [1 -1 -2 0 0 0 0];

internalField   nonuniform List<scalar> 
15984
(
4890.16852793
4890.05725338
4889.82942601
4889.61051621
4889.52817566
4889.61804149
4889.88267465
4890.28163009
4890.71094097
4891.07259292
4891.33808442
4891.51683773
4891.63710598
4891.72887477
4891.81349269
4891.90135125
4891.9937225
4892.08585684
4892.17025641
4892.23969393
4892.28895472
4892.31636384
4892.3219339
4892.30749745
4892.27582208
4892.23024125
4892.17432728
4892.11158439
4892.04522198
4891.97802885
4891.91232982
4891.84999793
4891.79248891
4891.74086818
4891.69589199
4891.65798064
4891.62748444
4891.60444652
4891.58920013
4891.58196233
4890.15069956
4890.04970312
4889.81431297
4889.58192762
4889.49271619
4889.58220425
4889.85352112
4890.26633595
4890.70859308
4891.07673265
4891.34321283
4891.52055314
4891.63974983
4891.73097065
4891.81508652
4891.90274138
4891.99493772
4892.08677308
4892.17081432
4892.23993378
4892.28908342
4892.31593464
4892.32127624
4892.30664782
4892.27482044
4892.22912958
4892.17314159
4892.11035683
4892.04397657
4891.97678408
4891.91109949
4891.84879193
4891.79131574
4891.73973281
4891.69480123
4891.65693281
4891.62647981
4891.60348412
4891.588349
4891.58138994
4890.07858983
4889.96800696
4889.68573538
4889.40330038
4889.28857343
4889.37793348
4889.6759987
4890.14019245
4890.63766766
4891.04315161
4891.32906946
4891.51571358
4891.6390061
4891.73229057
4891.81721444
4891.90506974
4891.99714629
4892.08867013
4892.17226135
4892.24092447
4892.2897063
4892.31607856
4892.32126807
4892.30645981
4892.27448306
4892.22867946
4892.17261521
4892.1097834
4892.04337961
4891.97618158
4891.91050591
4891.84821815
4891.79077114
4891.73922351
4891.69433195
4891.65650284
4891.6260874
4891.60313649
4891.58811257
4891.58144986
4889.96763236
4889.8268227
4889.46561511
4889.10581959
4888.95177235
4889.04139688
4889.37978159
4889.92382852
4890.50950964
4890.97785823
4891.29886713
4891.50315926
4891.63483943
4891.73234238
4891.8191893
4891.90770666
4891.99980001
4892.09097758
4892.17408736
4892.24221953
4892.29056798
4892.31689735
4892.32146633
4892.30648741
4892.2743713
4892.22846501
4892.17233111
4892.10945758
4892.04303372
4891.97583233
4891.91016719
4891.84790074
4891.79048371
4891.73897147
4891.69411708
4891.65632477
4891.6259383
4891.60302613
4891.58808915
4891.58160522
4889.82913242
4889.64092191
4889.17983863
4888.72650076
4888.52754898
4888.61683935
4889.00318232
4889.64231225
4890.33734389
4890.88655026
4891.25451342
4891.48356209
4891.62725426
4891.73074088
4891.82064498
4891.91030826
4892.00255557
4892.09343527
4892.1760569
4892.24367045
4892.29158001
4892.31765903
4892.32204622
4892.30671658
4892.27446845
4892.22846891
4892.17227158
4892.10935894
4892.04291513
4891.97570886
4891.91005145
4891.84780294
4891.79041171
4891.73892964
4891.69410532
4891.6563431
4891.62597863
4891.60309141
4891.58821569
4891.58180174
4889.67866198
4889.43473404
4888.86654808
4888.31825413
4888.07362982
4888.1631667
4888.59751892
4889.33405492
4890.14413086
4890.7814928
4891.20204155
4891.45956273
4891.61740332
4891.72797982
4891.82138501
4891.91259278
4892.00513476
4892.09577497
4892.17792782
4892.24508457
4892.29259179
4892.31838179
4892.3226097
4892.30701429
4892.27465078
4892.22856776
4892.17231454
4892.10936575
4892.04290273
4891.97569047
4891.91003834
4891.84780449
4891.7904337
4891.73897781
4891.69417606
4891.65643635
4891.62608853
4891.60321881
4891.5883803
4891.58197433
4889.53366285
4889.23485779
4888.56756816
4887.9336117
4887.64975446
4887.7390817
4888.21537671
4889.03932149
4889.95600872
4890.67707906
4891.14896735
4891.43468019
4891.60685862
4891.72464206
4891.82152763
4891.91440378
4892.00733842
4892.09780129
4892.17956597
4892.24630529
4892.29347505
4892.3189881
4892.32286228
4892.30727864
4892.27482644
4892.22867328
4892.1723704
4892.10939036
4892.04291012
4891.97569219
4891.91004387
4891.84782184
4891.79046835
4891.73903214
4891.69425059
4891.65652997
4891.62619383
4891.60333605
4891.58852038
4891.58210039
4889.4105398
4889.06576883
4888.31781373
4887.61622391
4887.30310147
4887.39214753
4887.89973858
4888.7926817
4889.79590252
4890.58690967
4891.10244191
4891.41256096
4891.5972548
4891.72142315
4891.82147126
4891.91550709
4892.00913535
4892.09938059
4892.18084286
4892.24725824
4892.29415655
4892.31944085
4892.3228119
4892.30745368
4892.27494528
4892.22873516
4892.17239237
4892.10938644
4892.04289223
4891.97566988
4891.91002516
4891.84781243
4891.79047258
4891.73905078
4891.69428444
4891.65657803
4891.62625393
4891.60340518
4891.58860528
4891.58217273
4889.32224111
4888.94511576
4888.14149003
4887.39350139
4887.0602388
4887.14898006
4887.67779634
4888.61767512
4889.68108518
4890.52137634
4891.06831905
4891.39615126
4891.59002623
4891.71890893
4891.82127385
4891.91624366
4892.0102073
4892.10043468
4892.18168606
4892.24787765
4892.29459135
4892.31971934
4892.32282494
4892.30753949
4892.27498592
4892.22873483
4892.17236231
4892.10933839
4892.04283488
4891.97561059
4891.90996969
4891.84776496
4891.79043527
4891.73902461
4891.69426914
4891.65657305
4891.62625907
4891.60341783
4891.58863001
4891.58219214
4889.27718804
4888.88338412
4888.05123847
4887.27920902
4886.93505331
4887.02340318
4887.5633052
4888.5273871
4889.62139337
4890.48718138
4891.05042641
4891.38754785
4891.58620705
4891.71752195
4891.82109952
4891.91653252
4892.01064218
4892.10088716
4892.18205255
4892.24814054
4892.29476585
4892.3198149
4892.32294691
4892.30753666
4892.27494715
4892.22867128
4892.1722821
4892.1092487
4892.04274131
4891.97551839
4891.90988203
4891.84768417
4891.79036201
4891.73895952
4891.6942117
4891.65652272
4891.6262161
4891.60337985
4891.58859961
4891.58216088
4889.27935649
4888.88538087
4888.05276426
4887.2797978
4886.93461693
4887.0226128
4887.56296228
4888.52738513
4889.62160356
4890.48743316
4891.05070287
4891.38777778
4891.58633088
4891.71751712
4891.82098684
4891.91636695
4892.0104763
4892.10073538
4892.18192204
4892.24803068
4892.29466844
4892.31971736
4892.32285066
4892.30742882
4892.27483102
4892.2285486
4892.17215626
4892.10912251
4892.04261787
4891.97539949
4891.90976888
4891.847577
4891.79026044
4891.7388629
4891.69411936
4891.65643404
4891.62613134
4891.60329925
4891.58852199
4891.58208493
4889.32878027
4888.95109634
4888.14623316
4887.39557948
4887.05942468
4887.14716489
4887.67699091
4888.61779833
4889.68174885
4890.52216732
4891.06916038
4891.39683976
4891.59038532
4891.71888232
4891.82093466
4891.91575112
4892.00968759
4892.09997926
4892.1812994
4892.2475511
4892.29430083
4892.31943014
4892.32252943
4892.30721767
4892.27463992
4892.22836964
4892.17198692
4892.10896266
4892.04246671
4891.97525603
4891.90963224
4891.84744567
4891.79013296
4891.73873726
4891.69399436
4891.65630967
4891.62600747
4891.60317866
4891.58840063
4891.5819665
4889.42138449
4889.07583304
4888.3261144
4887.62076778
4887.30326644
4887.39052374
4887.89920268
4888.79327682
4889.7971745
4890.58834347
4891.10388239
4891.41369835
4891.59782093
4891.72134988
4891.82089603
4891.91469351
4892.00828617
4892.09863308
4892.18021361
4892.24672532
4892.29368128
4892.31896721
4892.32228995
4892.30692403
4892.27437764
4892.22813563
4892.17177535
4892.10876857
4892.04228682
4891.97508657
4891.9094703
4891.84728789
4891.78997686
4891.73858025
4891.69383545
4891.65614868
4891.62584666
4891.60301806
4891.58823415
4891.58180722
4889.54877716
4889.24898595
4888.57974607
4887.94142681
4887.65232562
4887.73906415
4888.21596825
4889.04085783
4889.95810024
4890.67925499
4891.15104149
4891.43624813
4891.60758723
4891.72447795
4891.82071048
4891.91324002
4892.00621447
4892.09679041
4892.17871647
4892.24558457
4892.2928235
4892.31834742
4892.32212579
4892.30655562
4892.27405086
4892.22785341
4892.1715258
4892.1085434
4892.04207958
4891.97489183
4891.9092828
4891.84710284
4891.78979094
4891.73839002
4891.69364008
4891.65594795
4891.62564393
4891.60281538
4891.58802297
4891.5816087
4889.69785164
4889.45278237
4888.88249141
4888.3297927
4888.0795699
4888.16571249
4888.59989981
4889.33690524
4890.14719424
4890.78451966
4891.20478751
4891.46151031
4891.61825136
4891.72768694
4891.82025557
4891.91119902
4892.00373398
4892.09453675
4892.17688599
4892.24419611
4892.2917824
4892.31758697
4892.32172269
4892.30611884
4892.27368599
4892.22754629
4892.17126098
4892.10830772
4892.04186406
4891.97468943
4891.90908636
4891.8469063
4891.7895898
4891.73817994
4891.69342128
4891.65571988
4891.62541106
4891.60257995
4891.58777603
4891.58137424
4889.85202155
4889.66266412
4889.19911477
4888.74154737
4888.53674735
4888.62224004
4889.00763706
4889.64666908
4890.34150572
4890.89048842
4891.25791707
4891.48591701
4891.62815942
4891.73024453
4891.81926042
4891.90865048
4892.00092379
4892.09201004
4892.17484964
4892.24264582
4892.29064437
4892.31673705
4892.32100125
4892.30566982
4892.27333803
4892.22727068
4892.17103399
4892.10811386
4892.04169117
4891.97452824
4891.90892869
4891.84674556
4891.78941911
4891.73799717
4891.69322454
4891.65550805
4891.62519067
4891.60235384
4891.58752417
4891.58111328
4889.99377544
4889.85153334
4889.48802243
4889.12356858
4888.96439258
4889.04959479
4889.38639083
4889.92965531
4890.51483292
4890.98273961
4891.30296458
4891.50584803
4891.63572815
4891.73162732
4891.81762957
4891.90580295
4891.99797969
4892.08940072
4892.17276397
4892.24108891
4892.2895291
4892.31587212
4892.32039425
4892.30531824
4892.27310397
4892.22711917
4892.17093939
4892.10805475
4892.04165262
4891.97449875
4891.90889882
4891.84670724
4891.78936563
4891.7379243
4891.69313056
4891.65539398
4891.62506373
4891.60220889
4891.58733022
4891.58085097
4890.10730684
4889.99534115
4889.71028975
4889.42396989
4889.3040509
4889.38894502
4889.68465616
4890.14763505
4890.644164
4891.04902307
4891.33383432
4891.51870166
4891.63986656
4891.73152767
4891.81538664
4891.90296105
4891.99517308
4892.08697271
4892.17085725
4892.23972333
4892.28858321
4892.3149444
4892.32010726
4892.30519504
4892.2731106
4892.22722078
4892.17110416
4892.10825783
4892.04187493
4891.97472663
4891.90912136
4891.8469155
4891.789552
4891.73808345
4891.69326084
4891.65549502
4891.62514154
4891.60225475
4891.58729899
4891.58064702
4890.18145642
4890.07914289
4889.84137639
4889.60509478
4889.51115921
4889.59640301
4889.86502816
4890.27587523
4890.71675611
4891.08373642
4891.34869772
4891.52383544
4891.6407046
4891.72998101
4891.81305317
4891.90044866
4891.99282506
4892.08500174
4892.16935784
4892.2387021
4892.28788999
4892.31478811
4892.32006888
4892.30533076
4892.27339033
4892.22760705
4892.17156207
4892.10875901
4892.04239763
4891.97525524
4891.90964343
4891.8474215
4891.79003351
4891.73853442
4891.69367706
4891.65587694
4891.62548994
4891.60256302
4891.5875045
4891.5805718
4890.20118423
4890.08908882
4889.85934464
4889.6372111
4889.55067036
4889.6365351
4889.89806662
4890.29441106
4890.72147875
4891.08113902
4891.34440535
4891.52051454
4891.63808383
4891.72776668
4891.8112612
4891.89887579
4891.99150251
4892.08403015
4892.16879235
4892.23850559
4892.28788981
4892.31526819
4892.32076751
4892.30621952
4892.27442767
4892.22875067
4892.1727752
4892.11001064
4892.04366409
4891.97651935
4891.91089242
4891.84864637
4891.79122624
4891.73969044
4891.69479005
4891.65694855
4891.62651964
4891.60354928
4891.58837521
4891.58116339
4890.21087677
4890.08466515
4889.84493267
4889.61829263
4889.53308732
4889.62342542
4889.89151988
4890.29449273
4890.72686951
4891.08912083
4891.35133912
4891.52486979
4891.63807573
4891.72578745
4891.80866207
4891.89703536
4891.9913457
4892.08600786
4892.17277588
4892.2440648
4892.29496437
4892.32247004
4892.32776904
4892.31281
4892.28042831
4892.23403909
4892.17729533
4892.11376684
4892.04670113
4891.97890255
4891.91269793
4891.84995572
4891.79212473
4891.74025815
4891.69510316
4891.65705887
4891.62645562
4891.60333292
4891.58795481
4891.58073104
4890.18282604
4890.06716364
4889.82987094
4889.60247359
4889.5170106
4889.60781007
4889.87747376
4890.28334185
4890.71807954
4891.08215128
4891.34565701
4891.51991822
4891.63619631
4891.72388586
4891.80756227
4891.89648885
4891.99108693
4892.08581264
4892.17250866
4892.24362417
4892.29415566
4892.32186048
4892.32705587
4892.31202162
4892.27958072
4892.23314438
4892.1763657
4892.11280922
4892.04572202
4891.97790719
4891.91169049
4891.84893966
4891.79110647
4891.73923918
4891.69409449
4891.65605425
4891.62546566
4891.60236235
4891.58708108
4891.58029187
4890.10369798
4889.97183917
4889.69197456
4889.42229878
4889.31618515
4889.40754296
4889.70019633
4890.15065698
4890.63442215
4891.03459156
4891.32020025
4891.50695918
4891.62943106
4891.72226789
4891.8072265
4891.89712786
4891.99210154
4892.08677347
4892.17323436
4892.24406515
4892.29424907
4892.32196624
4892.32689186
4892.31171578
4892.27917608
4892.23266789
4892.17583445
4892.11224168
4892.045129
4891.97729616
4891.91107044
4891.8483176
4891.79049061
4891.73863495
4891.69350975
4891.65548791
4891.62492275
4891.60185736
4891.58671777
4891.58030078
4889.98606151
4889.81937431
4889.46633104
4889.12779822
4888.98804139
4889.07988289
4889.40892584
4889.93025379
4890.49413164
4890.9554164
4891.27878005
4891.48718497
4891.62073449
4891.71937408
4891.80774294
4891.89868624
4891.99400045
4892.08855257
4892.17460278
4892.24501579
4892.29480863
4892.32199445
4892.32710376
4892.31172842
4892.27906904
4892.23247486
4892.1755853
4892.11195331
4892.04481638
4891.97696959
4891.91073968
4891.84799208
4891.79017977
4891.73834577
4891.69324621
4891.65525351
4891.62470981
4891.60168122
4891.58665947
4891.58047255
4889.84392298
4889.63245172
4889.19324791
4888.77733268
4888.60042471
4888.69247138
4889.0620702
4889.66313485
4890.32033475
4890.85518862
4891.22604639
4891.46185558
4891.60992023
4891.71575673
4891.80823487
4891.90061144
4891.99634344
4892.09072491
4892.17634389
4892.24625169
4892.2956431
4892.32248671
4892.32741658
4892.31195138
4892.27916894
4892.23249142
4892.17554419
4892.11187459
4892.04471291
4891.97685404
4891.91062247
4891.84788333
4891.79008824
4891.73827804
4891.69320434
4891.65523833
4891.6247116
4891.60170498
4891.58676651
4891.58067989
4889.69136609
4889.43167664
4888.9046414
4888.41008386
4888.1956506
4888.28774177
4888.69854432
4889.38103179
4890.13312109
4890.74557624
4891.16733835
4891.43358933
4891.59761451
4891.71187385
4891.8081227
4891.90272808
4891.99876693
4892.09293653
4892.17821082
4892.24760624
4892.29658082
4892.32313446
4892.32779069
4892.31227574
4892.27938509
4892.23262909
4892.17562802
4892.11192248
4892.04473903
4891.9768687
4891.91063681
4891.84790649
4891.79012874
4891.73833977
4891.69328846
4891.65534314
4891.62482794
4891.60182952
4891.58693722
4891.58086817
4889.54464613
4889.23920977
4888.63079266
4888.06335479
4887.81464887
4887.90600312
4888.35500365
4889.11279949
4889.9534337
4890.63905065
4891.10978318
4891.40558094
4891.58530441
4891.70774578
4891.80816252
4891.90433879
4892.00099712
4892.09500675
4892.1798104
4892.24890974
4892.29747088
4892.32377512
4892.32835777
4892.31260479
4892.27961694
4892.23279351
4892.17574619
4892.11200784
4892.04480398
4891.97692514
4891.91069314
4891.84797194
4891.79020864
4891.73843819
4891.69340273
4891.65547208
4891.62496697
4891.60196935
4891.58710004
4891.58101361
4889.42000066
4889.0760599
4888.40034439
4887.77230147
4887.49497005
4887.58556453
4888.06597261
4888.88628741
4889.80037915
4890.5478399
4891.06009238
4891.38116044
4891.57449082
4891.70403702
4891.80794302
4891.90575408
4892.00273147
4892.09667985
4892.18117352
4892.24989655
4892.29823974
4892.32430494
4892.32897664
4892.3128672
4892.27979551
4892.2329174
4892.17582889
4892.11206507
4892.04484744
4891.97696064
4891.91073076
4891.84801818
4891.79026677
4891.73851098
4891.69348757
4891.65556729
4891.62506746
4891.6020704
4891.58721347
4891.58110563
4889.33065326
4888.95888621
4888.23533358
4887.56364467
4887.26535969
4887.35511504
4887.85805821
4888.72301031
4889.68963035
4890.48161101
4891.02391267
4891.36328281
4891.56647396
4891.70122867
4891.80770057
4891.90654729
4892.00398755
4892.09781235
4892.18209749
4892.25055729
4892.29875777
4892.32463697
4892.32925369
4892.31301202
4892.27988435
4892.23296552
4892.17584774
4892.11206737
4892.04483804
4891.97694893
4891.91072219
4891.84801701
4891.79027552
4891.73853031
4891.69351587
4891.65560269
4891.62510671
4891.60211253
4891.58726354
4891.58113939
4889.28514833
4888.89866066
4888.14973124
4887.45455743
4887.14460659
4887.23369467
4887.7484894
4888.63751973
4889.63159364
4890.447042
4891.005047
4891.35397513
4891.56229491
4891.69974188
4891.80750402
4891.90689417
4892.00449661
4892.09832362
4892.18251085
4892.25085047
4892.29896442
4892.32475345
4892.32921523
4892.31302664
4892.27987102
4892.23292752
4892.17579456
4892.11200384
4892.0447704
4891.97688344
4891.91066113
4891.8479625
4891.79022855
4891.7384907
4891.69348254
4891.65557416
4891.62508218
4891.60209135
4891.58724817
4891.58111587
4889.28762368
4888.90090432
4888.1513571
4887.45489549
4887.14370791
4887.23239354
4887.74803581
4888.63756324
4889.63193576
4890.44741584
4891.00542554
4891.35427656
4891.56246075
4891.69976227
4891.80740813
4891.90673422
4892.00431954
4892.09816984
4892.18238249
4892.25074396
4892.29887052
4892.32465841
4892.32911048
4892.31291854
4892.27975483
4892.23280486
4892.17566869
4892.11187832
4892.04464718
4891.97676531
4891.91054885
4891.84785592
4891.79012759
4891.73839456
4891.69339022
4891.65548548
4891.62499703
4891.60201084
4891.58717069
4891.58103854
4889.33805136
4888.96566421
4888.24035001
4887.56513298
4887.26330736
4887.35225307
4887.85707121
4888.72324157
4889.69073957
4890.4827762
4891.0250564
4891.3641785
4891.5669634
4891.70127991
4891.80741735
4891.90605999
4892.00350659
4892.09735755
4892.18171856
4892.25023702
4892.29847176
4892.32435657
4892.32894698
4892.31269124
4892.27953865
4892.23260011
4892.17547357
4892.11169224
4892.04447172
4891.97659688
4891.91038779
4891.84770042
4891.7899755
4891.73824505
4891.69324261
4891.65533993
4891.62485522
4891.60187445
4891.58703601
4891.5809108
4889.43228615
4889.08741093
4888.40929629
4887.77625725
4887.49363071
4887.58283831
4888.06506284
4888.88714716
4889.80230521
4890.54984616
4891.06204487
4891.38262679
4891.57526245
4891.70408608
4891.80744251
4891.90493837
4892.00192531
4892.09594488
4892.18055833
4892.24938414
4892.29777922
4892.32384459
4892.32850006
4892.3123447
4892.27923117
4892.23231893
4892.17521486
4892.11145155
4892.04424519
4891.97638307
4891.91018154
4891.84749923
4891.78977629
4891.73804555
4891.6930428
4891.65514061
4891.62465963
4891.60168677
4891.58684744
4891.58073611
4889.56150262
4889.25506797
4888.64408319
4888.07113285
4887.81611145
4887.90508182
4888.3554394
4889.11493715
4889.95641285
4890.64206434
4891.11250989
4891.40758078
4891.58633401
4891.70776047
4891.80743051
4891.90332008
4891.9998881
4892.0940169
4892.17898518
4892.24821587
4892.29684186
4892.32315763
4892.32777848
4892.311897
4892.27884802
4892.23197986
4892.17490639
4892.11116717
4892.04398129
4891.97613293
4891.90994073
4891.8472628
4891.78953948
4891.73780609
4891.6928005
4891.6548965
4891.62441875
4891.60145604
4891.58661377
4891.58051999
4889.71238909
4889.4517406
4888.92231461
4888.42230545
4888.20130309
4888.28988192
4888.70132437
4889.38492758
4890.13739674
4890.74962968
4891.17085254
4891.43613026
4891.59879927
4891.7117905
4891.80721319
4891.90138118
4891.99740285
4892.09173062
4892.17718258
4892.24675513
4892.29580338
4892.32237378
4892.32705935
4892.31140119
4892.27843123
4892.23161784
4892.17458514
4892.11087518
4892.04371063
4891.97587928
4891.90969671
4891.84702218
4891.78929642
4891.73755771
4891.69254513
4891.65463586
4891.62416123
4891.60120518
4891.58635231
4891.5802707
4889.86864466
4889.65619251
4889.21487084
4888.79377824
4888.61061417
4888.6984382
4889.06764492
4889.66901211
4890.32593783
4890.86028152
4891.23032747
4891.4648206
4891.61119683
4891.71556558
4891.80693919
4891.89905432
4891.99476343
4892.08931572
4892.17519685
4892.24526218
4892.29474563
4892.32160874
4892.32666458
4892.31093467
4892.27805587
4892.23130688
4892.17431995
4892.11064219
4892.04350151
4891.97568677
4891.90951455
4891.8468418
4891.78911235
4891.73736324
4891.69234026
4891.65442127
4891.62394428
4891.60099054
4891.58610478
4891.58000107
4890.01382217
4889.84618361
4889.49102207
4889.14805117
4889.00233116
4889.08938467
4889.41729259
4889.93798589
4890.50104621
4890.96155997
4891.28383897
4891.4904932
4891.62206393
4891.71890842
4891.80632501
4891.8968597
4891.99223663
4892.08703444
4892.17332848
4892.2439261
4892.29381915
4892.32102095
4892.32607786
4892.31058494
4892.27782071
4892.23114566
4892.17420808
4892.11056454
4892.04344803
4891.97564966
4891.90948654
4891.84681563
4891.78908038
4891.73731855
4891.69228154
4891.65434596
4891.6238611
4891.60089585
4891.58594196
4891.57973702
4890.13377617
4890.00096165
4889.71926332
4889.44541193
4889.33391589
4889.42062098
4889.71117484
4890.16014316
4890.64272897
4891.04173853
4891.32594271
4891.51060614
4891.6307864
4891.72162183
4891.80553721
4891.89509882
4891.99016863
4892.08513723
4892.17186968
4892.2429027
4892.29319424
4892.32095029
4892.32576457
4892.31047337
4892.27782264
4892.23122247
4892.17433561
4892.1107267
4892.04363409
4891.97585186
4891.90969777
4891.84702943
4891.78928852
4891.73751448
4891.69246073
4891.6545054
4891.62400728
4891.60101337
4891.58595682
4891.57952601
4890.21477793
4890.09837855
4889.85935079
4889.62837102
4889.53823212
4889.62457067
4889.89135802
4890.29505935
4890.72790925
4891.09042483
4891.352033
4891.52381954
4891.63738745
4891.72313337
4891.80563113
4891.89424749
4891.98902523
4892.08407861
4892.17108371
4892.24242562
4892.29307143
4892.32076318
4892.32587912
4892.31072789
4892.27816948
4892.23163838
4892.17479886
4892.11122305
4892.04415345
4891.97638863
4891.91024647
4891.84758423
4891.78984206
4891.7380617
4891.69299387
4891.65502538
4891.62450853
4891.60148234
4891.58629394
4891.57951051
4890.24452662
4890.11793415
4889.8769918
4889.64734128
4889.55780958
4889.64401443
4889.9087472
4890.30884886
4890.73870859
4891.09864185
4891.35840466
4891.52899303
4891.63936693
4891.72483012
4891.80648254
4891.89456999
4891.98912737
4892.08418313
4892.17132428
4892.24284882
4892.29378204
4892.32137592
4892.3266076
4892.31153279
4892.27903174
4892.23254339
4892.17573647
4892.11218486
4892.04513313
4891.97738302
4891.91125226
4891.84859866
4891.79085957
4891.73908086
4891.69400443
4891.65603265
4891.62549998
4891.60244964
4891.58715348
4891.57995217
4890.35164277
4890.21894559
4889.98086162
4889.7568604
4889.67479175
4889.76555484
4890.02905893
4890.42014616
4890.83332267
4891.17206603
4891.41000967
4891.55614351
4891.65036902
4891.72486728
4891.80176865
4891.88988308
4891.98738305
4892.08690126
4892.17806742
4892.25262526
4892.30488468
4892.33297718
4892.33776966
4892.321702
4892.28784071
4892.23978143
4892.18135728
4892.11626312
4892.0478205
4891.97885543
4891.91169498
4891.84819374
4891.78978442
4891.73749685
4891.69205932
4891.65382469
4891.62310073
4891.59986305
4891.58432909
4891.57703532
4890.32201651
4890.20495918
4889.9773123
4889.76015273
4889.68232106
4889.77367199
4890.03528897
4890.42207761
4890.82938333
4891.16414669
4891.4000224
4891.55245662
4891.64542358
4891.72164317
4891.79966142
4891.88855702
4891.98656036
4892.08616077
4892.17739443
4892.25184449
4892.30404591
4892.33210202
4892.33690385
4892.32083491
4892.28696781
4892.23890689
4892.1804775
4892.11537432
4892.04692006
4891.97793932
4891.91076107
4891.84724106
4891.78881874
4891.73651751
4891.69108473
4891.65284292
4891.62213833
4891.59890157
4891.58344538
4891.57667741
4890.24160516
4890.1056867
4889.82899663
4889.56371921
4889.46496864
4889.55733533
4889.84297575
4890.27950087
4890.73975981
4891.11102436
4891.36924073
4891.53316641
4891.63911086
4891.71799538
4891.79855146
4891.88870481
4891.98723763
4892.08679911
4892.17787249
4892.25210529
4892.3040746
4892.33197859
4892.33672593
4892.32059911
4892.28668305
4892.23858598
4892.18013201
4892.11500901
4892.04653171
4891.97753111
4891.91033582
4891.84680245
4891.78837539
4891.73607459
4891.69065368
4891.6524194
4891.62173398
4891.5985292
4891.58323993
4891.57686062
4890.12301156
4889.94263996
4889.57069429
4889.21598555
4889.07748047
4889.17075484
4889.4993903
4890.02543033
4890.58331962
4891.0223912
4891.32103608
4891.50886415
4891.62662355
4891.71523518
4891.79831638
4891.89005159
4891.98904978
4892.08847021
4892.17913595
4892.25292976
4892.30462785
4892.33228189
4892.33692653
4892.3207173
4892.28672684
4892.2385774
4892.18008238
4892.11493005
4892.04642964
4891.97740777
4891.91019807
4891.84665803
4891.78823399
4891.73594443
4891.69053838
4891.65232383
4891.62164917
4891.59847379
4891.58332044
4891.57713814
4889.98078372
4889.74444458
4889.25331015
4888.78248074
4888.58117146
4888.67603884
4889.0735385
4889.71257078
4890.39185724
4890.91463013
4891.2623989
4891.48011458
4891.61376272
4891.71068671
4891.79880918
4891.89202115
4891.99156497
4892.09064053
4892.18079782
4892.25410211
4892.30538525
4892.33278346
4892.33721671
4892.32096382
4892.28688972
4892.23867439
4892.18013421
4892.1149498
4892.04642276
4891.97738173
4891.91016234
4891.84662238
4891.7882084
4891.73593662
4891.69054939
4891.65235637
4891.62169243
4891.5985333
4891.58348696
4891.57739159
4889.82829642
4889.53186269
4888.8837479
4888.20565043
4887.8894073
4887.98325898
4888.50758785
4889.35414601
4890.18788923
4890.79982058
4891.19971021
4891.44932109
4891.60036807
4891.70616788
4891.79920899
4891.89419968
4891.99411973
4892.09313767
4892.18265631
4892.25540867
4892.30629793
4892.33340029
4892.33767983
4892.32130016
4892.28712949
4892.23884624
4892.18025974
4892.11503955
4892.04648738
4891.97743091
4891.91020471
4891.84666923
4891.78826839
4891.73601594
4891.69064686
4891.65247199
4891.62181622
4891.59866065
4891.58368117
4891.57760622
4889.68103607
4889.32738236
4888.47678792
4887.53400338
4887.08098703
4887.17311273
4887.84230599
4888.95595701
4889.99346893
4890.69021878
4891.13940887
4891.41970027
4891.58738607
4891.70209874
4891.7992743
4891.89654661
4891.99663227
4892.0953343
4892.18449825
4892.256713
4892.30718834
4892.33405296
4892.33817802
4892.32165008
4892.28738627
4892.23903486
4892.180402
4892.11514996
4892.04657701
4891.97750662
4891.91027769
4891.84674946
4891.78836192
4891.73612715
4891.69077289
4891.65261152
4891.62196084
4891.59880225
4891.5838581
4891.57776678
4889.55585069
4889.1563959
4888.13848467
4887.00770109
4886.48208046
4886.56788681
4887.31394084
4888.62929418
4889.83150465
4890.59747306
4891.08813737
4891.39431315
4891.57624584
4891.69848463
4891.79955855
4891.89810102
4891.9987189
4892.09720884
4892.18602823
4892.25792307
4892.30796602
4892.33459439
4892.33864198
4892.32194341
4892.2875887
4892.23918095
4892.18050671
4892.11522893
4892.0466375
4891.97755644
4891.91033102
4891.84681046
4891.78843546
4891.73621504
4891.69087259
4891.6527198
4891.62207253
4891.59890997
4891.58398544
4891.57786699
4889.46633853
4889.03721018
4887.94614674
4886.7414281
4886.18931082
4886.27085833
4887.0493071
4888.44105088
4889.71874948
4890.53097436
4891.05111086
4891.37593164
4891.56813359
4891.69585702
4891.7995663
4891.89932054
4892.00015074
4892.09851798
4892.18701223
4892.25878028
4892.3084629
4892.33496221
4892.33897035
4892.32211991
4892.28769971
4892.23924579
4892.18054298
4892.11524683
4892.04663918
4891.9775592
4891.91033502
4891.8468227
4891.7884575
4891.73624811
4891.69091425
4891.65276773
4891.6221226
4891.59895921
4891.5840459
4891.57790507
4889.42098816
4888.97752603
4887.86394107
4886.63862585
4886.08485757
4886.16328927
4886.94435251
4888.35486852
4889.66119303
4890.49648997
4891.03195217
4891.36643692
4891.56395775
4891.69448053
4891.79955526
4891.89982722
4892.00083258
4892.09913096
4892.18746982
4892.25914578
4892.3086799
4892.33510156
4892.33905115
4892.32215529
4892.28769796
4892.2392175
4892.18049777
4892.11518745
4892.04658186
4891.97750229
4891.91028121
4891.84677519
4891.78841767
4891.73621598
4891.69088777
4891.65274512
4891.6221034
4891.59894163
4891.58403521
4891.5778818
4889.42382086
4888.98009668
4887.86428662
4886.63856316
4886.08564484
4886.15814754
4886.94748645
4888.35549785
4889.66171613
4890.49698752
4891.03243247
4891.3668133
4891.56417628
4891.69453146
4891.7994653
4891.89968588
4892.00066216
4892.09898148
4892.18733712
4892.2590374
4892.30858753
4892.33500786
4892.33895077
4892.32204567
4892.28757978
4892.23909233
4892.18037012
4892.115059
4892.04645721
4891.97738212
4891.91016777
4891.84666789
4891.78831545
4891.73611803
4891.69079334
4891.65265399
4891.622015
4891.59885819
4891.58395488
4891.57780111
4889.47474211
4889.04494499
4887.95087295
4886.74101052
4886.18576628
4886.2708408
4887.04889901
4888.4408048
4889.72051346
4890.53250967
4891.05256229
4891.37705377
4891.56877732
4891.69599779
4891.79930026
4891.898886
4891.99965542
4892.09807405
4892.18666279
4892.25844867
4892.30821018
4892.33468162
4892.33867643
4892.32179556
4892.28734819
4892.23887351
4892.18016222
4892.11486329
4892.04626735
4891.97720409
4891.90999782
4891.84650362
4891.78815384
4891.73595845
4891.69063496
4891.6524971
4891.62186223
4891.59871297
4891.58381002
4891.57766691
4889.56959385
4889.16932258
4888.14745679
4887.01082881
4886.47824312
4886.56459375
4887.31428047
4888.62858836
4889.83441312
4890.6001085
4891.09057631
4891.39615164
4891.57727646
4891.69867895
4891.79915117
4891.8973717