/*--------------------------------*- C++ -*----------------------------------*\
| =========                 |                                                 |
| \\      /  F ield         | OpenFOAM: The Open Source CFD Toolbox           |
|  \\    /   O peration     | Version:  3.0.1                                 |
|   \\  /    A nd           | Web:      www.OpenFOAM.org                      |
|    \\/     M anipulation  |                                                 |
\*---------------------------------------------------------------------------*/
FoamFile
{
    version     2.0;
    format      ascii;
    class       surfaceVectorField;
    location    "1.1";
    object      Uf_0;
}
// * * * * * * * * * * * * * * * * * * * * * * * * * * * * * * * * * * * * * //

dimensions      [0 1 -1 0 0 0 0];

internalField   nonuniform List<vector> 
45932
(
(0.000925718322375 0.000206062102911 -0.000450158353991)
(0.000458150402295 0.000398211818571 -0.000540928775732)
(0.000525386322251 0.000266178284909 -0.000861053874282)
(0.00171558007341 0.000335667059005 -0.000453282035363)
(0.00146844174198 0.000512618169655 -0.00063752390521)
(0.00147385414962 0.00038176465119 -0.000907529203088)
(0.00173840307399 0.000582961699793 -0.00046794313806)
(0.00202712998789 0.000969211570599 -0.000698803733506)
(0.00198505628265 0.000696994847768 -0.000980603420213)
(0.000898084726797 0.000786980377269 -0.000489439225394)
(0.00153931956851 0.00147932687276 -0.000751720954699)
(0.00149638244347 0.00103814060302 -0.00105914798462)
(-0.000348273816357 0.000860505082473 -0.000496707758147)
(0.000352596864793 0.00174436771202 -0.00079306824966)
(0.000334697907008 0.00121397282969 -0.00112116790953)
(-0.00164196621123 0.000797584350164 -0.000472962870092)
(-0.00102700698967 0.00175343353122 -0.000781346120422)
(-0.00101555461207 0.00121831610186 -0.00110656630445)
(-0.00261120694515 0.000601356038315 -0.000424170754475)
(-0.00230122243646 0.00149898228791 -0.000715478894328)
(-0.00226099658101 0.0010462107184 -0.00101434238461)
(-0.00286560192106 0.000338835033353 -0.000359165836021)
(-0.00298398286829 0.000997479284379 -0.000614713498115)
(-0.00292972865669 0.000709241765044 -0.000870266197481)
(-0.00244638819091 0.000127982779687 -0.000281136976426)
(-0.00281792587688 0.000482299546089 -0.00048785351224)
(-0.00277499757817 0.00035938353689 -0.000691895647416)
(-0.00178260742547 1.55308307115e-05 -0.000199255350306)
(-0.00215749178479 0.000166321898649 -0.000348236709846)
(-0.00213328407472 0.00013981077385 -0.000498205484205)
(-0.0011780526705 -2.76757033354e-05 -0.000129477362607)
(-0.00146674027447 2.32700739494e-05 -0.000225795991993)
(-0.00145592030246 3.43342413519e-05 -0.000325543482764)
(-0.000711628365383 -3.7657452822e-05 -7.88682268061e-05)
(-0.000910808770736 -3.38796588551e-05 -0.000139678077052)
(-0.000907765953124 -8.33450074589e-06 -0.000199330865212)
(-0.000380632122933 -3.5390762242e-05 -4.63771721453e-05)
(-0.000510188728596 -4.88988322994e-05 -8.37850365027e-05)
(-0.000511592004037 -2.25164851447e-05 -0.000116599672034)
(-0.000148408199799 -2.95223610201e-05 -2.8566608236e-05)
(-0.000234884128656 -4.60530537515e-05 -5.07229180908e-05)
(-0.000238389302688 -2.42239269538e-05 -7.00604374816e-05)
(2.16922162343e-05 -2.41177063947e-05 -1.93037895049e-05)
(-4.04758642086e-05 -3.88386337031e-05 -3.26356636869e-05)
(-4.39844188442e-05 -2.24457909008e-05 -4.62130314425e-05)
(0.000152029707522 -1.96425701363e-05 -1.39848577551e-05)
(0.00010457512045 -3.12625316978e-05 -2.25375803229e-05)
(0.000101718388662 -1.96378144208e-05 -3.39067333894e-05)
(0.000254913205597 -1.62361772218e-05 -1.01051499723e-05)
(0.000217555547958 -2.50986025893e-05 -1.61530967245e-05)
(0.000215698430397 -1.6979863878e-05 -2.634257429e-05)
(0.000335631547269 -1.38209246879e-05 -6.51072672986e-06)
(0.000306645338265 -2.06129516467e-05 -1.10810098852e-05)
(0.000305854971943 -1.48894538354e-05 -1.97448984148e-05)
(0.000396043301707 -1.21946662809e-05 -2.77524730358e-06)
(0.000375126092761 -1.75382261616e-05 -6.49037439426e-06)
(0.000375257213873 -1.33578879448e-05 -1.266601895e-05)
(0.000437191009807 -1.11148375703e-05 1.37318284285e-06)
(0.000424269339342 -1.54813825359e-05 -1.97367706292e-06)
(0.000425188460247 -1.23504834578e-05 -5.09082299557e-06)
(0.000460514188636 -1.049359413e-05 5.53783021152e-06)
(0.00045512722008 -1.4067414632e-05 2.65139955636e-06)
(0.000456516839738 -1.18173134807e-05 2.4073670915e-06)
(0.000468266639418 -1.02258795242e-05 9.18992861343e-06)
(0.000469506972398 -1.33852521314e-05 6.84135021169e-06)
(0.000470990551499 -1.14715381733e-05 9.51045847702e-06)
(0.000462883242094 -1.01680098887e-05 1.22539272702e-05)
(0.000469747218831 -1.30682066894e-05 1.03160245661e-05)
(0.000471169345027 -1.13253923594e-05 1.5761292562e-05)
(0.000446990144755 -1.02556350659e-05 1.47128410893e-05)
(0.000458319865328 -1.30190348069e-05 1.30996030377e-05)
(0.000459604903371 -1.13115776911e-05 2.09670154757e-05)
(0.000423158386558 -1.04376820691e-05 1.65757013686e-05)
(0.000437798663434 -1.31512809191e-05 1.52103404821e-05)
(0.000438899309508 -1.13856640441e-05 2.50687044687e-05)
(0.000393789814071 -1.06763694522e-05 1.78838632406e-05)
(0.000410648826791 -1.34022345274e-05 1.66933113663e-05)
(0.000411545298534 -1.1514160669e-05 2.80881989619e-05)
(0.000361001616878 -1.0944255851e-05 1.87063399358e-05)
(0.0003791097468 -1.37250332357e-05 1.76229829436e-05)
(0.000379806009353 -1.16736911639e-05 3.01209272956e-05)
(0.00032655764663 -1.1222318321e-05 1.91287269504e-05)
(0.000345104467177 -1.40867817974e-05 1.80923332632e-05)
(0.000345621402901 -1.1848206212e-05 3.13106520648e-05)
(0.000291838615817 -1.14982536119e-05 1.92395189692e-05)
(0.000310189042116 -1.44623879589e-05 1.81995562616e-05)
(0.000310556420889 -1.20258358498e-05 3.18238617387e-05)
(0.000257868834111 -1.17645658363e-05 1.91195811058e-05)
(0.000275551162828 -1.48369741395e-05 1.80366822516e-05)
(0.000275801038272 -1.22002513096e-05 3.18238985588e-05)
(0.000225365104872 -1.2015402958e-05 1.88368676163e-05)
(0.0002420544745 -1.51981948766e-05 1.76812625408e-05)
(0.000242216919842 -1.23657364632e-05 3.14521808596e-05)
(0.000194786734933 -1.22510131976e-05 1.84393841982e-05)
(0.000210273529736 -1.55355078482e-05 1.71962333315e-05)
(0.000210373977448 -1.25158026567e-05 3.08269056722e-05)
(0.000166464858047 -1.24651011522e-05 1.7973311698e-05)
(0.000180613905973 -1.58531881827e-05 1.66140131139e-05)
(0.000180674606408 -1.26559832252e-05 3.00164016309e-05)
(0.000140478739796 -1.26779432165e-05 1.74180087262e-05)
(0.000153195442686 -1.61255991126e-05 1.59970900715e-05)
(0.000153229400778 -1.27611540472e-05 2.91209220615e-05)
(0.000117339043223 -1.28499374948e-05 1.68988906804e-05)
(0.000128526568026 -1.64116852182e-05 1.52195419884e-05)
(0.000128565485621 -1.28890478905e-05 2.79836955757e-05)
(9.61171644011e-05 -1.29953526105e-05 1.62176019878e-05)
(0.000105809397993 -1.65784056079e-05 1.46891502934e-05)
(0.000105841088454 -1.29042591054e-05 2.71913689556e-05)
(7.84237295632e-05 -1.29813101942e-05 1.58607667687e-05)
(8.68162995333e-05 -1.67189081732e-05 1.35407393445e-05)
(8.68728011253e-05 -1.29191899815e-05 2.55676155576e-05)
(5.96788107908e-05 -1.28845639159e-05 1.61467225022e-05)
(6.81072294306e-05 -1.65246672288e-05 1.37520336894e-05)
(6.81705826073e-05 -1.27136399391e-05 2.58993762853e-05)
(3.92691215789e-05 -1.31857334134e-05 1.94199957664e-05)
(5.07764965378e-05 -1.6397301185e-05 1.4030483526e-05)
(5.06334600221e-05 -1.27055145012e-05 2.66050708777e-05)
(2.63939010316e-05 -1.7031599187e-05 1.97711428524e-05)
(2.79818661868e-05 -1.382581481e-05 3.66694204935e-05)
(0.000957065361016 0.000767704324782 -0.000728294326951)
(0.000480387401638 0.000978830501362 -0.00064752427551)
(0.000527152040838 0.000750861963692 -0.00105913135233)
(0.00189749595673 0.00124684471188 -0.000883045603353)
(0.0017058920532 0.00137899664013 -0.000895956597244)
(0.00161357442773 0.0011050907033 -0.00133657143687)
(0.00195260208715 0.00201250454243 -0.000982581550145)
(0.00239882685275 0.00244453630824 -0.000984435762692)
(0.0021915004698 0.0019453465928 -0.00150285603029)
(0.00103047588694 0.0026165166265 -0.00105534997897)
(0.00183286288375 0.00355933785255 -0.00102622555389)
(0.00166381775171 0.00282091666404 -0.00161892628072)
(-0.000329138949959 0.00282787062049 -0.00107770661193)
(0.000460509039443 0.00412828385313 -0.00107070130592)
(0.000401602957275 0.00326912894639 -0.00170408627285)
(-0.00173935685064 0.00263377955632 -0.00102386214466)
(-0.0011081194252 0.00413965118569 -0.00105328972304)
(-0.00105384428054 0.00327752300945 -0.00168108545306)
(-0.00279718436495 0.00204066817547 -0.000906021637967)
(-0.002568058111 0.00357634751184 -0.000973577915478)
(-0.00239868096164 0.00283306217496 -0.00154842941974)
(-0.00305337885187 0.00123934574958 -0.000743401174333)
(-0.00334807073687 0.00246852814733 -0.000865337003687)
(-0.0031174482895 0.00196362417186 -0.00134293361003)
(-0.00255988003989 0.000574789499959 -0.00055495324566)
(-0.00311151528623 0.00130398897382 -0.000709768103638)
(-0.00292108786683 0.00104735151947 -0.00106842616668)
(-0.00182060799773 0.000196799529667 -0.000374777351533)
(-0.00231135410586 0.000553758613441 -0.000509033219453)
(-0.00220117323523 0.000450692191722 -0.00075706468411)
(-0.0011724194896 2.66489846643e-05 -0.000235996706438)
(-0.00152224690281 0.000184654503451 -0.000326495413749)
(-0.00146844092872 0.00015404794846 -0.000485474025416)
(-0.000690267291091 -3.7124035644e-05 -0.000144594886749)
(-0.0009193673444 2.19635393594e-05 -0.000200539769977)
(-0.00089596627286 2.28460477515e-05 -0.000296917374282)
(-0.000357139090583 -5.37255638136e-05 -8.81307824482e-05)
(-0.000500319242873 -3.6804676394e-05 -0.000122124232876)
(-0.00049190466905 -2.63928269934e-05 -0.0001786585764)
(-0.000124337461458 -5.17999649874e-05 -5.47919735418e-05)
(-0.000219437934293 -5.32753437315e-05 -7.57039363706e-05)
(-0.000217465680661 -4.01001472967e-05 -0.000109180095827)
(4.30011361452e-05 -4.4332034398e-05 -3.58694545049e-05)
(-2.48210190819e-05 -5.11279161035e-05 -4.87853585387e-05)
(-2.45566350565e-05 -3.97629136216e-05 -7.13815320279e-05)
(0.000170863209219 -3.66655598367e-05 -2.47058192923e-05)
(0.00011853396839 -4.45136111595e-05 -3.35088444208e-05)
(0.000119364226151 -3.53222512779e-05 -5.06805058521e-05)
(0.000271572420981 -3.0295274113e-05 -1.71289566373e-05)
(0.000229567409963 -3.75778470021e-05 -2.40124303744e-05)
(0.000231590226758 -3.0325372787e-05 -3.78747782071e-05)
(0.000350278093375 -2.55529056566e-05 -1.10606575496e-05)
(0.00031681005708 -3.19623035714e-05 -1.691953963e-05)
(0.000320119823618 -2.61558361282e-05 -2.80021211292e-05)
(0.000408980386788 -2.22784097705e-05 -5.68880415359e-06)
(0.00038367067684 -2.78305792855e-05 -1.09363797733e-05)
(0.000388002461447 -2.30356033433e-05 -1.90571044745e-05)
(0.000448607508216 -2.0150504069e-05 -6.95460349408e-07)
(0.000431441502447 -2.51198176522e-05 -5.56577397338e-06)
(0.000436444575669 -2.09328444216e-05 -1.01734222129e-05)
(0.000470398974013 -1.88571551671e-05 3.95491955653e-06)
(0.000461134931303 -2.3503103745e-05 -6.13588469159e-07)
(0.000466435004088 -1.98006049788e-05 -1.45846089859e-06)
(0.000476853038793 -1.82047664249e-05 7.96744616434e-06)
(0.000474493646701 -2.24261900415e-05 3.80280721072e-06)
(0.000479705775234 -1.91055464843e-05 5.8153624749e-06)
(0.000470280633466 -1.80127113927e-05 1.11617003336e-05)
(0.000473855231159 -2.2046046584e-05 7.41984702358e-06)
(0.000478718630966 -1.87903775978e-05 1.22654471369e-05)
(0.000453312664117 -1.81054501216e-05 1.35971024305e-05)
(0.000461691595337 -2.2018899684e-05 1.0220096919e-05)
(0.000466080453077 -1.87418687575e-05 1.74853021565e-05)
(0.000428512922563 -1.83832566048e-05 1.53279504798e-05)
(0.000440539079401 -2.22160707632e-05 1.22599744717e-05)
(0.000444394654992 -1.88671523412e-05 2.14662352754e-05)
(0.000398277344095 -1.87762225819e-05 1.64324310694e-05)
(0.000412846508328 -2.25590151837e-05 1.36161355678e-05)
(0.000416154513771 -1.91020843319e-05 2.4276287371e-05)
(0.000364714786375 -1.92343024554e-05 1.70089762711e-05)
(0.000380840901365 -2.29889879283e-05 1.43842886497e-05)
(0.000383621640763 -1.94007759576e-05 2.60470733207e-05)
(0.000329579389484 -1.97207905822e-05 1.71631625744e-05)
(0.000346433847814 -2.34661531457e-05 1.46713396315e-05)
(0.000348730657945 -1.97327691279e-05 2.69490008978e-05)
(0.000294242535516 -2.02103188287e-05 1.6996719544e-05)
(0.000311169388692 -2.39561358685e-05 1.45901371951e-05)
(0.000313038428796 -2.00741123825e-05 2.7164180396e-05)
(0.000259719952481 -2.06854317189e-05 1.65983636866e-05)
(0.000276223568182 -2.44402793375e-05 1.42364994508e-05)
(0.00027772526187 -2.04109316719e-05 2.68666806976e-05)
(0.000226718969112 -2.11308667083e-05 1.6040628256e-05)
(0.000242450275075 -2.48978459195e-05 1.36932627914e-05)
(0.000243643002042 -2.07285780019e-05 2.62023204446e-05)
(0.00019568858578 -2.15414501569e-05 1.53708622472e-05)
(0.000210408345348 -2.53119064348e-05 1.30277894664e-05)
(0.000211344988575 -2.10124098038e-05 2.52938654085e-05)
(0.000166942732889 -2.19033802114e-05 1.46377914874e-05)
(0.000180497782417 -2.56805842955e-05 1.22669884951e-05)
(0.000181226734325 -2.12634221805e-05 2.42026603617e-05)
(0.000140566993045 -2.22304829498e-05 1.37986233337e-05)
(0.000152797259793 -2.59730163526e-05 1.14853224757e-05)
(0.000153356546016 -2.14467523057e-05 2.30376040247e-05)
(0.000116993185606 -2.24879611077e-05 1.30098016014e-05)
(0.000127855664555 -2.62314133925e-05 1.05154467381e-05)
(0.000128285881607 -2.16028591994e-05 2.16088289404e-05)
(9.55001532587e-05 -2.26228305546e-05 1.201228765e-05)
(0.000104780656852 -2.6353898833e-05 9.8412666802e-06)
(0.000105130276141 -2.16500274321e-05 2.05240547892e-05)
(7.74032558608e-05 -2.25468709566e-05 1.14320062652e-05)
(8.55401841709e-05 -2.6319268057e-05 8.46192265339e-06)
(8.57280386718e-05 -2.15096543303e-05 1.86508327299e-05)
(5.86967058026e-05 -2.2255110655e-05 1.16357947132e-05)
(6.65818636582e-05 -2.59887944041e-05 8.61697404556e-06)
(6.67097990272e-05 -2.13041660504e-05 1.88197466992e-05)
(3.7523668863e-05 -2.23428858464e-05 1.43816306121e-05)
(4.90625725011e-05 -2.55336081887e-05 8.74535874283e-06)
(4.87854897418e-05 -2.10525324967e-05 1.97259177473e-05)
(2.53031399726e-05 -2.55852377394e-05 1.35364087536e-05)
(2.58416866246e-05 -2.20460632136e-05 2.7318871392e-05)
(0.00116291588741 0.00155362694344 -0.000815186545804)
(0.000618208672681 0.00151839829738 -0.000672743990858)
(0.000644121202136 0.00132330607332 -0.00112100369663)
(0.00234234804406 0.00253047502503 -0.000997346756582)
(0.00218204886977 0.00226705378171 -0.00095965014789)
(0.00197940033913 0.00199449804474 -0.00147774886712)
(0.00241956194803 0.00392187452094 -0.00102807976644)
(0.00306531622345 0.00392610800311 -0.000913070744895)
(0.00267968347096 0.00340491120113 -0.00152015490968)
(0.00129875131673 0.00498129802687 -0.00104157688085)
(0.00233806477183 0.00558942026371 -0.000793801379105)
(0.00203301595316 0.00481809339219 -0.00146965355523)
(-0.000319047943916 0.00534268645874 -0.00104628441703)
(0.000634730107408 0.00642156222422 -0.000775032734569)
(0.000531310204506 0.00553056370375 -0.00148435411479)
(-0.0019892534568 0.00499262212669 -0.00100300549386)
(-0.0012679030558 0.00643174957551 -0.000754803276467)
(-0.00116675680135 0.00553895716725 -0.00145696955003)
(-0.00325303216182 0.00393611749012 -0.000932893281197)
(-0.00305986345028 0.00559452596449 -0.00073296971901)
(-0.00274994718865 0.00482070694026 -0.00138626358385)
(-0.00353256701738 0.00249132324928 -0.000831703932992)
(-0.00402147632926 0.00393410307176 -0.000768399013852)
(-0.00359785803822 0.00340674565458 -0.00132578614698)
(-0.00288845609857 0.00126112122777 -0.000663848077431)
(-0.00367874638926 0.00215392300081 -0.00074288245641)
(-0.00332495911195 0.00188533529174 -0.00117197436677)
(-0.00198204546822 0.000530976133475 -0.000460751281669)
(-0.00263862449416 0.000977378414485 -0.000575684437287)
(-0.00243157049087 0.000865845615276 -0.000876815631009)
(-0.00123595411173 0.000176367568946 -0.000291038477288)
(-0.0016727410169 0.000382808244554 -0.000376215070199)
(-0.00157007970158 0.00034342192922 -0.000571193987535)
(-0.000708056483802 2.252954062e-05 -0.000178069116104)
(-0.00097867695302 0.000108079926161 -0.000231921668585)
(-0.000932073203786 9.93358301967e-05 -0.00035006276303)
(-0.00035581990106 -3.46233364426e-05 -0.000109697386798)
(-0.0005177955163 -1.22015624842e-06 -0.000141285837221)
(-0.000498875665308 -2.71084878224e-07 -0.000211702714875)
(-0.000118133257532 -5.02765864184e-05 -6.96973213675e-05)
(-0.000220358503955 -4.04254395814e-05 -8.90557078704e-05)
(-0.000213545019311 -3.57759266775e-05 -0.000131694504252)
(5.07048076443e-05 -4.93202764359e-05 -4.64247484546e-05)
(-2.00900628768e-05 -4.87292833349e-05 -5.84243266901e-05)
(-1.77160846995e-05 -4.33480530183e-05 -8.68190471942e-05)
(0.000177224163309 -4.36732746209e-05 -3.28154555028e-05)
(0.000123945348049 -4.5747101495e-05 -4.06808143275e-05)
(0.000125688389691 -4.12966100766e-05 -6.20267248735e-05)
(0.000276239938612 -3.77351798804e-05 -2.3803013367e-05)
(0.000234099491679 -4.00763752654e-05 -2.98876667311e-05)
(0.000236657413259 -3.66481486467e-05 -4.70088131092e-05)
(0.000353504157894 -3.29068914144e-05 -1.67952618537e-05)
(0.000320145199522 -3.48188483569e-05 -2.20219152533e-05)
(0.000323856558576 -3.21885340848e-05 -3.57742323021e-05)
(0.000411012585998 -2.94454796879e-05 -1.0813349593e-05)
(0.000385908592518 -3.0749753581e-05 -1.55032854983e-05)
(0.000390593187138 -2.87041531582e-05 -2.58333600114e-05)
(0.000449766820866 -2.72335383964e-05 -5.48390209313e-06)
(0.000432780061751 -2.79761457022e-05 -9.77992194399e-06)
(0.000438087374092 -2.63375183673e-05 -1.65190873499e-05)
(0.000471058043365 -2.58733288638e-05 -7.65700814967e-07)
(0.00046185851599 -2.6294706752e-05 -4.70114309507e-06)
(0.000467384956701 -2.49650165516e-05 -7.85243826141e-06)
(0.000477004362169 -2.51410227297e-05 3.25520806996e-06)
(0.00047476948624 -2.52561316789e-05 -3.51011092248e-07)
(0.000480191147085 -2.41960006667e-05 -1.41795364643e-07)
(0.000470142363939 -2.49304528793e-05 6.47824360897e-06)
(0.000473776025922 -2.48305002609e-05 3.30625636535e-06)
(0.000478854954815 -2.38413549302e-05 6.2168046032e-06)
(0.000452984528411 -2.50225652834e-05 8.88296896016e-06)
(0.000461396396936 -2.48197294263e-05 6.11909088765e-06)
(0.000465960315276 -2.3790742206e-05 1.13811400137e-05)
(0.000428059422944 -2.52960390797e-05 1.05481595596e-05)
(0.000440110464373 -2.5019076024e-05 8.13102141232e-06)
(0.000444092667457 -2.39293625513e-05 1.52670750254e-05)
(0.000397742950871 -2.56847964247e-05 1.15679931481e-05)
(0.000412333126786 -2.53606480745e-05 9.43914416993e-06)
(0.000415724474184 -2.41899206689e-05 1.79615359191e-05)
(0.000364129326651 -2.61397618203e-05 1.20466520102e-05)
(0.000380278125628 -2.57857863097e-05 1.01516346855e-05)
(0.00038310356362 -2.45219450446e-05 1.96054072992e-05)
(0.00032896189974 -2.66236003457e-05 1.20983142523e-05)
(0.000345846237364 -2.62565436282e-05 1.0372687794e-05)
(0.000348153473624 -2.48920381912e-05 2.03759983386e-05)
(0.000293599690871 -2.71092607577e-05 1.18299171019e-05)
(0.000310571342551 -2.67395886255e-05 1.02311310095e-05)
(0.000312420851087 -2.5272746753e-05 2.04665311825e-05)
(0.000259049977482 -2.75753088351e-05 1.13313985555e-05)
(0.00027562117699 -2.72133282641e-05 9.81311024329e-06)
(0.000277076923109 -2.5646246388e-05 2.00499630628e-05)
(0.000226008970772 -2.80000782324e-05 1.06804240017e-05)
(0.000241843279194 -2.76513028776e-05 9.2104110994e-06)
(0.000242965486571 -2.59907689433e-05 1.92761166703e-05)
(0.0001949105755 -2.83706445112e-05 9.92391571422e-06)
(0.000209783908351 -2.80323114432e-05 8.49449908294e-06)
(0.000210626056436 -2.62860854349e-05 1.82718608939e-05)
(0.000166053619139 -2.86690402288e-05 9.11451948342e-06)
(0.000179836359447 -2.83448860304e-05 7.6890372152e-06)
(0.000180445830968 -2.6522714843e-05 1.70951020358e-05)
(0.000139506889805 -2.88940939265e-05 8.2021458802e-06)
(0.000152052892557 -2.85641839345e-05 6.87781283348e-06)
(0.000152466550116 -2.66688220505e-05 1.58668290319e-05)
(0.000115685325427 -2.90229581169e-05 7.34691181698e-06)
(0.000126990314604 -2.87042150831e-05 5.88023602846e-06)
(0.000127231988148 -2.67365861125e-05 1.43857520624e-05)
(9.39469916626e-05 -2.89817474401e-05 6.29090168355e-06)
(0.000103745529003 -2.87266836466e-05 5.19100813766e-06)
(0.000103873683504 -2.6693641158e-05 1.32439624276e-05)
(7.55498288072e-05 -2.869415393e-05 5.64689043379e-06)
(8.43554084721e-05 -2.85154344782e-05 3.81725521838e-06)
(8.41879884553e-05 -2.64151169143e-05 1.13967469945e-05)
(5.67134215932e-05 -2.81731651098e-05 5.72653807515e-06)
(6.52970274378e-05 -2.80396528098e-05 3.94308018398e-06)
(6.49268228852e-05 -2.60806007664e-05 1.14714183654e-05)
(3.58012426749e-05 -2.75025869168e-05 7.90013688437e-06)
(4.77900517806e-05 -2.73005414839e-05 4.06003872666e-06)
(4.66852665516e-05 -2.57814391774e-05 1.22261835494e-05)
(2.50863405442e-05 -2.58408848609e-05 8.83335497048e-06)
(2.44357185485e-05 -2.58344394441e-05 1.81597400089e-05)
(0.00155020183409 0.00219533945038 -0.000817207592944)
(0.000848426997119 0.00190582665584 -0.000693992133763)
(0.000870764462283 0.00179132892097 -0.00116250557731)
(0.00307885102711 0.00360411619261 -0.000875374136202)
(0.00288537171313 0.00293577284248 -0.000910604069656)
(0.00259467817529 0.00273772172284 -0.00143301751136)
(0.00315781940961 0.0054988449178 -0.000678792357559)
(0.00399601175345 0.00501903772187 -0.00058696579652)
(0.00346065281601 0.0046003634761 -0.00113238840697)
(0.0017116994093 0.00690455497848 -0.000527257232824)
(0.00302635102231 0.00703829972534 -0.000187270099577)
(0.00260685389823 0.00640852424256 -0.000725794287587)
(-0.000313842752231 0.00737438385918 -0.000483551594008)
(0.000865570672309 0.00802479580013 -5.90561382472e-05)
(0.000725330242468 0.00730016433852 -0.000590436054291)
(-0.00239457790015 0.00690777274282 -0.000484767501616)
(-0.00149295688167 0.00803303766631 -3.72061495354e-05)
(-0.00135191648007 0.00730712670969 -0.000560891695799)
(-0.00399088191144 0.00549652630107 -0.000568475451665)
(-0.00374374207094 0.00702755157288 -0.00012349357135)
(-0.00331369667186 0.00639730564297 -0.000634844275665)
(-0.00432352432988 0.0035389192548 -0.000679577537271)
(-0.00496763282026 0.00500622633597 -0.000418223171749)
(-0.00437815673742 0.00457952640739 -0.000905776803417)
(-0.00345367526809 0.00184281277873 -0.000654718816267)
(-0.00449444222564 0.00279404665582 -0.00065242922779)
(-0.00400091656697 0.0025807402164 -0.00107503010086)
(-0.00228313887687 0.000819300804068 -0.000491148225817)
(-0.00312575129229 0.00130529358001 -0.000591985959423)
(-0.00283754726964 0.00121480034316 -0.00091317207425)
(-0.00137318388119 0.000312737922026 -0.000317098261496)
(-0.00190940172315 0.000545608854036 -0.000401102818584)
(-0.0017663310856 0.000508374212121 -0.00061777161781)
(-0.000762559202673 8.47125463924e-05 -0.000195138389702)
(-0.00108234151436 0.00018601940691 -0.000249831999453)
(-0.00101626607559 0.000172415915123 -0.000383248587422)
(-0.000372873481015 -6.14319837906e-06 -0.000120644158294)
(-0.000557146490875 3.60713062781e-05 -0.000152104072452)
(-0.000529330678423 3.11324525705e-05 -0.000232133537249)
(-0.000120164027681 -3.72801751304e-05 -7.77827131929e-05)
(-0.000232447032422 -2.12046814291e-05 -9.5938658511e-05)
(-0.000221369987617 -2.25022244967e-05 -0.000145576265699)
(5.32753880608e-05 -4.36491162734e-05 -5.26803925631e-05)
(-2.1359250382e-05 -3.83573493696e-05 -6.38700270774e-05)
(-1.70152587198e-05 -3.82445035921e-05 -9.70927885222e-05)
(0.000180703954751 -4.09857809756e-05 -3.77530255559e-05)
(0.000126270529623 -3.98700151275e-05 -4.46222783669e-05)
(0.000128748551537 -3.92881652291e-05 -6.95918785008e-05)
(0.000279143909567 -3.62432156834e-05 -2.81065686174e-05)
(0.000236933705333 -3.60855423375e-05 -3.30557277783e-05)
(0.000239719125132 -3.57288938141e-05 -5.32103232857e-05)
(0.000355545590122 -3.19314504675e-05 -2.07299388979e-05)
(0.000322457129808 -3.17185186803e-05 -2.48716027218e-05)
(0.000326209635375 -3.15929213082e-05 -4.12998945541e-05)
(0.000412242273613 -2.86900108235e-05 -1.44698578492e-05)
(0.000387505489175 -2.81680514332e-05 -1.81341263012e-05)
(0.000392136816975 -2.81997747845e-05 -3.09283912863e-05)
(0.000450346415484 -2.65446653981e-05 -8.99716294593e-06)
(0.000433722585663 -2.56382330383e-05 -1.22338384761e-05)
(0.000438918156298 -2.58371014777e-05 -2.13882941423e-05)
(0.000471254269545 -2.52499584421e-05 -4.28645337235e-06)
(0.000462311795341 -2.40699344392e-05 -7.10949132316e-06)
(0.000467688391811 -2.44157689381e-05 -1.26771536853e-05)
(0.000476861175398 -2.45448082549e-05 -2.9996279686e-07)
(0.000474889850324 -2.31884274926e-05 -2.8158018945e-06)
(0.000480148265622 -2.36394012575e-05 -4.86978562995e-06)
(0.000469780150141 -2.43174293294e-05 2.94710364403e-06)
(0.000473636414556 -2.27146669e-05 8.07029480889e-07)
(0.000478578404961 -2.32866521586e-05 1.4259558264e-06)
(0.000452519086223 -2.44070794772e-05 5.36714333981e-06)
(0.000461089130983 -2.27094629886e-05 3.66190718318e-06)
(0.000465529162463 -2.32424469749e-05 6.52157088814e-06)
(0.000427534428998 -2.46599598143e-05 7.02200602265e-06)
(0.000439721112527 -2.28747512809e-05 5.6814293462e-06)
(0.000443569118273 -2.33832339509e-05 1.03494345594e-05)
(0.000397191014324 -2.50212009543e-05 8.02278570738e-06)
(0.000411894870558 -2.31670792401e-05 6.98174018891e-06)
(0.000415148792884 -2.36450367428e-05 1.29797274881e-05)
(0.000363573504257 -2.54443983287e-05 8.47767046941e-06)
(0.000379817886458 -2.3538990452e-05 7.6843964679e-06)
(0.000382505212925 -2.39791905386e-05 1.45636886114e-05)
(0.000328416190709 -2.5896190062e-05 8.50550455119e-06)
(0.000345382264949 -2.39514473243e-05 7.89364053006e-06)
(0.000347552728282 -2.4351983018e-05 1.52753974136e-05)
(0.00029307151724 -2.63491907654e-05 8.21432415089e-06)
(0.000310116681936 -2.43818071835e-05 7.73922637837e-06)
(0.000311830954323 -2.47387713237e-05 1.53164800817e-05)
(0.00025854340304 -2.67769359125e-05 7.69212278717e-06)
(0.000275185993344 -2.47997257231e-05 7.30843581926e-06)
(0.000276506652241 -2.5114328847e-05 1.48524696444e-05)
(0.000225522774717 -2.71547350261e-05 7.02448618062e-06)
(0.000241434019658 -2.51789264943e-05 6.69475632707e-06)
(0.000242419804634 -2.54529760658e-05 1.4040057658e-05)
(0.000194435438654 -2.74628499806e-05 6.25962058392e-06)
(0.000209400950767 -2.54949102544e-05 5.97455956192e-06)
(0.000210102206706 -2.57309407958e-05 1.30084932266e-05)
(0.000165572544816 -2.76833130323e-05 5.45233056526e-06)
(0.000179475200379 -2.57279487262e-05 5.17353068892e-06)
(0.000179935371453 -2.59294393136e-05 1.18168017892e-05)
(0.000138992555999 -2.78065709917e-05 4.55590298174e-06)
(0.000151697051178 -2.58625865688e-05 4.37747286583e-06)
(0.000151949234936 -2.60270075467e-05 1.059066177e-05)
(0.000115104874739 -2.78285483982e-05 3.72433234914e-06)
(0.000126618048011 -2.5893742998e-05 3.41667186957e-06)
(0.000126668719091 -2.60130370965e-05 9.13549999139e-06)
(9.33366669908e-05 -2.76712877107e-05 2.71736167248e-06)
(0.000103362382455 -2.58327233848e-05 2.75141900356e-06)
(0.000103270534106 -2.59116317418e-05 7.99211651977e-06)
(7.49205965571e-05 -2.72670374775e-05 2.11344496856e-06)
(8.39875130142e-05 -2.55262355431e-05 1.44356299274e-06)
(8.34950049754e-05 -2.55629425678e-05 6.2208096316e-06)
(5.62898450373e-05 -2.65847788127e-05 2.27658083548e-06)
(6.5033183567e-05 -2.50000750199e-05 1.58945848366e-06)
(6.42110881956e-05 -2.51620116221e-05 6.27816147705e-06)
(3.56675842701e-05 -2.51222717623e-05 4.99325681277e-06)
(4.79396135347e-05 -2.41818090271e-05 1.89243759342e-06)
(4.61482933832e-05 -2.47423437437e-05 7.19561322098e-06)
(2.5447794652e-05 -2.19676279479e-05 7.6082273825e-06)
(2.41558228291e-05 -2.36649179866e-05 1.39640821438e-05)
(0.00207955738561 0.00259215205169 -0.000787388610475)
(0.00113814170106 0.00207834782688 -0.000723290184089)
(0.00117638370808 0.00207285289551 -0.00121227476877)
(0.00402948347427 0.00426257720045 -0.000622195729974)
(0.00372804629447 0.00324258873789 -0.000808155211818)
(0.0033929715143 0.00319137370873 -0.00128175124349)
(0.00408265940264 0.00642533769743 -9.54435385387e-05)
(0.00507271744214 0.00547842047569 -0.000127072199141)
(0.00444004528175 0.00528694928355 -0.000485943780312)
(0.00221835219261 0.00799171634488 0.000280930994999)
(0.00380514088507 0.00757752305484 0.000609411083353)
(0.00330914694863 0.00726157008566 0.00039295648792)
(-0.000312014551499 0.00850522033219 0.000387289306225)
(0.00112088839994 0.00857621179087 0.000859948223947)
(0.000956733688403 0.00820920958736 0.000713794866608)
(-0.00290230761813 0.00798594364107 0.00032406778073)
(-0.00174892253188 0.00858272458723 0.000882890208412)
(-0.00158144213437 0.00821440667175 0.000745490620424)
(-0.00492135239413 0.00640408350743 2.67587085667e-05)
(-0.00452500297879 0.00755317049779 0.000671885683624)
(-0.00401272851886 0.00723482502451 0.000483936505399)
(-0.00533728655698 0.00417434186694 -0.000391074862268)
(-0.00606362600021 0.00544510739347 6.23472942589e-05)
(-0.00536134746222 0.00524001701715 -0.00023088455451)
(-0.00419415411696 0.00220978224078 -0.000589696370946)
(-0.00545743238316 0.00308346810007 -0.000502253739353)
(-0.00487180691567 0.00299599429041 -0.00086096616408)
(-0.00268868335422 0.00100989113763 -0.00050194055219)
(-0.00371167409696 0.00146570180197 -0.000590862269205)
(-0.00337299776742 0.00143195650081 -0.000913130062815)
(-0.00156530301007 0.00041018424362 -0.000333836556542)
(-0.00220022057314 0.000634519732835 -0.000418726589537)
(-0.00203281540322 0.000618678127118 -0.00065059314815)
(-0.000844580643796 0.000134574203949 -0.000206797682203)
(-0.00121460087504 0.000234966808289 -0.000263604245952)
(-0.00113655771578 0.000226850912935 -0.00040930430648)
(-0.000404510309407 2.05705481318e-05 -0.00012739857267)
(-0.000610977594165 6.4160497125e-05 -0.000160063310325)
(-0.000577336997509 5.89269708299e-05 -0.000248122718349)