/*--------------------------------*- C++ -*----------------------------------*\
| =========                 |                                                 |
| \\      /  F ield         | OpenFOAM: The Open Source CFD Toolbox           |
|  \\    /   O peration     | Version:  3.0.1                                 |
|   \\  /    A nd           | Web:      www.OpenFOAM.org                      |
|    \\/     M anipulation  |                                                 |
\*---------------------------------------------------------------------------*/
FoamFile
{
    version     2.0;
    format      ascii;
    class       volScalarField;
    location    "2.1";
    object      alpha.air;
}
// * * * * * * * * * * * * * * * * * * * * * * * * * * * * * * * * * * * * * //

dimensions      [0 0 0 0 0 0 0];

internalField   nonuniform List<scalar> 
7968
(
6.58255846187e-24
6.85055401215e-23
1.78634386185e-22
1.66242495858e-22
2.90904674932e-22
1.14840172274e-22
5.42955892896e-23
6.66689378066e-24
1.58501957612e-25
5.52448587979e-28
2.28331177634e-28
8.05561355232e-26
4.55518477142e-24
2.7279230576e-23
6.68311618687e-23
2.10201806907e-22
2.46759341005e-22
2.14861418013e-22
1.33865985813e-22
1.69285205384e-23
6.68641109737e-23
4.15111619447e-22
1.02891130704e-21
9.73506315549e-22
1.04347167175e-21
5.88288320485e-22
1.31751597342e-22
1.87819812865e-23
2.54624753446e-24
6.15946178608e-25
6.10712280568e-25
2.14001544926e-24
9.94861402272e-24
4.45474215932e-23
1.88787460819e-22
5.54012664899e-22
7.49302328041e-22
9.04448448166e-22
3.75829933943e-22
1.35803463064e-22
1.65290308363e-22
1.00467458059e-21
1.98964741109e-21
1.61266435845e-21
7.21526224057e-22
7.99588729625e-23
4.6681419736e-24
2.96190585471e-25
2.1761850973e-26
3.85256134205e-27
3.85700395331e-27
1.87353667605e-26
1.64276363892e-25
1.47497405923e-24
1.46906693834e-23
1.47417622212e-22
6.87615925792e-22
9.78752026249e-22
9.12579209256e-22
2.33176278159e-22
2.91792307575e-22
1.06216143673e-21
1.61471182857e-21
7.48203955457e-22
5.93949626441e-23
2.19876222985e-24
5.27574449554e-26
1.87491511165e-27
1.31185775555e-28
2.34829524678e-29
2.24683725674e-29
1.01585038058e-28
9.10197810315e-28
1.65299851954e-26
4.84814129685e-25
8.77274606761e-24
1.28436220539e-22
5.80232693579e-22
7.31961800423e-22
2.74540149443e-22
2.56550462538e-22
1.45741513283e-21
1.10147531308e-21
9.3302262106e-23
2.39711783808e-24
3.52830201916e-26
5.78902735791e-28
1.61708051726e-29
1.1113781113e-30
2.21046021504e-31
1.81288240948e-31
6.57096793258e-31
6.02698426847e-30
1.53771555739e-28
8.38588005643e-27
4.60044900576e-25
1.07834370155e-23
1.76747261435e-22
6.04634890029e-22
1.94424164664e-22
3.20384812053e-22
6.86795887155e-22
2.93151608296e-22
7.40922269722e-24
8.05739262827e-26
8.32176286802e-28
1.04173228647e-29
2.29554512834e-31
1.50932289773e-32
3.49211098684e-33
2.19814461823e-33
5.07295633225e-33
4.62165950811e-32
1.97203263275e-30
1.5340313112e-28
1.34935675559e-26
9.34333459431e-25
2.47426658995e-23
2.5401384013e-22
1.06970027049e-22
1.50370853442e-22
2.7042191657e-22
3.63485768618e-23
4.5885028581e-25
3.67169148722e-27
3.0949794388e-29
2.91446249078e-31
4.39794387999e-33
4.36828627868e-34
1.42044503154e-34
1.20598484567e-34
1.04653635292e-34
4.34046900397e-34
3.44613017917e-32
3.74697405527e-30
4.11141196355e-28
4.7775960026e-26
3.10531798544e-24
6.82478993912e-23
2.15797589368e-23
4.37180481468e-23
8.36903677386e-23
2.93406828321e-24
2.20367589163e-26
1.6874170215e-28
1.27540904491e-30
9.60437211616e-33
7.67530237057e-34
1.57970894592e-34
7.26372529553e-34
4.16414580904e-34
3.66513346349e-36
1.27566696714e-35
7.67199244993e-34
1.12866781436e-31
1.56532880893e-29
2.21868081895e-27
3.15084407293e-25
1.23472943387e-23
2.28198041723e-24
8.31039366127e-24
2.4969610954e-23
3.4740504725e-25
2.13359758968e-27
1.4014430213e-29
8.84200699332e-32
6.82356554554e-34
2.26890925754e-34
9.04410985895e-36
1.79270504287e-35
9.80659345496e-36
1.73976535711e-37
2.82583061975e-36
2.7860399077e-35
4.94363691202e-33
7.77440342489e-31
1.1805495611e-28
1.99627609203e-26
1.43736929483e-24
2.04746529426e-26
1.14259353688e-24
7.20729651963e-24
6.68938455397e-26
3.85374694118e-28
2.33603467213e-30
1.34693523971e-32
2.58268781606e-34
3.0149987144e-34
7.08026751034e-36
1.25509673173e-37
7.15894893614e-38
1.33089691874e-36
1.49877045638e-35
6.69268731976e-36
6.81950103139e-34
1.09586342064e-31
1.69947569109e-29
2.95736622336e-27
3.16172146361e-25
6.7807504298e-28
5.58487713296e-25
4.89736007452e-24
4.10852408253e-26
2.29233871373e-28
1.33979921149e-30
7.33199016016e-33
1.5259338903e-34
3.74553282109e-34
8.02316508907e-36
8.31244138788e-38
3.516277927e-39
2.20429377529e-37
7.11514868486e-36
5.24181025837e-36
8.76303862141e-34
1.41745607583e-31
2.21376642314e-29
3.90890771235e-27
4.08190167341e-25
7.83646762852e-28
2.47142492257e-24
9.60245059769e-24
9.60075531788e-26
5.26565449971e-28
3.07754843459e-30
1.69274315982e-32
1.1165978828e-34
2.39422974976e-36
1.47099176363e-37
7.25043613193e-36
1.47647661743e-37
7.19842264064e-39
2.25667601362e-37
4.32094733599e-35
7.88948923785e-33
1.2740733428e-30
1.98893780552e-28
3.50724646166e-26
2.30465095441e-24
6.48819886899e-27
1.4912765291e-23
3.33034921868e-23
5.15219591395e-25
2.84257587201e-27
1.72586015831e-29
1.01765097395e-31
5.68479299698e-34
8.76200610811e-36
3.28209456862e-36
2.70480311972e-34
5.3402153004e-36
4.88724457046e-37
1.04913092194e-35
8.95613670406e-34
1.24557494393e-31
1.77284154263e-29
2.62861539177e-27
3.52659210903e-25
1.04092670887e-23
1.32368970515e-24
6.47367699378e-23
1.32349637981e-22
3.71368587794e-24
3.06721267079e-26
2.17206980464e-28
1.80687580776e-30
2.14509660196e-32
5.1383937319e-34
3.10503447913e-35
8.77597871983e-36
1.34516994343e-35
1.02063845337e-34
1.638574715e-33
5.72538510932e-32
4.17282124489e-30
4.19656252505e-28
4.93733645791e-26
2.53726925469e-24
4.52280463213e-23
1.00194448648e-23
1.05770767951e-22
4.03884793986e-22
3.22052894684e-23
6.45483720072e-25
6.59689812035e-27
9.72043876357e-29
2.23148099915e-30
8.32916820958e-32
5.78759939477e-33
1.43813472117e-33
2.50886845762e-33
1.96177896955e-32
2.67822948461e-31
6.3953828088e-30
2.64272754951e-28
1.73718415486e-26
9.35362898252e-25
1.52780580342e-23
6.81783240863e-23
1.97112657856e-23
2.27218011074e-22
6.62870678452e-22
2.63088040128e-22
1.17527111264e-23
3.5364042768e-25
8.80795682458e-27
2.77241155786e-28
1.24564688878e-29
9.24905161563e-31
2.34388173148e-31
4.09555195896e-31
3.23148633508e-30
3.98898438225e-29
7.82429325828e-28
2.33789488875e-26
6.00886145666e-25
7.81887592827e-24
1.17222805728e-22
2.87210039069e-22
5.67930469186e-23
2.41687835076e-22
9.95253474833e-22
7.110582686e-22
1.90704289553e-22
1.37533888952e-23
9.41924527364e-25
3.6880832506e-26
1.81370133124e-27
1.40276481041e-28
3.63930064043e-29
6.35190579034e-29
5.06829614443e-28
5.99698501996e-27
1.01028254867e-25
1.36137469222e-24
8.9841517412e-24
9.35409804053e-23
2.6762940338e-22
2.87492215371e-22
6.64436279984e-23
2.34306242264e-22
8.52899783542e-22
1.24381517063e-21
7.37869903946e-22
3.06512887237e-22
4.46408909148e-23
3.91102967311e-24
2.94605626972e-25
2.36136400602e-26
6.33807200742e-27
1.1093878826e-26
8.92059217551e-26
7.4183884748e-25
4.65903352671e-24
2.39730721751e-23
1.35008318685e-22
2.77643757389e-22
5.02321556198e-22
2.5838526987e-22
5.60328612963e-23
9.69021247612e-23
5.30668350366e-22
5.89305150692e-22
1.05265271265e-21
7.724839458e-22
2.98662638666e-22
9.55659267181e-23
1.47976135902e-23
2.09264753377e-24
7.23203146957e-25
1.07885933701e-24
5.03744494339e-24
1.98842798124e-23
7.50031221213e-23
9.94687768986e-23
3.35396798198e-22
3.87805383256e-22
2.46442231421e-22
1.5535965292e-22
4.87695100834e-23
1.24418602748e-23
9.69153984123e-23
2.40739790631e-22
2.48878182071e-22
1.97877116631e-22
1.15684237964e-22
2.6268233469e-23
2.87604045819e-24
2.25767956777e-26
7.05110645187e-28
1.35140596641e-27
2.03769029248e-25
4.1065098146e-24
2.19267043148e-23
5.87869817329e-23
8.71171957956e-23
8.42727210331e-23
5.84120249829e-23
4.97919319222e-23
6.24081181711e-24
4.36436529171e-21
3.67118678565e-20
9.91467391823e-20
9.41283633852e-20
2.22958945152e-19
1.14349145788e-19
9.32664198674e-20
3.01200348046e-20
9.12746670047e-21
3.01177686894e-21
2.87971415231e-21
6.7598227501e-21
2.21598782083e-20
5.02191747367e-20
7.38811753434e-20
1.78456691648e-19
1.68817840633e-19
1.30403069627e-19
8.32302058992e-20
1.30289037195e-20
3.60311575549e-20
1.50857000111e-19
3.45524243084e-19
2.92624614385e-19
3.5165207563e-19
2.59413848253e-19
7.50818686721e-20
1.45276348386e-20
2.78835881823e-21
8.71201572047e-22
8.66609398617e-22
2.39557063502e-21
8.21518072932e-21
2.76869870092e-20
9.26410385105e-20
2.2272480852e-19
2.39169403175e-19
3.11120736925e-19
1.30974103755e-19
8.54922279017e-20
9.18015279808e-20
3.35108365182e-19
5.76752756671e-19
4.52835141069e-19
2.42814551313e-19
3.36106501209e-20
2.59764213422e-21
2.36146796884e-22
2.47214417224e-23
5.80547251544e-24
5.68835178262e-24
2.19202673385e-23
1.39031834798e-22
8.80644104647e-22
6.68645655089e-21
5.47653769632e-20
2.18229413867e-19
2.65544823967e-19
3.1682457249e-19
1.45729366501e-19
1.88623857625e-19
3.1581692323e-19
4.22811062168e-19
2.36319147597e-19
2.2986210752e-20
1.05211115376e-21
3.18022127108e-23
2.0009631637e-24
2.40277008866e-25
6.44614529972e-26
5.80885554997e-26
1.74545991745e-25
1.02276774818e-24
1.08897559341e-23
2.51333021093e-22
3.57170727708e-21
4.52808162055e-20
1.731359629e-19
2.35408036629e-19
1.93003174559e-19
1.81482154654e-19
4.88973082593e-19
3.53272922587e-19
3.51020388455e-20
1.08101644699e-21
1.89416319107e-23
6.05337831293e-25
6.51725547451e-26
9.76764582973e-27
3.36821442678e-27
1.60949185856e-27
2.48357061151e-27
9.79936975133e-27
1.29805672051e-25
4.9445132949e-24
2.29941705997e-22
4.37719082411e-21
6.57763532415e-20
2.4463369368e-19
1.64311815941e-19
2.88736170499e-19
2.4312557879e-19
1.10461104339e-19
3.35925629273e-21
4.21024337845e-23
7.45613207209e-25
3.09791966549e-26
3.20783987054e-27
5.70331891131e-28
2.47941201649e-28
9.05377956354e-29
5.87189354223e-29
1.36963653615e-28
2.27220550178e-27
1.19622110023e-25
7.85228573146e-24
4.70823452471e-22
1.10545546615e-20
1.23136531809e-19
1.25612072117e-19
1.86928336919e-19
1.15305418813e-19
1.68807371287e-20
2.52915131773e-22
2.7625258158e-24
4.54116604228e-26
1.4081060201e-27
1.10897215218e-28
5.56676582908e-29
2.38012175761e-29
1.80704914482e-29
1.08980083041e-29
2.03570178611e-30
5.09675130936e-29
3.95445722408e-27
3.4148371964e-25
3.07575977931e-23
1.74165568219e-21
4.12060361198e-20
4.05138056624e-20
9.08121255422e-20
4.60444642725e-20
1.73932489355e-21
1.62858801504e-23
1.77891140395e-25
3.09359058967e-27
7.48603674886e-29
1.44391055183e-28
3.07386357332e-29
1.21887924108e-28
6.75975891412e-29
6.00499071745e-31
1.08880603972e-30
1.25621347423e-30
1.44232959365e-28
1.67347875367e-26
1.93772980626e-24
2.38911839839e-22
9.78675635359e-21
1.25115822476e-20
3.97190831402e-20
1.88551140595e-20
2.81045569788e-22
2.31895554327e-24
2.12695723933e-26
2.89511577847e-28
3.88007911565e-29
5.77138875005e-29
2.03241695102e-30
2.99820739356e-30
1.55971136443e-30
2.52196032161e-32
3.59796125056e-31
6.38041694721e-32
9.46971112594e-30
1.27381180033e-27
1.60364557965e-25
2.05948102762e-23
1.53883053192e-21
3.73705729575e-21
2.16113410452e-20
6.88903529962e-21
6.86065026244e-23
5.33418558997e-25
4.53289280018e-27
7.12100558337e-29
3.85143310097e-29
7.22920230326e-29
1.71082494019e-30
2.27961660991e-32
1.08513960577e-32
2.04691176626e-31
2.9602157496e-30
3.85552081182e-31
1.83819583093e-30
2.32002907245e-28
2.93669061219e-26
3.86509833025e-24
4.26768970519e-22
1.37275348848e-21
1.61959527367e-20
5.01600459265e-21
4.517527293e-23
3.39234296356e-25
2.69819508404e-27
3.26327645818e-29
2.38353426377e-29
8.41603223109e-29
1.79760146472e-30
1.20193491065e-32
4.52139500743e-34
2.72070241496e-32
8.54511228689e-31
7.94143708313e-32
2.22265305476e-30
2.9664788991e-28
3.81304178421e-26
5.10662767581e-24
5.52913991835e-22
1.35279675528e-21
2.29823000205e-20
8.70277601732e-21
9.4304578009e-23
6.93662404182e-25
5.38446030895e-27
5.49069156656e-29
7.33789195352e-30
5.53822361163e-31
2.51738186132e-32
7.92890324694e-31
1.83943785554e-32
6.73604478637e-34
2.42430441452e-33
9.73801357979e-32
1.53106553402e-29
2.13768288126e-27
2.76324786712e-25
3.6939494188e-23
2.54460777469e-21
3.18555409748e-21
4.56363430542e-20
2.43042896352e-20
4.01436981544e-22
2.9321475801e-24
2.24462983016e-26
1.88180422657e-28
1.81301500162e-30
1.23755617684e-30
4.63050725882e-31
2.93600707577e-29
6.26558649008e-31
9.65112740173e-33
3.1121048763e-32
1.43219298022e-30
1.67071638012e-28
1.93525032209e-26
2.25161107673e-24
2.71902433919e-22
8.52087968389e-21
8.20168066569e-21
1.05920199843e-19
7.67065618542e-20
2.17283585924e-21
1.99929116618e-23
1.80750496353e-25
2.12571744205e-27
3.59638721099e-29
1.07038902097e-30
7.6399313382e-32
1.71522541395e-31
8.03969527135e-32
2.10204697628e-31
2.56519498657e-30
7.78364406918e-29
4.79792308546e-27
3.8702880649e-25
3.4826424229e-23
1.51249272947e-21
2.96189412299e-20
2.21671480856e-20
1.12011115092e-19
1.86931198962e-19
1.44785778734e-20
3.37897103535e-22
4.1772396769e-24
7.9178096877e-26
2.32028054698e-27
1.24333749573e-28
1.16470240891e-29
3.58943969895e-30
5.69328731305e-30
3.46581056417e-29
3.435757831e-28
7.13730282823e-27
2.33482324059e-25
1.16370206691e-23
5.16373229008e-22
7.35090422047e-21
3.30234844578e-20
2.62083342363e-20
1.82279512288e-19
2.36019786095e-19
9.60899294853e-20
4.87521391844e-21
1.76387996169e-22
5.52551176614e-24
2.22789809116e-25
1.54570475275e-26
1.56623025777e-27
4.72682953047e-28
7.81456357191e-28
4.91627715348e-27
4.08861547134e-26
6.99529642126e-25
1.55520284259e-23
3.27800492361e-22
3.47056029548e-21
4.96499231631e-20
1.31287745799e-19
5.77598575535e-20
1.66377229827e-19
3.53891814613e-19
2.03634410814e-19
6.72530652042e-20
5.73222486902e-21
4.92676521285e-22
2.36234251312e-23
1.86196785786e-24
1.94638345127e-25
6.0040763944e-26
9.957327132e-26
6.36390460681e-25
4.78712398016e-24
6.92529160632e-23
7.26089723462e-22
3.94090230983e-21
3.76327894802e-20
8.82958054606e-20
1.12049246219e-19
5.2657554391e-20
1.44060746398e-19
3.03504170582e-19
3.77729624418e-19
2.11802150135e-19
1.11355015516e-19
1.98296538562e-20
2.26244876593e-21
2.30565085922e-22
2.47255976889e-23
7.91858865176e-24
1.31402376265e-23
8.46251963424e-23
5.26157920296e-22
2.62625501129e-21
1.11482428061e-20
5.45866474478e-20
9.05221382917e-20
1.75897187099e-19
9.50416377489e-20
3.704216177e-20
5.88675897503e-20
2.14159066365e-19
1.8528221292e-19
3.79084370938e-19
3.00138680662e-19
1.27839517682e-19
5.71899426455e-20
1.17280725318e-20
2.19744879858e-21
9.05190451484e-22
1.29263152426e-21
4.89008263606e-21
1.46873681796e-20
4.55950770474e-20
4.54792764651e-20
1.46413376652e-19
1.55327623857e-19
8.95531373537e-20
6.54234462466e-20
3.79343618068e-20
9.26844503869e-21
5.92391460239e-20
1.50067819308e-19
1.75879721254e-19
1.65373274805e-19
1.34534899242e-19
5.0155857692e-20
1.56817326093e-20
4.93014387631e-21
2.08240094203e-21
2.78077990198e-21
6.4818923941e-21
1.46248755201e-20
4.19620320941e-20
7.41060589352e-20
8.601082764e-20
6.81679255984e-20
3.85295258613e-20
3.87532379151e-20
6.40495494653e-21
9.76615239711e-19
6.66280521378e-18
1.81801590483e-17
1.65611156733e-17
4.87775907245e-17
2.91838777829e-17
3.23518168094e-17
1.52523711635e-17
7.63589337544e-18
3.56614381525e-18
3.38107500258e-18
5.19803941559e-18
1.19789606352e-17
1.81473402695e-17
2.05810306687e-17
4.31039776093e-17
3.56686155672e-17
2.56511769789e-17
1.71255795695e-17
3.29209534502e-18
6.56452475268e-18
2.20142744666e-17
4.86551546167e-17
3.58171174641e-17
4.74003042912e-17
4.71977908764e-17
1.76202173158e-17
4.60436024216e-18
1.25464486829e-18
5.06177953651e-19
5.02996577264e-19
1.08716885549e-18
2.76156801575e-18
7.08250260904e-18
1.89286589271e-17
3.75065007877e-17
3.06425076293e-17
4.47418074708e-17
1.73629871102e-17
1.77487151202e-17
1.68878994001e-17
4.69333280601e-17
7.4769411571e-17
5.7180437319e-17
3.73619816511e-17
6.57439507628e-18
6.85105507974e-19
9.17226512723e-20
1.42453146231e-20
5.25491910005e-21
5.10593036755e-21
1.27447293007e-20
5.6960122e-20
2.47910079305e-19
1.42535498324e-18
9.4298521732e-18
3.16428770264e-17
3.08357869823e-17
4.60946171266e-17
2.94008895029e-17
3.82849102551e-17
3.85229280013e-17
4.81268695762e-17
3.45729666617e-17
4.22123829415e-18
2.50014833528e-19
1.03758440162e-20
1.40113641895e-21
4.17017355921e-22
1.99357100967e-22
1.72183115728e-22
2.66034860013e-22
7.1506243163e-22
3.80999490902e-21
6.51997543298e-20
6.981578381e-19
7.52529235193e-18
2.32581225752e-17
3.06954616391e-17
4.14960568825e-17
3.74971081589e-17
6.69202183553e-17
5.15927215433e-17
6.22393452217e-18
2.43198935906e-19
7.12866391199e-21
1.33620399041e-21
9.49937371108e-22
4.31841209597e-22
2.80846016453e-22
1.12982417491e-22
1.10481681461e-22
1.0439580542e-22
1.6445906327e-22
1.69154824472e-21
5.80404098141e-20
8.53353093565e-19
1.13637524948e-17
4.15272606889e-17
3.87580995295e-17
6.77474052578e-17
3.43639891656e-17
1.90922513746e-17
7.41988906567e-19
1.35156411851e-20
1.81884319242e-21
3.44592987405e-21
5.60987577285e-21
4.81923621427e-21
3.13722841025e-21
2.03946390102e-21
1.09109490847e-21
3.38673341734e-22
1.46153650288e-22
1.14766928574e-22
2.46397364587e-21
1.1728709318e-19
2.30776560671e-18
2.47717657475e-17
3.57635476236e-17
5.2043333391e-17
1.99097633123e-17
3.66449588185e-18
7.13427323712e-20
2.18288809149e-21
2.65276441696e-21
5.95823939603e-21
1.85908705039e-20
3.15034886339e-20
2.2890266298e-20
1.96248582626e-20
1.56490982824e-20
3.17961227412e-21
9.78089708285e-22
1.07542015506e-22
1.96160598631e-22
1.03133913993e-20
4.6071904482e-19
1.01929324404e-17
1.41354380875e-17
3.27067810177e-17
1.03009339087e-17
4.94451661114e-19
7.24158005257e-21
8.20650000673e-22
5.12408255818e-21
1.52321661114e-20
8.00889944276e-20
6.10163595146e-20
9.27617291636e-20
6.5274152713e-20
2.8366832649e-20
1.48646646638e-20
1.16217451836e-21
9.40015861217e-23
1.75646273713e-23
1.05580395334e-21
8.77702589565e-20
3.15248346721e-18
6.25614273238e-18
1.90563293466e-17
5.78453716746e-18
1.09814868092e-19
1.53488085649e-21
2.21486700086e-22
2.80630394825e-21
2.56296353318e-20
5.15694302051e-20
2.63742298939e-21
2.26221457898e-21
1.7039189936e-21
1.18295155971e-21
9.42285568474e-21
1.20670518807e-21
1.33418922949e-22
1.7925738752e-24
1.27272157448e-22
1.05806546763e-20
6.73042551552e-19
3.13154197825e-18
1.39167164303e-17
2.67687358778e-18
3.45164113814e-20
4.87986611692e-22
8.00960318506e-23
2.09340185677e-21
2.5181861323e-20
7.44885526369e-20
1.35868095981e-21
1.11144176282e-23
4.45957858827e-23
2.08069969994e-21
4.3164953373e-20
5.96125929589e-21
1.84151052796e-22
6.16232982883e-25
3.20137651806e-23
2.59918226983e-21
2.3710201363e-19
1.88866017848e-18
1.14869223546e-17
2.08777218378e-18
2.44557204898e-20
3.3018690772e-22
3.09330293186e-23
1.22618934521e-21
2.40667226647e-20
6.66946932777e-20
1.04339145542e-21
1.71699719975e-23
4.09878637855e-23
1.58332918043e-21
3.24720077201e-20
4.57699397981e-21
9.72878000943e-23
6.51779570036e-25
3.94497347252e-23
3.40855275368e-21
3.07806609331e-19
1.86272508077e-18
1.32635859027e-17
3.19678816557e-18
4.49289105558e-20
5.71187410106e-22
6.22278798236e-23
1.45871510436e-21
2.19365421202e-20
2.26587787397e-20
5.87705418834e-22
1.24063013499e-21
9.97801330881e-22
1.57839393656e-22
1.54685114087e-21
2.27121713219e-21
4.50390633897e-23
2.59035140027e-24
2.19376586133e-22
1.94747919927e-20
1.14179009125e-18
2.67893984359e-18
2.00374955797e-17
7.22478453913e-18
1.49268039559e-19
1.70080798951e-21
9.01403867256e-23
6.03727455553e-22
4.68664502712e-21
2.29459465156e-20
8.36242631292e-21
3.23314242038e-20
2.79547655618e-20
2.83947750802e-21
6.89022498573e-21
3.86117830394e-21
3.56980611131e-23
1.71774766917e-23
1.24715963433e-21
1.02251347258e-19
2.82194950571e-18
4.37432291593e-18
3.58460530433e-17
1.82709664156e-17
5.96903706385e-19
6.95107480502e-21
2.20609962844e-22
4.85745624483e-22
3.03648325787e-21
5.02272991289e-21
8.70558086873e-22
5.60604474669e-21
3.55664758767e-21
2.67432279482e-21
2.38809089213e-21
9.23351857152e-22
1.15143058024e-23
2.20477399327e-22
1.27654949492e-20
4.26312783236e-19
7.90452643346e-18
8.68137866444e-18
3.02256434954e-17
3.57793199475e-17
3.03511330321e-18
8.91249490375e-20
1.78207340964e-21
1.87823747826e-22
2.8645112777e-22
5.36515598347e-22
3.54697666234e-23
1.11602369126e-22
5.63783386524e-23
4.56366729252e-23
3.83552120647e-23
1.38922511295e-23
1.3486945419e-22
4.20479805165e-21
1.40220771044e-19
1.64918639776e-18
6.57613542915e-18
8.25218258855e-18
4.10606440172e-17
3.36845507695e-17
1.61743758306e-17
9.73580499759e-19
4.51793920179e-20
2.38746645613e-21
1.66935027435e-22
2.50561954199e-23
2.66059211483e-24
1.1900080995e-24
1.33640746279e-24
5.18179113835e-24
3.05277439574e-23
3.74467157917e-22
5.54470901752e-21
8.85876897721e-20
7.35865637386e-19
9.66719676605e-18
2.4815287534e-17
1.6138321248e-17
3.54296938038e-17
5.28377035738e-17
2.54905444506e-17
1.11377289493e-17
1.15051702028e-18
1.293769664e-19
8.15466515098e-21
1.0930646485e-21
1.61278039878e-22
6.17706500533e-23
9.21107495199e-23
4.49944412321e-22
2.22564422675e-21
2.45121242473e-20
1.88864178818e-19
8.23358264267e-19
7.08086058194e-18
1.26081355249e-17
1.78149121006e-17
1.23006858968e-17
2.86681331413e-17
4.51214300712e-17
5.13033459517e-17
2.65598687113e-17
1.8631807362e-17
4.10679790247e-18
6.26240716141e-19
8.87521767349e-20
1.30113330161e-20
5.11766347852e-21
7.87726700095e-21
3.98136181112e-20
1.7958870911e-19
6.93603825699e-19
2.40127966437e-18
1.00767249313e-17
1.27953389909e-17
2.73149915355e-17
1.37895195701e-17
7.36146829001e-18
1.18820722608e-17
3.43288291475e-17
2.33789471182e-17
5.73713316819e-17
4.85978072936e-17
2.16756233633e-17
1.40744199817e-17
3.80284548727e-18
9.45958436163e-19
4.65973075332e-19
6.31582639008e-19
1.91794224643e-18
4.37721818833e-18
1.12879907379e-17
8.5110405635e-18
2.62709686796e-17
2.56703111849e-17
1.28351679701e-17
1.03376246877e-17
9.51393672508e-18
2.28468795415e-18
1.20186392373e-17
3.01965871523e-17
3.81970874978e-17
3.86245306392e-17
3.80101741841e-17
1.78247834722e-17
7.88897918436e-18
3.86422359371e-18
2.3471756606e-18
2.76402325738e-18
4.44426594982e-18
6.72935497527e-18
1.62718409002e-17
2.26342521994e-17
2.3591610434e-17
1.65036792211e-17
7.67139502556e-18
9.7231618558e-18
2.06881788763e-18
1.01328101859e-16
5.61078620298e-16
1.53109354099e-15
1.3442257842e-15
4.43806512704e-15
2.99319065559e-15
4.01081648816e-15
2.39889962042e-15
1.57721690725e-15
8.00496619272e-16
7.59832845215e-16
9.55434096122e-16
2.01105708833e-15
2.32271832899e-15
2.29911247565e-15
4.38040785511e-15
3.32994011307e-15
2.26301869781e-15
1.58470895156e-15
3.72015455738e-16
5.5864129899e-16
1.61408493438e-15
3.51296480701e-15
2.20664892618e-15
3.0799563258e-15
4.25828700916e-15
2.01201825771e-15
6.8444826084e-16
2.54165644852e-16
1.26857287071e-16
1.25944546943e-16
2.20289907639e-16
4.34237800049e-16
8.84806759056e-16
1.9462553932e-15
3.21944886836e-15
1.89458970567e-15
3.26621251993e-15
1.05884432546e-15
1.65886257493e-15
1.44845959267e-15
3.38812293714e-15
5.17710773291e-15
3.88931744457e-15
3.11550403309e-15
7.01030972258e-16
9.81940494015e-17
1.95418645297e-17
4.87911780068e-18
2.46000628871e-18
2.38316758466e-18
4.16965799112e-18
1.27956741846e-17
3.79872794047e-17
1.68035067361e-16
8.94952912627e-16
2.49630792919e-15
1.80137169639e-15
3.42351503534e-15
2.66831186748e-15
3.48520154147e-15
2.41251584267e-15
2.82347228612e-15
2.79382695188e-15
4.37169255115e-16
3.49923847717e-17
2.5250500299e-18
9.25790549194e-19
8.37678183596e-19
6.3367428369e-19
5.797320077e-19
6.20503448222e-19
5.34312434097e-19
9.29043040899e-19
1.02642767334e-17
7.85696129662e-17
7.05443303518e-16
1.68901091827e-15
1.97541700588e-15
3.93115547892e-15
3.35894229649e-15
4.49156843452e-15
4.0668018774e-15
6.17570508077e-16
3.27240228194e-17
2.60288187664e-18
4.12596851708e-18
8.43874156262e-18
9.11355140601e-18
1.02667133508e-17
6.51976038652e-18
6.41444323129e-18
4.20331870434e-18
1.7981226879e-18
1.11263204232e-18
9.16843001143e-18
9.58010825932e-17
1.08384474488e-15
3.59194168088e-15
3.81928270573e-15
6.30518898545e-15
2.31862198996e-15
1.77024562554e-15
9.46269284372e-17
3.83461004678e-18
6.76911990258e-18
2.27331436738e-17
3.46066123316e-17
3.8956678555e-17
3.82022750358e-17
3.24000068808e-17
2.19491092731e-17
1.30333692428e-17
1.06956670997e-17
3.05221699272e-18
1.28904264871e-18
1.74737425559e-17
2.65496596574e-16
2.49812689158e-15
3.95559953853e-15
5.32458592618e-15
1.6833631687e-15
4.28426661406e-16
1.23168167229e-17
3.92594238166e-18
1.98797163962e-17
2.61646985916e-17
4.79802803943e-17
7.66509938742e-17
7.27640857726e-17
6.90740185972e-17
5.56495891682e-17
2.15549264682e-17
1.4959215e-17
1.06247410425e-17
2.03707685163e-18
2.23002325557e-18
6.67344987233e-17
1.2269935613e-15
1.70284588231e-15
3.98194084183e-15
1.10791352598e-15
7.71823948414e-17
2.29372568142e-18
8.06658254605e-18
3.44598263186e-17
4.28016592104e-17
1.14872699552e-16
1.03336378077e-16
1.65357111002e-16
1.32217743147e-16
7.51774690932e-17
4.90632556018e-17
1.85514643046e-17
1.14320787913e-17
3.19401197899e-18
4.84920495666e-19
1.79355933314e-17
4.80511802912e-16
9.42073959503e-16
2.75910509551e-15
8.21358241732e-16
2.31948540533e-17
1.14504243458e-18
8.18712004648e-18
3.02251504944e-17
6.89978471243e-17
8.77724926966e-17
5.77024925701e-18
5.58876255852e-18
8.03969169153e-18
6.60394272107e-18
4.00722994701e-17
1.98744964214e-17
1.54358920001e-17
2.23204228794e-18
1.61890846355e-19
3.06346489396e-18
1.36588005924e-16
6.45131257481e-16
2.43999164798e-15
4.7036929471e-16
9.58271123699e-18
7.03707848007e-19
6.63446500544e-18
3.24644646918e-17
8.09063583847e-17
1.25639755197e-16
4.96215138624e-18
7.65571056795e-20
8.08488079268e-19
1.54654381165e-17
1.32951168708e-16
5.20886831315e-17
2.28648908927e-17
2.43484128357e-18
1.14770585921e-19
1.10765489616e-18
5.96586651259e-17
4.6341227524e-16
2.17913769462e-15
3.90571728547e-16
7.47987330965e-18
5.12028892189e-19
5.12763527728e-18
2.76947567619e-17
8.63191931854e-17
1.27771696273e-16
6.59021858545e-18
2.80663710717e-19
8.87877907693e-19
1.37368695912e-17
1.16436372859e-16
4.40690570231e-17
1.91451928238e-17
2.5074359967e-18
1.01074087118e-19
1.43098693464e-18
7.77949894471e-17
4.65105235514e-16
2.2103243747e-15
5.34428132418e-16
1.15292382277e-17
6.76974705102e-19
6.02079815941e-18
2.77154856752e-17
7.68759025328e-17
6.24148784187e-17
3.58788825496e-18
8.02347820878e-18
7.2010827748e-18
2.89535819305e-18
1.88281372614e-17
2.40944412273e-17
1.03840886951e-17
1.86543013416e-18
2.41970397677e-19
5.7740751754e-18
2.36325936617e-16
5.30292498694e-16
2.8431512622e-15
1.00750634729e-15
2.99618105961e-17
8.07240132384e-19
4.91957756993e-18
1.88575249227e-17
3.14988816862e-17
6.71626792068e-17
3.62365791841e-17
1.00574845528e-16
1.00467567745e-16
2.19677315911e-17
4.13000682475e-17
3.49240541681e-17
1.22353380203e-17
2.26197360125e-18
5.72684420072e-19
2.15227764817e-17
4.39886771197e-16
6.85875888487e-16
4.3418338875e-15
2.11005821342e-15
8.8470019679e-17
1.89413062573e-18
2.12633723343e-18
1.94389966536e-17
2.95044889287e-17
3.47641237081e-17
2.0531496095e-17
5.11143075787e-17
3.81331978475e-17
2.72660347356e-17
2.78845349834e-17
2.26229669763e-17
9.33000233783e-18
1.61020381388e-18
3.09045456515e-18
6.60587278611e-17
1.01993981367e-15
1.1575256055e-15
3.25095007211e-15
3.39579132643e-15
3.47106585489e-16
1.42605611278e-17
9.67797598695e-19
4.86028389193e-18
1.4784356638e-17
2.15429862517e-17
1.32249920056e-17
2.42106397735e-17
1.98197330915e-17
1.29416445721e-17
1.58447692767e-17
9.53930394353e-18
3.04553089425e-18
1.21519973445e-18
2.29429184017e-17
2.03339971366e-16
6.66112529201e-16
1.01770749782e-15
3.80055975428e-15
2.32396084511e-15
1.48379033473e-15
1.11383218224e-16
7.28223143845e-18
1.66372220716e-18
2.16998038381e-18
3.60216368442e-18
3.23142194918e-18
2.47375399435e-18
2.79105156588e-18
1.91009317756e-18
2.37314843036e-18
1.3683239729e-18
1.46133627659e-18
1.48029398674e-17
8.93765164524e-17
1.02174221258e-15
2.35606167918e-15
1.91096826514e-15
3.34429146517e-15
4.0264221469e-15
1.64244624144e-15
1.03190673077e-15
1.32361970766e-16
2.05201356811e-17
2.18250617688e-18
5.9260262992e-19
2.21528303986e-19
1.46849547918e-19
1.42831830475e-19
2.93342626303e-19
9.98191719262e-19
5.54155241207e-18
2.904491925e-17
9.82463097379e-17
7.41186867555e-16
9.03527917569e-16
1.40633910827e-15
1.23790112648e-15
2.55633587429e-15
3.40955394492e-15
3.71930342588e-15
1.70406118583e-15
1.69534561912e-15
4.62411789674e-16
9.54327043779e-17
1.90421093196e-17
3.93464582741e-18
2.07407917238e-18
2.7893648934e-18
1.04323334914e-17
3.37376409395e-17
9.957899585e-17
2.8232889684e-16
1.00447252706e-15
9.14438785731e-16
2.23489224599e-15
9.33143318745e-16
6.02483110098e-16
1.08695852896e-15
2.7019256579e-15
1.4400097962e-15
4.43581611891e-15
3.98196607651e-15
1.68800280887e-15
1.67823831158e-15
5.80981139631e-16
1.87275028077e-16
1.0899973633e-16
1.40159505204e-16
3.46993696145e-16
6.14951757115e-16
1.35409358907e-15
8.10041771908e-16
2.35714017629e-15
2.13083789136e-15
8.61101211623e-16
7.3321438963e-16
1.06189688621e-15
2.53888447438e-16
1.10457527988e-15
2.71623693415e-15
3.65843106422e-15
3.75317096884e-15
4.17145379348e-15
2.21338832995e-15
1.20486096221e-15
7.41880876874e-16
5.87880623371e-16
6.14626916984e-16
8.38668407647e-16
1.01768403546e-15
2.30960411513e-15
2.65102245392e-15
2.72425260907e-15
1.73848630308e-15
6.3445104682e-16
1.08535676894e-15
2.94096792649e-16
5.47303958125e-15
2.42564501137e-14
6.61970332323e-14
6.22387787307e-14
1.80849219837e-13
1.35685604383e-13
1.97475223493e-13
1.39589164295e-13
1.03190464084e-13
5.38742780023e-14
5.11977130402e-14
5.65001087723e-14
1.24921205832e-13
1.20118143947e-13
1.15352548738e-13
2.03084104699e-13
1.50781270036e-13
9.72961125256e-14
7.01366806366e-14
2.02770932173e-14
2.5140191398e-14
6.30098284536e-14
1.32856874039e-13
7.58459419424e-14
1.01370720153e-13
1.90437526926e-13
1.10969333376e-13
4.61216293155e-14