/*--------------------------------*- C++ -*----------------------------------*\
| =========                 |                                                 |
| \\      /  F ield         | OpenFOAM: The Open Source CFD Toolbox           |
|  \\    /   O peration     | Version:  3.0.1                                 |
|   \\  /    A nd           | Web:      www.OpenFOAM.org                      |
|    \\/     M anipulation  |                                                 |
\*---------------------------------------------------------------------------*/
FoamFile
{
    version     2.0;
    format      ascii;
    class       volScalarField;
    location    "2.1";
    object      rAU;
}
// * * * * * * * * * * * * * * * * * * * * * * * * * * * * * * * * * * * * * //

dimensions      [-1 3 1 0 0 0 0];

internalField   nonuniform List<scalar> 
7968
(
4.00362319779e-06
4.00178524241e-06
4.00152278256e-06
4.00142874719e-06
4.00143070836e-06
4.00110367736e-06
4.00091459533e-06
4.00112240518e-06
4.0011835623e-06
4.00119553003e-06
4.00119510525e-06
4.0011763599e-06
4.00110115292e-06
4.00090553341e-06
4.00110390258e-06
4.0014171506e-06
4.00141902862e-06
4.00152185344e-06
4.0017868823e-06
4.0036226673e-06
4.00178421167e-06
3.9970128349e-06
3.99541717814e-06
3.99463400864e-06
3.99423462233e-06
3.99376990605e-06
3.99351520356e-06
3.9936321451e-06
3.99368128117e-06
3.99369337821e-06
3.99368984352e-06
3.99366903727e-06
3.99360934454e-06
3.99352854697e-06
3.99379792606e-06
3.99422959994e-06
3.99462736696e-06
3.99541953409e-06
3.99701784068e-06
4.00178611127e-06
4.00151812554e-06
3.99541195808e-06
3.99306048009e-06
3.99185651617e-06
3.99119306611e-06
3.99065784507e-06
3.99035940522e-06
3.99038920287e-06
3.99043539797e-06
3.99045474186e-06
3.99044522633e-06
3.99040931904e-06
3.99035445854e-06
3.990366912e-06
3.99068583637e-06
3.99118843876e-06
3.99184811468e-06
3.99306246011e-06
3.99541662696e-06
4.00151998093e-06
4.00141499917e-06
3.99461919373e-06
3.99184752007e-06
3.99040476237e-06
3.9895846896e-06
3.98897636319e-06
3.98864661741e-06
3.98864528895e-06
3.98869483398e-06
3.98871260082e-06
3.98869451743e-06
3.98864554308e-06
3.98857959563e-06
3.98863392158e-06
3.98899285685e-06
3.98957142538e-06
3.99038541283e-06
3.99184410419e-06
3.9946202947e-06
4.00141417692e-06
4.00141287104e-06
3.99422223269e-06
3.99119129668e-06
3.98959699069e-06
3.98865225284e-06
3.98793486023e-06
3.987555452e-06
3.98748957322e-06
3.98745907623e-06
3.98744001273e-06
3.98742018844e-06
3.9874015501e-06
3.98739985194e-06
3.9874961512e-06
3.98794047871e-06
3.98862638298e-06
3.98955617186e-06
3.99117539735e-06
3.99421272505e-06
4.001402164e-06
4.00110294276e-06
3.9937911904e-06
3.99069792419e-06
3.98902472337e-06
3.98795213042e-06
3.98714398816e-06
3.98671122558e-06
3.98664880465e-06
3.98662539134e-06
3.98661277795e-06
3.98659435164e-06
3.98657121171e-06
3.98656111193e-06
3.98665376997e-06
3.98716911261e-06
3.98795107125e-06
3.98895162378e-06
3.9906502513e-06
3.99377839779e-06
4.00112573658e-06
4.00090782463e-06
3.99352547648e-06
3.9903907085e-06
3.98868719076e-06
3.98753464282e-06
3.98667513043e-06
3.98634345603e-06
3.98635821823e-06
3.98639025547e-06
3.98640291236e-06
3.98638045327e-06
3.98632802086e-06
3.98626487912e-06
3.98626444437e-06
3.98675806174e-06
3.98759351148e-06
3.98862072485e-06
3.99035347117e-06
3.99353763123e-06
4.00096410533e-06
4.00110083991e-06
3.99361063369e-06
3.9903833323e-06
3.98864526677e-06
3.98744615849e-06
3.9865960701e-06
3.98635840769e-06
3.98637424486e-06
3.98639618332e-06
3.98639863249e-06
3.98636918645e-06
3.98631300899e-06
3.98624586363e-06
3.98621464933e-06
3.98669106878e-06
3.98757161921e-06
3.98859618079e-06
3.9903672087e-06
3.99362752573e-06
4.00113323237e-06
4.00117134479e-06
3.9936711713e-06
3.99043758274e-06
3.98870046111e-06
3.9874226795e-06
3.98657999906e-06
3.98639943137e-06
3.98640451003e-06
3.98641546285e-06
3.98640986707e-06
3.98637713756e-06
3.98632212391e-06
3.98625777482e-06
3.98621531376e-06
3.98668305014e-06
3.98757840985e-06
3.98862051418e-06
3.99040219219e-06
3.99366622658e-06
4.00118352699e-06
4.00119077271e-06
3.99369261407e-06
3.99046890242e-06
3.98873531171e-06
3.98741765301e-06
3.98658365705e-06
3.98642964067e-06
3.98642347905e-06
3.98642507874e-06
3.98641336026e-06
3.98637861237e-06
3.98632535266e-06
3.98626514015e-06
3.98622447704e-06
3.98668701094e-06
3.98758144973e-06
3.9886379934e-06
3.99041909207e-06
3.99367662411e-06
4.00119410712e-06
4.00119159669e-06
3.99369467613e-06
3.99047175638e-06
3.98873519065e-06
3.98741517989e-06
3.98658743713e-06
3.98643165895e-06
3.98641667151e-06
3.98641240537e-06
3.98639695988e-06
3.98635980678e-06
3.98630549312e-06
3.98624691438e-06
3.98621648062e-06
3.98668146751e-06
3.98756842862e-06
3.98862524502e-06
3.99041249226e-06
3.99367445814e-06
4.00119441128e-06
4.00117783716e-06
3.99368138474e-06
3.99044777261e-06
3.98870283349e-06
3.98741138811e-06
3.98658655939e-06
3.98640640266e-06
3.98638519227e-06
3.98637867582e-06
3.98636192695e-06
3.98632211465e-06
3.98626453045e-06
3.98620626301e-06
3.98619771876e-06
3.98667141959e-06
3.98754209777e-06
3.98858752063e-06
3.99038568049e-06
3.99365932043e-06
4.00118022843e-06
4.00112280401e-06
3.99363809745e-06
3.99040621813e-06
3.98865310867e-06
3.98742333824e-06
3.98659887068e-06
3.98637129194e-06
3.98634363692e-06
3.98633625264e-06
3.98631999477e-06
3.98627917232e-06
3.98622043174e-06
3.98616680434e-06
3.98619723542e-06
3.98668380996e-06
3.9875215475e-06
3.98856588926e-06
3.99035199437e-06
3.99361753437e-06
4.00112241684e-06
4.00093261632e-06
3.99354672974e-06
3.99040264159e-06
3.98868486495e-06
3.98750606088e-06
3.98667730067e-06
3.98636814814e-06
3.98631966443e-06
3.98630687888e-06
3.98629297741e-06
3.9862578442e-06
3.98620988232e-06
3.98618065242e-06
3.98627939397e-06
3.9868016894e-06
3.98758243579e-06
3.98863655654e-06
3.99039186374e-06
3.99357299231e-06
4.00096886813e-06
4.00111530756e-06
3.99379196946e-06
3.99068827237e-06
3.98900863897e-06
3.98789964686e-06
3.98714321692e-06
3.98677719809e-06
3.98670262933e-06
3.98667321648e-06
3.98665654171e-06
3.98663549122e-06
3.9866134411e-06
3.98661721446e-06
3.98677419673e-06
3.98724626944e-06
3.98795998484e-06
3.98897025978e-06
3.99068812103e-06
3.99381594268e-06
4.00113201582e-06
4.00142318827e-06
3.99423036992e-06
3.99119212285e-06
3.98958585064e-06
3.98861279463e-06
3.98792376534e-06
3.98761052394e-06
3.98756218887e-06
3.98754135508e-06
3.98752461165e-06
3.98750216912e-06
3.98747696722e-06
3.98746605875e-06
3.98757769768e-06
3.98798280821e-06
3.98859306888e-06
3.98952703982e-06
3.99116295646e-06
3.99420566561e-06
4.00138920858e-06
4.00142497268e-06
3.99463485744e-06
3.99186011548e-06
3.99040818829e-06
3.98956403689e-06
3.9889666647e-06
3.98866597358e-06
3.98863865793e-06
3.98865877107e-06
3.98865609619e-06
3.98862388959e-06
3.98857049765e-06
3.98854887259e-06
3.988655223e-06
3.98900066022e-06
3.98952912632e-06
3.99035720418e-06
3.99183558042e-06
3.99461674152e-06
4.00140570868e-06
4.00152436275e-06
3.99542267719e-06
3.99306947038e-06
3.99185934448e-06
3.99117764526e-06
3.99065396152e-06
3.99038320712e-06
3.9903989634e-06
3.99042153553e-06
3.99042510599e-06
3.99040573799e-06
3.9903681661e-06
3.99032858171e-06
3.99040955132e-06
3.99071708293e-06
3.99115849115e-06
3.99183087968e-06
3.99306282571e-06
3.99542161686e-06
4.00151903384e-06
4.00178738562e-06
3.99701872433e-06
3.99542142089e-06
3.99463299363e-06
3.99421473891e-06
3.99378140302e-06
3.99355930922e-06
3.99364555334e-06
3.99367350209e-06
3.99367687858e-06
3.99366865919e-06
3.99364462742e-06
3.9935890965e-06
3.99360322827e-06
3.99386068421e-06
3.99419722322e-06
3.99460992739e-06
3.99541919998e-06
3.99702426442e-06
4.00178866902e-06
4.0036229875e-06
4.00178708765e-06
4.00152389626e-06
4.00142529751e-06
4.001407107e-06
4.00111919161e-06
4.00096959516e-06
4.00114545793e-06
4.00118646327e-06
4.00119404254e-06
4.00119162649e-06
4.00117005548e-06
4.00109222297e-06
4.00094052952e-06
4.00111999575e-06
4.00137886701e-06
4.00140005941e-06
4.00151682786e-06
4.0017882419e-06
4.00362206164e-06
4.0018693062e-06
3.99715299976e-06
3.99553934764e-06
3.99474360536e-06
3.99429919574e-06
3.99392625324e-06
3.99372117762e-06
3.99373243715e-06
3.99375988622e-06
3.9937680329e-06
3.99376299234e-06
3.99374215714e-06
3.99370642855e-06
3.9937155374e-06
3.99394281739e-06
3.99429663942e-06
3.99472721277e-06
3.99553220837e-06
3.99714861544e-06
4.00186625457e-06
3.99715763162e-06
3.97447797829e-06
3.96352405566e-06
3.9581711581e-06
3.9552212127e-06
3.95352138961e-06
3.95264570225e-06
3.95231077622e-06
3.95219576172e-06
3.95215232182e-06
3.95212792975e-06
3.95212725008e-06
3.95221424148e-06
3.95255833317e-06
3.9534573507e-06
3.95515595747e-06
3.95811189986e-06
3.96348989623e-06
3.97445777373e-06
3.99715269556e-06
3.99554289587e-06
3.96353690334e-06
3.94714549132e-06
3.93874910742e-06
3.93399688694e-06
3.93127641131e-06
3.92983900783e-06
3.92919242386e-06
3.92894229724e-06
3.92884853655e-06
3.92881260784e-06
3.92884098842e-06
3.9290500008e-06
3.92969511406e-06
3.93115259883e-06
3.93388274645e-06
3.93865123929e-06
3.94708069925e-06
3.96349774514e-06
3.99553580398e-06
3.99474194712e-06
3.95819106746e-06
3.93876338318e-06
3.92852854767e-06
3.92263582066e-06
3.9192366527e-06
3.91739863811e-06
3.91652174789e-06
3.91619549315e-06
3.91607773036e-06
3.91602557995e-06
3.91605178542e-06
3.9163221865e-06
3.91719225853e-06
3.91904195676e-06
3.9224581326e-06
3.92837656769e-06
3.93865139292e-06
3.95811647939e-06
3.99472427827e-06
3.99431356877e-06
3.95526544597e-06
3.93403887641e-06
3.92266340455e-06
3.91604555774e-06
3.91218827805e-06
3.91011939292e-06
3.90916047269e-06
3.90878306243e-06
3.90864126789e-06
3.90857143897e-06
3.90859036043e-06
3.9088870931e-06
3.90982238166e-06
3.91192581737e-06
3.91579404258e-06
3.92244763931e-06
3.93387005759e-06
3.95514133393e-06
3.99427381933e-06
3.99395383273e-06
3.95358599674e-06
3.93134492979e-06
3.91929508229e-06
3.91222813371e-06
3.90813225341e-06
3.90595428201e-06
3.90496116082e-06
3.90457836155e-06
3.90443148558e-06
3.90434272538e-06
3.9043305844e-06
3.90460069602e-06
3.90555682124e-06
3.90776353727e-06
3.91191044916e-06
3.91901627654e-06
3.93112698309e-06
3.95343490325e-06
3.99392996854e-06
3.99373351545e-06
3.95270612787e-06
3.92991919981e-06
3.9174839712e-06
3.91017582668e-06
3.9059878414e-06
3.90379256177e-06
3.90281532802e-06
3.90245589722e-06
3.90232060076e-06
3.90221810047e-06
3.90216710423e-06
3.90238504614e-06
3.90330052632e-06
3.90552953123e-06
3.90978152926e-06
3.91715661651e-06
3.92966624393e-06
3.95254535784e-06
3.99373810523e-06
3.99373649303e-06
3.95237574065e-06
3.92928992736e-06
3.91662462328e-06
3.90925432178e-06
3.90503826341e-06
3.90286478772e-06
3.90192704292e-06
3.9016067334e-06
3.9014909496e-06
3.90137827142e-06
3.90128772546e-06
3.90144635579e-06
3.90230726497e-06
3.90450770337e-06
3.90880308145e-06
3.91626505859e-06
3.92900051847e-06
3.95218328429e-06
3.99372698068e-06
3.99376765574e-06
3.95228071035e-06
3.92906862316e-06
3.91632508381e-06
3.90892437982e-06
3.9047158979e-06
3.90257277062e-06
3.9016743871e-06
3.90138675626e-06
3.9012849505e-06
3.90116349914e-06
3.90104180321e-06
3.90115170669e-06
3.90196357854e-06
3.90413265581e-06
3.90842566053e-06
3.91591154135e-06
3.92874116813e-06
3.95205352187e-06
3.99374214844e-06
3.9937841837e-06
3.95225954996e-06
3.92900936192e-06
3.91625247088e-06
3.90884069956e-06
3.90464019062e-06
3.90251368933e-06
3.90163295056e-06
3.90135661773e-06
3.90125680964e-06
3.90112768919e-06
3.90098909436e-06
3.90107430368e-06
3.9018617595e-06
3.90401582992e-06
3.90830421417e-06
3.91580141554e-06
3.92865319701e-06
3.9520090665e-06
3.99374842197e-06
3.9937842741e-06
3.95225375712e-06
3.92900120633e-06
3.91624482175e-06
3.9088287012e-06
3.90462220267e-06
3.9024857604e-06
3.90159194625e-06
3.90130229834e-06
3.90119204212e-06
3.90105644579e-06
3.90091641498e-06
3.90100558936e-06
3.90180234196e-06
3.90396882484e-06
3.9082681557e-06
3.91577241591e-06
3.92863022984e-06
3.95199172251e-06
3.99374510751e-06
3.99376882173e-06
3.95226564692e-06
3.9290464909e-06
3.91630277945e-06
3.90889071876e-06
3.90466640122e-06
3.90249506122e-06
3.90155883892e-06
3.90123292816e-06
3.90110113007e-06
3.90096135844e-06
3.90083623227e-06
3.90095862764e-06
3.90179858085e-06
3.90400492163e-06
3.90832993561e-06
3.91583695332e-06
3.92868032868e-06
3.95200588455e-06
3.99372984873e-06
3.99374128495e-06
3.95235685296e-06
3.92925880348e-06
3.91658305236e-06
3.90920327434e-06
3.90496506181e-06
3.90274774899e-06
3.90175167498e-06
3.90137343411e-06
3.90121269761e-06
3.9010734771e-06
3.90098019463e-06
3.90116148703e-06
3.90206993584e-06
3.9043334836e-06
3.90867924222e-06
3.91618002752e-06
3.92892430191e-06
3.95211777502e-06
3.99370685088e-06
3.9937296163e-06
3.95267966726e-06
3.92988313282e-06
3.91742965339e-06
3.91011611202e-06
3.90590184529e-06
3.90365613319e-06
3.902609108e-06
3.9021814679e-06
3.90199380883e-06
3.90186143184e-06
3.90181014928e-06
3.90206022866e-06
3.90304034584e-06
3.90535685116e-06
3.90966746404e-06
3.91707814562e-06
3.92960411632e-06
3.95248719001e-06
3.99372212204e-06
3.99393580164e-06
3.95354686237e-06
3.93130267644e-06
3.91924062744e-06
3.91214064995e-06
3.90803957939e-06
3.90582065585e-06
3.90475981805e-06
3.90430870842e-06
3.90410903094e-06
3.90399106045e-06
3.90398162984e-06
3.90429268959e-06
3.90532908028e-06
3.90761191057e-06
3.91181953881e-06
3.91896062026e-06
3.9310893981e-06
3.95339753614e-06
3.9939332226e-06
3.99430380715e-06
3.95523275182e-06
3.93400094911e-06
3.92261518901e-06
3.91597870725e-06
3.91209305118e-06
3.90999686096e-06
3.9089845367e-06
3.90854573041e-06
3.90835268045e-06
3.90825425561e-06
3.90827650754e-06
3.90861372331e-06
3.90961954231e-06
3.91180030993e-06
3.91571744462e-06
3.92240372207e-06
3.93383798293e-06
3.95510174041e-06
3.99427130049e-06
3.99474274641e-06
3.95817453753e-06
3.9387407307e-06
3.92849328745e-06
3.92258424757e-06
3.91916393322e-06
3.91729964604e-06
3.91637281701e-06
3.91598915759e-06
3.9158228953e-06
3.91574252643e-06
3.9157747465e-06
3.91611586635e-06
3.91702822258e-06
3.91893564815e-06
3.9223944997e-06
3.92833806141e-06
3.93861849782e-06
3.95806759059e-06
3.99470504891e-06
3.99554211041e-06
3.96352776867e-06
3.94713741607e-06
3.93873010878e-06
3.93396034585e-06
3.93122513717e-06
3.92976886914e-06
3.92908544597e-06
3.92879257102e-06
3.92866368096e-06
3.92860421679e-06
3.92862976748e-06
3.92886646172e-06
3.92956325904e-06
3.93107163742e-06
3.93382822906e-06
3.93861342089e-06
3.94704831252e-06
3.96345056897e-06
3.99551701238e-06
3.99715444207e-06
3.97447517623e-06
3.96352652573e-06
3.95816435767e-06
3.95519320979e-06
3.95348750118e-06
3.95261030044e-06
3.95224625761e-06
3.95209647851e-06
3.9520265717e-06
3.95198541011e-06
3.95198121852e-06
3.95208322569e-06
3.95247027514e-06
3.95340120949e-06
3.95510116544e-06
3.95806443597e-06
3.96345114239e-06
3.97441007563e-06
3.99713162044e-06
4.00186820559e-06
3.99715596078e-06
3.99554308132e-06
3.99473980022e-06
3.99427701479e-06
3.99391972118e-06
3.99374350706e-06
3.99374390444e-06
3.99375443633e-06
3.99375474037e-06
3.99374423978e-06
3.99372068972e-06
3.99368963666e-06
3.99372633192e-06
3.99395530617e-06
3.99427693903e-06
3.99470305525e-06
3.99551717021e-06
3.99713265336e-06
4.00185384246e-06
4.00161247039e-06
3.99560921817e-06
3.99325504659e-06
3.9920394375e-06
3.99132749302e-06
3.99086496424e-06
3.99062326831e-06
3.99055480618e-06
3.99054357398e-06
3.99054075049e-06
3.99053067209e-06
3.99051632186e-06
3.99052046417e-06
3.99060240875e-06
3.99085750683e-06
3.99130832229e-06
3.99201337903e-06
3.99324200302e-06
3.99560451041e-06
4.00161263977e-06
3.99561933061e-06
3.96376910284e-06
3.94743404581e-06
3.93907257847e-06
3.9343370822e-06
3.9316331031e-06
3.93019419098e-06
3.92952027213e-06
3.92923963339e-06
3.92912599168e-06
3.92907964319e-06
3.92911028703e-06
3.92933486955e-06
3.9299900146e-06
3.93143426953e-06
3.93414959789e-06
3.93891332226e-06
3.94732447654e-06
3.96370819695e-06
3.99561135814e-06
3.99327192276e-06
3.94747297152e-06
3.92205878497e-06
3.90831717579e-06
3.90033601137e-06
3.89572563012e-06
3.893214459e-06
3.89197295216e-06
3.89142838772e-06
3.89120866734e-06
3.89114631551e-06
3.89125080357e-06
3.89170948426e-06
3.89290587471e-06
3.8954064887e-06
3.900029218e-06
3.90804566375e-06
3.92184948963e-06
3.94734245499e-06
3.99325166321e-06
3.99205883469e-06
3.93914883239e-06
3.90836962397e-06
3.89122219361e-06
3.88111156449e-06
3.87520868811e-06
3.87193853899e-06
3.87027290979e-06
3.86954595322e-06
3.86926694677e-06
3.86919016218e-06
3.86932888089e-06
3.86994703257e-06
3.87153878172e-06
3.87477875725e-06
3.88068911566e-06
3.89083896303e-06
3.90805400696e-06
3.93893118374e-06
3.99201279605e-06
3.99136458353e-06
3.93445918901e-06
3.90044996459e-06
3.88118007798e-06
3.86972125763e-06
3.86296528498e-06
3.85923235573e-06
3.8574010207e-06
3.85661120625e-06
3.85631224539e-06
3.85621432557e-06
3.85632823725e-06
3.85694945117e-06
3.85868557543e-06
3.86241668764e-06
3.86917803684e-06
3.88068475495e-06
3.90003035499e-06
3.93415139808e-06
3.99129147396e-06
3.99090947599e-06
3.93179597791e-06
3.89590392728e-06
3.87535961463e-06
3.86306569295e-06
3.85587395339e-06
3.85204009369e-06
3.85016303199e-06
3.84936793395e-06
3.84908147347e-06
3.84895709289e-06
3.84899771268e-06
3.84950981695e-06
3.85119245717e-06
3.855075631e-06
3.86239028921e-06
3.87475245462e-06
3.89538585182e-06
3.93141641097e-06
3.99084344965e-06
3.99066074851e-06
3.93038985461e-06
3.89345912913e-06
3.87218815413e-06
3.85944328657e-06
3.8521815902e-06
3.84833376586e-06
3.84646863032e-06
3.84573772527e-06
3.84551137182e-06
3.84537373824e-06
3.84531842176e-06
3.84565703024e-06
3.84717392472e-06
3.85104809721e-06
3.85858626308e-06
3.87147522246e-06
3.89285464738e-06
3.92995258434e-06
3.99060894837e-06
3.99059501025e-06
3.92975327359e-06
3.8922859938e-06
3.87062008875e-06
3.85773445738e-06
3.85048300599e-06
3.84667203715e-06
3.84489943875e-06
3.84429592101e-06
3.84416173895e-06
3.84402526783e-06
3.84387370041e-06
3.84402983454e-06
3.84535000366e-06
3.84912018011e-06
3.85671978604e-06
3.86982833339e-06
3.89161289539e-06
3.92925854159e-06
3.99052749102e-06
3.99059209009e-06
3.92951238458e-06
3.89180786697e-06
3.86997019276e-06
3.85706165826e-06
3.84985380233e-06
3.84613063576e-06
3.84448285607e-06
3.84401068747e-06
3.8439588988e-06
3.84382396256e-06
3.84358997401e-06
3.84359162239e-06
3.8447409487e-06
3.84839251959e-06
3.85596484162e-06
3.86912345127e-06
3.89108462345e-06
3.9289710493e-06
3.99050647062e-06
3.99059757038e-06
3.9294341121e-06
3.89164724612e-06
3.8697590262e-06
3.85686168608e-06
3.84970396759e-06
3.84605167197e-06
3.84447872073e-06
3.84407354124e-06
3.84405983256e-06
3.84392082671e-06
3.84363897531e-06
3.84355303788e-06
3.84460367234e-06
3.84818324046e-06
3.8557254905e-06
3.86888464898e-06
3.89089508955e-06
3.92886531248e-06
3.99050170438e-06
3.99059418757e-06
3.92941169135e-06
3.89161849619e-06
3.86973028411e-06
3.85683975115e-06
3.84969036102e-06
3.84603167178e-06
3.84443861803e-06
3.8440157676e-06
3.84399407719e-06
3.84385305655e-06
3.84357389008e-06
3.84348825538e-06
3.84453963463e-06
3.84813080229e-06
3.85569145147e-06
3.86885798028e-06
3.89086519053e-06
3.92883628429e-06
3.99049455202e-06
3.99058239776e-06
3.9294497216e-06
3.8917282737e-06
3.86988905764e-06
3.85699910142e-06
3.8498103815e-06
3.84606345364e-06
3.84435530334e-06
3.84383336602e-06
3.84376109142e-06
3.84362261368e-06
3.84339811778e-06
3.84340213674e-06
3.84455580639e-06
3.84824460696e-06
3.85587403345e-06
3.86905544736e-06
3.89100561052e-06
3.92889254298e-06
3.99048637658e-06
3.99058159207e-06
3.92966291037e-06
3.89217193483e-06
3.87049291324e-06
3.8576180185e-06
3.85035217137e-06
3.84646398121e-06
3.84458607967e-06
3.84391602721e-06
3.84376766956e-06
3.84364168695e-06
3.84351928172e-06
3.84369519391e-06
3.84504491909e-06
3.84889891992e-06
3.85660286545e-06
3.86974692594e-06
3.89151456974e-06
3.92915341614e-06
3.99049857671e-06
3.99064289454e-06
3.93028492398e-06
3.8933301689e-06
3.87203953735e-06
3.85927981733e-06
3.8519536716e-06
3.8479590822e-06
3.84594814767e-06
3.84514720988e-06
3.84492174476e-06
3.84481341003e-06
3.8448110381e-06
3.84520063499e-06
3.84679541282e-06
3.85081292659e-06
3.85848702422e-06
3.87140160489e-06
3.89276985714e-06
3.92985030017e-06
3.99058304915e-06
3.99088283303e-06
3.9316831537e-06
3.89577172538e-06
3.87521818865e-06
3.86289097456e-06
3.85564266675e-06
3.85166070495e-06
3.84963164188e-06
3.84876570334e-06
3.84847560316e-06
3.8483758128e-06
3.84847054616e-06
3.84905486668e-06
3.85085545019e-06
3.85490388718e-06
3.86231199302e-06
3.87470288125e-06
3.89532892122e-06
3.93133304825e-06
3.99083374221e-06
3.99133963165e-06
3.93435086875e-06
3.90032125578e-06
3.88104958893e-06
3.86957779373e-06
3.86277626327e-06
3.85897416471e-06
3.85704517657e-06
3.85618753579e-06
3.85585902492e-06
3.85575794006e-06
3.85590463008e-06
3.85659719237e-06
3.85845014326e-06
3.86228061012e-06
3.86910895994e-06
3.88065587633e-06
3.89999277433e-06
3.93407546776e-06
3.99128021606e-06
3.99204461919e-06
3.93906364906e-06
3.90826155841e-06
3.89110702105e-06
3.88099046917e-06
3.87506205749e-06
3.8717463549e-06
3.87002396669e-06
3.86923913008e-06
3.86891637085e-06
3.86882103301e-06
3.86898015489e-06
3.86965774907e-06
3.87131014188e-06
3.87464091195e-06
3.88063235983e-06
3.89082077912e-06
3.90802221496e-06
3.93885112617e-06
3.99198492862e-06
3.99326260711e-06
3.94742036382e-06
3.92199186277e-06
3.90823697676e-06
3.90024265953e-06
3.89560819891e-06
3.89305692807e-06
3.89176399714e-06
3.89116673522e-06
3.89090537783e-06
3.8908159146e-06
3.89091853356e-06
3.89141615381e-06
3.89268534427e-06
3.8952749169e-06
3.89996816888e-06
3.9080162233e-06
3.92180889402e-06
3.94725864402e-06
3.993217349e-06
3.99561528439e-06
3.96375244868e-06
3.94741539186e-06
3.93903771783e-06
3.93428091457e-06
3.93155581687e-06
3.93008892808e-06
3.92937210005e-06
3.92904425826e-06
3.92889160671e-06
3.92882152645e-06
3.92885053535e-06
3.92910129885e-06
3.92980998454e-06
3.93131567703e-06
3.93407228146e-06
3.93885381793e-06
3.94726388927e-06
3.96362202074e-06
3.9955702463e-06
4.00161587128e-06
3.99561671849e-06
3.99326302672e-06
3.99203552111e-06
3.99131025045e-06
3.99085362061e-06
3.99062529671e-06
3.99055038966e-06
3.99052630305e-06
3.99051271871e-06
3.99049539033e-06
3.99047915577e-06
3.99048708228e-06
3.99058328503e-06
3.99085053136e-06
3.99129368542e-06
3.99198955848e-06
3.99322156323e-06
3.99557274941e-06
4.00158382545e-06
4.00142912901e-06
3.99474929134e-06
3.9919838437e-06
3.99051861232e-06
3.98962827782e-06
3.98904642185e-06
3.98874297059e-06
3.9886530471e-06
3.98864250155e-06
3.98864259017e-06
3.98862692645e-06
3.98860247887e-06
3.988606687e-06
3.98871113611e-06
3.9890188875e-06
3.98958342731e-06
3.9904728508e-06
3.9919616188e-06
3.99475207761e-06
4.00144862782e-06
3.99477195936e-06
3.95832300409e-06
3.93887730318e-06
3.92861395757e-06
3.92267946839e-06
3.9192443234e-06
3.91738964082e-06
3.91650837573e-06
3.91614224517e-06
3.91599419679e-06
3.91592420823e-06
3.9159484204e-06
3.91622853625e-06
3.91706567309e-06
3.9189000894e-06
3.92233360805e-06
3.92829967875e-06
3.93863394867e-06
3.95818380318e-06
3.99476495491e-06
3.99202161649e-06
3.93895527474e-06
3.90801474022e-06
3.89072762488e-06
3.88048568122e-06
3.87450175318e-06
3.87124870384e-06
3.86964272655e-06
3.86891676505e-06
3.86861975742e-06
3.86853425126e-06
3.86866934799e-06
3.86924985277e-06
3.87076654935e-06
3.87398568876e-06
3.87995526674e-06
3.89021264148e-06
3.90757396211e-06
3.93866550454e-06
3.99198130117e-06
3.99056316224e-06
3.92876755536e-06
3.89083407134e-06
3.86899552147e-06
3.85589483711e-06
3.84834744254e-06
3.8442036622e-06
3.8420657951e-06
3.84109657293e-06
3.84072012855e-06
3.84061151081e-06
3.84077068258e-06
3.84149978789e-06
3.84346243535e-06
3.84757671149e-06
3.85518730506e-06
3.8683290019e-06
3.89023109401e-06
3.92833304724e-06
3.99047670404e-06
3.98969761033e-06
3.92291727695e-06
3.88071268752e-06
3.85603339569e-06
3.8414024496e-06
3.83293203015e-06
3.82828200996e-06
3.82588509655e-06
3.82480427173e-06
3.82441290468e-06
3.82426649401e-06
3.82434052176e-06
3.82493421092e-06
3.82690605465e-06
3.83158746563e-06
3.84030440668e-06
3.85517805657e-06
3.87996519041e-06
3.92234601538e-06
3.9895684301e-06
3.98912718823e-06
3.9195667006e-06
3.87485812611e-06
3.84864170818e-06
3.83315127475e-06
3.82426250495e-06
3.81944744665e-06
3.81695400195e-06
3.8158901649e-06
3.81557594635e-06
3.81540567013e-06
3.81531913288e-06
3.8155817438e-06
3.81723214463e-06
3.82195708515e-06
3.83142433172e-06
3.84748470181e-06
3.87395378585e-06
3.91887667814e-06
3.98900295952e-06
3.98881686454e-06
3.9177902035e-06
3.87173856578e-06
3.84473727413e-06
3.82881268011e-06
3.81982067159e-06
3.81498867545e-06
3.81254525319e-06
3.8116573599e-06
3.81152625127e-06
3.81137112918e-06
3.81110038077e-06
3.81094601059e-06
3.81211494234e-06
3.81662859519e-06
3.82633713811e-06
3.84321727979e-06
3.87066826822e-06
3.91699971195e-06
3.98871100269e-06
3.98873009273e-06
3.91698138167e-06
3.87027049997e-06
3.84282868369e-06
3.82675418619e-06
3.81778007542e-06
3.81305518493e-06
3.81083149188e-06
3.81024715206e-06
3.81035731742e-06
3.81024579147e-06
3.80980341898e-06
3.80924696021e-06
3.80993170665e-06
3.81412504162e-06
3.82383690228e-06
3.84101970007e-06
3.86907456074e-06
3.91610571891e-06
3.98860623236e-06
3.98872952732e-06
3.91668166561e-06
3.8696770243e-06
3.84204799478e-06
3.82596524638e-06
3.81710772448e-06
3.81259604899e-06
3.81064661277e-06
3.81036444917e-06
3.81067824103e-06
3.81059848288e-06
3.81000830484e-06
3.80911480998e-06
3.80939545653e-06
3.81328380636e-06
3.82287627129e-06
3.84011119917e-06
3.86840956768e-06
3.91574596252e-06
3.98858271035e-06
3.9887418887e-06
3.91658708306e-06
3.86947148331e-06
3.84180930531e-06
3.82580149183e-06
3.81708505929e-06
3.81273916536e-06
3.81094354944e-06
3.81080527929e-06
3.81121383e-06
3.81114065053e-06
3.81046225228e-06
3.80937302512e-06
3.80941088488e-06
3.8131085202e-06
3.82260737966e-06
3.83982783737e-06
3.86817971851e-06
3.91562173216e-06
3.98858112259e-06
3.98873713671e-06
3.91654868008e-06
3.86942508364e-06
3.84179050573e-06
3.82583176032e-06
3.81714780472e-06
3.81278618272e-06
3.81093866304e-06
3.81076626528e-06
3.81117421731e-06
3.81110964654e-06
3.81044182768e-06
3.80933674853e-06
3.80934057986e-06
3.81303285404e-06
3.82256088304e-06
3.83980801745e-06
3.86815791607e-06
3.9155866819e-06
3.9885702432e-06
3.9887155224e-06
3.91657499491e-06
3.86955438319e-06
3.84199288144e-06
3.82603499012e-06
3.81725223309e-06
3.8126816715e-06
3.810575996e-06
3.81019781505e-06
3.8105163442e-06
3.81046724556e-06
3.80991314563e-06
3.80897688348e-06
3.80916437784e-06
3.81304728042e-06
3.82273670569e-06
3.84005784156e-06
3.86834922347e-06
3.91565660178e-06
3.98855527382e-06
3.9887093797e-06
3.91682565543e-06
3.87009444845e-06
3.84268775934e-06
3.82666690122e-06
3.81764940403e-06
3.81272207781e-06
3.81022644812e-06
3.80952991601e-06
3.80970862927e-06
3.80970290445e-06
3.80937043083e-06
3.80880171538e-06
3.80941485161e-06
3.81368762852e-06
3.82361648497e-06
3.84096053876e-06
3.86901192503e-06
3.91600135659e-06
3.98857381876e-06
3.98878835596e-06
3.91760459033e-06
3.87152993114e-06
3.84449275744e-06
3.82847332546e-06
3.81921565993e-06
3.8139770694e-06
3.811156624e-06
3.81017697392e-06
3.81020861702e-06
3.8102580354e-06
3.81019239814e-06
3.81011217385e-06
3.81132335985e-06
3.81607562196e-06
3.82612022866e-06
3.84319131832e-06
3.87065583698e-06
3.91691852965e-06
3.98868997975e-06
3.98908022858e-06
3.91936093325e-06
3.87462929531e-06
3.84842088534e-06
3.83276451081e-06
3.8235248435e-06
3.81823454925e-06
3.81533974321e-06
3.81420382894e-06
3.8140765654e-06
3.81413410034e-06
3.81427722618e-06
3.81467473369e-06
3.81647907708e-06
3.82153074691e-06
3.83132933079e-06
3.8475231642e-06
3.8739976081e-06
3.91882739337e-06
3.98900242101e-06
3.9896460483e-06
3.92270687724e-06
3.88047015163e-06
3.85581787162e-06
3.84114142382e-06
3.83240196706e-06
3.82741357533e-06
3.8247288588e-06
3.82358662919e-06
3.82331489239e-06
3.8233216545e-06
3.82356302636e-06
3.82429203333e-06
3.82644456005e-06
3.8313981285e-06
3.84030939248e-06
3.85528290817e-06
3.88003501023e-06
3.92231138202e-06
3.98956484931e-06
3.99052841889e-06
3.92858450082e-06
3.89060982767e-06
3.86878107125e-06
3.85570965685e-06
3.84810082854e-06
3.84379412079e-06
3.84149417611e-06
3.84046842155e-06
3.84011615946e-06
3.84005816937e-06
3.84029743998e-06
3.84112847868e-06
3.84319076503e-06
3.84746654913e-06
3.85527556578e-06
3.8684587549e-06
3.89030611537e-06
3.9282980126e-06
3.99045074907e-06
3.99200056284e-06
3.93882962198e-06
3.90785442062e-06
3.89056484908e-06
3.88032999489e-06
3.87433543786e-06
3.87102688681e-06
3.86934300929e-06
3.86856575307e-06
3.86823461336e-06
3.86813250542e-06
3.86826986779e-06
3.86890346793e-06
3.87054525251e-06
3.87391848748e-06
3.87999703109e-06
3.8902970383e-06
3.90762833253e-06
3.93862028813e-06
3.9919419729e-06
3.99476911004e-06
3.95828091948e-06
3.93881842722e-06
3.92853537466e-06
3.92258115242e-06
3.91912246714e-06
3.91722969585e-06
3.91628959595e-06
3.91585788075e-06
3.91565401785e-06
3.91555258786e-06
3.91558089684e-06
3.91591123798e-06
3.916842426e-06
3.91878192762e-06
3.92229514106e-06
3.9283015882e-06
3.93863117415e-06
3.95811457508e-06
3.99471317387e-06
4.00144843863e-06
3.99477139683e-06
3.99200067373e-06
3.99051425527e-06
3.98960460066e-06
3.9890281188e-06
3.98873738963e-06
3.98863677089e-06
3.98860650352e-06
3.98858917219e-06
3.98856190772e-06
3.98853657476e-06
3.98855273158e-06
3.98868493382e-06
3.98901894829e-06
3.98958216899e-06
3.99046030831e-06
3.99195197881e-06
3.9947202073e-06
4.00141757206e-06
4.00098081685e-06
3.99401773797e-06
3.9910785243e-06
3.98940453796e-06
3.98818279032e-06
3.98748321557e-06
3.98709777233e-06
3.9869737614e-06
3.9870598953e-06
3.98715806045e-06
3.98712546256e-06
3.98697398452e-06
3.98694929785e-06
3.9870925208e-06
3.98747043649e-06
3.98813526791e-06
3.98919570107e-06
3.99102412242e-06
3.99401431549e-06
4.00102678707e-06
3.99410498963e-06
3.95470992935e-06
3.93313484757e-06
3.92143849246e-06
3.91441868879e-06
3.91044606899e-06
3.9082930268e-06
3.90727563061e-06
3.90699473621e-06