/*--------------------------------*- C++ -*----------------------------------*\
| =========                 |                                                 |
| \\      /  F ield         | OpenFOAM: The Open Source CFD Toolbox           |
|  \\    /   O peration     | Version:  3.0.1                                 |
|   \\  /    A nd           | Web:      www.OpenFOAM.org                      |
|    \\/     M anipulation  |                                                 |
\*---------------------------------------------------------------------------*/
FoamFile
{
    version     2.0;
    format      ascii;
    class       surfaceScalarField;
    location    "1.6";
    object      alphaPhi;
}
// * * * * * * * * * * * * * * * * * * * * * * * * * * * * * * * * * * * * * //

dimensions      [0 3 -1 0 0 0 0];

internalField   nonuniform List<scalar> 
22672
(
3.53113636151e-06
3.55332603474e-06
-7.08427312275e-06
7.82399463239e-06
2.91545648249e-06
-7.20856500416e-06
1.17885336392e-05
2.85997484007e-06
-6.82672710374e-06
1.45557396495e-05
3.41945122469e-06
-6.18661643798e-06
1.56332064857e-05
4.48614101381e-06
-5.56402522372e-06
1.49118121053e-05
5.80780339309e-06
-5.08682666253e-06
1.2603858284e-05
7.09919176907e-06
-4.79144569317e-06
9.04964317971e-06
8.20282942708e-06
-4.64865309766e-06
4.70661098715e-06
8.96649709238e-06
-4.62346565056e-06
-5.27632017099e-09
9.35028985283e-06
-4.6384444961e-06
-4.71828702595e-06
9.35207953522e-06
-4.6392495904e-06
-9.06351260391e-06
8.97153196019e-06
-4.62593934387e-06
-1.26200754798e-05
8.21025766419e-06
-4.65339170733e-06
-1.49286579879e-05
7.10830784531e-06
-4.79878822946e-06
-1.56493291582e-05
5.81727271706e-06
-5.09720334671e-06
-1.45702280214e-05
4.49590403627e-06
-5.57664661313e-06
-1.18050861208e-05
3.42926365991e-06
-6.20159166737e-06
-7.83306439844e-06
2.87185091725e-06
-6.84232663579e-06
-3.53311346499e-06
2.92733607659e-06
-7.22446591431e-06
3.56603218763e-06
-7.09881769282e-06
2.89750672578e-06
7.86221474344e-06
-7.20628078257e-06
7.83147623933e-06
7.85789556954e-06
-9.87739861781e-06
1.26526432258e-05
8.61236268334e-06
-1.05743122879e-05
1.60182272368e-05
1.03503830643e-05
-1.02966932167e-05
1.73599780266e-05
1.28856690943e-05
-9.74154005812e-06
1.65934550893e-05
1.57816125217e-05
-9.20759911586e-06
1.39771030507e-05
1.85505645591e-05
-8.83507022659e-06
9.99098004282e-06
2.0854540379e-05
-8.66575044245e-06
5.17508501639e-06
2.24427856857e-05
-8.6603978271e-06
-9.73107393295e-09
2.32393216517e-05
-8.70422509565e-06
-5.19552582584e-06
2.32426260321e-05
-8.70459910587e-06
-1.00134076748e-05
2.24511355919e-05
-8.66184992965e-06
-1.40004684275e-05
2.08674695548e-05
-8.66874696988e-06
-1.66167149614e-05
1.85656512295e-05
-8.84002831733e-06
-1.73822169355e-05
1.57976445177e-05
-9.21518467714e-06
-1.60372894772e-05
1.29025043373e-05
-9.75243069593e-06
-1.26666111078e-05
1.03678114568e-05
-1.03103578136e-05
-7.8401083955e-06
8.63148561367e-06
-1.05893523666e-05
-2.89784684285e-06
7.88151445497e-06
-9.89395307148e-06
7.89097877169e-06
-7.21981672845e-06
2.84637954104e-06
1.18321717038e-05
-6.81686087926e-06
8.59722397047e-06
1.26761770451e-05
-1.05702298546e-05
1.43886928326e-05
1.43940999749e-05
-1.15737286504e-05
1.84676969419e-05
1.73629728123e-05
-1.10915685683e-05
2.01222734373e-05
2.1307767238e-05
-1.00767730059e-05
1.92405696593e-05
2.56549932206e-05
-8.99167598767e-06
1.61551019679e-05
2.97506708324e-05
-8.11517273541e-06
1.14918112631e-05
3.31093605119e-05
-7.5911933398e-06
5.92747738936e-06
3.54112017832e-05
-7.40424657628e-06
-1.11197909073e-08
3.65630758282e-05
-7.38513750693e-06
-5.95050729999e-06
3.65665735421e-05
-7.38489849285e-06
-1.1516510718e-05
3.54207182591e-05
-7.40364707406e-06
-1.61816600978e-05
3.31233358547e-05
-7.59121052254e-06
-1.92663753492e-05
2.9768769396e-05
-8.11605063364e-06
-2.01470370902e-05
2.56738119401e-05
-8.99542412543e-06
-1.84899576948e-05
2.13283476236e-05
-1.0084395771e-05
-1.44053239917e-05
1.73855536178e-05
-1.11029292944e-05
-8.60663626577e-06
1.44196062441e-05
-1.15871696964e-05
-2.84914803013e-06
1.27075467311e-05
-1.05842497523e-05
1.18740119529e-05
-6.82976130157e-06
3.40832270671e-06
1.45909024134e-05
-6.16815265461e-06
1.03428805143e-05
1.60292888705e-05
-1.02880887018e-05
1.73695034943e-05
1.84564744736e-05
-1.10889390579e-05
2.23389240931e-05
2.23118485434e-05
-9.91829466437e-06
2.43409918224e-05
2.72432044714e-05
-7.93756721684e-06
2.32183513491e-05
3.25791366615e-05
-5.80153325459e-06
1.94058998745e-05
3.75538660119e-05
-3.99044380875e-06
1.3723625602e-05
4.15985438657e-05
-2.8069096775e-06
7.04596601202e-06
4.43632678921e-05
-2.27426805505e-06
-1.02952529339e-08
4.57460723755e-05
-2.12673515633e-06
-7.06712793229e-06
4.57483267898e-05
-2.12567712548e-06
-1.37465189907e-05
4.43706057501e-05
-2.27136636659e-06
-1.94309488405e-05
4.16107013975e-05
-2.80307977755e-06
-2.32451880554e-05
3.7569535108e-05
-3.98673457098e-06
-2.43660306514e-05
3.25976135853e-05
-5.79973009146e-06
-2.23613290881e-05
2.72635922065e-05
-7.94027904465e-06
-1.73871683006e-05
2.2335494565e-05
-9.92555398036e-06
-1.03534881851e-05
1.84849732882e-05
-1.10994146557e-05
-3.41238318958e-06
1.60653414245e-05
-1.02992858935e-05
1.4639447988e-05
-6.17816042766e-06
4.4763145884e-06
1.56520622302e-05
-5.53776056338e-06
1.2880769684e-05
1.73544330371e-05
-9.7295700057e-06
2.13188862701e-05
2.00927014685e-05
-1.00743151648e-05
2.72782849291e-05
2.42922896937e-05
-7.93975275289e-06
2.96289645112e-05
2.95678341184e-05
-4.67531632194e-06
2.81618526415e-05
3.52119315433e-05
-1.16568436098e-06
2.34289010409e-05
4.04222385077e-05
1.86457126131e-06
1.64865776595e-05
4.46537952495e-05
3.88670660533e-06
8.43397573781e-06
4.75414815795e-05
4.87405812373e-06
-8.50446233468e-09
4.8985013104e-05
5.20344971269e-06
-8.45168901862e-06
4.89863548241e-05
5.2051266639e-06
-1.65060692782e-05
4.75454148359e-05
4.87904925857e-06
-2.34509908224e-05
4.46606843502e-05
3.89454874995e-06
-2.81863415823e-05
4.04323895775e-05
1.87277675066e-06
-2.96538379082e-05
3.5225122579e-05
-1.16048619211e-06
-2.73003835025e-05
2.95852068965e-05
-4.6730122517e-06
-2.13365535657e-05
2.43138439714e-05
-7.94203773564e-06
-1.28920139445e-05
2.01203858629e-05
-1.00804860137e-05
-4.48091448844e-06
1.73910890378e-05
-9.73721367099e-06
1.57021501158e-05
-5.5442179814e-06
5.79653717198e-06
1.49111358286e-05
-5.05561067533e-06
1.57738858267e-05
1.65717789176e-05
-9.19469183722e-06
2.56628813065e-05
1.9197416306e-05
-8.99360376484e-06
3.26125178659e-05
2.31562475656e-05
-5.81394767061e-06
3.52749782757e-05
2.80866052e-05
-1.18111138519e-06
3.33908318288e-05
3.33140935947e-05
3.78195983525e-06
2.76739021975e-05
3.81357716473e-05
8.00304442008e-06
1.94017794875e-05
4.2064801962e-05
1.0860733432e-05
9.90165896384e-06
4.47366896049e-05
1.23035666428e-05
-7.56358521365e-09
4.60709706606e-05
1.28223615217e-05
-9.91711069871e-06
4.60720986775e-05
1.2822969227e-05
-1.94179388951e-05
4.47375122353e-05
1.23068256206e-05
-2.7692241275e-05
4.20655809782e-05
1.08689214962e-05
-3.34113940414e-05
3.81382687032e-05
8.01269962572e-06
-3.52960972175e-05
3.33194148006e-05
3.79032316091e-06
-3.26327889125e-05
2.80966030072e-05
-1.1755830635e-06
-2.56800054806e-05
2.31724173328e-05
-5.81139450029e-06
-1.57855397658e-05
1.92209847932e-05
-8.99536057143e-06
-5.80166317113e-06
1.6605381225e-05
-9.19841091708e-06
1.49587149982e-05
-5.05840273932e-06
7.08621658034e-06
1.25812629703e-05
-4.75634301855e-06
1.85376121322e-05
1.39435874049e-05
-8.82337915228e-06
2.97515178918e-05
1.6108259265e-05
-8.12474215812e-06
3.75819677775e-05
1.93453852296e-05
-4.01955896018e-06
4.04839592686e-05
2.33589567826e-05
1.82564535053e-06
3.82082701351e-05
2.76064843642e-05
7.98274122275e-06
3.1571317455e-05
3.15177460692e-05
1.32549211622e-05
2.20599586478e-05
3.47017804506e-05
1.68715867092e-05
1.12317772092e-05
3.68371853284e-05
1.87284631971e-05
-7.459618521e-09
3.78972813953e-05
1.94127873924e-05
-1.12476210472e-05
3.78982848402e-05
1.94131793522e-05
-2.20764881832e-05
3.68370131012e-05
1.87299388226e-05
-3.15874631077e-05
3.46988204361e-05
1.68755366661e-05
-3.82256352135e-05
3.1513351637e-05
1.32632835941e-05
-4.05014053156e-05
2.76040990321e-05
7.99005752232e-06
-3.75988545223e-05
2.33611654962e-05
1.83270566693e-06
-2.97666588462e-05
1.93543733488e-05
-4.01454760657e-06
-1.85486143636e-05
1.61259161415e-05
-8.12325157619e-06
-7.09150828315e-06
1.39718612791e-05
-8.82361473389e-06
1.26230503866e-05
-4.75586833989e-06
8.18761342145e-06
9.00352550823e-06
-4.61006025856e-06
2.08367415795e-05
9.94890063065e-06
-8.65467138006e-06
3.31041786284e-05
1.14480681379e-05
-7.60736065648e-06
4.16259942917e-05
1.36730076951e-05
-2.84943584462e-06
4.47269318615e-05
1.6426343895e-05
3.83069188537e-06
4.21556637211e-05
1.93387778066e-05
1.08399454813e-05
3.47621398083e-05
2.20001259506e-05
1.69089613988e-05
2.42271868011e-05
2.41699010169e-05
2.10673026341e-05
1.2305052931e-05
2.55991357585e-05
2.31598325888e-05
-7.68964377167e-09
2.63103760386e-05
2.3900540644e-05
-1.23218435392e-05
2.63096956816e-05
2.39036184034e-05
-2.42451216164e-05
2.55956744026e-05
2.31627260337e-05
-3.47799139076e-05
2.41624524036e-05
2.10712786799e-05
-4.21723852831e-05
2.19898068341e-05
1.6914612794e-05
-4.47424899475e-05
1.93302280034e-05
1.0844325135e-05
-4.1639090106e-05
1.64224146218e-05
3.83465264643e-06
-3.3115783102e-05
1.36762969811e-05
-2.84517568579e-06
-2.08456338426e-05
1.14600133787e-05
-7.60426000067e-06
-8.19234052437e-06
9.97085080302e-06
-8.65242027158e-06
9.0376468019e-06
-4.60719130121e-06
8.94895994284e-06
4.63602550419e-06
-4.58170038257e-06
2.24194797898e-05
5.12577086683e-06
-8.64766104885e-06
3.53980718681e-05
5.89011714342e-06
-7.42073584895e-06
4.43817331357e-05
7.00976185876e-06
-2.32112761973e-06
4.76119897215e-05
8.38993294319e-06
4.80721538078e-06
4.48311911108e-05
9.84794481554e-06
1.22697118362e-05
3.69021942744e-05
1.1169125134e-05
1.87610296137e-05
2.56566117458e-05
1.22451985084e-05
2.31694979199e-05
1.30125153771e-05
1.29560252667e-05
2.5289205753e-05
-6.43000677963e-09
1.33159162221e-05
2.60131526235e-05
-1.30305055571e-05
1.3311155392e-05
2.60223692273e-05
-2.56795473547e-05
1.29475990276e-05
2.53003291407e-05
-3.69227534934e-05
1.22333954577e-05
2.31709285519e-05
-4.48478290879e-05
1.11563480246e-05
1.87590473884e-05
-4.76236661423e-05
9.83678846358e-06
1.22687887172e-05
-4.43906560807e-05
8.38335651186e-06
4.8064909007e-06
-3.54051882792e-05
7.01011745839e-06
-2.31979481442e-06
-2.24254644188e-05
5.89838584017e-06
-7.41801705515e-06
-8.95277932717e-06
5.1419123446e-06
-8.64463867905e-06
4.66204799635e-06
-4.57716264736e-06
9.33016682876e-06
-1.00683624867e-07
-4.59375274621e-06
2.32103617925e-05
-6.67744731195e-08
-8.68787102729e-06
3.6540271402e-05
-4.26644698165e-08
-7.39719715032e-06
4.57513442858e-05
-3.13132041624e-08
-2.16997388924e-06
4.9038410394e-05
-3.07681866741e-08
5.13276833976e-06
4.61567967182e-05
-3.66540601633e-08
1.27668707972e-05
3.79658348683e-05
-4.74772279279e-08
1.94063638834e-05
2.63774491309e-05
-5.76185736861e-08
2.38926715055e-05
1.33760025108e-05
-6.2742542182e-08
2.60196805993e-05
-1.12948577225e-08
-6.79630695041e-08
2.67710068291e-05
-1.33983681761e-05
-7.04911274759e-08
2.67689940357e-05
-2.64003969161e-05
-7.14360564062e-08
2.60203116087e-05
-3.79861014146e-05
-6.75646024608e-08
2.38882750262e-05
-4.61709332177e-05
-5.73426037774e-08
1.93975695492e-05
-4.90463381716e-05
-4.49513065233e-08
1.27585099832e-05
-4.57545928387e-05
-3.56309185643e-08
5.12619720302e-06
-3.65424216186e-05
-3.02636164757e-08
-2.17232024685e-06
-2.32139703369e-05
-3.58879317596e-08
-7.39636249864e-06
-9.33256504423e-06
-5.42355678117e-08
-8.6851924392e-06
-8.13603131465e-08
-4.5893519657e-06
9.32856214519e-06
-4.83530412708e-06
-4.59409172106e-06
2.3206866622e-05
-5.25857360097e-06
-8.68673376736e-06
3.65346392019e-05
-5.97604794191e-06
-7.39438612369e-06
4.57432827625e-05
-7.07386222675e-06
-2.16625782268e-06
4.90300426362e-05
-8.45346474584e-06
5.13617077269e-06
4.61467881375e-05
-9.92435610114e-06
1.2769607772e-05
3.7960480266e-05
-1.12664461158e-05
1.94067119538e-05
2.63735921302e-05
-1.23641210154e-05
2.38927453608e-05
1.33707631047e-05
-1.30887148575e-05
2.60276877818e-05
-1.52976800355e-08
-1.34580752234e-05
2.67770242346e-05
-1.3401598665e-05
-1.345784828e-05
2.67741377649e-05
-2.63999535755e-05
-1.30902856777e-05
2.60172450354e-05
-3.79794838532e-05
-1.23648640417e-05
2.38779426944e-05
-4.6157624158e-05
-1.12671205865e-05
1.93907897889e-05
-4.90327379471e-05
-9.92404101847e-06
1.27542992013e-05
-4.57409254194e-05
-8.4515221436e-06
5.12377113656e-06
-3.65334990016e-05
-7.06872145855e-06
-2.17258922163e-06
-2.32074942946e-05
-5.96754575648e-06
-7.39525560814e-06
-9.3299277524e-06
-5.24754787524e-06
-8.68464186435e-06
-4.82092311653e-06
-4.59013327351e-06
8.94386915989e-06
-9.19607161103e-06
-4.58312706833e-06
2.24087688459e-05
-1.00789568681e-05
-8.64453728989e-06
3.53806846557e-05
-1.15349020943e-05
-7.41307932232e-06
4.43574032846e-05
-1.3739797062e-05
-2.31077270067e-06
4.75809263833e-05
-1.64926187771e-05
4.81518645387e-06
4.48009320901e-05
-1.94156581178e-05
1.22717367369e-05
3.68781534107e-05
-2.20960011427e-05
1.87514519143e-05
2.56414017763e-05
-2.4282358961e-05
2.315406697e-05
1.3000369039e-05
-2.57272591596e-05
2.52802383262e-05
-1.46806184882e-08
-2.64472979778e-05
2.6003847075e-05
-1.30310628401e-05
-2.64468233295e-05
2.60055080702e-05
-2.56688566713e-05
-2.57234397848e-05
2.52711149067e-05
-3.68984410558e-05
-2.42746123091e-05
2.31391407982e-05
-4.48125765474e-05
-2.2086495571e-05
1.87352103527e-05
-4.7583674387e-05
-1.94061507549e-05
1.22547012485e-05
-4.43522447984e-05
-1.64817069925e-05
4.79894521519e-06
-3.53761247125e-05
-1.37279639634e-05
-2.3202692338e-06
-2.24074542871e-05
-1.15230204117e-05
-7.41530727877e-06
-8.94432633776e-06
-1.00680942596e-05
-8.64270412921e-06
-9.18544374989e-06
-4.57959474636e-06
8.17914227641e-06
-1.27611547236e-05
-4.61410179626e-06
2.08192763613e-05
-1.40673810825e-05
-8.65151323606e-06
3.30760236776e-05
-1.61939046063e-05
-7.59792216084e-06
4.15857995259e-05
-1.94128236216e-05
-2.83679698974e-06
4.4678365513e-05
-2.34237051615e-05
3.83788584596e-06
4.21059661715e-05
-2.76787591249e-05
1.08353698453e-05
3.47237349028e-05
-3.1600467388e-05
1.68866410202e-05
2.41981979973e-05
-3.47972929767e-05
2.10403629706e-05
1.22843425699e-05
-3.69416334469e-05
2.31260487409e-05
-1.40389076878e-08
-3.80052054448e-05
2.38567446241e-05
-1.23130642261e-05
-3.80040749584e-05
2.38560308947e-05
-2.42228128574e-05
-3.69333067764e-05
2.31179412118e-05
-3.47412474652e-05
-3.4782716612e-05
2.10281309096e-05
-4.21166895135e-05
-3.15834085974e-05
1.68722938675e-05
-4.4679559174e-05
-2.76605372287e-05
1.08173167891e-05
-4.15779026043e-05
-2.34047985502e-05
3.8201160024e-06
-3.30679972449e-05
-1.93943232474e-05
-2.84720805567e-06
-2.08150568047e-05
-1.61785502046e-05
-7.59995147482e-06
-8.17799882224e-06
-1.40560380256e-05
-8.64904595627e-06
-1.27534026045e-05
-4.60979007137e-06
7.07536956926e-06
-1.5072223884e-05
-4.76458882737e-06
1.85142400195e-05
-1.66844006186e-05
-8.82268262664e-06
2.97151798429e-05
-1.927709329e-05
-8.11748983641e-06
3.75305827631e-05
-2.32193960486e-05
-4.00948500255e-06
4.04226316766e-05
-2.81442276531e-05
1.82826536575e-06
3.8148726414e-05
-3.33736626842e-05
7.96814971725e-06
3.15241568541e-05
-3.82013942254e-05
1.32253077702e-05
2.20245449183e-05
-4.21394035499e-05
1.68404614762e-05
1.12077338378e-05
-4.48169134754e-05
1.86915304128e-05
-1.19237442007e-08
-4.61505508756e-05
1.93625924605e-05
-1.12312693603e-05
-4.61472831535e-05
1.93613545843e-05
-2.20455237631e-05
-4.48060727871e-05
1.86882516043e-05
-3.15407495958e-05
-4.21214283885e-05
1.68334008043e-05
-3.81572136669e-05
-3.81790726485e-05
1.32136179717e-05
-4.04216184526e-05
-3.33492540726e-05
7.95154872002e-06
-3.75203321111e-05
-2.81180663523e-05
1.81262453304e-06
-2.97028013708e-05
-2.31960390096e-05
-4.01690175348e-06
-1.85054258624e-05
-1.92591714601e-05
-8.11637549751e-06
-7.07101654822e-06
-1.66731875963e-05
-8.81678490016e-06
-1.50669324659e-05
-4.75725150229e-06
5.78327897029e-06
-1.5788596361e-05
-5.06747151725e-06
1.5744639977e-05
-1.74496259336e-05
-9.19767816763e-06
2.56184592601e-05
-2.0159885329e-05
-8.9917899993e-06
3.25540216113e-05
-2.43437746715e-05
-5.81083491354e-06
3.52059254753e-05
-2.96109031476e-05
-1.18567263327e-06
3.33229515986e-05
-3.52508214178e-05
3.75994977848e-06
2.76182451682e-05
-4.04611508988e-05
7.96315426659e-06
1.93612213738e-05
-4.4695277068e-05
1.08135944413e-05
9.87852555824e-06
-4.75821477172e-05
1.22467152356e-05
-8.84641393916e-09
-4.90200111489e-05
1.27568178102e-05
-9.89480073261e-06
-4.9016092436e-05
1.2755194261e-05
-1.93760878643e-05
-4.75704304116e-05
1.2244595553e-05
-2.76285289864e-05
-4.46767082157e-05
1.08112048322e-05
-3.33285818644e-05
-4.04385905532e-05
7.95656862748e-06
-3.52017193287e-05
-3.52247481082e-05
3.75053605837e-06
-3.25434202163e-05
-2.95845681895e-05
-1.192844346e-06
-2.56071019351e-05
-2.43206941131e-05
-5.81131567075e-06
-1.57369740515e-05
-2.01441150579e-05
-8.98588874171e-06
-5.77955679347e-06
-1.74412343714e-05
-9.18947552768e-06
-1.57876156586e-05
-5.05955472791e-06
4.46054908657e-06
-1.46954495432e-05
-5.55409017343e-06
1.28492518072e-05
-1.61020629915e-05
-9.7367119658e-06
2.12722153012e-05
-1.85073629513e-05
-1.00784539396e-05
2.72189494531e-05
-2.23483683355e-05
-7.94280827187e-06
2.95604768401e-05
-2.72696953014e-05
-4.68243795536e-06
2.80935105788e-05
-3.25968035017e-05
-1.18809556398e-06
2.33723875659e-05
-3.75630876224e-05
1.82398534993e-06
1.64464210755e-05
-4.16030736012e-05
3.83226335355e-06
8.41445666973e-06
-4.43601037063e-05
4.81066702968e-06
-4.60707837892e-09
-4.57360290722e-05
5.13485656036e-06
-8.4242355433e-06
-4.57327817603e-05
5.13498524661e-06
-1.64535511031e-05
-4.43508498866e-05
4.81154202213e-06
-2.33776385147e-05
-4.15888375714e-05
3.83327396366e-06
-2.80933216774e-05
-3.75449210518e-05
1.82367206317e-06
-2.95546155399e-05
-3.25753349774e-05
-1.18904230853e-06
-2.72084053963e-05
-2.72489376056e-05
-4.67993855028e-06
-2.12632999333e-05
-2.23326500674e-05
-7.9354270893e-06
-1.28416966341e-05
-1.8497297307e-05
-1.00678486774e-05
-4.45768017637e-06
-1.61002213406e-05
-9.72671499557e-06
-1.47004534846e-05
-5.54611089043e-06
3.39204460095e-06
-1.19034048345e-05
-6.18503560874e-06
1.03113894021e-05
-1.27240904823e-05
-1.02970693871e-05
1.73271999802e-05
-1.44270152951e-05
-1.10964681895e-05
2.22863290222e-05
-1.73855214552e-05
-9.92493979872e-06
2.42828377285e-05
-2.13210027154e-05
-7.94517581149e-06
2.31621963924e-05
-2.56581363933e-05
-5.81571430978e-06
1.93583615304e-05
-2.97450416352e-05
-4.01621666344e-06
1.36926842303e-05
-3.30938517046e-05
-2.84172981578e-06
7.03387689702e-06
-3.53887168802e-05
-2.31385367685e-06
-2.68540904253e-09
-3.65335271822e-05
-2.16645454735e-06
-7.03768625304e-06
-3.65310519192e-05
-2.16573698112e-06
-1.36956411488e-05
-3.53828255938e-05
-2.31194393531e-06
-1.93577742823e-05
-3.30854656277e-05
-2.83882019657e-06
-2.31565246327e-05
-2.97338668099e-05
-4.01281811114e-06
-2.42724770697e-05
-2.56463955007e-05
-5.81102012434e-06
-2.22761538987e-05
-2.1311642819e-05
-7.93685428805e-06
-1.73160422649e-05
-1.73789764559e-05
-9.91319903724e-06
-1.03050577429e-05
-1.44263973134e-05
-1.10841539624e-05
-3.39000118502e-06
-1.27299863311e-05
-1.02866859235e-05
-1.191246674e-05
-6.17882799767e-06
2.83050048866e-06
-7.90220068808e-06
-6.83125980347e-06
8.56799420635e-06
-7.88477227273e-06
-1.05789933075e-05
1.43528587808e-05
-8.63038939959e-06
-1.15817826021e-05
1.8427482263e-05
-1.03629280899e-05
-1.10988655302e-05
2.0078915837e-05
-1.28925726539e-05
-1.00825272903e-05
1.91985460657e-05
-1.57821901776e-05
-8.99743204647e-06
1.61225110186e-05
-1.85433490609e-05
-8.12351125909e-06
1.14707986949e-05
-2.08414452628e-05
-7.60290126087e-06
5.92194489657e-06
-2.24230330638e-05
-7.41607413523e-06
-3.78563024384e-10
-2.32146355441e-05
-7.39587282177e-06
-5.92238866329e-06
-2.32134972652e-05
-7.39607890346e-06
-1.14680379635e-05
-2.24202271132e-05
-7.41524059931e-06
-1.61165443828e-05
-2.0837740273e-05
-7.60096645439e-06
-1.91885943574e-05
-1.85399439619e-05
-8.11987117358e-06
-2.00670269211e-05
-1.57797224815e-05
-8.9916473859e-06
-1.8412597769e-05
-1.28916829954e-05
-1.00736284105e-05
-1.43411707895e-05
-1.03651601675e-05
-1.1087753801e-05
-8.56164241988e-06
-8.63650656748e-06
-1.15702248029e-05
-2.82747817138e-06
-7.89493576675e-06
-1.05703347394e-05
-7.91009965749e-06
-6.82555291978e-06
2.88256518836e-06
-3.56908127987e-06
-7.21371902003e-06
7.81044362871e-06
-2.92491258389e-06
-9.88504770759e-06
1.26288872856e-05
-2.86833170361e-06
-1.05822485028e-05
1.59952951543e-05
-3.4253081587e-06
-1.03038580831e-05
1.73367889148e-05
-4.4908876182e-06
-9.74574469752e-06
1.6572136676e-05
-5.80932869803e-06
-9.20855640053e-06
1.3959688661e-05
-7.0980293201e-06
-8.83480967156e-06
9.98199239697e-06
-8.19782130791e-06
-8.66466844877e-06
5.17578460699e-06
-8.95895560392e-06
-8.6585124041e-06
1.81566811871e-09
-9.34002749689e-06
-8.70086762994e-06
-5.16993535268e-06
-9.33956995004e-06
-8.70137547993e-06
-9.97334110462e-06
-8.95834599247e-06
-8.65980726348e-06
-1.39457918454e-05
-8.19786863875e-06
-8.66591138409e-06
-1.65542227897e-05
-7.09953402021e-06
-8.835057342e-06
-1.73141233058e-05
-5.81192857565e-06
-9.20682094412e-06
-1.59726238739e-05
-4.49444235185e-06
-9.74112598141e-06
-1.26099023802e-05
-3.4307124212e-06
-1.0296698561e-05
-7.79902417458e-06
-2.87575533691e-06
-1.05746672024e-05
-2.87564112504e-06
-2.93330380258e-06
-9.87919792304e-06
-3.57388062931e-06
-7.21067150807e-06
3.52113267337e-06
-7.09013295853e-06
7.814096146e-06
-7.21755499254e-06
1.17893503649e-05
-6.83861994698e-06
1.45580714184e-05
-6.19758714872e-06
1.56396067375e-05
-5.57150350408e-06
1.49167939038e-05
-5.08957152111e-06
1.26097332968e-05
-4.78999587135e-06
9.05551001146e-06
-4.64499887133e-06
4.71509461792e-06
-4.61792806697e-06
7.76431327089e-09
-4.63239695661e-06
-4.69819581297e-06
-4.63419893193e-06
-9.0324813317e-06
-4.62267675622e-06
-1.25833441529e-05
-4.65218933027e-06
-1.48835805835e-05
-4.7977563297e-06
-1.55996542447e-05
-5.09555267579e-06
-1.45165577347e-05
-5.57502894824e-06
-1.17555397214e-05
-6.19783669097e-06
-7.79266156091e-06
-6.83626488888e-06
-3.51096827166e-06
-7.21590088614e-06
-7.08422995172e-06
4.80810525014e-06
4.82979358101e-06
-1.67194900059e-05
9.56917230765e-06
5.44021536249e-06
-1.74102880017e-05
1.36560861681e-05
6.230583791e-06
-1.71450115044e-05
1.6369481693e-05
7.49069792805e-06
-1.6391176912e-05
1.72827007465e-05
9.0667905001e-06
-1.55445181528e-05
1.63111457753e-05
1.07558687155e-05
-1.4871687743e-05
1.36684984341e-05
1.23353516772e-05
-1.44843497989e-05
9.75208939083e-06
1.36485106884e-05
-1.43808908705e-05
5.04868318666e-06
1.45564857153e-05
-1.44768381641e-05
-1.18837724611e-08
1.5014373792e-05
-1.45926491345e-05
-5.07295087327e-06
1.50152183786e-05
-1.4593146773e-05
-9.77775360315e-06
1.45579149645e-05
-1.44791609168e-05
-1.36953177947e-05
1.36500220106e-05
-1.43858836388e-05
-1.63381278365e-05
1.2336573371e-05
-1.44933130653e-05
-1.73074241063e-05
1.07563803943e-05
-1.48844933957e-05
-1.6391677448e-05
9.066197203e-06
-1.55625392363e-05
-1.36710092545e-05
7.48991072197e-06
-1.64129027574e-05
-9.57432690234e-06
6.23124278492e-06
-1.71678662633e-05
-4.80740463197e-06
5.44487060327e-06
-1.7434925796e-05
4.83960433096e-06
-1.67458001917e-05
5.42644948641e-06
9.60147385481e-06
-1.7403593428e-05
1.05287983513e-05
1.05430038537e-05
-2.00834888818e-05
1.47403546806e-05
1.20384718258e-05
-2.05938260732e-05
1.75254230956e-05
1.43641523977e-05
-1.99552159836e-05
1.84466846102e-05
1.72609081803e-05
-1.88565361434e-05
1.73837272181e-05
2.03564265848e-05
-1.77452138023e-05
1.45391876233e-05
2.32548121839e-05
-1.69100986094e-05
1.0360318231e-05
2.56395852645e-05
-1.6477999907e-05
5.36224876374e-06
2.72872157949e-05
-1.63933217522e-05
-4.30139006335e-09
2.81176282462e-05
-1.64409237782e-05
-5.37164359735e-06
2.81182101182e-05
-1.64410620389e-05
-1.03706648647e-05
2.72891083396e-05
-1.63935512252e-05
-1.45504541485e-05
2.56404775659e-05
-1.64795349954e-05
-1.73950782691e-05
2.32544111069e-05
-1.69134619385e-05
-1.84570472464e-05
2.03545469123e-05
-1.77518106226e-05
-1.75331144926e-05
1.72574804996e-05
-1.8868046962e-05
-1.47437083894e-05
1.43606949805e-05
-1.9971393569e-05
-1.05275488145e-05
1.20382983832e-05
-2.06125552972e-05
-5.42234274e-06
1.05510241713e-05
-2.01045346657e-05
9.62276993649e-06
-1.74241427109e-05
6.22554559113e-06
1.3685006843e-05
-1.71263802708e-05
1.20390026439e-05
1.47462137077e-05
-2.05873530152e-05
1.6765248332e-05
1.67533271182e-05
-2.10148308895e-05
1.98512228102e-05
1.98734282239e-05
-1.96868188635e-05
2.08311257132e-05
2.37475763099e-05
-1.75432798215e-05
1.95734442073e-05
2.78789117922e-05
-1.52565658459e-05
1.63184571241e-05
3.17345966482e-05
-1.3340200056e-05
1.15894727416e-05
3.48848321634e-05
-1.21076279984e-05
5.9849685576e-06
3.70554393627e-05
-1.15683227735e-05
7.00041006733e-10
3.81493656798e-05
-1.14326633008e-05
-5.9841954279e-06
3.81498425501e-05
-1.14314393794e-05
-1.15901898813e-05
3.70560351075e-05
-1.1565357129e-05
-1.63208094114e-05
3.48833327366e-05
-1.21040604373e-05
-1.95770952515e-05
3.17313959435e-05
-1.33369047433e-05
-2.08353656769e-05
2.78734303211e-05
-1.52562577271e-05
-1.98540975765e-05
2.37408354021e-05
-1.7549247214e-05
-1.67650041123e-05
1.98676750597e-05
-1.96990667635e-05
-1.20355014993e-05
1.67524561922e-05
-2.10308905287e-05
-6.22112134773e-06
1.47565765645e-05
-2.06044640759e-05
1.37160627079e-05
-1.71427466698e-05
7.49202001611e-06
1.63858844274e-05
-1.63613264632e-05
1.43753380967e-05
1.75182467611e-05
-1.99434242505e-05
1.98982764442e-05
1.98253184321e-05
-1.96839940051e-05
2.34484044064e-05
2.34075586258e-05
-1.70025564123e-05
2.45037943074e-05
2.78441021545e-05
-1.30894735453e-05
2.29246789937e-05
3.25609837396e-05
-8.90456260156e-06
1.90245784773e-05
3.69401927626e-05
-5.29582610153e-06
1.34497586974e-05
4.0497379826e-05
-2.84508919255e-06
6.9223527357e-06
4.29405096454e-05
-1.63217133683e-06
3.12642011673e-09
4.41748346422e-05
-1.23326905555e-06
-6.91674334967e-06
4.41747339955e-05
-1.23120388438e-06
-1.3446282779e-05
4.2937998972e-05
-1.62405130945e-06
-1.90230252387e-05
4.04918703774e-05
-2.83500457007e-06
-2.29256222229e-05
3.69315543476e-05
-5.2846852982e-06
-2.45063937362e-05
3.25501638761e-05
-8.89598747951e-06
-2.34508310049e-05
2.78325680677e-05
-1.30876906406e-05
-1.98987440203e-05
2.33983710326e-05
-1.7008254072e-05
-1.43732838423e-05
1.98227221816e-05
-1.96950656392e-05
-7.48910019334e-06
1.75294879443e-05
-1.99563987013e-05
1.64228853069e-05
-1.63740353428e-05
9.07146807291e-06
1.72819967662e-05
-1.55053406498e-05
1.72769516568e-05
1.84254482131e-05
-1.88424428236e-05
2.37786446313e-05
2.07922450761e-05
-1.75430835765e-05
2.78936414901e-05
2.44483828369e-05
-1.30956118526e-05
2.90280107151e-05
2.89606631605e-05
-6.92623823923e-06
2.70296046375e-05
3.37317553029e-05
-3.38036345015e-07
2.23215696254e-05
3.81653753343e-05
5.34629841027e-06
1.57052137143e-05
4.17698250076e-05
9.23027940919e-06
8.0586207503e-06
4.42549163099e-05
1.12056159373e-05
3.06947375899e-09
4.55148070517e-05
1.19182977469e-05
-8.05309912091e-06
4.55138502965e-05
1.1922002181e-05
-1.57014024186e-05
4.424920112e-05
1.12148940529e-05
-2.23200159051e-05
4.1759172938e-05
9.2454289428e-06
-2.70308208001e-05
3.81508626701e-05
5.36381127848e-06
-2.90314911323e-05
3.37132641653e-05
-3.23461015485e-07
-2.78974592644e-05
2.89429415959e-05
-6.91746036924e-06
-2.37815015122e-05
2.44342031875e-05
-1.30938394641e-05
-1.72777556103e-05
2.07863987168e-05
-1.75479069016e-05
-9.0709879668e-06
1.84354650863e-05
-1.88500680872e-05
1.7320615631e-05
-1.55130672469e-05
1.07599893934e-05
1.6293915306e-05
-1.48276791409e-05
2.03710608228e-05
1.73531450797e-05
-1.77340067426e-05
2.79081082693e-05
1.95291855082e-05
-1.52678408125e-05
3.26104208507e-05
2.28651850477e-05
-8.93308721198e-06
3.38021841823e-05
2.69575770909e-05
-3.7021787902e-07
3.13642800092e-05
3.12888801135e-05
8.66242331968e-06
2.58052537156e-05
3.53436273705e-05
1.63835530512e-05
1.8101250167e-05
3.86530337116e-05
2.16809547078e-05
9.27254316431e-06
4.09296473417e-05
2.44579426083e-05
5.85557453914e-10
4.20776055731e-05
2.55319766817e-05
-9.27180252981e-06
4.20754309137e-05
2.55333051344e-05
-1.81010241252e-05
4.09216049938e-05
2.44634179001e-05
-2.58068907685e-05
3.86376433194e-05
2.16964127702e-05
-3.13678328268e-05
3.53222380779e-05
1.64016772787e-05
-3.38069747013e-05
3.12632345062e-05
8.67896899083e-06
-3.2616213305e-05
2.69319460987e-05
-3.55952733042e-07
-2.79134186307e-05
2.28445874191e-05
-8.92459776125e-06
-2.03746821635e-05
1.95186469046e-05
-1.52664951579e-05
-1.07615997982e-05
1.73600282812e-05
-1.77360536491e-05
1.63300851075e-05
-1.48294922817e-05
1.23375071208e-05
1.36386132032e-05
-1.44391233318e-05
2.32648237055e-05
1.45077222433e-05
-1.69056899427e-05
3.17574004698e-05
1.62817266646e-05
-1.33703212475e-05
3.69845191723e-05
1.89779287374e-05
-5.35973345451e-06
3.82352923446e-05
2.22668916318e-05
5.2652208987e-06
3.54142008689e-05
2.5751651752e-05
1.63407314705e-05
2.90829445011e-05
2.90389850459e-05
2.5890408146e-05
2.03712072454e-05
3.17274283043e-05
3.25099691327e-05
1.04286118452e-05
3.35384877037e-05
3.60619028417e-05
-3.13226966733e-09
3.44379750143e-05
3.74860408625e-05
-1.04348303179e-05
3.44354641975e-05
3.74862101556e-05
-2.03780528088e-05
3.35288235198e-05
3.60647829751e-05
-2.90900015648e-05
3.17089153468e-05
3.25168699177e-05
-3.5421899381e-05
2.90131457469e-05
2.59039209465e-05
-3.82426217864e-05
2.5720766035e-05
1.63529770719e-05
-3.69914480125e-05
2.22353904556e-05
5.27782314911e-06
-3.17639151592e-05
1.89517608152e-05
-5.34921199338e-06
-2.32698849402e-05
1.62664627536e-05
-1.33653850936e-05
-1.23406137595e-05
1.45104574872e-05
-1.69034703646e-05
1.36691544557e-05
-1.44358025633e-05
1.36485304702e-05
9.71254435162e-06
-1.43330418226e-05
2.56450187697e-05
1.03353314339e-05
-1.64782004965e-05
3.4902126232e-05
1.15699771813e-05