/*--------------------------------*- C++ -*----------------------------------*\
| =========                 |                                                 |
| \\      /  F ield         | OpenFOAM: The Open Source CFD Toolbox           |
|  \\    /   O peration     | Version:  3.0.1                                 |
|   \\  /    A nd           | Web:      www.OpenFOAM.org                      |
|    \\/     M anipulation  |                                                 |
\*---------------------------------------------------------------------------*/
FoamFile
{
    version     2.0;
    format      ascii;
    class       volScalarField;
    location    "1.6";
    object      ddt0(k);
}
// * * * * * * * * * * * * * * * * * * * * * * * * * * * * * * * * * * * * * //

dimensions      [0 2 -3 0 0 0 0];

internalField   nonuniform List<scalar> 
7968
(
-0.00391898931594
-0.00399832449358
-0.00402779904726
-0.00402486823267
-0.00401483920956
-0.00400790530263
-0.0040050497168
-0.00400461560549
-0.00400489827974
-0.00400518588554
-0.00400512488255
-0.00400477790964
-0.00400448000305
-0.00400491148249
-0.0040077689013
-0.00401471287675
-0.00402476315678
-0.0040277269033
-0.00399830252522
-0.00391899264656
-0.00399835403629
-0.00461962054496
-0.0049280791185
-0.00502021748006
-0.00502361123632
-0.00500655539802
-0.00499450975538
-0.00499086953632
-0.00499117861031
-0.00499196152487
-0.00499190342204
-0.0049910112577
-0.0049906186775
-0.00499421352696
-0.00500620780514
-0.0050232317737
-0.00501984458306
-0.00492777308328
-0.00461947103329
-0.00399834727776
-0.00402785603291
-0.00492808360542
-0.00543703219305
-0.00562923712803
-0.0056695539703
-0.00565896039077
-0.00564433408642
-0.00563846222389
-0.00563857022635
-0.00563977874048
-0.00563971790333
-0.00563838401645
-0.00563817649195
-0.00564397224621
-0.00565854044258
-0.00566907405531
-0.00562875078092
-0.00543662449214
-0.00492784767564
-0.00402783169866
-0.00402493403849
-0.00502011737671
-0.00562911786646
-0.00588511135351
-0.00595680236166
-0.00595748915415
-0.00594577061748
-0.00594126343493
-0.00594331212656
-0.0059455501187
-0.0059454815838
-0.00594311666822
-0.00594095734085
-0.00594539930808
-0.00595703890088
-0.00595630669012
-0.00588459104575
-0.0056286707841
-0.00501984408635
-0.00402489773036
-0.0040148854564
-0.00502330356362
-0.00566917596118
-0.00595651910944
-0.00604775299737
-0.00605865908691
-0.00604372608169
-0.00603081663948
-0.00602731731795
-0.00602794372099
-0.00602792098902
-0.00602724235012
-0.00603071585193
-0.00604361723663
-0.00605822878863
-0.00604726150062
-0.00595603161499
-0.00566874088158
-0.0050230324754
-0.00401484531702
-0.00400789748177
-0.00500597328647
-0.00565821062859
-0.0059567224052
-0.00605816870843
-0.00605872969291
-0.00603154805834
-0.00601264406292
-0.00600725389957
-0.00600778901292
-0.00600775370253
-0.00600715138935
-0.00601250771905
-0.00603140650425
-0.00605860382721
-0.00605774363116
-0.00595628999739
-0.00565782533003
-0.00500572451414
-0.00400786242967
-0.00400496861314
-0.00499362521548
-0.00564313520644
-0.00594445674872
-0.00604307209541
-0.00603124366978
-0.00599595896544
-0.00597432474795
-0.00596856697301
-0.00596948401244
-0.0059694423037
-0.00596844736261
-0.00597415937876
-0.0059957697466
-0.00603108317613
-0.00604294439624
-0.00594405664778
-0.00564278827019
-0.00499340831597
-0.00400493981814
-0.00400446305945
-0.00498974188268
-0.00563691841763
-0.00593945864903
-0.00602986254076
-0.0060120608069
-0.00597398166595
-0.00595215912999
-0.00594758665016
-0.00594961458096
-0.0059495713424
-0.00594746438833
-0.00595198095944
-0.00597376267074
-0.00601184476771
-0.00602967917341
-0.00593901820534
-0.00563658093899
-0.00498953776171
-0.00400443814121
-0.00400469535484
-0.00498996308895
-0.00563691686629
-0.00594132717785
-0.00602620893221
-0.00600655728131
-0.00596816013551
-0.00594754928342
-0.00594475207195
-0.00594799452321
-0.00594794587531
-0.00594460500822
-0.00594733646539
-0.00596789102028
-0.00600627136223
-0.00602593897599
-0.00594079804828
-0.00563653463769
-0.0049897503973
-0.00400466893877
-0.00400498408709
-0.0049908111109
-0.00563826609748
-0.00594383524865
-0.00602685837816
-0.00600708569366
-0.00596912753381
-0.00594963159232
-0.00594807703283
-0.00595246146653
-0.00595238488486
-0.00594786348383
-0.00594934569216
-0.00596879135438
-0.00600672667277
-0.00602650126218
-0.00594320872252
-0.00563783615776
-0.00499058548573
-0.00400496055042
-0.00400500274629
-0.00499089770514
-0.00563842196672
-0.00594403558171
-0.00602695741427
-0.00600715697361
-0.00596918746139
-0.00594967975728
-0.00594812776281
-0.00595251698728
-0.00595240908879
-0.00594785371604
-0.00594933346417
-0.00596880490965
-0.00600675250633
-0.0060265357694
-0.00594333871445
-0.00563795043866
-0.00499066263416
-0.00400500742367
-0.00400474024788
-0.00499018007755
-0.00563730393771
-0.00594181905078
-0.00602644805115
-0.00600672298562
-0.0059682891922
-0.00594761912905
-0.00594479031438
-0.00594802166769
-0.00594792558471
-0.00594454567965
-0.00594730159609
-0.00596792544097
-0.00600632039261
-0.00602600631375
-0.00594112606774
-0.00563683581996
-0.00498996261839
-0.0040047648976
-0.00400450377457
-0.00498999297231
-0.0056373785171
-0.00594004922105
-0.00603012865675
-0.00601220361965
-0.00597406372454
-0.00595215682095
-0.00594751985876
-0.00594950271296
-0.00594944102674
-0.00594735584231
-0.00595192070725
-0.00597375816959
-0.00601183891501
-0.0060297130747
-0.00593944961858
-0.00563699154945
-0.00498984179803
-0.00400454495397
-0.0040049808372
-0.00499381118012
-0.0056435029046
-0.00594495314308
-0.006043288487
-0.00603128000155
-0.00599588460093
-0.00597416380828
-0.00596836312217
-0.0059692478906
-0.00596921122926
-0.00596826355802
-0.00597400507696
-0.00599565090218
-0.00603097590753
-0.00604292704618
-0.00594453505725
-0.00564327341576
-0.00499373613923
-0.00400504080202
-0.00400786619409
-0.00500601046096
-0.0056583349408
-0.00595696958464
-0.00605831861408
-0.00605866237834
-0.00603131511892
-0.00601231336518
-0.00600687550221
-0.00600738834631
-0.0060073671171
-0.00600681484653
-0.00601220804133
-0.00603114607865
-0.00605841155502
-0.00605807805396
-0.0059567971499
-0.00565827353988
-0.00500604775528
-0.00400794622977
-0.0040148061051
-0.00502316559927
-0.0056690482748
-0.00595649245353
-0.00604774509252
-0.00605841332574
-0.00604335016662
-0.00603028768646
-0.00602672053275
-0.00602735108207
-0.0060273454085
-0.00602669290545
-0.00603022585078
-0.00604323387009
-0.00605836878097
-0.00604770765705
-0.00595652153809
-0.00566913886444
-0.00502329650701
-0.00401489886959
-0.00402483740451
-0.00501984603821
-0.00562877933109
-0.00588482202799
-0.00595655589884
-0.00595714356509
-0.00594528916826
-0.00594065648676
-0.00594271171773
-0.00594521437546
-0.00594524442939
-0.00594278643271
-0.00594073900558
-0.00594536111427
-0.00595721347991
-0.00595665926852
-0.00588496713668
-0.00562894861226
-0.0050200140454
-0.004024924246
-0.00402776102391
-0.00492776030108
-0.00543660655363
-0.00562878811157
-0.00566912252136
-0.00565853599919
-0.00564387645843
-0.00563800448277
-0.00563818559272
-0.00563952979549
-0.0056395481859
-0.00563823699448
-0.00563808313651
-0.00564396431205
-0.00565864262571
-0.00566925735914
-0.00562893751858
-0.00543675175217
-0.00492790321224
-0.00402782817112
-0.00399829747207
-0.00461938343659
-0.00492773625625
-0.00501983220414
-0.00502321608967
-0.00500617321324
-0.00499413349382
-0.00499051351373
-0.00499089484641
-0.00499177685854
-0.00499178280352
-0.00499092807394
-0.00499056535537
-0.004994201468
-0.0050062527526
-0.00502330307535
-0.00501992090888
-0.00492780787886
-0.00461945097753
-0.0039983294376
-0.00391897602661
-0.00399825450484
-0.00402768429151
-0.00402473970231
-0.00401471012278
-0.00400778672622
-0.00400493877257
-0.00400451257383
-0.00400481142509
-0.00400513550275
-0.00400512312727
-0.0040047869808
-0.00400448636617
-0.00400491679966
-0.0040077735718
-0.00401470770702
-0.0040247456039
-0.00402769110739
-0.00399826332427
-0.00391897743099
-0.00400322215959
-0.00463659387736
-0.00495277966385
-0.00504725863819
-0.00504888100065
-0.00502770735822
-0.00501121669406
-0.00500390728371
-0.00500195164925
-0.00500168777207
-0.00500165163493
-0.00500185554801
-0.00500377856716
-0.00501107652241
-0.00502756429786
-0.00504874578881
-0.0050471473811
-0.00495270529689
-0.00463656278834
-0.00400321730902
-0.00463656244022
-0.00815504302354
-0.00940323310172
-0.009874997189
-0.0100029632064
-0.0100010722103
-0.0099723714124
-0.00995382795992
-0.0099480933897
-0.00994790108785
-0.00994783244958
-0.00994789831443
-0.00995352362381
-0.00997198254931
-0.0100006111454
-0.0100024384283
-0.00987444283985
-0.00940273351372
-0.00815470353112
-0.00463651748655
-0.00495280838623
-0.00940329174143
-0.0110436246655
-0.011721294377
-0.0119443289741
-0.0119741505313
-0.0119479761069
-0.0119242362209
-0.0119149372357
-0.0119135041922
-0.0119134510916
-0.0119147851012
-0.0119239957391
-0.0119476719836
-0.0119737795842
-0.0119438755041
-0.0117207823285
-0.0110431260714
-0.00940289613901
-0.00495277085131
-0.00504731810573
-0.00987490208878
-0.0117211403839
-0.0125264562841
-0.012818245962
-0.0128763813001
-0.012856117643
-0.0128312963469
-0.0128213442894
-0.012819497901
-0.0128194525631
-0.0128212585983
-0.0128311010518
-0.0128558672383
-0.0128760945814
-0.0128178855386
-0.012526018327
-0.0117206796986
-0.00987449725874
-0.00504728782873
-0.00504889172704
-0.0100025501628
-0.0119438427426
-0.0128179039807
-0.013150248851
-0.0132252151335
-0.013205068109
-0.0131767335376
-0.0131633032674
-0.0131605278841
-0.0131604660202
-0.0131631064342
-0.0131764415828
-0.0132047338786
-0.0132249646501
-0.0131499665153
-0.0128175625615
-0.0119434536242
-0.0100021877167
-0.00504886579821
-0.00502760255779
-0.0100002212076
-0.0119731912312
-0.0128755347951
-0.0132246974673
-0.0133021269496
-0.0132814823963
-0.0132498588733
-0.0132338584851
-0.0132302946746
-0.0132302248731
-0.0132336471878
-0.0132495626763
-0.0132811366403
-0.0133017874907
-0.0132244448685
-0.0128752664299
-0.0119728805607
-0.00999991356037
-0.00502758509822
-0.00501095954107
-0.00997103900815
-0.0119464816324
-0.0128546588553
-0.0132037958278
-0.0132807783784
-0.0132573486576
-0.0132228625059
-0.0132045681823
-0.0131997702645
-0.0131997093785
-0.0132043963567
-0.0132226161419
-0.013256996557
-0.0132804087895
-0.0132034134809
-0.0128543784613
-0.0119461966917
-0.00997076562967
-0.00501094482202
-0.00500351519321
-0.00995213121807
-0.0119223173019
-0.0128292974036
-0.0131748344724
-0.0132484779059
-0.013221814332
-0.013184038687
-0.0131637777624
-0.0131585699915
-0.0131585080427
-0.0131636403501
-0.0131838406269
-0.013221484421
-0.0132480621897
-0.013174359338
-0.0128289263868
-0.0119219912413
-0.00995183531149
-0.00500349555501
-0.00500149229554
-0.00994626446887
-0.0119128762014
-0.0128190721679
-0.0131611802006
-0.0132323492108
-0.0132034274866
-0.0131636777718
-0.013142617264
-0.0131363856502
-0.0131362963917
-0.0131423974358
-0.0131634308203
-0.0132030353259
-0.0132318041361
-0.0131605543152
-0.0128185516279
-0.0119124442973
-0.00994590061929
-0.00500145643065
-0.00500124956934
-0.00994618105592
-0.0119116409201
-0.0128176638651
-0.0131586051339
-0.0132289775762
-0.0131990415654
-0.0131587059866
-0.0131364743879
-0.0131289327289
-0.0131288863069
-0.0131362235677
-0.0131583582034
-0.0131985473932
-0.0132283037388
-0.013157817738
-0.0128169702113
-0.0119110781525
-0.00994573908385
-0.00500119997745
-0.00500129640253
-0.00994635396509
-0.0119118756373
-0.012817926076
-0.0131587796825
-0.0132290570711
-0.0131990483088
-0.0131586222593
-0.0131363020842
-0.0131288086919
-0.0131286719749
-0.0131359924157
-0.0131582103601
-0.0131984747062
-0.0132282874162
-0.0131578649189
-0.0128170586761
-0.0119111884383
-0.0099458433788
-0.00500124102644
-0.00500160446517
-0.00994672618611
-0.0119134855671
-0.0128197491258
-0.0131615998597
-0.0132325459958
-0.0132034650335
-0.0131634945296
-0.0131422253974
-0.0131359639086
-0.013135777389
-0.0131418758866
-0.0131630579887
-0.0132028647866
-0.0132317419814
-0.0131606497381
-0.0128187818059
-0.0119127396689
-0.00994618123747
-0.0050015531191
-0.00500363586078
-0.00995272891028
-0.0119230928301
-0.0128301151647
-0.013175310211
-0.0132486063554
-0.0132216914487
-0.0131836540858
-0.0131631794498
-0.0131578881568
-0.0131577835498
-0.0131629492793
-0.0131833088725
-0.0132211547373
-0.0132478560765
-0.0131744360837
-0.0128292271373
-0.011922395928
-0.00995223018643
-0.00500360685805
-0.00501103958524
-0.00997160636116
-0.0119471906015
-0.0128554010493
-0.0132041713167
-0.013280734748
-0.0132569263291
-0.0132220933691
-0.0132037089179
-0.0131988880769
-0.0131988290433
-0.0132035559942
-0.0132218475733
-0.0132564941979
-0.0132801240792
-0.0132034673486
-0.0128546889313
-0.0119466380593
-0.00997122345624
-0.00501104367405
-0.00502760914001
-0.0100006078365
-0.0119736372335
-0.0128760173888
-0.0132249966693
-0.0133018945689
-0.0132808314911
-0.0132489221595
-0.0132328293588
-0.013229271622
-0.0132292319224
-0.0132327286984
-0.0132487368216
-0.0132805187123
-0.0133014673259
-0.013224463113
-0.0128755521207
-0.0119732932131
-0.0100003870836
-0.00502765731934
-0.00504882196278
-0.0100027108487
-0.0119439848032
-0.012818085452
-0.0131503399357
-0.0132250149506
-0.0132043293017
-0.0131756875296
-0.013162144508
-0.0131594627011
-0.0131594545477
-0.0131621022616
-0.0131755834405
-0.013204140234
-0.0132246861788
-0.0131500282799
-0.0128178478595
-0.0119438302436
-0.0100026340005
-0.00504889733972
-0.00504721029928
-0.00987488446027
-0.0117210216077
-0.0125263209056
-0.0128180673862
-0.0128760330094
-0.0128555169006
-0.0128304216922
-0.0128202719902
-0.0128186514297
-0.0128186297235
-0.0128202061215
-0.0128302938863
-0.0128553387071
-0.0128758478567
-0.0128179209334
-0.0125262354877
-0.0117209831937
-0.00987488135804
-0.00504727950447
-0.00495270397823
-0.00940321550989
-0.0110433844334
-0.0117209557649
-0.0119439117138
-0.0119736273643
-0.0119473185248
-0.0119234387887
-0.0119140787266
-0.0119127100749
-0.0119126880853
-0.0119140200736
-0.0119233434544
-0.0119471959973
-0.0119735087434
-0.0119438215285
-0.0117208996804
-0.0110433458054
-0.00940318861142
-0.00495273613451
-0.00463650009108
-0.00815507070258
-0.00940306415127
-0.00987467896618
-0.0100025243724
-0.0100005074821
-0.00997167927127
-0.00995304058878
-0.00994729379642
-0.00994715247661
-0.00994713423451
-0.00994724958526
-0.00995296629732
-0.00997157204426
-0.0100003779008
-0.0100023864176
-0.00987454619021
-0.00940292066445
-0.0081549269333
-0.00463648158556
-0.004003167176
-0.00463648479275
-0.00495261008406
-0.00504705291044
-0.00504865171066
-0.0050274596818
-0.00501094291815
-0.00500362169552
-0.00500168486496
-0.0050014656283
-0.00500145872272
-0.00500167282995
-0.00500360490609
-0.00501092048358
-0.00502743358606
-0.00504862836227
-0.00504703609638
-0.00495259796749
-0.00463647796475
-0.00400317460675
-0.00404104023725
-0.00496820953931
-0.0054859400736
-0.00567700464887
-0.0057099372343
-0.00568830331794
-0.00566188617759
-0.00564578749237
-0.005638813807
-0.00563657218127
-0.00563654546595
-0.00563873701602
-0.00564567617094
-0.00566176123548
-0.00568817460993
-0.00570981150645
-0.00567689358799
-0.0054858564678
-0.00496815729753
-0.00404104200973
-0.00496815639222
-0.00942291008865
-0.0110690078973
-0.0117478426307
-0.0119687148436
-0.0119937375513
-0.0119616264391
-0.0119319977815
-0.0119178903143
-0.011913927717
-0.011913848614
-0.0119176664113
-0.0119316438438
-0.011961172071
-0.0119931902549
-0.0119680661681
-0.0117471320065
-0.0110683278163
-0.00942237841024
-0.00496808485482
-0.00548591527864
-0.0110689473801
-0.013154682387
-0.0140673032062
-0.0144040256171
-0.0144745712867
-0.0144516063335
-0.0144184419432
-0.0144000102183
-0.0143935608734
-0.0143935092688
-0.0143998705968
-0.0144182155138
-0.0144512997024
-0.0144741720683
-0.0144034983151
-0.0140666659766
-0.0131540167495
-0.0110683434069
-0.00548585706208
-0.00567698658863
-0.0117474808397
-0.0140670206302
-0.015123440473
-0.0155422385617
-0.0156516526359
-0.0156413522016
-0.015610157216
-0.0155878376068
-0.0155738318492
-0.0155737903223
-0.0155875634303
-0.0156100583435
-0.0156411891781
-0.0156513989263
-0.0155418410048
-0.0151229043399
-0.0140664090718
-0.0117468682284
-0.00567694711075
-0.00570981558835
-0.0119678581019
-0.0144032955659
-0.0155418187049
-0.0160123330319
-0.0161454826273
-0.0161353164159
-0.0160862351971
-0.0160551441838
-0.0160448752262
-0.016044841866
-0.0160550462055
-0.0160861630239
-0.0161352178535
-0.0161453404768
-0.0160120708706
-0.0155414075342
-0.0144027816465
-0.0119673062504
-0.00570978173488
-0.00568799548405
-0.0119922647944
-0.0144732843994
-0.0156507114733
-0.0161449932442
-0.0162686433056
-0.0161948203579
-0.0160843531272
-0.016030831668
-0.0160181852392
-0.0160181542038
-0.0160307501503
-0.0160844284237
-0.0161950924771
-0.0162687029959
-0.0161448380674
-0.0156504161403
-0.0144728670189
-0.0119917870532
-0.00568797004201
-0.00566134195636
-0.0119594952963
-0.0144497141078
-0.0156397788941
-0.0161341974554
-0.0161938591901
-0.01601025866
-0.0158279908243
-0.015753083939
-0.0157381227954
-0.0157380698205
-0.015752929933
-0.015828122859
-0.0160108295056
-0.016194369452
-0.0161340690996
-0.0156395091405
-0.0144493205178
-0.0119590406814
-0.00566130929887
-0.00564504224579
-0.0119293588024
-0.0144160551303
-0.0156079732003
-0.0160843636614
-0.0160821435912
-0.0158262475566
-0.01560572869
-0.0155193461491
-0.0155032913896
-0.0155032040574
-0.0155191192243
-0.0156058074644
-0.0158269216897
-0.0160829166581
-0.0160843064389
-0.0156076398292
-0.0144155997537
-0.0119288516662
-0.00564498385419
-0.005637985727
-0.0119150597421
-0.014397499715
-0.0155884509764
-0.0160530079958
-0.0160281929634
-0.0157509458194
-0.015518970646
-0.0154294823523
-0.0154123959324
-0.0154122422338
-0.015429107896
-0.0155189812976
-0.0157515895818
-0.0160289267661
-0.0160528797287
-0.0155879797817
-0.014396909117
-0.0119144450533
-0.00563788515273
-0.0056357922143
-0.0119112723597
-0.0143913589057
-0.0155729657047
-0.016042912673
-0.0160157609157
-0.0157365920622
-0.0155034808596
-0.0154128458422
-0.0153945627201
-0.0153944829647
-0.0154124799516
-0.0155034224325
-0.0157371739463
-0.0160164006275
-0.0160426619944
-0.0155725695337
-0.0143906113278
-0.0119105280587
-0.00563564800644
-0.00563588046105
-0.0119115636036
-0.0143916635943
-0.0155730302348
-0.0160429960855
-0.0160157766539
-0.0157366035861
-0.0155034809108
-0.015412752768
-0.0153945556473
-0.0153943705487
-0.0154123344735
-0.0155033646995
-0.0157371187468
-0.0160163339044
-0.0160426306816
-0.0155726018355
-0.0143907676238
-0.0119107142182
-0.00563570105065
-0.00563821775571
-0.0119158516631
-0.0143983559643
-0.0155886238582
-0.0160532459675
-0.0160282349187
-0.0157510223938
-0.0155191014552
-0.0154294840222
-0.0154123897674
-0.0154121370538
-0.0154289661713
-0.0155189026423
-0.0157514777015
-0.0160287254554
-0.016052780131
-0.0155881798083
-0.0143973552643
-0.0119149629376
-0.00563802386892
-0.00564533797531
-0.0119304297467
-0.0144172198046
-0.0156089480457
-0.016084561081
-0.0160817465268
-0.0158256691602
-0.0156050517716
-0.0155186208494
-0.0155025057396
-0.0155023316758
-0.0155181846915
-0.0156048944075
-0.0158261019757
-0.0160821720647
-0.016084045156
-0.0156079489151
-0.014416262576
-0.0119296107418
-0.00564516627545
-0.00566161456471
-0.0119606005416
-0.014450889067
-0.0156407217246
-0.0161342794832
-0.0161928755433
-0.0160084890608
-0.0158257631896
-0.0157506729562
-0.0157357110009
-0.0157355942339
-0.0157503519522
-0.015825682437
-0.016008850439
-0.0161930986599
-0.0161337693895
-0.0156399140812
-0.0144501128245
-0.0119599491312
-0.005661492591
-0.00568817669424
-0.0119931671492
-0.0144742124173
-0.0156514820599
-0.0161451232725
-0.01626780802
-0.0161928051687
-0.0160816008921
-0.0160278456535
-0.0160151578941
-0.0160150828046
-0.0160276600713
-0.0160815455131
-0.0161929441496
-0.016267714103
-0.0161447021441
-0.0156509228758
-0.0144736939522
-0.0119927467096
-0.00568812472135
-0.0057098907837
-0.0119684611328
-0.0144038792636
-0.0155423705634
-0.0160125648715
-0.0161451238602
-0.0161343271349
-0.0160846564285
-0.0160533413503
-0.0160430871328
-0.0160430652011
-0.0160532765035
-0.0160846120899
-0.0161342592305
-0.0161448856684
-0.0160122531469
-0.0155420480649
-0.0144036022291
-0.0119682518707
-0.00570988914271
-0.00567699745358
-0.0117478274287
-0.0140672734982
-0.0151236703186
-0.015542389702
-0.0156515635949
-0.0156409071674
-0.0156093054711
-0.0155889085175
-0.0155734697521
-0.0155734274792
-0.0155887142242
-0.0156091846525
-0.0156407419623
-0.0156513782487
-0.0155422159924
-0.0151235349615
-0.0140671674978
-0.0117477519522
-0.00567700969141
-0.00548590801419
-0.0110691923092
-0.0131547555518
-0.0140672684472
-0.0144039162176
-0.0144743690016
-0.0144512685859
-0.014417917961
-0.0143994051347
-0.0143930310659
-0.0143930037407
-0.0143993366841
-0.0144178123197
-0.0144511354818
-0.0144742430263
-0.0144038197108
-0.0140672053587
-0.0131546944359
-0.0110691284862
-0.00548589470422
-0.00496814743222
-0.0094232034372
-0.0110691062253
-0.0117477730516
-0.0119684924782
-0.0119933641199
-0.0119610899308
-0.0119313306131
-0.0119171981428
-0.0119133005004
-0.0119132902648
-0.0119171788303
-0.0119312906539
-0.0119610226271
-0.0119932754662
-0.0119683970721
-0.0117476728064
-0.0110689728383
-0.0094230258758
-0.00496810324883
-0.00404095309141
-0.00496814132699
-0.00548584749812
-0.00567687716607
-0.00570976992536
-0.00568809105492
-0.00566161427585
-0.00564547935293
-0.00563851626593
-0.00563631574806
-0.00563631138807
-0.00563851050823
-0.00564546914111
-0.0056615928774
-0.00568805498155
-0.0057097286248
-0.00567683945343
-0.00548581399645
-0.004968119212
-0.00404097366439
-0.00404602572096
-0.00507751515984
-0.00568946086335
-0.0059339178782
-0.0059861415218
-0.00596289708144
-0.00592669610229
-0.00590080622406
-0.00588724508694
-0.0058819446413
-0.00588192296313
-0.00588718154136
-0.00590071280202
-0.00592659470367
-0.00596279355369
-0.00598603275576
-0.00593381044999
-0.00568936116483
-0.00507744421648
-0.00404603557224
-0.00507741303396
-0.00989406060556
-0.0117349675772
-0.0125280566018
-0.0128039975931
-0.0128441026898
-0.0128062701103
-0.0127646623113
-0.0127401306764
-0.0127305997023
-0.0127305157575
-0.0127398899797
-0.0127642972493
-0.0128058012898
-0.0128435187093
-0.0128032607425
-0.0125272159796
-0.0117341392344
-0.00989336670253
-0.00507731815755
-0.00568939899937
-0.0117348655733
-0.0140372281872
-0.015077005452
-0.0154807455829
-0.0155768221533
-0.0155550743594
-0.0155126768599
-0.0154825348924
-0.0154696211445
-0.0154695689641
-0.0154823956465
-0.0155124726594
-0.0155547834055
-0.0155764001195
-0.0154801284771
-0.0150762284095
-0.0140363949616
-0.0117340956839
-0.00568932270491
-0.00593381527968
-0.0125275237112
-0.0150766137332
-0.0162697145795
-0.0167671059229
-0.0168983695899
-0.0168469358066
-0.0167593817646
-0.016707289287
-0.0166961967048
-0.0166961824792
-0.0167076030569
-0.0167595252241
-0.0168471576414
-0.0168982810558
-0.0167666517005
-0.0162690404124
-0.0150758395456
-0.0125267500644
-0.00593376998513
-0.00598583497005
-0.0128026831856
-0.0154797844544
-0.0167666215471
-0.0172908923075
-0.0173189591402
-0.0170963364011
-0.0168955454858
-0.0168137781626
-0.0167950991668
-0.0167950662618
-0.0168136959313
-0.0168958625123
-0.0170971646184
-0.0173196134975
-0.0172909169207
-0.0167661034227
-0.0154791141694
-0.0128019795722
-0.0059857920067
-0.00596229058446
-0.0128419423781
-0.0155752309077
-0.016897291096
-0.017317991322
-0.0171134541072
-0.016721573832
-0.0164507771352
-0.0163468055116
-0.0163222204347
-0.0163221741666
-0.0163466755856
-0.0164513621199
-0.0167232946778
-0.0171153370799
-0.0173189198441
-0.0168970798517
-0.0155746608453
-0.0128413140842
-0.00596224893382
-0.00592573259308
-0.0128032415023
-0.0155528046417
-0.0168447097267
-0.0170935638789
-0.0167192960608
-0.0162653095506
-0.0159683213492
-0.0158492286722
-0.0158196215566
-0.0158195666601
-0.0158490226691
-0.0159690994625
-0.0162677222851
-0.0167222620961
-0.0170955206175
-0.0168450015518
-0.0155522424163
-0.0128025998154
-0.00592566435427
-0.00589955036598
-0.0127609863998
-0.0155098937345
-0.016755570431
-0.0168907375331
-0.0164456774988
-0.015965093266
-0.0156492149254
-0.0155192388894
-0.0154841011429
-0.0154840000358
-0.0155189202996
-0.0156500318299
-0.0159678039218
-0.0164491810584
-0.016893195288
-0.0167561992998
-0.0155092312484
-0.0127602359262
-0.00589942389819
-0.00588588067871
-0.0127363444023
-0.0154798561413
-0.016700656108
-0.0168082648883
-0.0163406397529
-0.0158451092309
-0.0155184451987
-0.0153802097401
-0.0153409514432
-0.0153408621482
-0.0153798414331
-0.0155191418132
-0.0158478105859
-0.0163441741809
-0.01681074695
-0.0167010981007
-0.0154789960305
-0.0127354130245
-0.0058856756424
-0.00588066921879
-0.0127271151393
-0.0154672693104
-0.0166921565693
-0.0167898254492
-0.0163163975231
-0.0158162270657
-0.0154839268355
-0.0153417002797
-0.0153012586984
-0.0153011314691
-0.015341256394
-0.0154845776122
-0.015818911602
-0.0163198702286
-0.0167922104707
-0.016692175853
-0.01546618658
-0.0127259907338
-0.00588038427504
-0.00588083640697
-0.0127275956034
-0.0154677357825
-0.0166926779272
-0.0167899702902
-0.0163164012609
-0.0158161492703
-0.0154838420692
-0.0153417301981
-0.0153013758473
-0.0153011749832
-0.0153411374037
-0.0154843854304
-0.0158187921991
-0.0163198397427
-0.0167922703375
-0.0166923618014
-0.0154664692233
-0.0127263332651
-0.0058804900302
-0.00588633626608
-0.0127376731846
-0.0154811167787
-0.0167021309651
-0.0168086366881
-0.0163406937125
-0.0158450309365
-0.015518323984
-0.0153802931462
-0.0153411724715
-0.0153409409654
-0.0153796315068
-0.0155187569752
-0.0158475802989
-0.0163441168122
-0.0168109209659
-0.0167015281502
-0.0154797968529
-0.0127363794093
-0.0058859662776
-0.00590017584599
-0.0127629056531
-0.0155117452004
-0.0167567666893
-0.016890595665
-0.0164444232759
-0.0159631479732
-0.0156470763957
-0.0155170522392
-0.0154819402531
-0.0154817087942
-0.0155163996268
-0.0156474670405
-0.015965574524
-0.0164476757339
-0.0168926877704
-0.0167565085927
-0.0155104473549
-0.0127617157046
-0.00589983599471
-0.00592638587101
-0.0128053479788
-0.0155548183301
-0.0168456735347
-0.0170924744527
-0.0167159548123
-0.0162602704229
-0.0159624017523
-0.0158432264227
-0.0158136251586
-0.0158134066031
-0.015842630171
-0.0159627111637
-0.0162623197613
-0.0167185999695
-0.017094072972
-0.0168452647123
-0.0155537733664
-0.0128044104205
-0.00592612488014
-0.00596283898016
-0.0128438480933
-0.0155770722205
-0.0168984658289
-0.0173170616592
-0.0171097237682
-0.0167154193784
-0.016443284387
-0.0163390362189
-0.0163144203522
-0.0163142363672
-0.016338519078
-0.0164434163724
-0.0167168165476
-0.0171114027553
-0.0173178280134
-0.0168979371013
-0.0155763726482
-0.0128432440652
-0.00596268619685
-0.00598622096252
-0.0128041635332
-0.0154812595935
-0.0167679372192
-0.0172910250336
-0.0173169931219
-0.0170920704599
-0.0168898747585
-0.0168077734256
-0.0167890933596
-0.0167889843721
-0.016807455566
-0.0168899280052
-0.017092767942
-0.0173176338615
-0.0172910766878
-0.0167675653599
-0.0154808909618
-0.0128038713194
-0.0059861580452
-0.00593407165407
-0.0125285790334
-0.0150776609255
-0.016270791293
-0.0167680615084
-0.0168987216121
-0.0168459555654
-0.0167571105529
-0.0167029796591
-0.0166938121183
-0.0166937755288
-0.0167029871045
-0.0167571215403
-0.016846146325
-0.0168987484161
-0.016767927147
-0.0162706558542
-0.0150775431069
-0.012528508448
-0.00593405933489
-0.00568954474519
-0.0117356826615
-0.0140379803668
-0.0150777476862
-0.015481525622
-0.0155776296554
-0.015555820833
-0.0155133156273
-0.0154832986825
-0.0154704600431
-0.0154704356233
-0.0154832432629
-0.0155132485792
-0.015555745475
-0.0155775618158
-0.0154814787441
-0.0150777292976
-0.0140379565262
-0.0117356700165
-0.00568953243793
-0.00507746466906
-0.00989474361884
-0.0117356146822
-0.0125286622198
-0.0128045287999
-0.0128445925758
-0.0128066734838
-0.0127650002451
-0.0127405471585
-0.0127311373449
-0.0127311429486
-0.0127405779321
-0.0127650479712
-0.0128067056816
-0.0128446002224
-0.0128045265731
-0.0125286469885
-0.0117355538146
-0.00989463854647
-0.0050774301689
-0.00404590572006
-0.00507748595098
-0.00568952258152
-0.00593401505664
-0.00598623444124
-0.00596296078817
-0.00592669287485
-0.00590076080187
-0.0058872173863
-0.0058819684408
-0.00588197290366
-0.00588723374071
-0.00590078309218
-0.00592670657404
-0.00596295162453
-0.00598621440851
-0.00593399490331
-0.00568950686556
-0.00507748222617
-0.00404593792228
-0.00404069375742
-0.00508014085604
-0.0057113344883
-0.00596649019338
-0.00601705671348
-0.00598309660858
-0.00593245114354
-0.00589302461455
-0.00586957474002
-0.00585912070283
-0.00585909978404
-0.00586951385356
-0.0058929348422
-0.00593236246095
-0.00598301079592
-0.0060169646196
-0.00596639100889
-0.00571123213793
-0.00508007165516
-0.004040711364
-0.00508000529496
-0.00996392957967
-0.0118596758351
-0.0126873153171
-0.0129771304683
-0.0130138226741
-0.0129620877968
-0.0129032065173
-0.0128645589799
-0.0128473817328
-0.0128472976576
-0.0128643096126
-0.0129028194166
-0.0129616003284
-0.0130132113061
-0.0129763415568
-0.0126863951533
-0.0118587516357
-0.00996318700492
-0.00507991072347
-0.00571123885699
-0.0118595618156
-0.014224307113
-0.0153082920952
-0.0157381515614
-0.0158277741995
-0.0157520814417
-0.0156475925712
-0.0155901745806
-0.0155702782449
-0.0155702585078
-0.0155900909368
-0.0156475670167
-0.0157521233412
-0.0158275229451
-0.0157374960013
-0.0153074099511
-0.0142233507908
-0.0118586803395
-0.00571115861017
-0.00596633869529
-0.012686798932
-0.0153078779802
-0.0165578789437
-0.0170266475252
-0.0169975792256
-0.0167650189429
-0.0165705910198
-0.0164932773582
-0.0164717428811
-0.0164716834386
-0.0164931451794
-0.0165714226749
-0.0167666166549
-0.016998825972
-0.017026793525
-0.016557137393
-0.0153069770547
-0.0126859411412
-0.00596629295293
-0.00601663093018
-0.0129756083161