/*--------------------------------*- C++ -*----------------------------------*\
| =========                 |                                                 |
| \\      /  F ield         | OpenFOAM: The Open Source CFD Toolbox           |
|  \\    /   O peration     | Version:  3.0.1                                 |
|   \\  /    A nd           | Web:      www.OpenFOAM.org                      |
|    \\/     M anipulation  |                                                 |
\*---------------------------------------------------------------------------*/
FoamFile
{
    version     2.0;
    format      ascii;
    class       volVectorField;
    location    "1.6";
    object      U_0;
}
// * * * * * * * * * * * * * * * * * * * * * * * * * * * * * * * * * * * * * //

dimensions      [0 1 -1 0 0 0 0];

internalField   nonuniform List<vector> 
7968
(
(0.000712590455827 0.000718891689706 -0.00137583910254)
(0.00210214032088 0.000459876027333 -0.001375158129)
(0.00384531639696 0.000361834365933 -0.00124439270671)
(0.00519211857905 0.000425405351339 -0.00105894436006)
(0.0059679114731 0.000625149856591 -0.000890812236361)
(0.00602491056084 0.000898489418632 -0.000765204151734)
(0.00543268239598 0.00116890912109 -0.000688908565629)
(0.00426482948917 0.00141053257408 -0.000647012355331)
(0.00270446524291 0.00157928263338 -0.000633045227815)
(0.000924388681533 0.00166464353299 -0.000631270733839)
(-0.000925439345726 0.00166509073796 -0.00063146926302)
(-0.00270612057855 0.00158054898011 -0.000633653472129)
(-0.00426753730759 0.00141253891735 -0.000648172717137)
(-0.00543640023271 0.00117148133898 -0.000690611863103)
(-0.00602920620194 0.000901257134498 -0.000767605152825)
(-0.0059721002383 0.000628117277701 -0.000893575024836)
(-0.00519552011014 0.000428376838386 -0.00106179694673)
(-0.00384768780368 0.000364903911795 -0.00124723907348)
(-0.00210466306521 0.000462763597731 -0.00137903015023)
(-0.000711920243254 0.000721608243984 -0.0013807105968)
(0.000453961520742 0.00211387101444 -0.00137445118764)
(0.00189816085153 0.00190723944102 -0.00231368999406)
(0.00404042168476 0.00198855541655 -0.00259398527126)
(0.00568831861617 0.00240714893585 -0.00254837145786)
(0.00663245428786 0.00310026462553 -0.00242587724088)
(0.00673569555896 0.00392264795222 -0.0023148950306)
(0.00605694135213 0.00471799943089 -0.00224671276626)
(0.00473531876892 0.00538583537828 -0.00222502152785)
(0.002987181693 0.0058461479666 -0.00223781066163)
(0.00101645326508 0.00607693579408 -0.00225564851688)
(-0.00102150220128 0.00607777968975 -0.00225577998703)
(-0.0029926215269 0.00584858560161 -0.00223824335002)
(-0.00474143583207 0.00538966460488 -0.00222577165868)
(-0.00606371096362 0.00472286554687 -0.00224792401607)
(-0.0067427048074 0.00392803886716 -0.00231670490276)
(-0.00663890702475 0.00310579742523 -0.00242848536412)
(-0.00569313101025 0.00241265191709 -0.00255156818313)
(-0.00404294538562 0.00199440816044 -0.00259737469071)
(-0.00189944919185 0.00191418720192 -0.00231768052591)
(-0.00045292073167 0.00212305047166 -0.00137872029787)
(0.00035678328164 0.00386162779596 -0.00124189216358)
(0.00198255391153 0.00405038554507 -0.0025927403511)
(0.00455509890903 0.00455882395222 -0.00303080058648)
(0.0065505089483 0.00550916055521 -0.00296279459455)
(0.00770027949114 0.00681116532184 -0.00273864358506)
(0.00784349303785 0.00826419548821 -0.00250036724081)
(0.00703648585999 0.00964210198786 -0.00231796895483)
(0.00547522838386 0.0107783794984 -0.00222182531332)
(0.00343515962343 0.0115595961412 -0.00220374843798)
(0.001164523892 0.0119510863071 -0.00221520568876)
(-0.00117089767059 0.0119521458393 -0.00221514685379)
(-0.00344185602254 0.0115627011279 -0.00220358302714)
(-0.00548249040644 0.0107832634717 -0.0022217232818)
(-0.00704439485853 0.00964832275586 -0.00231789552895)
(-0.00785173544905 0.00827126267591 -0.00250101317033)
(-0.00770798829008 0.0068186900766 -0.00274020259701)
(-0.00655655328853 0.00551698690298 -0.00296528600651)
(-0.00455863686633 0.00456736731282 -0.00303389563685)
(-0.00198418777966 0.0040606714903 -0.00259617443997)
(-0.000356434753782 0.00387538160606 -0.00124520284576)
(0.000421085655128 0.00520735693958 -0.00105405631565)
(0.00240325778851 0.00569460271934 -0.00254549363503)
(0.0055094408853 0.00654840437179 -0.00296179362483)
(0.0079460290998 0.00793834903547 -0.00271683038932)
(0.00934954153645 0.00973909399353 -0.00223228483695)
(0.00951326293057 0.0117014334506 -0.00170939003544)
(0.00850142770416 0.0135394856995 -0.00127536237812)
(0.00657571614708 0.0150372543472 -0.00100407320563)
(0.00409977755778 0.0160601814257 -0.000896417602083)
(0.00138484085252 0.016571099725 -0.000876528977137)
(-0.00139069400027 0.016572090149 -0.00087616494573)
(-0.0041059453324 0.0160631642491 -0.000895406634868)
(-0.00658255835592 0.015042019444 -0.0010027632277)
(-0.00850913834939 0.0135456264406 -0.0012740043257)
(-0.00952161764927 0.0117085407156 -0.00170827758721)
(-0.00935773511916 0.0097471418333 -0.00223237033238)
(-0.00795288559399 0.00794724704296 -0.00271808531749)
(-0.00551395768648 0.00655863160131 -0.00296400531031)
(-0.00240560812368 0.0057073491654 -0.00254819615866)
(-0.000421346866524 0.00522444243474 -0.00105665863315)
(0.000621436754531 0.00597815446255 -0.000883364187845)
(0.0030970100225 0.00663248937593 -0.00242154298013)
(0.00681286079402 0.0076906311621 -0.00273723578874)
(0.00974910792384 0.00933273266426 -0.00223244461706)
(0.0114316183056 0.0114107313329 -0.00138887429788)
(0.0115952539609 0.0136475383753 -0.00047179185196)
(0.0103183423174 0.0157239237521 0.000299683274378)
(0.00793851647563 0.0174082974005 0.000804750606575)
(0.00492427600502 0.0185584890488 0.00103057043569)
(0.00165890302724 0.0191336569172 0.00109283888028)
(-0.00166352989818 0.0191342083805 0.00109333485238)
(-0.0049292312661 0.0185603099291 0.00103215147838)
(-0.00794435117295 0.0174115573632 0.00080718915002)
(-0.0103253893954 0.0157283927961 0.000302348281468)
(-0.0116031100313 0.013653124059 -0.000469395961574)
(-0.0114395274057 0.0114176982198 -0.00138736143451)
(-0.00975625159962 0.00934123696032 -0.00223226865964)
(-0.00681809765912 0.00770111272643 -0.00273820408867)
(-0.00310009342662 0.00664617637728 -0.0024232534422)
(-0.000622163263261 0.00599682153847 -0.000885118011331)
(0.000894538492429 0.00602764863469 -0.000756010957984)
(0.00391846926183 0.00672876661728 -0.00230961356511)
(0.00826458088983 0.00782696892856 -0.00249952473269)
(0.0117101582557 0.00948864779645 -0.00171162830294)
(0.0136685016445 0.0115650723603 -0.000475610653686)
(0.0138068764543 0.013775275611 0.00085037803206)
(0.0122377948439 0.01580949463 0.00197469811405)
(0.00937847569382 0.0174600724402 0.00272279121868)
(0.00579715080879 0.0185840033376 0.00307538556309)
(0.00194951789554 0.0191445163297 0.00318550534106)
(-0.00195351386058 0.0191446849172 0.00318559593925)
(-0.00580106829808 0.0185844023529 0.0030764318501)
(-0.00938306991223 0.0174607716889 0.00272540651614)
(-0.012243716448 0.0158112630571 0.00197787593521)
(-0.0138136453798 0.0137781793113 0.000853404245141)
(-0.0136755601503 0.0115697431375 -0.000472827396853)
(-0.0117169538105 0.00949537952687 -0.00170998859791)
(-0.00827002304862 0.00783627815662 -0.00249927158545)
(-0.00392191942501 0.00674175107633 -0.00231021736574)
(-0.000895512408871 0.00604586599058 -0.000756801683524)
(0.00116511310026 0.0054272675727 -0.000678053974821)
(0.00471232673532 0.00604458060432 -0.00224096962862)
(0.00963985306781 0.00701659882869 -0.00231834306483)
(0.0135451829929 0.00847462198348 -0.00128153988957)
(0.0157434879947 0.0102869965121 0.000289713310946)
(0.0158415304399 0.0122072796081 0.00196938564575)
(0.0140068309919 0.0139807436242 0.00339481010672)
(0.0106993880981 0.0154276170741 0.00435212371603)
(0.00659205644569 0.0164114178588 0.00479922376568)
(0.00221321102109 0.0169037569086 0.00492828767355)
(-0.00221702328321 0.0169039870627 0.00492844427785)
(-0.00659620628208 0.0164110990303 0.0048000384374)
(-0.0107036551332 0.0154265971114 0.00435341615309)
(-0.0140118594972 0.0139798748278 0.00339772107059)
(-0.0158472512493 0.0122071230317 0.00197235573259)
(-0.0157492911292 0.010288557973 0.000292808367641)
(-0.0135510753207 0.00847862137762 -0.00127903636792)
(-0.00964489768843 0.00702370028201 -0.00231710686042)
(-0.00471573268492 0.0060556676231 -0.00224062141569)
(-0.00116625449167 0.00544358481132 -0.000678024552586)
(0.00140644664812 0.00425057290624 -0.000634784207189)
(0.00537866512625 0.00471924248172 -0.00221878215358)
(0.0107737068886 0.00545574670562 -0.00222336547295)
(0.0150408620361 0.00655192666442 -0.00101330304047)
(0.0174292204469 0.0079111129113 0.000790782932795)
(0.0175000792954 0.00935212015372 0.00271873310896)
(0.0154601257333 0.0106787380049 0.00436453440182)
(0.0117855295205 0.0117653186862 0.00541487906536)
(0.00723668760392 0.0124860857394 0.00589491516828)
(0.00242395953349 0.0128410807371 0.00604179574408)
(-0.00242775978064 0.0128416570004 0.00604295671239)
(-0.00724161316993 0.012485954103 0.00589598427156)
(-0.0117905112317 0.0117630571383 0.00541616289864)
(-0.0154653863346 0.0106752321032 0.0043667050318)
(-0.0175052607163 0.00934925529268 0.00272099162408)
(-0.0174337962976 0.00790973312231 0.000793250006114)
(-0.0150452777151 0.00655310962487 -0.00101067162117)
(-0.0107777192461 0.00546025719765 -0.00222155649817)
(-0.00538163571778 0.00472770149862 -0.00221766590636)
(-0.00140754930793 0.00426393234239 -0.000634097114573)
(0.00157476671776 0.00268100302454 -0.000619801491053)
(0.00583744855046 0.00296850830607 -0.00223085233446)
(0.0115521345603 0.00341832199261 -0.00220505738021)
(0.0160601112268 0.00408156898724 -0.000906679536557)
(0.0185764397606 0.00490201336526 0.00101370063753)
(0.0186238194789 0.00577115172428 0.00306770160328)
(0.0164466278516 0.00656326933948 0.00480821277842)
(0.0125078687117 0.00721007234924 0.00589738687648)
(0.00766094109469 0.00763615503679 0.00638645483562)
(0.00256557828864 0.0078521828917 0.00653167876331)
(-0.00256872031265 0.00785092786271 0.0065347746925)
(-0.00766778695791 0.00763396572675 0.00639026182258)
(-0.0125152270179 0.00720598791204 0.00589829470226)
(-0.0164523520761 0.00655799700287 0.00480816445663)
(-0.0186281890944 0.00576640830396 0.00306875143775)
(-0.0185796962735 0.00489881393813 0.00101517222822)
(-0.0160627760087 0.00408078940053 -0.00090452161616)
(-0.0115546751016 0.0034206456017 -0.00220316069301)
(-0.0058396160498 0.00297428239182 -0.00222933239696)
(-0.00157562640054 0.00269095159375 -0.000618582816161)
(0.00165955344268 0.000891420537486 -0.00061741350748)
(0.0060666109891 0.000995266999755 -0.00224771001275)
(0.0119406426117 0.00115074564728 -0.00221524974589)
(0.0165662987513 0.00137327735128 -0.000885644495553)
(0.0191452777429 0.0016450346853 0.00107460889436)
(0.0191776188263 0.00193132243867 0.00317099042997)
(0.0169374418347 0.00218922978499 0.00492616937075)
(0.012867475644 0.00239940858513 0.006039111334)
(0.00787981930471 0.00254218429679 0.00653455620072)
(0.0026393596797 0.00261622841766 0.00669035099918)
(-0.00264651240133 0.00261406020037 0.0066897838161)
(-0.00788735548434 0.00253733916125 0.00653549333345)
(-0.0128751569954 0.00239404124902 0.00603875709897)
(-0.0169432755875 0.00218365757884 0.00492454296426)
(-0.0191812091044 0.00192625554906 0.0031700797929)
(-0.019146963847 0.0016414512875 0.00107464597939)
(-0.0165670610926 0.00137183738551 -0.000884475645428)
(-0.011941529042 0.00115184506533 -0.00221365917312)
(-0.00606783078072 0.00099893655907 -0.00224618644964)
(-0.00166006538782 0.000898146196557 -0.000616102951907)
(0.00165922174156 -0.000967438884869 -0.000617781192114)
(0.00606554217266 -0.00104518738247 -0.00224760597224)
(0.0119387390561 -0.00118202164949 -0.00221469599094)
(0.0165633792064 -0.00139601051031 -0.000884774676878)
(0.0191415800826 -0.00166795436648 0.00107533668563)
(0.0191736073777 -0.00195965498417 0.0031716735106)
(0.0169337370929 -0.00222673486568 0.0049266165906)
(0.0128658030912 -0.00244549323609 0.006039344776)
(0.00787854971954 -0.00259267636821 0.00653687556982)
(0.00263783156144 -0.00267108693588 0.00669236037506)
(-0.00264784690829 -0.0026711673722 0.00669171517356)
(-0.00788842581835 -0.00259523475324 0.00653458831067)
(-0.0128736616494 -0.00244863911531 0.00603587728954)
(-0.0169390036743 -0.00222990842919 0.00492283804251)
(-0.0191762501204 -0.00196251911085 0.00316902849559)
(-0.0191417640534 -0.00167006004318 0.00107384749587)
(-0.0165622346777 -0.00139661113319 -0.000884651021762)
(-0.0119379240974 -0.0011809314157 -0.00221347186967)
(-0.00606571928797 -0.00104263685663 -0.00224613366072)
(-0.00165935867105 -0.000963171079366 -0.000616412923237)
(0.00157368108455 -0.00275525679591 -0.000621012988544)
(0.00583416132941 -0.00301779394351 -0.00223053055084)
(0.0115462726236 -0.00345001929875 -0.00220349817044)
(0.0160511115519 -0.00410535855871 -0.000904270820346)
(0.0185644907668 -0.00492625648631 0.00101544778302)
(0.0186102734714 -0.00580108271778 0.00306772964652)
(0.0164337719757 -0.0066020908651 0.00480674458357)
(0.0124998722171 -0.00725751316595 0.00589313635696)
(0.00765568963365 -0.00769092940286 0.00638381159759)
(0.00256119712874 -0.00791125065006 0.00652957139718)
(-0.00257111733116 -0.00791108526197 0.00653037782236)
(-0.00766626430832 -0.00769060662528 0.00638183931709)
(-0.0125080797553 -0.00725682714591 0.00588957199689)
(-0.0164392591564 -0.00660129878486 0.00480269109367)
(-0.0186129038172 -0.00580054071403 0.0030645160776)
(-0.0185639215322 -0.00492547397786 0.00101268439672)
(-0.0160484757782 -0.00410386800389 -0.000905102861821)
(-0.0115439666185 -0.0034479207473 -0.00220263150831)
(-0.00583334808802 -0.00301552832198 -0.002229141954)
(-0.0015734024592 -0.00275272321124 -0.000619631744736)
(0.00140449441141 -0.00432115790084 -0.000636910721848)
(0.00537311997514 -0.00476689123709 -0.00221863673528)
(0.0107638788331 -0.00548753924487 -0.00222140779949)
(0.0150260055319 -0.00657654811499 -0.00101044964804)
(0.0174097075878 -0.00793573601005 0.00079205785245)
(0.0174780819338 -0.00938108966792 0.00271664638243)
(0.0154405840825 -0.0107139672679 0.00435733776642)
(0.0117710505274 -0.011806228299 0.00540783508515)
(0.00722561692662 -0.012533189168 0.00588603634935)
(0.00241751587433 -0.01289181723 0.00603023592076)
(-0.00242733585552 -0.0128916560881 0.00603017789588)
(-0.00723524835004 -0.0125310930919 0.00588404849958)
(-0.011778615166 -0.0118027899044 0.00540477396295)
(-0.0154460086992 -0.0107100980604 0.00435426472869)
(-0.0174807223853 -0.0093772667739 0.00271292620811)
(-0.0174084367744 -0.00793150677538 0.000788541672012)
(-0.0150223189808 -0.00657229462302 -0.0010118543623)
(-0.010760543194 -0.00548384126491 -0.00222076391705)
(-0.00537161983442 -0.00476434552237 -0.00221734194032)
(-0.00140389566264 -0.00431975065699 -0.000635637917184)
(0.00116225491177 -0.00549165676762 -0.000681220301621)
(0.00470470686083 -0.00608884130385 -0.00224132176213)
(0.00962653120439 -0.0070471197907 -0.00231689561332)
(0.0135256781549 -0.00849863969395 -0.00127944701105)
(0.0157182221987 -0.0103099265269 0.000289589989367)
(0.0158141288871 -0.012232604102 0.00196432573088)
(0.0139833077344 -0.0140096918755 0.00338569921161)
(0.0106817239207 -0.0154610686226 0.00434285568429)
(0.00657796225038 -0.0164474263838 0.00479159357468)
(0.00220600519858 -0.0169406960803 0.00491723545985)
(-0.00221429709254 -0.0169398408157 0.0049168572497)
(-0.00658584113281 -0.0164440251674 0.00479073900773)
(-0.0106885973131 -0.0154555264403 0.00434109653428)
(-0.0139884214697 -0.0140032653715 0.00338296927193)
(-0.0158161515689 -0.012225429676 0.00196058537773)
(-0.0157162408644 -0.0103023398323 0.000286281375847)
(-0.0135214462036 -0.00849174164269 -0.00128052968456)
(-0.00962271824407 -0.00704194141531 -0.00231606921265)
(-0.00470283013539 -0.00608606188969 -0.00223968325446)
(-0.00116146386938 -0.00549115495371 -0.000679840108887)
(0.000891388451121 -0.00608345909294 -0.000759960985557)
(0.00390912173422 -0.00676751755401 -0.00231073064979)
(0.00824846547343 -0.00785400754205 -0.00249918576117)
(0.0116875613839 -0.00950955480361 -0.00171119370943)
(0.0136399416193 -0.0115834432776 -0.000477413039759)
(0.0137759306214 -0.0137936519938 0.000843366457521)
(0.0122103681462 -0.0158297219665 0.0019627084245)
(0.00935723485533 -0.0174836300545 0.00270893705145)
(0.00578235876448 -0.0186090195686 0.00305897685922)
(0.00194329021806 -0.019168508337 0.00316638727749)
(-0.00194963131847 -0.0191672409887 0.00316585603199)
(-0.00578796654058 -0.018605186137 0.00305812047421)
(-0.00936219800551 -0.0174774480184 0.00270818709901)
(-0.0122140457726 -0.0158219062762 0.0019611307707)
(-0.0137767851208 -0.0137845907955 0.000841057133845)
(-0.0136374686142 -0.0115740773724 -0.000479030247618)
(-0.011683438651 -0.00950151273014 -0.00171099606537)
(-0.00824492322877 -0.00784857906157 -0.00249739521368)
(-0.00390744093397 -0.00676530202853 -0.00230884274998)
(-0.000890555625549 -0.00608410442675 -0.000758617414712)
(0.000617266192378 -0.00602301463739 -0.000888474242676)
(0.00308623935582 -0.00666334218297 -0.00242347417371)
(0.00679515128481 -0.00771179530256 -0.00273814691217)
(0.00972564135987 -0.00934811714998 -0.00223339780625)
(0.0114028931634 -0.0114223453175 -0.00139118723585)
(0.0115639772119 -0.0136563976038 -0.000478474110485)
(0.0102897918749 -0.0157313560732 0.000287665759426)
(0.00791636427428 -0.017415384741 0.000788978820153)
(0.00491009089102 -0.0185641102806 0.00101186042525)
(0.00165412228199 -0.0191369284692 0.00107218667274)
(-0.00165801023007 -0.0191356707411 0.0010721143169)
(-0.0049135553846 -0.0185605556663 0.00101182279791)
(-0.00791935987676 -0.0174099264294 0.000789037264474)
(-0.0102916180697 -0.0157242067339 0.000287387491527)
(-0.0115634830479 -0.0136481246237 -0.000478834042237)
(-0.0114000572925 -0.0114141163299 -0.00139054598209)
(-0.00972199363751 -0.0093415379436 -0.00223142362788)
(-0.00679223343051 -0.00770801779333 -0.00273560751933)
(-0.00308492145431 -0.00666276596471 -0.00242143493527)
(-0.000616427470858 -0.00602518284935 -0.000887276650142)
(0.00041680826908 -0.00523954755431 -0.00105885048358)
(0.00239193749935 -0.00571625501192 -0.00254767757704)
(0.00549181149093 -0.00656273871679 -0.00296327598994)
(0.00792396875079 -0.00794788982576 -0.00271834901455)
(0.00932406185945 -0.0097447650131 -0.00223428778745)
(0.00948628309956 -0.0117028875008 -0.00171316393206)
(0.0084767084093 -0.0135370471209 -0.00128239320607)
(0.00655681889675 -0.0150317279511 -0.00101381884301)
(0.0040887121812 -0.0160515810927 -0.000907775407009)
(0.00138225559352 -0.0165596582844 -0.000888260579903)
(-0.00138453226863 -0.0165588404734 -0.000888251561693)
(-0.00409051289861 -0.0160492143833 -0.000907668907866)
(-0.00655796673635 -0.0150280366495 -0.00101354101063)
(-0.00847669318242 -0.0135322303428 -0.00128198047875)
(-0.00948446388431 -0.0116975362891 -0.00171235301141)
(-0.00932072938772 -0.00973996465118 -0.00223246914247)
(-0.00792038819256 -0.00794472147527 -0.0027157416025)
(-0.00548902839348 -0.00656190852173 -0.00296058514291)
(-0.00239067016745 -0.00571805663435 -0.00254574735089)
(-0.000415841937999 -0.00524318603221 -0.00105812837934)
(0.000352552763633 -0.00388187202968 -0.0012459274418)
(0.00197181404168 -0.00406314661273 -0.00259446545783)
(0.00453916212869 -0.00456691793156 -0.00303227568579)
(0.00653182601216 -0.00551412592161 -0.00296415870422)
(0.00768007150613 -0.00681336612684 -0.0027397098304)
(0.00782296974707 -0.00826307494474 -0.00250145138272)
(0.00701787519153 -0.00963743507484 -0.00231969485408)
(0.00546113494137 -0.0107704804629 -0.00222447448338)
(0.00342729853735 -0.0115488428954 -0.002206764488)
(0.00116347806671 -0.0119380598607 -0.00221808720693)
(-0.00116473883185 -0.0119376130916 -0.00221824803694)
(-0.00342781836802 -0.0115476121406 -0.00220700106882)
(-0.00546059423269 -0.0107687220725 -0.00222464381896)
(-0.00701589644784 -0.00963539492039 -0.00231950028125)
(-0.00781939730088 -0.00826120853966 -0.00250072344757)
(-0.00767540475577 -0.00681237653688 -0.0027381948574)
(-0.0065271825989 -0.00551456031039 -0.00296197659535)
(-0.00453552878608 -0.00456909292488 -0.00303000222705)
(-0.0019698650824 -0.00406714041746 -0.0025931200256)
(-0.000351253621099 -0.00388633025406 -0.00124562788124)
(0.000449845441721 -0.00212509119689 -0.00137829951414)
(0.00188957602681 -0.00191401493842 -0.00231569039683)
(0.00402827571399 -0.00199306832845 -0.00259560315822)
(0.00567521075163 -0.00241014450747 -0.00255001063606)
(0.00661932941361 -0.00310204568527 -0.00242675992108)
(0.00672292972159 -0.00392267129964 -0.00231489971159)
(0.00604546053877 -0.00471592163047 -0.00224635748687)
(0.00472665843016 -0.0053817034913 -0.00222446156223)
(0.00298255521093 -0.00584019785706 -0.00223715729111)
(0.0010164956442 -0.00606959559105 -0.00225485857042)
(-0.00101613108075 -0.00606950462118 -0.00225517026944)
(-0.0029810735195 -0.00584006154477 -0.00223806618084)
(-0.00472350199578 -0.00538174669686 -0.00222566378628)
(-0.0060402744401 -0.00471633405236 -0.0022474636501)
(-0.00671592531822 -0.00392362542082 -0.00231555893476)
(-0.00661132494303 -0.00310388675247 -0.00242661121131)
(-0.00566758627482 -0.00241299842282 -0.00254907501081)
(-0.00402230787222 -0.00199678849757 -0.00259443383016)
(-0.00188608471881 -0.00191827973065 -0.00231510278083)
(-0.000448053037424 -0.00212818085031 -0.00137813839441)
(0.000709030573568 -0.000720748244014 -0.00137979696154)
(0.00209813334721 -0.000460900544638 -0.00137890162387)
(0.00384062802118 -0.000363026412332 -0.00124807015529)
(0.00518854495345 -0.000426622976831 -0.00106231776138)
(0.00596547983437 -0.000626359205943 -0.000893636657231)
(0.00602300711666 -0.000899296123191 -0.000766682529992)
(0.00543082538944 -0.00116913486771 -0.000689275063024)
(0.00426341354177 -0.0014100039837 -0.00064669699216)
(0.00270411460915 -0.00157795865789 -0.000632284345233)
(0.000925777370111 -0.00166267624859 -0.000630553123993)
(-0.000921205649698 -0.00166276739687 -0.000631103379236)
(-0.00269783622308 -0.00157817353593 -0.000634046869904)
(-0.00425461244305 -0.00141051331612 -0.000649257671351)
(-0.00541915299565 -0.00117011515537 -0.000692056860293)
(-0.00600918527064 -0.00090082653311 -0.00076906251212)
(-0.00595074890862 -0.000628537016803 -0.000895352667547)
(-0.00517479048673 -0.000429437325204 -0.00106317056172)
(-0.00382976065874 -0.000366372849739 -0.00124798060148)
(-0.00209162565814 -0.000464397368154 -0.00137848678682)
(-0.000706415236469 -0.000723039952431 -0.00137830755445)
(0.00103804215116 0.00104473880884 -0.00428514532212)
(0.00275029973512 0.00126226925138 -0.00442844330346)
(0.00455860136985 0.00146596420165 -0.00429571943447)
(0.00592388682691 0.00178106785865 -0.00400885155297)
(0.0066547936703 0.00217275770081 -0.00371388132684)
(0.00663268760264 0.0025920809483 -0.00348881507372)
(0.00591872224197 0.00298149858615 -0.00335839878157)
(0.00461139064877 0.00331103101545 -0.00331218534955)
(0.00290630768371 0.00353890117258 -0.00332552940899)
(0.000988400809386 0.00365377696541 -0.00334980491658)
(-0.000994980150731 0.00365402199337 -0.00335015184)
(-0.00291332357015 0.00353956126502 -0.00332655056404)
(-0.00461904254886 0.00331199842091 -0.00331418346284)
(-0.00592670856105 0.00298263877962 -0.00336159098964)
(-0.00664044430263 0.00259311968627 -0.00349326367491)
(-0.0066615263265 0.00217369031184 -0.00371940005609)
(-0.00592853784443 0.00178193488638 -0.00401505172311)
(-0.00456076678311 0.0014672148935 -0.00430215782792)
(-0.0027513743261 0.00126424764098 -0.00443593843136)
(-0.00103673365942 0.00104704020671 -0.0042930295341)
(0.00125710956163 0.00276131642038 -0.00442628240148)
(0.00309152328176 0.00309738870438 -0.00566564900523)
(0.00496690508288 0.00355960813373 -0.0059872122668)
(0.00639472498047 0.0042897148579 -0.0058494216777)
(0.0071444113532 0.00520255874262 -0.00555159233993)
(0.00711167708817 0.00617882155609 -0.00525161530101)
(0.00632613636146 0.00709321145389 -0.00503552743695)
(0.00491867466136 0.00784772459255 -0.00493436911459)
(0.00309475265599 0.00836942573195 -0.00492778482903)
(0.00105273811844 0.0086324584739 -0.00495102839421)
(-0.00105495497541 0.0086326808802 -0.00495111901098)
(-0.00309738703409 0.00836999341341 -0.00492817513055)
(-0.00492192792573 0.00784845668891 -0.0049352261616)
(-0.00632990878293 0.00709387533656 -0.00503704506438)
(-0.0071156173416 0.00617913205031 -0.00525427807081)
(-0.00714781185688 0.00520244450822 -0.00555579863921)
(-0.00639670825848 0.00428954121079 -0.00585497564442)
(-0.00496709283174 0.00356041488936 -0.00599346967828)
(-0.00309075633372 0.00310068069414 -0.00567250361072)
(-0.00125576590122 0.00276859577254 -0.00443319073493)
(0.00146356744754 0.0045709631883 -0.00428985157907)
(0.00355854298844 0.00497062238648 -0.00598509493233)
(0.00568504153859 0.00568218315063 -0.00639685152867)
(0.00728396698032 0.00678492473707 -0.00610958056597)
(0.00810736214023 0.00815465381388 -0.00552665310551)
(0.00804812612252 0.00961639467123 -0.00488943908764)
(0.0071339612085 0.0109834138066 -0.0043612866053)
(0.00552542522829 0.0121038596657 -0.00403303524612)
(0.00346431227549 0.012876941184 -0.00390173793286)
(0.00117693370682 0.0132664050778 -0.00387695948462)
(-0.00117590991202 0.013266524214 -0.00387667684253)
(-0.00346379610293 0.0128772051408 -0.00390104528575)
(-0.00552567939382 0.0121040424356 -0.00403222756356)
(-0.00713505344423 0.0109832968051 -0.00436064559444)
(-0.0080498957844 0.00961574219131 -0.00488986386377)
(-0.00810915485494 0.00815357130602 -0.00552898007576)
(-0.00728490786975 0.00678404783937 -0.00611379743972)
(-0.00568467712389 0.00568283553793 -0.00640224427315)
(-0.00355739621294 0.00497484109747 -0.00599083317285)
(-0.00146268668023 0.00458166197377 -0.00429516255818)
(0.00178079647429 0.00593233563544 -0.00399894403337)
(0.00429223133712 0.0063937755761 -0.00584529757476)
(0.00679245195026 0.00727579079856 -0.00610855912174)
(0.00865499664719 0.00864137436038 -0.00542725244855)
(0.00959104496615 0.0103337837975 -0.00430036372034)
(0.00948145336154 0.0121361014111 -0.00307082780357)
(0.00836440911687 0.0138135825942 -0.00201239076967)
(0.00644473464533 0.0151788056809 -0.00130351414488)
(0.00402188339053 0.016116434106 -0.000962872408691)
(0.00136305062248 0.0165886106542 -0.000855753105619)
(-0.0013604064509 0.0165884183732 -0.000855033217213)
(-0.00401982917577 0.016115768695 -0.000960706522739)
(-0.00644361245388 0.015177656872 -0.00130072539286)
(-0.0083643968549 0.0138118163443 -0.00200935617104)
(-0.00948251247376 0.0121336423979 -0.00306854582792)
(-0.00959256452189 0.0103311301136 -0.00430013234058)
(-0.00865613497131 0.00863938786539 -0.00542932485036)
(-0.0067926632788 0.00727595819212 -0.00611231053959)
(-0.00429174412388 0.00639855353191 -0.00584965798508)
(-0.00178057713816 0.0059455947978 -0.00400296420868)
(0.00217363509774 0.00665667499774 -0.00370020224585)
(0.00520670804104 0.00713763547782 -0.00554645261134)
(0.00816432758545 0.00809328483648 -0.00552635163832)
(0.0103501698339 0.00957062604903 -0.00430220532293)
(0.0114222297663 0.0113976887849 -0.0024619331683)
(0.0112424345007 0.013335342983 -0.000466473611324)
(0.00986715316515 0.0151338445291 0.00126065123407)
(0.00756177112512 0.0165919322426 0.00243195741752)
(0.00469816767286 0.0175935402327 0.00301975711112)
(0.00158850284047 0.0181000039423 0.00322655636393)
(-0.00158589620888 0.0180992517222 0.00322758681187)
(-0.00469607561385 0.0175913510946 0.00302262673992)
(-0.00756054908529 0.0165887018275 0.00243639834932)
(-0.00986724651308 0.015129573259 0.00126568734161)
(-0.0112437181315 0.0133302828579 -0.000462304790156)
(-0.0114240793002 0.0113927922645 -0.00245938486821)
(-0.0103520310025 0.00956693386904 -0.00430179114162)
(-0.00816559894059 0.00809239156083 -0.00552799767942)
(-0.00520730337846 0.00714221428325 -0.00554902078853)
(-0.00217414221835 0.00667107801522 -0.00370255626376)
(0.00259290477614 0.00662754711886 -0.00347298874022)
(0.00618259143123 0.00709985051004 -0.00524675528314)
(0.00962530379647 0.00802964216143 -0.00489229314608)
(0.0121517743011 0.00945620408834 -0.00307917272285)
(0.0133605230713 0.0112119137912 -0.000475594257679)
(0.0131004349827 0.0130680190496 0.0023118705054)
(0.011452907579 0.014794291727 0.00469965138405)
(0.00874569545726 0.0161997889295 0.00632806310816)
(0.00542104939345 0.017171360281 0.00717179594863)
(0.00183047149768 0.0176653802376 0.00748868101587)
(-0.00182966321118 0.0176641862394 0.00748887991431)
(-0.0054203262064 0.0171677937703 0.00717341440884)
(-0.00874552155837 0.0161942039487 0.00633260334494)
(-0.0114539396097 0.0147872476458 0.00470512790036)
(-0.013102296975 0.0130599300186 0.00231708564461)
(-0.0133628184897 0.0112041612286 -0.000471269651413)
(-0.0121543716602 0.00945015590394 -0.00307654886875)
(-0.00962757138948 0.00802703270189 -0.00489188107325)
(-0.00618414859782 0.00710331701582 -0.00524745092308)
(-0.00259393857994 0.0066414067082 -0.00347341112361)
(0.0029822973456 0.00590790290239 -0.00334121870537)
(0.00709558727672 0.00631223148993 -0.00503208553819)
(0.0109897965273 0.00711563155373 -0.00436934665866)
(0.0138265028219 0.00834068609498 -0.00203073874425)
(0.0151578675248 0.00983943590853 0.00123773004695)
(0.0148273312199 0.0114253603516 0.00468816495107)
(0.012940624396 0.0129170884597 0.00766395603364)
(0.00986701215063 0.0141418265591 0.00972873686832)
(0.00610955882361 0.0149803522099 0.0108268255419)
(0.00206134026379 0.0153984727883 0.0112668204914)
(-0.00206322579435 0.0153972819551 0.0112669966413)
(-0.00611158846786 0.0149762759743 0.0108275518106)
(-0.00986899903631 0.0141348052882 0.00973082875446)
(-0.0129432637724 0.0129078140539 0.00766849731528)
(-0.0148302989126 0.0114145078583 0.00469259598674)
(-0.015160575181 0.0098286430469 0.00124211575349)
(-0.0138293718725 0.00833198451836 -0.00202716990315)
(-0.0109925448661 0.00711089214834 -0.0043675310635)
(-0.00709770913571 0.00631389498039 -0.00503124062536)
(-0.00298370003246 0.00591986879913 -0.00333998587286)