/*--------------------------------*- C++ -*----------------------------------*\
| =========                 |                                                 |
| \\      /  F ield         | OpenFOAM: The Open Source CFD Toolbox           |
|  \\    /   O peration     | Version:  3.0.1                                 |
|   \\  /    A nd           | Web:      www.OpenFOAM.org                      |
|    \\/     M anipulation  |                                                 |
\*---------------------------------------------------------------------------*/
FoamFile
{
    version     2.0;
    format      ascii;
    class       volVectorField;
    location    "7.5";
    object      ddt0(U);
}
// * * * * * * * * * * * * * * * * * * * * * * * * * * * * * * * * * * * * * //

dimensions      [0 1 -2 0 0 0 0];

internalField   nonuniform List<vector> 
7968
(
(0.000526219685914 0.000526663671344 -0.000578504485154)
(0.00136041182993 0.000603162363585 -0.000545151600993)
(0.00178159844949 0.000623554832287 -0.000407535664315)
(0.00193629938633 0.000601103783911 -0.000325945168307)
(0.00171455879271 0.000534832907191 -8.10312806213e-05)
(0.0014691928047 0.000470449083502 -9.4544701245e-05)
(0.00108441448802 0.000445428660057 -6.17912959575e-05)
(0.000696063503604 0.000472083894496 -4.96682166039e-05)
(0.000368900844006 0.000529009815832 -7.09463346531e-05)
(0.000113014839146 0.00057100109582 -9.16378363479e-05)
(-0.000102334926016 0.000571140752457 -9.14201770898e-05)
(-0.000358650187447 0.000528891019481 -7.0323843202e-05)
(-0.000686541369027 0.000471419313122 -4.8564342865e-05)
(-0.00107623650874 0.000444307799744 -6.01726676767e-05)
(-0.00146278533949 0.000469200130981 -9.270862532e-05)
(-0.00170907653305 0.000533406491428 -7.93047963293e-05)
(-0.00193281727394 0.000599635879 -0.000324103682017)
(-0.00177930667789 0.000622093657291 -0.000405996886621)
(-0.0013598802928 0.000601494531823 -0.000543855340925)
(-0.000526438617197 0.000525060315137 -0.0005772055605)
(0.000602781055588 0.0013611930534 -0.000544702684566)
(0.00145323035055 0.00145437547295 -0.000595179817559)
(0.00180308501044 0.00148112813811 -0.000455367114239)
(0.00193555142175 0.00146319051216 -0.000376508581091)
(0.00176524174669 0.00137733705405 -8.89107348294e-05)
(0.00152014794951 0.00117746250821 -3.99261930025e-05)
(0.00119645042702 0.00107422329131 0.000127597462366)
(0.000807733578343 0.00100117117607 0.000280689678329)
(0.000421323992712 0.000966605937501 0.000369621207429)
(0.0001214671776 0.000951316207496 0.000379615327779)
(-0.000110887025346 0.000951417569472 0.000380282463842)
(-0.000411611507248 0.000965325233718 0.000370898749771)
(-0.000798827470968 0.000998670474778 0.000282616610734)
(-0.00118892706295 0.00107096053288 0.000129741016849)
(-0.00151417439571 0.00117405354381 -3.78621603777e-05)
(-0.00175974897327 0.00137373942798 -8.64976739333e-05)
(-0.00193251058208 0.00145964835346 -0.000374535176489)
(-0.00180102527968 0.00147758998941 -0.000453727035368)
(-0.00145259358422 0.00145045762589 -0.000593856928027)
(-0.000602878156252 0.00135731433271 -0.000543757596715)
(0.000623247519464 0.00178231261994 -0.000406926491238)
(0.00147981337507 0.00180466022302 -0.000454838270604)
(0.00180348098199 0.00180573465467 -0.000270444621956)
(0.00188844498504 0.00171882254294 -0.000169240149286)
(0.00176880420843 0.0015231252449 8.15094702962e-05)
(0.00150807437687 0.001171433892 0.000186808499635)
(0.00125791626289 0.000898128713924 0.000359778610997)
(0.000929717818338 0.000653913059443 0.000564327711037)
(0.000536511392969 0.000493386559707 0.000744687464013)
(0.000167099278271 0.000426264821192 0.000793876050386)
(-0.000156543806992 0.000425541813614 0.000797015309988)
(-0.000528016328115 0.000491267042716 0.000746137567476)
(-0.000921932822142 0.000650628808168 0.000566004210483)
(-0.00125129228708 0.000894050601282 0.000361402016278)
(-0.00150264645327 0.00116699351949 0.000188198098192)
(-0.00176385572747 0.0015188151487 8.35838317558e-05)
(-0.00188560540952 0.00171442048071 -0.000167679230464)
(-0.00180169955855 0.00180122562658 -0.000269053806578)
(-0.00147928932699 0.00179975490175 -0.000453993614314)
(-0.000623357794675 0.00177696621444 -0.000406165837492)
(0.000600826062492 0.00193715883768 -0.000325212518324)
(0.00146178701084 0.00193764341175 -0.000375466085913)
(0.00171618465503 0.00189150398323 -0.000168565975122)
(0.00172764804668 0.00173142874109 -6.35091167599e-05)
(0.00157733714989 0.00143236215489 0.000140811691303)
(0.00129547209871 0.000941529098488 0.000213872528727)
(0.00109680122437 0.000514802813294 0.000309197284384)
(0.000847745374546 0.000109165050576 0.000443047285631)
(0.000528770677891 -0.000168066244569 0.000568029127344)
(0.000178709987771 -0.000288663604103 0.000631768752339)
(-0.000169653660213 -0.000290078560485 0.000632231924189)
(-0.000520823326997 -0.000170565593287 0.000568811788291)
(-0.000840695880368 0.000105688341601 0.00044408745923)
(-0.00109074937017 0.000510776098387 0.000310268673735)
(-0.00129040252234 0.000937094764043 0.000214643402561)
(-0.00157270841059 0.00142807376174 0.000142377760959)
(-0.00172488363182 0.00172699643958 -6.24552113519e-05)
(-0.00171439489297 0.00188689190309 -0.000167692985463)
(-0.00146110928199 0.00193264310834 -0.000374918281061)
(-0.000600822841322 0.00193139536477 -0.000324709429006)
(0.000534811195653 0.0017148687527 -8.06073890213e-05)
(0.00137637324239 0.0017665822454 -8.73305589336e-05)
(0.0015207040679 0.00177158477983 8.32043734677e-05)
(0.00142845151229 0.00158144495862 0.000141904790039)
(0.00122226064275 0.00122706237296 0.000253461236172)
(0.000926620544468 0.00065800159973 0.000246815100132)
(0.000773699562151 0.000110180976707 0.000266115948082)
(0.000597035602454 -0.00039794406882 0.000348238779626)
(0.000374869900136 -0.000767190688193 0.000434622801343)
(0.000135806045515 -0.000939458602281 0.00033481513806)
(-0.000127616429565 -0.000940346804788 0.000334828256744)
(-0.000367280476911 -0.000769261607471 0.000435106568984)
(-0.000590278953197 -0.000400833214196 0.000348901633079)
(-0.000767878269083 0.000106900968941 0.000266729303569)
(-0.000921714848709 0.000654356611211 0.000247161503367)
(-0.00121798578806 0.00122368959192 0.000254661156477)
(-0.0014256881763 0.00157762861779 0.000142580332641)
(-0.00151875267037 0.00176757546291 8.36954791884e-05)
(-0.00137528381748 0.00176219698573 -8.70417761445e-05)
(-0.000534576865837 0.00170991099533 -8.03332860155e-05)
(0.000470878921985 0.001469007459 -9.37615350895e-05)
(0.00117725543324 0.00152103253571 -3.79095512311e-05)
(0.00116961828607 0.0015104315585 0.000189143774504)
(0.000938050692269 0.00129945723025 0.000215826016151)
(0.000653268362499 0.00093190718342 0.000247874240028)
(0.000356030806847 0.000361707451636 0.000123715058278)
(0.000256575185827 -0.000180217463602 4.98801004929e-05)
(0.000197852680838 -0.000673278896616 5.01356122861e-05)
(0.000129815849519 -0.00103802908341 9.78080246055e-05)
(4.69638890926e-05 -0.00122032050986 0.00012807784247)
(-3.88720984684e-05 -0.00122085459137 0.000128381554763)
(-0.000122357734826 -0.00103936117827 9.87158533494e-05)
(-0.000191413221662 -0.000674925822214 5.09126349816e-05)
(-0.00025117719664 -0.000181908149201 5.03403428281e-05)
(-0.000351599915951 0.000359887898957 0.000123750701655)
(-0.000649263527298 0.000930099141234 0.000248588662501)
(-0.000935629297961 0.00129723433072 0.000216139754152)
(-0.00116790710471 0.0015078524549 0.000189438060626)
(-0.00117645303296 0.00151773827527 -3.74982048558e-05)
(-0.000470654262983 0.00146486399645 -9.34238349847e-05)
(0.000446219993019 0.00108347648342 -6.11241922502e-05)
(0.00107483296038 0.00119586926018 0.000129731591898)
(0.000897381369585 0.00125862886955 0.000362812197788)
(0.000512500045635 0.00109944105609 0.000312099721822)
(0.000106150673265 0.000778271325438 0.000268572657201)
(-0.000185659797977 0.000262090758818 5.12165705899e-05)
(-0.000235120132422 -0.000229347962348 -8.53099418751e-05)
(-0.000189447262644 -0.000688493328378 -0.000121805029132)
(-8.75940730986e-05 -0.000979728881164 -0.000326100906502)
(-2.65131042175e-05 -0.0011583413682 -0.000337243936052)
(3.49199369277e-05 -0.00115863606082 -0.000337171619862)
(9.53659186407e-05 -0.000980349176472 -0.000326389896481)
(0.000196234465734 -0.000689231543273 -0.000120631884186)
(0.00024059680285 -0.000229677046459 -8.47158711215e-05)
(0.000189961574927 0.000261913665749 5.1447611114e-05)
(-0.000102437785836 0.000778025568541 0.000269322642562)
(-0.000510387565472 0.00109869598383 0.00031251434966)
(-0.000895799912583 0.0012573337704 0.000363112753833)
(-0.00107393053243 0.00119361940835 0.000130072140726)
(-0.000445814612372 0.0010801158956 -6.08996255962e-05)
(0.000473260197795 0.000695258734791 -4.90124659341e-05)
(0.0010025969106 0.000805607719557 0.000282611269808)
(0.000654662162392 0.000927688179285 0.00056749664737)
(0.000109003282318 0.000847892107815 0.000446484865752)
(-0.000400253590733 0.000599730935439 0.000351878865394)
(-0.000677779052718 0.000201932384449 5.26452597177e-05)
(-0.000694007823656 -0.000184563167317 -0.000121087997355)
(-0.000533283851391 -0.000528239292631 -0.000374843048761)
(-0.000330203816715 -0.000804867591553 -0.000400428857319)
(-0.000111206885057 -0.000925029230679 -0.000437115278608)
(0.000120090197124 -0.00092513101039 -0.000437073367247)
(0.000338593329162 -0.000805030862357 -0.000400490021498)
(0.000540688112468 -0.000528462065516 -0.000374221477644)
(0.000699831381357 -0.00018392702741 -0.000119770343961)
(0.000682005123277 0.000203094395544 5.34838919565e-05)
(0.000403552491008 0.000600831113919 0.000353003880056)
(-0.000107454101874 0.00084837381384 0.000447245967323)
(-0.000653692912027 0.000927401786637 0.000568186630225)
(-0.00100215113718 0.000804125328681 0.000283160427823)
(-0.00047297738996 0.000692507761091 -4.88556880601e-05)
(0.000529700413668 0.000368851475727 -7.01552076302e-05)
(0.000967430370544 0.00041828995062 0.000371035626233)
(0.000495352191232 0.000530852901037 0.000746843469494)
(-0.00016548515859 0.000526314907274 0.000571145956376)
(-0.000767109788702 0.000375446645706 0.00043839223572)
(-0.00104069448485 0.000132183311359 9.99017404575e-05)
(-0.000984108625025 -8.43523502781e-05 -0.000323730921409)
(-0.000810350379155 -0.000325840372126 -0.00040006013507)
(-0.000511459503232 -0.000506476615212 -0.000479515638287)
(-0.000174550351011 -0.000582216975286 -0.000533116602288)
(0.000183502505077 -0.000582202101713 -0.000533095649204)
(0.000519921638148 -0.000506454162053 -0.000479475906971)
(0.000817648791637 -0.000325630978404 -0.000399884375597)
(0.000989773964826 -8.33079711143e-05 -0.000323350453826)
(0.00104460055619 0.000133849824701 0.000101537145053)
(0.000769503333541 0.000377133375137 0.000440117765667)
(0.000165847820126 0.00052723860196 0.000572381503015)
(-0.000495567229193 0.000530927863206 0.000747986309475)
(-0.000967987073279 0.0004171106382 0.000371671155522)
(-0.000529852935081 0.000366521355598 -7.00257828555e-05)
(0.00057044497405 0.000114374599079 -9.04180777084e-05)
(0.000949245858708 0.000120379073583 0.000380014968619)
(0.000428497645653 0.00016363428067 0.000785285030567)
(-0.000282252931535 0.000176868121605 0.000633550243146)
(-0.000937155115025 0.000135607352163 0.000339907721328)
(-0.00122164657473 4.8441441745e-05 0.000130244545203)
(-0.00116095123081 -2.34935950132e-05 -0.000338074063996)
(-0.000929051095813 -0.000106295836389 -0.000437678426819)
(-0.000586860049683 -0.000168234795555 -0.000533277581274)
(-0.000200538960718 -0.000193887029862 -0.000595416827968)
(0.000209452312088 -0.000193744160562 -0.000595373352941)
(0.000595183666124 -0.00016789317325 -0.000533125527395)
(0.000936223097756 -0.000105770738095 -0.000437306913923)
(0.00116628329984 -2.24278603079e-05 -0.000337232735709)
(0.00122485506053 5.00201252032e-05 0.000132105214992)
(0.000938282433378 0.000137085082585 0.000342273777888)
(0.000281012697407 0.000177404421474 0.000635127102333)
(-0.000430286240667 0.000162726289543 0.00078738333442)
(-0.000950935772745 0.000119071994175 0.000380370166344)
(-0.000570975597626 0.000112472115273 -9.03691748736e-05)
(0.000570572777078 -9.90551093585e-05 -9.03371164557e-05)
(0.000949557323169 -0.000108234434031 0.000380891991245)
(0.000427365288264 -0.000152958475052 0.000790245709984)
(-0.000284475380111 -0.000168530715422 0.000633677831094)
(-0.000938173992014 -0.000127149521636 0.000338620301934)
(-0.00122196864699 -3.75743462597e-05 0.000130237896956)
(-0.00116114620161 3.83435416656e-05 -0.000337875994734)
(-0.000929060214282 0.000126137856071 -0.000437406341369)
(-0.000586784770415 0.000191772733919 -0.000532985915263)
(-0.000200393916741 0.000219007056014 -0.00059496801605)
(0.000209403066384 0.000219208026949 -0.00059488703176)
(0.000595148613423 0.000192314923537 -0.000532796720145)
(0.000936183322061 0.000126980718862 -0.000437010155469)
(0.00116615821707 3.95849241578e-05 -0.0003369880725)
(0.00122453960997 -3.61382918533e-05 0.000132252749387)
(0.000938025752608 -0.000125862038057 0.000341836185962)
(0.000280924218456 -0.000167821919814 0.000635056910688)
(-0.000430480659028 -0.000153112801069 0.000787953773201)
(-0.000951236683208 -0.000108772258702 0.000380221958275)
(-0.00057111070506 -0.000100145726675 -9.04926011801e-05)
(0.000529120940517 -0.000353749685363 -6.98398076203e-05)
(0.000965692076161 -0.000407307313135 0.000371972127436)
(0.000492402714007 -0.000522897657949 0.000747475512542)
(-0.000168595516126 -0.000518806821341 0.0005704385749)
(-0.000768900129585 -0.00036692986875 0.000436964311248)
(-0.00104094698977 -0.000121599598931 0.000100196944689)
(-0.000983668925765 9.83594153364e-05 -0.000324618064281)
(-0.000809653797223 0.00034440264651 -0.00039972584155)
(-0.000511199171827 0.000528477748637 -0.00047847599396)
(-0.000174338859275 0.000605748046878 -0.000531673805407)
(0.000183402138735 0.000606010706699 -0.000531638122158)
(0.000519682864828 0.000529120804808 -0.000478226142993)
(0.000817002386679 0.000345364599576 -0.000399103688242)
(0.00098881990029 9.96154667174e-05 -0.000322903820706)
(0.0010433134236 -0.000120434830276 0.000102376033059)
(0.000768458924346 -0.000365990536592 0.000439982191587)
(0.000165033547772 -0.000517645916922 0.000572132979251)
(-0.000496119201693 -0.000521352868353 0.000747696188217)
(-0.000968352618869 -0.000406445617046 0.000371318488475)
(-0.000530068833198 -0.000353689953734 -7.03119488648e-05)
(0.000471914586385 -0.000680584714114 -4.85859781047e-05)
(0.000999566042569 -0.000794627816933 0.000283450219707)
(0.000651129956895 -0.000918914154764 0.000567423680516)
(0.000105952364456 -0.00083960085719 0.000445291827356)
(-0.000401633496941 -0.000590464169029 0.000350057187032)
(-0.000676671288888 -0.00019158227977 5.21937010136e-05)
(-0.000692205296348 0.000197642233226 -0.000119019697881)
(-0.00053190469926 0.00054437769608 -0.000373132225349)
(-0.000329704895635 0.000823755837277 -0.000398025806619)
(-0.00011111189323 0.000944250710482 -0.000434854341185)
(0.000120131869625 0.000944470518971 -0.000434810805527)
(0.00033828421569 0.000824172791544 -0.00039794141875)
(0.000539334969913 0.000545010031621 -0.000372429729289)
(0.000697589610093 0.000198260141057 -0.000116901842857)
(0.000679206325271 -0.000191171184145 5.47299659206e-05)
(0.000401441052044 -0.000590382052929 0.000353128752781)
(-0.000108974526649 -0.000838923311523 0.000447059991599)
(-0.000654573858414 -0.000917545703851 0.000567987599454)
(-0.0010023740899 -0.000793039743255 0.000283002140253)
(-0.000473022314069 -0.000679341642423 -4.91747755832e-05)
(0.000444806580575 -0.00106945091477 -6.02478809755e-05)
(0.00107180144959 -0.00118475890944 0.00013051599159)
(0.000894269719581 -0.00124900169549 0.000362581540682)
(0.000510351873002 -0.00109003829546 0.000311099528027)
(0.000105749915722 -0.000768192659278 0.000267085112285)
(-0.000183197290121 -0.000251777289933 5.06385845148e-05)
(-0.00023152836588 0.000240935709237 -8.38387500681e-05)
(-0.000186298985932 0.000701883349992 -0.000118132997887)
(-8.59439096969e-05 0.000993710882891 -0.000321908638294)
(-2.58394811902e-05 0.00117172272463 -0.000335172927518)
(3.5073424525e-05 0.00117185188746 -0.000335059571251)
(9.47678000611e-05 0.00099392057383 -0.000321740576893)
(0.00019388411307 0.000702073772334 -0.00011649340185)
(0.000236799520358 0.000240852892154 -8.17203828013e-05)
(0.000185773069271 -0.000252167041736 5.28684712261e-05)
(-0.00010554933329 -0.000768876836507 0.000269543959257)
(-0.000512517061147 -0.00108985379135 0.00031251985793)
(-0.000896904381371 -0.0012478494444 0.000363195143558)
(-0.00107403450405 -0.00118281712759 0.000130355966851)
(-0.000445647546735 -0.00106727763044 -6.07541869402e-05)
(0.000469677664241 -0.00145559471586 -9.26817387075e-05)
(0.00117472565212 -0.00150994171808 -3.69906199187e-05)
(0.00116724837751 -0.00150038220825 0.000189256612237)
(0.000936719345362 -0.00128943429566 0.000215288736999)
(0.000653443291775 -0.000921461189275 0.000247026575679)
(0.000359090323758 -0.000351619262215 0.000123281210204)
(0.00026087239212 0.000190450761548 5.13381331937e-05)
(0.000201772863638 0.000683651342621 5.36727995787e-05)
(0.00013235383004 0.00104769335166 0.00010229446487)
(4.81091556627e-05 0.00122926870237 0.00013393745033)
(-3.88382573261e-05 0.00122924371617 0.000134116621444)
(-0.000123616077145 0.00104765501264 0.000103169951855)
(-0.000194539176574 0.000683471712553 5.51178790599e-05)
(-0.000255971936937 0.000190080744709 5.30908630361e-05)
(-0.000356695405169 -0.000352200496945 0.000124779055968)
(-0.00065298653722 -0.000922227112717 0.00024859936698)
(-0.000938145029462 -0.00128921935059 0.000216191981834)
(-0.00116905418347 -0.00149918921888 0.000189662733258)
(-0.00117618599877 -0.00150778189429 -3.7060227507e-05)
(-0.000470125867088 -0.00145284737654 -9.30507073634e-05)
(0.000534056455563 -0.00170225121893 -7.90092515078e-05)
(0.00137449215763 -0.00175576646954 -8.60691168224e-05)
(0.00151908245576 -0.00176146436994 8.4186593241e-05)
(0.00142779246764 -0.00157109320259 0.00014273487697)
(0.00122309776827 -0.00121655602408 0.000254352935459)
(0.000929530028475 -0.000647741795707 0.00024790121091)
(0.000777428817859 -0.000100514295605 0.000268568871366)
(0.000600146157433 0.000406347427504 0.000352201341654)
(0.000376456330454 0.000773240508928 0.000439452661807)
(0.000136106761274 0.00094274665537 0.000344293405198)
(-0.000127092897407 0.000942624777833 0.000344238708319)
(-0.000368041696932 0.00077300543455 0.000440120522252)
(-0.000593242618238 0.000406105634523 0.000353284717858)
(-0.000772769896398 -0.000100700862396 0.000269674291954)
(-0.000927078412656 -0.000647797849178 0.000248535274492)
(-0.00122216677687 -0.00121661157515 0.000255161463852)
(-0.001428450941 -0.00157029067611 0.000143035211158)
(-0.00152008720821 -0.00175985726138 8.41658959617e-05)
(-0.00137536461135 -0.00175331374596 -8.62063910185e-05)
(-0.000534300542674 -0.00169921220866 -7.91960344581e-05)
(0.000600145531717 -0.0019258168284 -0.000323375055519)
(0.00146086572864 -0.00192804324227 -0.00037379281689)
(0.00171539456624 -0.00188290086708 -0.000166959290371)
(0.00172771078631 -0.00172283394841 -6.18854998947e-05)
(0.00157828196585 -0.00142355841744 0.00014256288528)
(0.00129787193515 -0.000933307547843 0.000215813408093)
(0.00109931047353 -0.000507430941352 0.000312014448367)
(0.00084890816966 -0.000103619216373 0.000446585376768)
(0.000527619733936 0.000170405191432 0.00057181431229)
(0.00017737639999 0.000285875518545 0.000634546487913)
(-0.000168410825414 0.00028574458605 0.000634672334657)
(-0.000519160806459 0.000170184502241 0.000572262555712)
(-0.000841921056854 -0.000103605302447 0.000447440396421)
(-0.00109450634225 -0.000507058905848 0.000312964977426)
(-0.00129516395263 -0.000932489625349 0.000216395496301)
(-0.00157691635515 -0.00142264157817 0.00014334820153)
(-0.00172786358093 -0.00172117214484 -6.15517345034e-05)
(-0.00171577913251 -0.00188062329552 -0.0001669112088)
(-0.00146114530656 -0.00192521565504 -0.000373668456603)
(-0.000600103537537 -0.00192260978063 -0.000323098768622)
(0.000622855467244 -0.00177358566223 -0.000404730555643)
(0.00147951546091 -0.00179731919773 -0.000452763862599)
(0.00180324614662 -0.0017992477052 -0.000268592144042)
(0.00188900338635 -0.00171226568435 -0.000167254404808)
(0.00177004909996 -0.0015163625685 8.37179713908e-05)
(0.00151012436267 -0.00116511602099 0.000189415305976)
(0.00125953305112 -0.00089227095807 0.000362983491318)
(0.000929279332327 -0.000649238670899 0.000567938606115)
(0.0005322562126 -0.000490500242342 0.000747642377688)
(0.000163010527004 -0.000424905173365 0.000787388160983)
(-0.000153864749662 -0.000424973441501 0.000787356849605)
(-0.000523481834048 -0.000490543741072 0.0007480779414)
(-0.000921890917171 -0.00064893888368 0.000568884354952)
(-0.00125432533312 -0.000891425559851 0.000364056291314)
(-0.00150706483644 -0.00116372023675 0.000190174107358)
(-0.00176826595975 -0.00151484791038 8.47340810524e-05)
(-0.00188892043361 -0.00171010578904 -0.000166796310896)
(-0.00180335715886 -0.00179663561025 -0.000268428127729)
(-0.00147962356048 -0.00179441794443 -0.000452468356743)
(-0.000622799784317 -0.00177049243603 -0.000404182065038)
(0.000602120307534 -0.0013556776298 -0.000541523029344)
(0.00145263363766 -0.00144980555794 -0.000592689423535)
(0.00180255592467 -0.00147715521981 -0.000453617168165)
(0.00193579318576 -0.00145902955942 -0.00037458938239)
(0.00176621273452 -0.00137286565441 -8.67700900403e-05)
(0.00152137520895 -0.00117348448627 -3.7082480435e-05)
(0.00119707862982 -0.00107042520912 0.000130795222611)
(0.000806881407419 -0.000997905949951 0.000284126204084)
(0.000418707405292 -0.000963609225464 0.000372833695939)
(0.000119286039011 -0.000946540215942 0.000381661331778)
(-0.000110011711198 -0.000946501648907 0.000381759910799)
(-0.000409740784901 -0.000963432279458 0.00037332311195)
(-0.000799151784014 -0.000997314551456 0.000285244902918)
(-0.0011914867684 -0.00106931184905 0.00013218541708)
(-0.00151802488181 -0.00117194950326 -3.59295279202e-05)
(-0.00176394677704 -0.0013712116695 -8.52658581512e-05)
(-0.00193568796699 -0.00145691611235 -0.000373520323113)
(-0.00180265278367 -0.00147486833554 -0.000452849653697)
(-0.00145284454296 -0.00144739808458 -0.000591922903829)
(-0.000602201469988 -0.00135331141535 -0.0005406804863)
(0.000525344238874 -0.000524415164617 -0.000575052210792)
(0.00135919437567 -0.000601213679532 -0.000542067068699)
(0.00178024270288 -0.000621887115878 -0.00040551422207)
(0.00193531586474 -0.000599370095455 -0.000323784659745)
(0.00171444750586 -0.000533109439983 -7.8892025653e-05)
(0.00146903988281 -0.000468837195775 -9.20460705428e-05)
(0.00108386755176 -0.000443877714558 -5.91504896563e-05)
(0.00069479966117 -0.000470768914626 -4.68994158555e-05)
(0.000367047765469 -0.000527769231526 -6.76471421578e-05)
(0.000111609013045 -0.000569007479842 -8.79483887945e-05)
(-0.000102447166951 -0.00056906024864 -8.7841333987e-05)
(-0.000358189133212 -0.000527845155883 -6.72029126395e-05)
(-0.000687152308601 -0.000470635250753 -4.60303133134e-05)
(-0.00107822863924 -0.000443378574498 -5.79337000318e-05)
(-0.00146563126746 -0.000468004494428 -9.08055583298e-05)
(-0.00171242803828 -0.000532157204458 -7.75892521667e-05)
(-0.00193538550479 -0.000598220409071 -0.000322462276922)
(-0.00178052050786 -0.000620769591108 -0.000404569810451)
(-0.00135955613375 -0.000600156293553 -0.000541160095793)
(-0.000525595802429 -0.000523556644392 -0.000574203950676)
(0.000387676297382 0.000387878693138 -0.00303883509941)
(0.000999175601792 0.000419149806476 -0.00278472123566)
(0.0011449139146 0.000599177999176 -0.00212902736744)
(0.00090326957374 0.00071908192548 -0.00156957524783)
(0.000517093385909 0.000739362172498 -0.00114556350012)
(0.000207551768453 0.000732693916922 -0.000779792325543)
(-0.000115893088719 0.000714563988189 -0.000579601177368)
(-0.00032670887303 0.000714769759789 -0.000572993898327)
(-0.000324274843952 0.00074368982238 -0.000695195891622)
(-0.000129756862702 0.000765871697253 -0.000825796807687)
(0.000141253226497 0.000766066782112 -0.000825004206398)
(0.000335057186999 0.000743200359858 -0.000692485699256)
(0.000336473820208 0.000713758051387 -0.0005682851046)
(0.000124121853372 0.000713162855342 -0.000573224708619)
(-0.000200917815958 0.000731203569377 -0.000772800989076)
(-0.00051172779778 0.000737930141887 -0.0011387395366)
(-0.000899171661474 0.000717915542229 -0.0015630831195)
(-0.0011426954474 0.000598084959494 -0.0021229753627)
(-0.000998461686201 0.000417691815947 -0.00277876937314)
(-0.000388233046681 0.000385917155682 -0.00303386163844)
(0.000418913721187 0.000998729650882 -0.0027833924766)
(0.000940439984259 0.000940843321983 -0.00208293575495)
(0.00115787774704 0.0012266286433 -0.00132016541378)
(0.0010244027443 0.00149629070232 -0.000804433945408)
(0.000733831779533 0.00161225305694 -0.000435401143645)
(0.000445297316076 0.00161038592851 -0.000108591965096)
(0.000153794264411 0.00154994047098 0.0001512638281)
(-7.79195465833e-05 0.00146125337055 0.000323043825457)
(-0.000183126707788 0.00135867193031 0.000385423972803)
(-9.56926415839e-05 0.0012202676444 0.000378602510284)
(0.000106033012823 0.00122314170498 0.000378799910325)
(0.000191966770109 0.00135762506423 0.000387827858455)
(8.62086094925e-05 0.00145895289564 0.000327314845946)
(-0.00014670018886 0.0015469373808 0.000156608237423)
(-0.000439592308157 0.00160724845252 -0.00010315499518)
(-0.00072924827875 0.00160919314094 -0.000430219936897)
(-0.00102091958596 0.00149347343341 -0.000799607100263)
(-0.00115554424274 0.00122364803248 -0.00131609577759)
(-0.00093910571208 0.000937302353494 -0.00207876789445)
(-0.000419283116089 0.000995020743775 -0.00277969612196)
(0.000598792558784 0.00114482661595 -0.00212726360606)
(0.00122631734258 0.00115892671965 -0.00131878922784)
(0.00147453567486 0.001476298705 -0.000471626867417)
(0.00134814615998 0.00173286301444 2.35590125521e-05)
(0.0010820362907 0.00179167270019 0.00035454017581)
(0.000814209300381 0.00167464466831 0.000637337760205)
(0.000567533346554 0.00146865183192 0.000905414426509)
(0.000350901982659 0.00124363344426 0.00116778428178)
(0.00011866109037 0.00106832510779 0.00137578074381)
(3.73480819008e-07 0.000978983852966 0.00155651521578)
(1.21443092208e-05 0.000978219002057 0.00155313737639)
(-0.000114080357619 0.00106616452654 0.00137704269885)
(-0.00034424083245 0.00124042794156 0.00117079078475)
(-0.000561493487895 0.00146493495103 0.00090900725693)
(-0.000809240689763 0.00167099411726 0.000640954623389)
(-0.00107797158333 0.00178835222849 0.000357969704994)
(-0.00134503093995 0.0017298530338 2.6852860058e-05)
(-0.00147257803668 0.00147311881462 -0.000468724614469)
(-0.00122469539855 0.00115495842756 -0.00131675273101)
(-0.000599197245935 0.00113990679125 -0.00212483266291)
(0.000718570385869 0.000903156436541 -0.00156684802104)
(0.00149538624676 0.00102534224839 -0.00080161842746)
(0.0017305519104 0.00135023136836 2.52495606633e-05)
(0.00157550407229 0.0015784299962 0.000480804258526)
(0.00127269300803 0.00155234950622 0.000728125230713)
(0.00097088611664 0.00131675686635 0.000893801930155)
(0.000718864681415 0.000968942292961 0.00106292196329)
(0.000506354703565 0.000612248248076 0.00126854690686)
(0.000298497090875 0.000329812386342 0.00145885221607)
(0.000100182128452 0.000240794121043 0.00158175199982)
(-9.18893398056e-05 0.000236549484554 0.00158162211044)
(-0.000291645748201 0.000327179350873 0.00146002947978)
(-0.00049998572111 0.000609185910525 0.0012706309869)
(-0.000713270867153 0.00096566617091 0.0010651659486)
(-0.000966265652079 0.00131370706773 0.000895957792097)
(-0.00126903018988 0.00154986015906 0.000730182449811)
(-0.00157272378965 0.00157602384202 0.000482911105394)
(-0.00172878571851 0.00134752548633 2.7036424363e-05)
(-0.00149415354011 0.00102202662445 -0.000800340693768)
(-0.000718628372532 0.000897959906018 -0.00156550744491)
(0.000738643161089 0.000517035136338 -0.00114176085924)
(0.00161099024121 0.000734376051732 -0.000431048133116)
(0.00178908711924 0.00108392031987 0.000358281802002)
(0.00154892430278 0.00127570998727 0.000730291469531)
(0.00117855061189 0.00118227218141 0.000835462373733)
(0.000847087482335 0.000869880031001 0.000828682927128)
(0.000611828829805 0.00045394028051 0.000806712547191)
(0.000433977072929 2.80385210725e-05 0.000842929891964)
(0.000276162063599 -0.000308629959585 0.000911509117994)
(9.76653447602e-05 -0.000489260307363 0.00107217625663)
(-9.01279999539e-05 -0.000490305310244 0.00107249804738)
(-0.000269254813553 -0.000310396317312 0.000912419732243)
(-0.000427774393564 2.58779889533e-05 0.000844239935482)
(-0.000606449317178 0.000451830615734 0.000807997713543)
(-0.000842554567319 0.000868099060308 0.000829825629522)
(-0.00117503684989 0.00118091680723 0.000836496312479)
(-0.00154646796909 0.00127450219804 0.000731370663436)
(-0.00178740401632 0.00108243819856 0.000359165511645)
(-0.00160989729184 0.000732196168048 -0.000430244886421)
(-0.000738356360228 0.000512937001961 -0.00114074554926)
(0.000732222217794 0.000206329592985 -0.000775726565348)
(0.00160932552624 0.000444629308054 -0.000103092204315)
(0.0016723711667 0.000815175959376 0.000642915218857)
(0.00131342593616 0.000973296512575 0.000898211057597)
(0.000865984019931 0.000850522595083 0.000831030603444)
(0.000525558964909 0.000529457326439 0.000616717913851)
(0.000318548063336 0.000107568739963 0.000396618008387)
(0.000203578566499 -0.000307463152769 0.000268056709214)
(0.000128392978898 -0.000619518210064 0.000222008005341)
(5.00713945276e-05 -0.000793125836988 0.000222295828411)
(-4.23087203567e-05 -0.000793511084779 0.000222614536708)
(-0.000121171599621 -0.000620350455589 0.000222836794599)
(-0.000197149750556 -0.000308394500508 0.000269067832666)
(-0.000313075008704 0.000106979464508 0.00039748580184)
(-0.00052110559411 0.000529345670207 0.000617413544064)
(-0.000862501239749 0.00085075712274 0.000831805656294)
(-0.00131089098163 0.000973695982948 0.00089903734918)
(-0.00167073852127 0.000815321036841 0.000643722161172)