/*--------------------------------*- C++ -*----------------------------------*\
| =========                 |                                                 |
| \\      /  F ield         | OpenFOAM: The Open Source CFD Toolbox           |
|  \\    /   O peration     | Version:  3.0.1                                 |
|   \\  /    A nd           | Web:      www.OpenFOAM.org                      |
|    \\/     M anipulation  |                                                 |
\*---------------------------------------------------------------------------*/
FoamFile
{
    version     2.0;
    format      ascii;
    class       volVectorField;
    location    "2.4";
    object      ddt0(U);
}
// * * * * * * * * * * * * * * * * * * * * * * * * * * * * * * * * * * * * * //

dimensions      [0 1 -2 0 0 0 0];

internalField   nonuniform List<vector> 
7968
(
(0.000131112045665 0.000125141519783 -0.000238531456492)
(0.000503249144114 -1.21693940388e-05 -0.000238378908911)
(0.00105462253367 -7.75441700421e-05 -0.000199625967535)
(0.00150174396171 -8.68579699068e-05 -0.000133048203077)
(0.00179579422704 -4.27664480185e-05 -6.82574244034e-05)
(0.00185540487714 3.78004468546e-05 -1.39067713953e-05)
(0.00171861078402 0.000105502424166 2.40435801123e-05)
(0.00139078389919 0.000180279525314 5.07932453852e-05)
(0.000928742130679 0.000233570314825 6.42692186703e-05)
(0.000390484967754 0.000260679938824 6.98060943177e-05)
(-0.000175174571026 0.000260945784528 7.10728438378e-05)
(-0.000721755585832 0.000234129107091 6.80680916682e-05)
(-0.00119972435108 0.000180665502911 5.70973080363e-05)
(-0.00154904457428 0.000105364023009 3.24793544217e-05)
(-0.00171086753739 3.76913598684e-05 -3.97044372049e-06)
(-0.00167818798631 -4.33316109168e-05 -5.78965984381e-05)
(-0.001410579396 -8.70156473588e-05 -0.000123002922934)
(-0.000989428219314 -7.6714710204e-05 -0.00019067593095)
(-0.000462879877998 -9.56304911626e-06 -0.000229812823116)
(-0.000118203065489 0.000130834994356 -0.000230344495797)
(-6.86587106682e-06 0.000488770775792 -0.00023987039468)
(0.000373307224708 0.000360441308321 -0.000642728112875)
(0.00104821975099 0.000357242549652 -0.000792184866425)
(0.00157051150416 0.000469593082168 -0.000810926501488)
(0.00189581166441 0.000673304113914 -0.000792902904678)
(0.00197282919866 0.00091335476326 -0.000764937277839)
(0.00181536226625 0.00113311960858 -0.000739513107393)
(0.00146313606425 0.00131689603389 -0.000723372299454)
(0.000972903622299 0.00144520341162 -0.000718255748892)
(0.000405536980185 0.00151041177447 -0.000718422053797)
(-0.000189253365716 0.0015116770658 -0.000717432561)
(-0.000765768585643 0.0014483921471 -0.000715236917761)
(-0.00127315194422 0.00132082494392 -0.00071851508043)
(-0.00164815056769 0.00113661507137 -0.000733312640482)
(-0.00183158792799 0.000916424489608 -0.0007581908311)
(-0.00178148461528 0.000676324018347 -0.000786822049393)
(-0.00148236659667 0.000473751177145 -0.000806318691042)
(-0.000985026861989 0.000363510309107 -0.000789003405316)
(-0.000332569743451 0.000368960623761 -0.000638201741536)
(2.15674552098e-05 0.000499790144733 -0.000229780311224)
(-7.20322502741e-05 0.00103497356044 -0.000203363159128)
(0.000369661762101 0.00103052493283 -0.00079342297441)
(0.00116670349043 0.00115018981429 -0.000981352775163)
(0.0017642069382 0.0014115375812 -0.000965244098173)
(0.00211644050893 0.00176888776614 -0.000893683059974)
(0.0021845799695 0.00215517930036 -0.000816397978647)
(0.00199177205299 0.00250397833247 -0.000756018545023)
(0.00159265997949 0.0027886437454 -0.000719847063409)
(0.00105162708277 0.00298847057019 -0.000705734128133)
(0.000433076449886 0.00309125724708 -0.000702700623338)
(-0.00021288406024 0.00309357891392 -0.00070099911137)
(-0.00084194321426 0.00299436202316 -0.000700960952532)
(-0.00140202023575 0.00279608093653 -0.000712723506723)
(-0.00182527531592 0.00251091352874 -0.000747996738954)
(-0.00204427210755 0.00216140305205 -0.000808211790799)
(-0.00200249407909 0.00177565332082 -0.000887046981212)
(-0.0016758203873 0.00142065675893 -0.000960492471374)
(-0.0011027962196 0.0011624037657 -0.000977771873994)
(-0.00032758326866 0.00104534098568 -0.000788076648259)
(8.83923489548e-05 0.00105045093188 -0.000190925570854)
(-8.13477607849e-05 0.00147725861454 -0.000137024821992)
(0.000481805550926 0.00154809737492 -0.000813045408287)
(0.00142759311662 0.00174332189597 -0.000965986683413)
(0.00212034905434 0.00210048156055 -0.000858394825828)
(0.0025036733118 0.00255768209693 -0.000684228494535)
(0.00254748308458 0.00303854529062 -0.000517092722715)
(0.00229484698021 0.00347010416432 -0.000385937369087)
(0.00181695229076 0.00382274024582 -0.000301731324336)
(0.00118784637467 0.00407065610116 -0.000259997744949)
(0.00048037395712 0.00419850819801 -0.000243610428095)
(-0.00025416773539 0.00420152773049 -0.000240465631484)
(-0.000974256396544 0.00407811333869 -0.000251714872377)
(-0.00162533902764 0.00383160624289 -0.000290221770275)
(-0.00212934596979 0.00347715410601 -0.000373680318328)
(-0.00240774478311 0.00304354510035 -0.000506065648991)
(-0.00238866156287 0.0025630451802 -0.000674474122625)
(-0.0020298492306 0.00210904232262 -0.000850074143189)
(-0.00136133253137 0.00175596354729 -0.000959274569075)
(-0.000437529899228 0.00156376007772 -0.000804260572718)
(9.92175282336e-05 0.00149285034943 -0.000121190360379)
(-3.67698243556e-05 0.00176556733976 -7.29648304191e-05)
(0.000686300901393 0.00186795947536 -0.000794912634209)
(0.001785699031 0.00209071750268 -0.000894275187475)
(0.00257783014263 0.00247995640602 -0.000683670472796)
(0.00299168617378 0.00296937048716 -0.000395117146958)
(0.0030050066 0.00347955752041 -0.00011712126448)
(0.00268231641429 0.00393515402886 9.88273763673e-05)
(0.00211149454483 0.00430870278329 0.000250393816227)
(0.00137228916578 0.00457756396752 0.000338477239475)
(0.000545538456872 0.00471862183627 0.00037901916155)
(-0.000312204530072 0.00472182753572 0.000383920326077)
(-0.0011547239771 0.00458568604054 0.000351562018571)
(-0.00192024315139 0.00431741072235 0.000267112102022)
(-0.00251969410221 0.00393975191755 0.000114548874515)
(-0.00286700994199 0.00347987156224 -0.000104108038351)
(-0.00287528066516 0.00296855539011 -0.000383793019475)
(-0.00248376977942 0.00248293659593 -0.000673118427764)
(-0.00171575227844 0.00209852252832 -0.000883991059601)
(-0.000639370890559 0.00187930572112 -0.000782759877249)
(5.59411324997e-05 0.00177702548147 -5.39490736852e-05)
(4.48068643879e-05 0.00181817042839 -1.93513420554e-05)
(0.000928142230674 0.0019381189895 -0.000767521605176)
(0.00217429394598 0.00215228541989 -0.000816675433659)
(0.00306147234788 0.00251785163953 -0.000515191934723)
(0.00350346981515 0.00297775971441 -0.000112619014253)
(0.00347094723222 0.00344433531656 0.000256072383735)
(0.00307395793946 0.00384817158052 0.000540133534674)
(0.00240867522266 0.00418823801516 0.000738342093044)
(0.00155722973805 0.00443617437158 0.000858793610956)
(0.000609791978692 0.00456426424905 0.000915294784707)
(-0.000369867747889 0.00456687099517 0.000922645718136)
(-0.00133629153857 0.00444353452877 0.000877903268399)
(-0.00221978551028 0.00419689039111 0.000761244358949)
(-0.00291679993954 0.00385087131313 0.000557927636088)
(-0.00333658840885 0.00344018874056 0.000267565756198)
(-0.00338595515267 0.00297123865973 -0.000104855629781)
(-0.00296289907088 0.00251389724668 -0.000504530895675)
(-0.00209988442813 0.00215274434958 -0.000804947652975)
(-0.000878156930776 0.00194217509931 -0.000753322225702)
(-2.44047692488e-05 0.00182253744837 1.29082946052e-06)
(0.00011262308514 0.00167258206184 1.80195442782e-05)
(0.00114959026025 0.00177156833288 -0.000742402926939)
(0.00252552339295 0.00194987512014 -0.000755528909016)
(0.0034957179988 0.00225489069203 -0.000381560678277)
(0.00396145037923 0.00264402927772 0.000105934964723)
(0.00387614157827 0.00303628740467 0.000546202926223)
(0.00341642864877 0.00337866120185 0.000858247235336)
(0.00267205079602 0.00368308526932 0.00109679991504)
(0.00171733672286 0.00390841311557 0.00124737600819)
(0.000663103518772 0.00402130133965 0.00131564584239)
(-0.000418735966253 0.00402294019482 0.00132336302157)
(-0.00149298322882 0.00391357401186 0.00126990865404)
(-0.00248545625621 0.00368990963769 0.00112636654462)
(-0.00326650926685 0.00338091160881 0.000878429835659)
(-0.00374664885286 0.00303156152046 0.000555667002623)
(-0.0038443151503 0.00263554161527 0.000112289187216)
(-0.00339438552044 0.00224667964547 -0.000372778292146)
(-0.00244739152868 0.00194450822038 -0.000743906743668)
(-0.00109680190871 0.00176905907254 -0.000726965490428)
(-9.14814655587e-05 0.00167093810284 3.94381526031e-05)
(0.000187943124245 0.00133475328386 4.4157471905e-05)
(0.00133421897859 0.00140848715767 -0.000726355083086)
(0.0028114478816 0.00153844229454 -0.000719027257139)
(0.00385002095499 0.00176268495954 -0.000296329561439)
(0.00433603562049 0.00205690382794 0.000260198087807)
(0.00421665799615 0.00235254107586 0.000747406084145)
(0.0037210365999 0.00261375199083 0.00110125275971)
(0.00290337245397 0.00284398039292 0.0014021907138)
(0.00186764451825 0.00303913370474 0.00152796088652)
(0.000714414877381 0.00313793535206 0.00156648372214)
(-0.000467954392001 0.00313709620771 0.0015743537465)
(-0.00164145278948 0.00304219986135 0.00155013481608)
(-0.00271745967812 0.00284773089981 0.00143322395563)
(-0.00357526010694 0.00261516890252 0.00112454089335)
(-0.00409194241731 0.00234906220351 0.000757531394434)
(-0.0042211518852 0.00204923303706 0.000265134995561)
(-0.00374793718358 0.00175381293652 -0.000288941593705)
(-0.00273161412237 0.00153038627016 -0.000708209804116)
(-0.00127997566503 0.00140183247417 -0.000711318858721)
(-0.00016621365065 0.00132882676376 6.53092217322e-05)
(0.00024139983173 0.000862305535642 5.70704736891e-05)
(0.00146227451404 0.000907034673571 -0.000721558069178)
(0.00301077622187 0.000984752595413 -0.000705472253485)
(0.00409705455156 0.00111893114838 -0.000255204223964)
(0.00460359724438 0.00130070788839 0.000346758929278)
(0.00446206119305 0.00148174080048 0.000866436438049)
(0.00394369482727 0.00163708691636 0.00124789237703)
(0.00309833658001 0.0017851756603 0.00152308663164)
(0.0019905913209 0.00190653259675 0.00163968714389)
(0.000751233525494 0.00196385238807 0.00170554193958)
(-0.00050468386638 0.00196449833065 0.00170646251288)
(-0.00176103160155 0.00190675731973 0.00166453111567)
(-0.00291232957966 0.00178703529361 0.00155590264235)
(-0.00380021499652 0.00163785765649 0.00127297518903)
(-0.00434004560262 0.00147879140329 0.000878349181991)
(-0.00449094704797 0.00129465734855 0.000353188908402)
(-0.00399599086997 0.00111138223327 -0.000248287597515)
(-0.00293089929291 0.000976887297478 -0.00069520562613)
(-0.00140762435679 0.000899501966725 -0.000707423265265)
(-0.000219349599778 0.000855120495841 7.76568712426e-05)
(0.000268373624535 0.000315078425195 6.18928899654e-05)
(0.00152647664527 0.000330125708024 -0.000722247450163)
(0.0031119719117 0.00035583256141 -0.000703617740149)
(0.00422269617099 0.000400070794345 -0.000240628511649)
(0.00474155387922 0.000461361663634 0.000384407405639)
(0.00458620703722 0.000521044377836 0.000917942170823)
(0.00405315434783 0.000570453907232 0.00130849198565)
(0.00319541881473 0.000619987775757 0.00155336649251)
(0.00204782501733 0.000657404924539 0.00169376767093)
(0.000772392783881 0.000676968156126 0.00176715783836)
(-0.000524084490802 0.000678998837341 0.00177556119085)
(-0.00181876941268 0.000657438704791 0.00171393993127)
(-0.00300778603666 0.000621589941416 0.00158685142002)
(-0.00391161214974 0.000571091707338 0.00133542321651)
(-0.00446678537652 0.000519127506533 0.000929591740123)
(-0.0046304879654 0.000457270270947 0.000390343484648)
(-0.0041224696021 0.000394794191014 -0.000233975980467)
(-0.00303240777283 0.000349962124997 -0.000693318358114)
(-0.00147185234009 0.000324038881875 -0.000708319833657)
(-0.000246268268661 0.000308781337401 8.23309737323e-05)
(0.000268371959188 -0.000256858101508 6.23564964915e-05)
(0.00152652279232 -0.000271051468494 -0.000721930853061)
(0.00311225406947 -0.000296479723989 -0.000703254784471)
(0.00422289077497 -0.000340578011111 -0.000240044597337)
(0.0047415017969 -0.000401928476364 0.000385192645645)
(0.00458604252494 -0.000462456572987 0.000918724458328)
(0.00405319082218 -0.000513153652931 0.00131001272918)
(0.00319609973087 -0.000563210877979 0.00155480624591)
(0.00204910652568 -0.000599914588493 0.00169647793527)
(0.000773305940271 -0.000617613103204 0.00177104967012)
(-0.000524122111538 -0.000618956349155 0.00177891522448)
(-0.00181941356474 -0.000597268594891 0.00171679747027)
(-0.00300908373418 -0.000562457919955 0.00158912302664)
(-0.00391300622838 -0.000513763308391 0.00133706600764)
(-0.00446819114526 -0.000463309561555 0.000930977896304)
(-0.0046320228908 -0.000403505977679 0.00039148567942)
(-0.00412376640484 -0.000343145064562 -0.000233027570621)
(-0.00303326270129 -0.000299793997171 -0.000692559507102)
(-0.00147208266103 -0.000274973684019 -0.000707503795368)
(-0.000246314861149 -0.000261488360431 8.31680643136e-05)
(0.000241473617566 -0.00080615252996 5.84993976647e-05)
(0.00146252210423 -0.000849965105998 -0.000720476507751)
(0.00301176153524 -0.000927182784318 -0.000704327107946)
(0.00409795174009 -0.00106077451814 -0.000253444852391)
(0.00460396733908 -0.00124206677766 0.000349376916469)
(0.00446154020598 -0.00142304176836 0.000869816857921)
(0.00394347910876 -0.00157952159875 0.00125152404152)
(0.00309982799446 -0.00172829929808 0.00152641583368)
(0.00199305161416 -0.0018498794716 0.00164532710962)
(0.000753229837333 -0.00190744197061 0.00171371376436)
(-0.000504273725691 -0.00190773554584 0.00171408171849)
(-0.00176259787741 -0.00184976325862 0.00167120751574)
(-0.00291607582898 -0.00173099015709 0.0015601161065)
(-0.00380396239952 -0.00158255876373 0.00127723311227)
(-0.00434405269377 -0.00142482268637 0.000882122313447)
(-0.00449537229652 -0.00124269951644 0.000356498051341)
(-0.00399984061099 -0.00106161883748 -0.000245630486792)
(-0.00293348122682 -0.000928818316817 -0.000692896056827)
(-0.00140837875311 -0.000852641822721 -0.000705069356411)
(-0.000219480165126 -0.000809908864772 8.00762818512e-05)
(0.000188190810171 -0.0012828832182 4.65928133662e-05)
(0.00133499572391 -0.00135576805186 -0.000724409703987)
(0.00281358961212 -0.0014848324928 -0.000717015806245)
(0.00385226569908 -0.00170784748083 -0.000293254898884)
(0.00433762834902 -0.00200074096555 0.000264592944957)
(0.00421661745147 -0.00229472462273 0.000753101703578)
(0.00372081797816 -0.00255535109841 0.00110754396025)
(0.002904049159 -0.00278539971697 0.00141103687672)
(0.00186964639527 -0.00298246391599 0.0015345941896)
(0.000715816584031 -0.00308234928559 0.00157438507773)
(-0.000467696187295 -0.00308213936726 0.00158237027043)
(-0.00164400861743 -0.00298833458268 0.00155705671416)
(-0.00272144447201 -0.00279344582624 0.00144265720749)
(-0.00358059801335 -0.00256238477071 0.00113153795673)
(-0.00409826049532 -0.00229833026579 0.000764347402357)
(-0.00422854469245 -0.00200056164115 0.000270869822852)
(-0.00375461992259 -0.0017078071707 -0.000284459860362)
(-0.0027361735686 -0.00148642512279 -0.000704594017551)
(-0.00128148550077 -0.0013592190928 -0.000707858281079)
(-0.000166495312129 -0.00128766431568 6.90492801138e-05)
(0.000113096623025 -0.00162735402394 2.13994758378e-05)
(0.00115114929786 -0.00172550540942 -0.000739916872405)
(0.00252929044234 -0.0019026436316 -0.000752717087365)
(0.00350009076954 -0.00220601459562 -0.000377460473151)
(0.00396570940496 -0.00259390334478 0.00011232329515)
(0.00387857875417 -0.00298324145498 0.000556225496289)
(0.00341733274895 -0.00332287034802 0.000868305910564)
(0.00267285563238 -0.00362663096751 0.00110861361642)
(0.00171801776323 -0.00385256223959 0.00126080732108)
(0.000663218815181 -0.00396663091325 0.00133009356231)
(-0.000419805269144 -0.00396975730513 0.00133792134588)
(-0.00149639299127 -0.00386215767607 0.00128355059044)
(-0.00249129299052 -0.00364001955527 0.00113867741831)
(-0.00327431410777 -0.00333325478806 0.000889550393649)
(-0.00375575887947 -0.00298667672731 0.00056555501586)
(-0.00385485022502 -0.00259174046999 0.000121364025957)
(-0.00340430547538 -0.00220639377273 -0.000366728080315)
(-0.00245406534604 -0.00190652707795 -0.000739248044125)
(-0.00109916766769 -0.00173248852684 -0.000722571908823)
(-9.20299737415e-05 -0.0016357861347 4.4226366992e-05)
(4.51852050254e-05 -0.00178077408386 -1.55357109781e-05)
(0.000930934031487 -0.0019003721789 -0.000764758741885)
(0.00218002029233 -0.00211330790276 -0.000813737138069)
(0.00306764787369 -0.00247679468276 -0.000510428869115)
(0.00351039015542 -0.00293464630976 -0.000108523456671)
(0.00347748737842 -0.00339975442431 0.000266195065126)
(0.00307768960275 -0.0037998116269 0.000553133774732)
(0.00240999611444 -0.0041385084926 0.000752643747227)
(0.00155689000669 -0.00438694642783 0.000874041404531)
(0.000608332695665 -0.00451656756383 0.000930788559044)
(-0.000372593531216 -0.00452106265187 0.000938216151663)
(-0.00134143010958 -0.00439972899513 0.000893784573773)
(-0.00222804557638 -0.00415508415954 0.000776588984718)
(-0.00292768507641 -0.00381187172642 0.000572011784138)
(-0.00334783003532 -0.00340482618686 0.000280501057765)
(-0.00339949387791 -0.00293759736386 -8.83907581814e-05)
(-0.0029768561412 -0.00248191737454 -0.000496829060839)
(-0.00210896024988 -0.0021223989801 -0.000799867760891)
(-0.000881770349851 -0.0019129313691 -0.000748420276107)
(-2.48175647728e-05 -0.00179416535432 6.56223569168e-06)
(-3.5871319812e-05 -0.00173720104095 -6.88118073357e-05)
(0.000690426881714 -0.00183960820089 -0.000792749195214)
(0.00179388660952 -0.00206114877279 -0.000891436840751)
(0.00258745314289 -0.00244810031645 -0.000678998287574)
(0.00300050466082 -0.00293430393305 -0.000387901123007)
(0.00301362947088 -0.00344333936564 -0.000111041479276)
(0.00268924632964 -0.00389710198116 0.000111771397605)
(0.00211441404751 -0.00426980322502 0.000265238874404)
(0.00137211849703 -0.00453902439385 0.000354748872496)
(0.000542887946186 -0.00468118175097 0.000395955730845)
(-0.000317390050966 -0.00468630413373 0.000401242691981)
(-0.00116299686175 -0.00455248216253 0.000368702335632)
(-0.00193197962887 -0.00428633354027 0.000283213491783)
(-0.0025346926641 -0.00391089795624 0.000128762910485)
(-0.002882433348 -0.00345376852135 -9.46128859429e-05)
(-0.00289049093032 -0.00294542436463 -0.000373518830626)
(-0.00249843814718 -0.00245997440421 -0.000666107101182)
(-0.00172625815449 -0.00207644342093 -0.000879323011896)
(-0.000644043837857 -0.00185825499701 -0.000778701956566)
(5.49703221946e-05 -0.00175650816574 -4.86550182701e-05)
(-8.04045656861e-05 -0.00145737078483 -0.000133139906618)
(0.00048664636171 -0.00152849673926 -0.000811561542347)
(0.00143747898643 -0.00172289547451 -0.000964288104015)
(0.00213258659442 -0.00207831658695 -0.000854493715076)
(0.00251545331021 -0.0025331784374 -0.000677606056665)
(0.00255731627767 -0.00301162500855 -0.000508519073949)
(0.00230143986087 -0.00344303444318 -0.000374905298699)
(0.00181933220217 -0.00379566055019 -0.00028969361443)
(0.00118668384955 -0.0040440513215 -0.000246991534683)
(0.00047636594508 -0.00417289548344 -0.000229696398831)
(-0.000260968633008 -0.00417743513922 -0.000226185223842)
(-0.000983919601376 -0.00405569089449 -0.00023771025021)
(-0.00163811956113 -0.0038106065525 -0.000276702942298)
(-0.00214504302 -0.00345723571068 -0.000361168187792)
(-0.00242478389653 -0.00302452737398 -0.000495570403644)
(-0.00240588492973 -0.00254636056687 -0.000665784852094)
(-0.00204554797274 -0.00209330029158 -0.0008444136825)
(-0.00137266187648 -0.00174108924895 -0.000955824243327)
(-0.00044262888327 -0.00154977345733 -0.000801590899319)
(9.83403439641e-05 -0.00147961433233 -0.000116429279562)
(-7.09784264652e-05 -0.00102280304302 -0.000199894025187)
(0.000374830363102 -0.0010185896371 -0.000792966350636)
(0.00117740360578 -0.00113760699581 -0.000980856978032)
(0.00177769405286 -0.00139793558816 -0.000962869063536)
(0.0021297473616 -0.00175394883228 -0.00088905675485)
(0.00219528854035 -0.00213884437523 -0.00080963201331)
(0.00199848486924 -0.00248695857243 -0.00074807637779)
(0.00159495063194 -0.00277131014332 -0.000711116144461)
(0.00104995906741 -0.00297123777099 -0.000696522859354)
(0.000428112309359 -0.00307465983952 -0.00069295457465)
(-0.000220789740705 -0.00307792640546 -0.000691033163164)
(-0.000852672923661 -0.00297970679836 -0.000690692670364)
(-0.0014156144653 -0.00278245200012 -0.000702481254772)
(-0.00184149803049 -0.0024981888554 -0.000738110470548)
(-0.00206214901852 -0.00214964860577 -0.000799564013079)
(-0.00202066740237 -0.00176510380762 -0.000880386656217)
(-0.00169215235777 -0.00141085450937 -0.000956357550993)
(-0.00111461093258 -0.00115328706985 -0.000976103999661)
(-0.000333060779514 -0.00103720075316 -0.000786584066975)
(8.74282297431e-05 -0.00104378281134 -0.000187011428721)
(-5.25198201944e-06 -0.000482314748803 -0.000237330269646)
(0.000378480776911 -0.000353899982116 -0.000642275269212)
(0.00105868514727 -0.000350178099735 -0.000791753118807)
(0.00158379021416 -0.000462051174555 -0.000809165869648)
(0.00190909652976 -0.000665258126696 -0.000789359712221)
(0.00198338173783 -0.00090470954242 -0.000759956755656)
(0.00182181878263 -0.00112383339279 -0.000733510532862)
(0.0014650904114 -0.00130728977346 -0.000716961689834)
(0.000970756039909 -0.00143549293992 -0.000711501180221)
(0.000399974583624 -0.00150088328133 -0.000711352001262)
(-0.000197749777902 -0.00150255860204 -0.000709996441342)
(-0.000776985853062 -0.00143984360513 -0.000707403208921)
(-0.00128706780059 -0.00131293570974 -0.000710462587727)
(-0.00166451480021 -0.00112936261653 -0.000725565481139)
(-0.00184946429964 -0.000909954953846 -0.000751502620734)
(-0.00179978888 -0.000670508776976 -0.000781435835325)
(-0.00149875089465 -0.000468363350982 -0.000803397480631)
(-0.000997034371048 -0.000358698884856 -0.000787627314966)
(-0.000338835259738 -0.000365480341825 -0.00063736428286)
(2.00752208347e-05 -0.000498217218248 -0.000227508199746)
(0.00013304707469 -0.000124078519934 -0.00023641546234)
(0.000507448310412 1.37615262255e-05 -0.000236634141868)
(0.00106322424928 7.97363282344e-05 -0.000197702246242)
(0.0015126715272 8.92891146251e-05 -0.000130412824091)
(0.00180686170309 4.5327338886e-05 -6.47344743673e-05)
(0.00186377798216 -3.52355218441e-05 -9.56115318746e-06)
(0.00172346569511 -0.000102676673014 2.86501603465e-05)
(0.0013915085144 -0.00017737985055 5.54100608822e-05)
(0.000925665177464 -0.000230728718754 6.88827977132e-05)
(0.000384290893998 -0.000257933449277 7.44972021416e-05)
(-0.00018401276276 -0.000258301941594 7.60647909271e-05)
(-0.000732981497549 -0.000231596044176 7.34621657223e-05)
(-0.00121318030029 -0.000178301115503 6.27995887381e-05)
(-0.00156450275409 -0.000103143174779 3.81618603403e-05)
(-0.00172731087757 -3.57022612056e-05 1.401997311e-06)
(-0.00169514024889 4.5082279515e-05 -5.34660330569e-05)
(-0.00142589551735 8.86486009482e-05 -0.000119760911628)
(-0.00100149434354 7.80907370957e-05 -0.000188510857747)
(-0.000470128587217 1.03315211679e-05 -0.000228379483127)
(-0.000120426867267 -0.000130975402809 -0.000228877943566)
(0.000287670566185 0.000281215138143 -0.00104232711058)
(0.000813810824942 0.000357587040384 -0.00112765305676)
(0.00138903541017 0.000449392681677 -0.00111743504233)
(0.00182986295979 0.000580364695984 -0.00103448328216)
(0.00208795717969 0.000733305842841 -0.000933313511446)
(0.00211027508302 0.000888628997245 -0.00083988895154)
(0.00192224912731 0.00101276335764 -0.000763539137107)
(0.00154309393776 0.00111983003721 -0.000712399848775)
(0.00102353569698 0.00119391745573 -0.000688367335806)
(0.000424637103709 0.00123154917133 -0.000680301523437)
(-0.00020250408558 0.00123254981466 -0.000677285649774)
(-0.000810155831573 0.00119661709578 -0.000679031992957)
(-0.00134658602914 0.00112353333784 -0.000696545322784)
(-0.00174885025632 0.00101685975347 -0.00074206378485)
(-0.0019639774357 0.000893274378964 -0.000814611501091)
(-0.00197101869899 0.000738423607036 -0.000906789588222)
(-0.00174161359298 0.00058640750494 -0.00100912499427)
(-0.00132818590323 0.00045627479375 -0.00109509227263)
(-0.000778406249997 0.000365392217074 -0.00110697574496)
(-0.000277050969619 0.000289868210727 -0.0010230918508)
(0.000361881933277 0.00079924502894 -0.00113047368848)
(0.000901954252735 0.000890425641353 -0.00162328142614)
(0.0014407221454 0.0010342229567 -0.00174571293205)
(0.00183022667245 0.00125336316305 -0.00168840344907)
(0.00203609491684 0.00151430343855 -0.00156540174773)
(0.00203663488384 0.00177840079463 -0.00142865003804)
(0.00184012492662 0.00201117562063 -0.00130956189192)
(0.00147399665817 0.00220041349056 -0.00122343528109)
(0.000981133997663 0.00233322945774 -0.00117429349334)
(0.000411578915745 0.00240227264373 -0.00115336315216)
(-0.000186517851172 0.00240451502978 -0.00115022008831)
(-0.000765491386305 0.00233929365469 -0.00116490132272)
(-0.00127627303779 0.00220870586788 -0.00120808124799)
(-0.00166673383539 0.00202024722833 -0.00128939087229)
(-0.00189136450749 0.00178815456582 -0.00140588819543)
(-0.00192065738232 0.00152552855598 -0.0015427230576)
(-0.00174445507076 0.0012666945525 -0.00166802088399)
(-0.00138296126885 0.0010496228576 -0.00172834359347)
(-0.000868858817745 0.000907273611944 -0.00160575317223)
(-0.000352057559713 0.000816517971923 -0.00110653219646)
(0.000452700920737 0.00136879257295 -0.00112361894096)
(0.0010442860798 0.00142359161595 -0.00174825498569)
(0.00159552714789 0.00158006239865 -0.00185282643138)
(0.00196713448828 0.00183308984946 -0.00170391751267)
(0.00214039455547 0.00213806641431 -0.00146540111987)
(0.00210803420624 0.00244966937676 -0.00121833478789)
(0.00188359920892 0.00272952747442 -0.00100946681229)
(0.00149859318726 0.00295823641845 -0.000858844494597)
(0.000994687840325 0.00312068600229 -0.000768702548289)
(0.000417629067243 0.00320668596825 -0.000727161197274)
(-0.000187624794443 0.00320984037803 -0.000722326508763)
(-0.000775421593038 0.00312907794589 -0.000754773908876)
(-0.00129906802009 0.00296930812357 -0.000837934407766)
(-0.00170963270591 0.00274088255976 -0.000984381625006)
(-0.00196226987031 0.00246118823382 -0.00119144759309)
(-0.00202407553954 0.00215122955844 -0.00143914958721)
(-0.00188068415635 0.00184936109421 -0.00167986329321)
(-0.00153772291751 0.00159959498923 -0.00183133359361)
(-0.00101122132352 0.00144538178298 -0.00172608203026)
(-0.000442588788143 0.00139112724331 -0.001092857814)
(0.000583596219249 0.00180380161667 -0.00104275514343)
(0.00126301462464 0.00180692680481 -0.00169303105778)
(0.00184791701714 0.00194542053207 -0.00170599232506)
(0.00221481103369 0.00219395486157 -0.00141113431446)
(0.00235920698356 0.00250176470477 -0.0010167163565)
(0.0022859664051 0.00282020587766 -0.000632552738286)
(0.00201740803476 0.00310617340178 -0.000316205306561)
(0.00159121793468 0.00334026264599 -9.00630346836e-05)
(0.00105047464398 0.00350712081271 4.65762092965e-05)
(0.000438511433627 0.00359561897614 0.000112076000946)
(-0.000202315760673 0.00359906000617 0.000119553156579)
(-0.000826937731228 0.003516269477 6.72133420133e-05)
(-0.00139014939655 0.00335174724911 -6.09234719824e-05)
(-0.00184343080705 0.00311657467807 -0.000284149353822)
(-0.0021396354693 0.00282939171277 -0.000600634430198)
(-0.00224080390146 0.00251139359 -0.000984713556058)
(-0.00212554536792 0.0022074051378 -0.00137988661447)
(-0.00178787261493 0.00196325169477 -0.00167641696344)
(-0.00122850605379 0.0018279648284 -0.00166218304768)
(-0.00057279590493 0.00182550402405 -0.00100279091656)
(0.000736570346063 0.00205639908058 -0.000943645354662)
(0.00152423660769 0.00200645611121 -0.00157139906215)
(0.00215330312903 0.00211221813548 -0.00146847232794)
(0.00252288503205 0.00233250123969 -0.001017227942)
(0.00264253242627 0.00261760461782 -0.000463486059973)
(0.00252300028588 0.00291111746541 6.13723051377e-05)
(0.00220368757075 0.00318349837144 0.000489582551049)
(0.00172775662892 0.00340965889869 0.000790984347999)
(0.00113451325248 0.00357244744717 0.000978077203342)
(0.000468724262628 0.00365959531411 0.00107145263737)
(-0.000226827127886 0.0036630950839 0.001082419627)
(-0.000907566322266 0.0035818032842 0.00100773739656)
(-0.00152689796506 0.00342063771074 0.000829876885846)
(-0.00203177619309 0.00319131041341 0.000527725722983)
(-0.00237799803809 0.0029146931241 9.51835638506e-05)
(-0.00252263945088 0.00261940173983 -0.000429188876237)
(-0.0024295848592 0.00233868128581 -0.000981447204349)
(-0.00208948061455 0.00212323426742 -0.00143195379134)
(-0.00148700906499 0.00202115835804 -0.00153280812737)
(-0.000724671959696 0.00207218385367 -0.000895342398205)
(0.000892753140774 0.002072006157 -0.000852319920687)
(0.00178949453185 0.00199966462203 -0.00143600820162)
(0.00246676737031 0.00207231819378 -0.00122151070727)
(0.00284462522745 0.00225180708296 -0.000631468303421)
(0.00293835515235 0.00249046050303 6.38067738797e-05)
(0.00278139151546 0.00275030203278 0.000713181523105)
(0.00241956528241 0.00299246519723 0.00121823818905)
(0.00189047421025 0.00319931025298 0.00156723901176)
(0.00123768831828 0.003353505001 0.00179218310461)
(0.000505837443751 0.00343674790427 0.00191602413136)
(-0.000259503432228 0.00343992134184 0.00193227916549)
(-0.00100897960748 0.00336213160082 0.00183521499676)
(-0.00169252326902 0.00321017535296 0.001618495599)
(-0.00225367226295 0.00299860918628 0.0012620589745)
(-0.0026410521544 0.00274931752577 0.000745787474182)
(-0.00281726895942 0.00248744877943 9.58743485112e-05)
(-0.0027462680406 0.00225065500943 -0.000595922667528)
(-0.00239844625051 0.00207482431541 -0.00118215343898)
(-0.0017489266729 0.00200533106734 -0.00139265234696)
(-0.000879168912148 0.00207858717187 -0.000799174992727)
(0.00101730168545 0.00187532153394 -0.000777570829726)
(0.0020235160553 0.00179382492922 -0.00131748983324)
(0.00274854273191 0.00183781168878 -0.00101136532197)
(0.00313196292628 0.00197218031741 -0.000310454928261)
(0.00321312238601 0.0021581322477 0.0005013169135)