/*--------------------------------*- C++ -*----------------------------------*\
| =========                 |                                                 |
| \\      /  F ield         | OpenFOAM: The Open Source CFD Toolbox           |
|  \\    /   O peration     | Version:  3.0.1                                 |
|   \\  /    A nd           | Web:      www.OpenFOAM.org                      |
|    \\/     M anipulation  |                                                 |
\*---------------------------------------------------------------------------*/
FoamFile
{
    version     2.0;
    format      ascii;
    class       volScalarField;
    location    "2.4";
    object      p;
}
// * * * * * * * * * * * * * * * * * * * * * * * * * * * * * * * * * * * * * //

dimensions      [1 -1 -2 0 0 0 0];

internalField   nonuniform List<scalar> 
7968
(
4647.2979094
4647.2905204
4647.24226749
4647.16500288
4647.06628713
4646.95858326
4646.85630143
4646.77036358
4646.70802142
4646.67363351
4646.6692167
4646.69493044
4646.74912617
4646.82773131
4646.92367951
4647.02617531
4647.12073916
4647.19486704
4647.24091479
4647.24681323
4647.29138254
4647.31027427
4647.2752906
4647.20551143
4647.10864804
4646.99995387
4646.89477056
4646.80622795
4646.74216581
4646.70689973
4646.70242774
4646.72893569
4646.78481597
4646.86605646
4646.96499216
4647.06851097
4647.16122204
4647.22779653
4647.26040967
4647.23959523
4647.24441911
4647.27645362
4647.24141851
4647.162518
4647.0483594
4646.91851449
4646.79269428
4646.68668127
4646.61029073
4646.56863287
4646.56397962
4646.59656786
4646.66458503
4646.76324852
4646.88285025
4647.00753222
4647.11751287
4647.19310933
4647.22564503
4647.19145632
4647.16860019
4647.20813675
4647.16394802
4647.06318503
4646.91826815
4646.75499836
4646.59883643
4646.46854093
4646.37543007
4646.32515068
4646.3202199
4646.3609473
4646.44536439
4646.56820971
4646.71817553
4646.87632006
4647.0170247
4647.11439821
4647.15596152
4647.11409137
4647.07163695
4647.11288241
4647.05142586
4646.91984458
4646.73723837
4646.5370926
4646.34986798
4646.19610885
4646.0872385
4646.02878823
4646.02353481
4646.07186996
4646.17167212
4646.31786031
4646.49892548
4646.69402544
4646.87239102
4647.00048337
4647.05921796
4647.01552283
4646.96588097
4647.00614403
4646.9234248
4646.75835155
4646.53876809
4646.30507555
4646.091335
4645.91850004
4645.79709742
4645.73206749
4645.72648072
4645.78082648
4645.89275181
4646.05788622
4646.26556872
4646.49432733
4646.70967336
4646.87121238
4646.95116613
4646.90836654
4646.86577561
4646.903064
4646.79964892
4646.6042159
4646.35358568
4646.09336321
4645.86004307
4645.67447662
4645.54501818
4645.47576608
4645.46987926
4645.52793695
4645.64746809
4645.82516369
4646.05251574
4646.30794275
4646.55443618
4646.74636863
4646.84696398
4646.80714551
4646.78220039
4646.81685875
4646.69597382
4646.47632885
4646.20233013
4645.92313916
4645.67721192
4645.48560472
4645.35511796
4645.28573142
4645.27961744
4645.33735651
4645.45748713
4645.64102621
4645.8810541
4646.15559048
4646.4255878
4646.64184504
4646.75993699
4646.72276011
4646.7223686
4646.75532852
4646.62219362
4646.38600937
4646.09643507
4645.80492907
4645.55120869
4645.35874574
4645.22913929
4645.15978785
4645.1535493
4645.21090609
4645.32981542
4645.51406616
4645.76192243
4646.04884837
4646.33450016
4646.56742296
4646.69781891
4646.66236431
4646.69053349
4646.72266296
4646.58325728
4646.33865448
4646.04113561
4645.74327296
4645.48556244
4645.29319434
4645.16375937
4645.09411291
4645.08777649
4645.14536077
4645.26394738
4645.44797981
4645.69981328
4645.99307714
4646.28668146
4646.528074
4646.66477081
4646.63016951
4646.68857385
4646.72070079
4646.58122958
4646.33652904
4646.03890022
4645.74092854
4645.48312545
4645.29071286
4645.16125876
4645.09161119
4645.08532883
4645.14296337
4645.26157479
4645.44562371
4645.69748486
4645.99078902
4646.2844416
4646.52588593
4646.66262389
4646.62802944
4646.71654197
4646.74949454
4646.61617009
4646.3797041
4646.08980807
4645.79798287
4645.54400531
4645.35141714
4645.22177919
4645.15243645
4645.14628711
4645.2037484
4645.32272229
4645.50701618
4645.75497048
4646.04202733
4646.32782708
4646.56091091
4646.69143486
4646.65600192
4646.77267317
4646.80731831
4646.6861327
4646.46603786
4646.1915299
4645.91181831
4645.66546644
4645.47358677
4645.34301641
4645.27363872
4645.26761337
4645.32547016
4645.4457018
4645.62937162
4645.86959152
4646.1443796
4646.41463545
4646.63117572
4646.7494927
4646.71235988
4646.85283244
4646.89010433
4646.78629879
4646.59027716
4646.33897532
4646.07801397
4645.84405715
4645.65804278
4645.52832355
4645.45899572
4645.45315658
4645.5113483
4645.63108145
4645.80902913
4646.03674925
4646.29262884
4646.53950024
4646.73184465
4646.83276291
4646.79302072
4646.94994998
4646.99019953
4646.90701791
4646.74125784
4646.52094328
4646.28625617
4646.0716498
4645.89817019
4645.77634902
4645.71112442
4645.70550642
4645.75996893
4645.87214525
4646.03767169
4646.24593936
4646.47542189
4646.69122775
4646.85329862
4646.93366209
4646.8909938
4647.05321783
4647.0944479
4647.03249305
4646.90011457
4646.71657878
4646.51547949
4646.32721302
4646.17266809
4646.06325644
4646.00449608
4645.99912161
4646.04752363
4646.14757858
4646.29422604
4646.47600673
4646.67183547
4646.85094304
4646.97976837
4647.03903718
4646.99547137
4647.14827166
4647.18778176
4647.1430774
4647.04145646
4646.89549893
4646.73117133
4646.57399226
4646.44287094
4646.34915837
4646.2984796
4646.29334333
4646.33407059
4646.4186927
4646.54199116
4646.69266769
4646.85166917
4646.99331338
4647.09155494
4647.13372951
4647.09200041
4647.22272112
4647.25473209
4647.21916953
4647.13940732
4647.02420164
4646.89328516
4646.76646649
4646.65962199
4646.5825888
4646.5404748
4646.53555238
4646.56808025
4646.63626722
4646.73536751
4646.85568184
4646.98127881
4647.09227325
4647.16880552
4647.20198842
4647.1679326
4647.26886485
4647.28765335
4647.25214383
4647.18152151
4647.08365093
4646.97393266
4646.86781314
4646.77848971
4646.71380784
4646.67807933
4646.67330406
4646.69969804
4646.75569147
4646.83731931
4646.93693501
4647.04134472
4647.1350927
4647.20259626
4647.23586499
4647.21523247
4647.27496291
4647.26738353
4647.21857334
4647.14049034
4647.04082521
4646.93215832
4646.82901575
4646.74235784
4646.67943797
4646.64460821
4646.6398841
4646.66546016
4646.71973255
4646.79867474
4646.89524607
4646.99859894
4647.09412373
4647.16913246
4647.21582298
4647.22190974
4157.68759573
4157.66664827
4157.60573662
4157.51646365
4157.408887
4157.29522623
4157.18862381
4157.09978877
4157.03564307
4157.00027497
4156.99567252
4157.0220029
4157.07765157
4157.1588455
4157.2588873
4157.36718059
4157.47058104
4157.55680408
4157.61559581
4157.63513324
4157.66761463
4157.67143983
4157.62089738
4157.5393354
4157.44051352
4157.33634991
4157.23789428
4157.15550401
4157.09560558
4157.06222703
4157.05758441
4157.0818556
4157.13320099
4157.20791203
4157.29977292
4157.39846361
4157.4930537
4157.57149832
4157.61981714
4157.61417219
4157.60790041
4157.62201653
4157.56543456
4157.47208925
4157.36033149
4157.24324222
4157.13326784
4157.04097406
4156.97363479
4156.93609779
4156.93128896
4156.95942502
4157.01801583
4157.10254848
4157.20587019
4157.31744933
4157.42484213
4157.51495809
4157.56919766
4157.55293652
4157.52029972
4157.54194287
4157.47357648
4157.35953916
4157.22553094
4157.08760241
4156.95989655
4156.85284655
4156.77436816
4156.73045911
4156.72539519
4156.75945345
4156.82887696
4156.92805464
4157.04909235
4157.18145841
4157.31094843
4157.42158194
4157.48745854
4157.46345779
4157.4146074
4157.44504675
4157.36360679
4157.22736162
4157.07188948
4156.91594374
4156.77645435
4156.66035144
4156.57517541
4156.52729794
4156.52197996
4156.55951436
4156.63528495
4156.74337258
4156.87613856
4157.02656638
4157.17736874
4157.31008072
4157.38887869
4157.35592203
4157.30302181
4157.34289023
4157.24853522
4157.09136413
4156.91758777
4156.75253701
4156.60668831
4156.48712711
4156.39856047
4156.34782841
4156.34225951
4156.38220652
4156.46103124
4156.57243601
4156.71160244
4156.87141892
4157.040127
4157.19362763
4157.28519365
4157.24277576
4157.19867635
4157.24668962
4157.1408467
4156.96598503
4156.78075773
4156.6090125
4156.46258014
4156.34282422
4156.25299513
4156.20049725
4156.19473632
4156.23626616
4156.31596587
4156.42724114
4156.56685059
4156.73294608
4156.91353669
4157.08480961
4157.18791041
4157.13729088
4157.11229456
4157.16682397
4157.0511587
4156.86164273
4156.6675584
4156.49236696
4156.34591065
4156.22865509
4156.13484343
4156.07889151
4156.07293046
4156.11749218
4156.2008483
4156.30942144
4156.4490285
4156.61847861
4156.80815512
4156.99420106
4157.10723941
4157.05015368
4157.05076554
4157.10964716
4156.98668402
4156.7861967
4156.58573163
4156.40733582
4156.25995827
4156.13881933
4156.04164821
4155.98442657
4155.9785118
4156.02375622
4156.11009979
4156.22237534
4156.36301884
4156.53567686
4156.73195956
4156.92904622
4157.0495055
4156.98814791
4157.01806927
4157.07904555
4156.9520894
4156.74542896
4156.54128003
4156.36021918
4156.21128459
4156.08705537
4155.98881002
4155.93105754
4155.92487198
4155.97083315
4156.05792226
4156.17318314
4156.31548871
4156.49074215
4156.69079034
4156.89404758
4157.0185639
4156.95516404
4157.01606131
4157.07707751
4156.95008984
4156.74336726
4156.53917384
4156.35806772
4156.20906002
4156.0848327
4155.98660515
4155.9288802
4155.9227685
4155.96875466
4156.05584395
4156.17113816
4156.31340423
4156.48864061
4156.68867538
4156.89194771
4157.01645798
4156.95300832
4157.04479243
4157.10378941
4156.98074025
4156.78008246
4156.57947674
4156.40093648
4156.25349464
4156.13233042
4156.03520049
4155.97805512
4155.9722646
4156.0175546
4156.10390755
4156.21620397
4156.35677518
4156.52939979
4156.72565953
4156.92278492
4157.04323591
4156.98173742
4157.10252466
4157.15722831
4157.04142593
4156.85164901
4156.65733228
4156.48187738
4156.33526461
4156.21800554
4156.12417939
4156.06831153
4156.06247153
4156.10709556
4156.19059263
4156.29905308
4156.43865153
4156.60810689
4156.79777587
4156.98390143
4157.09695846
4157.03966709
4157.18540073
4157.23361438
4157.12758215
4156.95237395
4156.76683885
4156.59459043
4156.44789661
4156.32799779
4156.23813229
4156.18565666
4156.18001877
4156.22162787
4156.30132913
4156.41267314
4156.55238193
4156.71865594
4156.89927034
4157.07069754
4157.17388221
4157.12303086
4157.28669106
4157.32672642
4157.2321332
4157.07455936
4156.90085229
4156.73468399
4156.58826489
4156.46833863
4156.37957137
4156.32879997
4156.3232502
4156.36324788
4156.44219227
4156.55379696
4156.69334281
4156.85407839
4157.02236055
4157.17610114
4157.26785389
4157.22522016
4157.39578782
4157.4263815
4157.34456721
4157.20771029
4157.05166026
4156.89515465
4156.75483677
4156.63823648
4156.55273678
4156.50470192
4156.49931749
4156.53687257
4156.61277861
4156.72114398
4156.8546005
4157.00523411
4157.15640539
4157.28963304
4157.3687722
4157.3356729
4157.49959567
4157.52132203
4157.45247679
4157.33767907
4157.20287848
4157.06413272
4156.93566089
4156.82800211
4156.74904618
4156.70481095
4156.69959354
4156.73367774
4156.80327672
4156.90277762
4157.0243338
4157.15729843
4157.28748128
4157.39885711
4157.46523613
4157.44119061
4157.58591999
4157.60000541
4157.54287882
4157.44868586
4157.3360129
4157.21802233
4157.10724784
4157.01431115
4156.94647223
4156.90857426
4156.90354475
4156.93161128
4156.99030545
4157.07515122
4157.17903885
4157.29138467
4157.39965768
4157.49064076
4157.54550901
4157.52932216
4157.64481306
4157.64853909
4157.59742612
4157.5149932
4157.41521089
4157.31011096
4157.21083348
4157.12779774
4157.06740062
4157.03364599
4157.02873419
4157.05287012
4157.10426399
4157.17927546
4157.27173928
4157.37130081
4157.46683236
4157.54622452
4157.59524162
4157.58973202
4157.66443862
4157.64330758
4157.58179092
4157.49163707
4157.383075
4157.26845117
4157.16102175
4157.07154062
4157.00689894
4156.97115018
4156.96626261
4156.99243684
4157.04811836
4157.12960842
4157.23025915
4157.33942815
4157.44382436
4157.53099515
4157.59051278
4157.61028027
3668.15087646
3668.12445297
3668.05775961
3667.96242608
3667.85005616
3667.73306811
3667.62406008
3667.53340685
3667.46812035
3667.43211109
3667.42721484
3667.45359994
3667.50983515
3667.5923759
3667.6944965
3667.80597325
3667.9142127
3668.00667675
3668.071484
3668.09657353
3668.12554652
3668.13190818
3668.08105636
3667.99804603
3667.90213838
3667.80327399
3667.71065841
3667.63298323
3667.5763344
3667.544527
3667.53964537
3667.56184071
3667.60942081
3667.67893319
3667.76457977
3667.85778191
3667.94943195
3668.02949586
3668.07825118
3668.06987812
3668.06019398
3668.08222421
3668.0250686
3667.92550493
3667.8128702
3667.6989424
3667.59395445
3667.50716171
3667.44496145
3667.410434
3667.40531391
3667.42980644
3667.48267298
3667.56122351
3667.65920235
3667.7673707
3667.8756104
3667.97215054
3668.02702129
3668.00243019
3667.96663334
3668.00077819
3667.9269821
3667.79537262
3667.64932053
3667.50491655
3667.37432563
3667.26906749
3667.19676115
3667.15766481
3667.15216978
3667.18058682
3667.24312694
3667.34016767
3667.46378983
3667.6022271
3667.74365729
3667.8721004
3667.94341924
3667.90636386
3667.85625973
3667.9067991
3667.81620082
3667.65115397
3667.47044498
3667.2944926
3667.12379059
3667.00376502
3666.93393257
3666.89171112
3666.88595666
3666.91680854
3666.99871326
3667.11650853
3667.25281
3667.42219926
3667.59782389
3667.75944934
3667.84737253
3667.79365494
3667.74144263
3667.81010768
3667.704393
3667.50873387
3667.2965733
3667.0491523
3666.82307061
3666.71839113
3666.67045704
3666.62752625
3666.62168577
3666.65300963
3666.76966001
3666.94314979
3667.08579051
3667.24793557
3667.45435225
3667.64615104
3667.74897977
3667.67700091
3667.63477187
3667.71987723
3667.60172824
3667.38002593
3667.12690248
3666.76948669
3666.51199305
3666.43993541
3666.41378708
3666.37165436
3666.36613923
3666.39589684
3666.54925927
3666.79970271
3666.98523376
3667.10678167
3667.32531136
3667.5425054
3667.65763131
3667.56915811
3667.54666246
3667.64488255
3667.51768101
3667.27733695
3666.97921949
3666.55211914
3666.29176398
3666.21691044
3666.20123411
3666.16236439
3666.15755777
3666.18620651
3666.35916219
3666.6710171
3666.90344636
3667.00856071
3667.22217879
3667.45772059
3667.58197517
3667.48045338
3667.48412622
3667.59115129
3667.45862145
3667.2085018
3666.88905566
3666.4458992
3666.18149305
3666.10828318
3666.09932616
3666.06247561
3666.05639574
3666.08642501
3666.25978704
3666.58402553
3666.83182621
3666.9397209
3667.15258969
3667.39807291
3667.52788016
3667.41767003
3667.45096269
3667.56232576
3667.42734985
3667.17306626
3666.85103709
3666.40737315
3666.14313044
3666.0708242
3666.06123261
3666.02626117
3666.02213165
3666.04816042
3666.22248293
3666.54426909
3666.79142275
3666.90073743
3667.11670171
3667.36646012
3667.49885584
3667.38438887
3667.44888199
3667.5603412
3667.42535189
3667.17101921
3666.84896726
3666.40512584
3666.14051629
3666.06715116
3666.05696187
3666.0213146
3666.0177749
3666.04437164
3666.21851132
3666.54061577
3666.78852492
3666.89856728
3667.11468001
3667.3644208
3667.49677657
3667.38220151
3667.47792905
3667.58522285
3667.45266194
3667.20242064
3666.88289299
3666.43930747
3666.17296773
3666.09741575
3666.08774634
3666.05068765
3666.04449566
3666.07442305
3666.24809362
3666.5732878
3666.82307793
3666.9331629
3667.14651852
3667.39197105
3667.5216835
3667.41116556
3667.53652515
3667.63514689
3667.50787247
3667.26724269
3666.96695063
3666.53439588
3666.26653082
3666.18515998
3666.16791225
3666.13018209
3666.12563625
3666.15420155
3666.32816055
3666.64419547
3666.88365703
3666.99618073
3667.21199425
3667.4476272
3667.57180176
3667.46981484
3667.62101156
3667.70658725
3667.58828859
3667.36612379
3667.10999174
3666.74099314
3666.46642042
3666.38331465
3666.35449557
3666.31413964
3666.30939585
3666.33975716
3666.49608682
3666.75461302
3666.95617537
3667.09006269
3667.3111038
3667.52858065
3667.6437179
3667.55469468
3667.72456895
3667.79369181
3667.68770973
3667.49132446
3667.27787999
3667.02357469
3666.7809324
3666.66275811
3666.61133284
3666.56935219
3666.56442804
3666.59663021
3666.71675376
3666.90187706
3667.06020361
3667.22897139
3667.43636255
3667.62872952
3667.73173464
3667.6592146
3667.83691148
3667.88784374
3667.79684354
3667.63096001
3667.4493164
3667.27246247
3667.09910802
3666.97414719
3666.90207682
3666.8600227
3666.85446275
3666.88554672
3666.96926447
3667.09134524
3667.23025054
3667.40033971
3667.57673545
3667.73910254
3667.82737046
3667.77320526
3667.94548849
3667.97989175
3667.90558445
3667.77303082
3667.62602117
3667.48075198
3667.34955176
3667.2438285
3667.17136033
3667.13212206
3667.12654589
3667.15491053
3667.21735744
3667.31467566
3667.43870863
3667.57782739
3667.72012525
3667.84948769
3667.92132176
3667.88397895
3668.03790388
3668.06003365
3668.00228508
3667.90172181
3667.78807013
3667.67324276
3667.56756308
3667.48029284
3667.41775046
3667.38297366
3667.37768329
3667.40208622
3667.45496344
3667.53374145
3667.63222902
3667.74119076
3667.85042041
3667.94799165
3668.0035192
3667.97881765
3668.10257872
3668.10888865
3668.05738225
3667.97335304
3667.87638491
3667.77657317
3667.68321702
3667.6050519
3667.54807676
3667.5160273
3667.51091804
3667.53293056
3667.58045529
3667.65017785
3667.73639117
3667.83048207
3667.92320712
3668.00436998
3668.05390314
3668.04557496
3668.12757536
3668.10096283
3668.03350667
3667.93710584
3667.82359361
3667.70556202
3667.59574084
3667.50454703
3667.43891922
3667.40265606
3667.39751055
3667.42368679
3667.47986061
3667.56263951
3667.66538879
3667.77784238
3667.8872498
3667.98086088
3668.04654109
3668.07193131
3178.67789907
3178.64854066
3178.5807262
3178.48486888
3178.37238391
3178.25550353
3178.14649347
3178.05552117
3177.98996684
3177.95373693
3177.94843828
3177.97423136
3178.02995847
3178.1121651
3178.21385796
3178.32509691
3178.43361512
3178.52694624
3178.59319128
3178.62141978
3178.64979882
3178.6562642
3178.60932001
3178.53057626
3178.44006549
3178.34588702
3178.25685965
3178.18115478
3178.1257225
3178.09453001
3178.08933227
3178.11022779
3178.15588497
3178.22276868
3178.30434125
3178.39266533
3178.4789846
3178.55503701
3178.60004922
3178.59134052
3178.58353259
3178.61060959
3178.55928298
3178.45924993
3178.34267907
3178.22269573
3178.1113955
3178.02108794
3177.95895098
3177.92543795
3177.91986725
3177.94245051
3177.99454787
3178.07594224
3178.17967637
3178.29354418
3178.40575572
3178.50311848
3178.55226423
3178.52212795
3178.48960217
3178.53353545
3178.46078549
3178.31386135
3178.14137338
3177.93756399
3177.7435813
3177.64687933
3177.59536736
3177.55778015
3177.55170971
3177.57743122
3177.66849691
3177.81339916
3177.94268772
3178.09018835
3178.25768303
3178.40184296
3178.47225452
3178.4246961
3178.37927044
3178.44502953
3178.34614604
3178.14316772
3177.84043311
3177.46227727
3177.20153724
3177.11782481
3177.08778129
3177.04903835
3177.04340431
3177.07092931
3177.22468353
3177.51139385
3177.75515563
3177.90265373
3178.08535904
3178.28475397
3178.38106247
3178.31117964
3178.26468784
3178.35314791
3178.22832549
3177.94086666
3177.39337322
3176.87607922
3176.57991265
3176.45956088
3176.42719036
3176.39144895
3176.38854639
3176.41649675
3176.62041488
3177.06458427
3177.53628078
3177.81010732
3177.93277002
3178.16546284
3178.28717876
3178.19427742
3178.15809317
3178.26660088
3178.1191809
3177.69411396
3176.93639998
3176.39174865
3176.00442163
3175.85089643
3175.82858985
3175.8008376
3175.80188442
3175.83083754
3176.04272096
3176.55673932
3177.22139369
3177.7300248
3177.8440621
3178.05598942
3178.19962347
3178.08647745
3178.06975288
3178.19372142
3178.0315783
3177.48352844
3176.64736862
3176.06483617
3175.63448702
3175.50813553
3175.50426515
3175.48553238
3175.48943783
3175.51592662
3175.72172386
3176.21574545
3176.94680195
3177.61325477
3177.79155171
3177.96831905
3178.12648952
3177.99787088
3178.00711077
3178.14145556
3177.97273241
3177.38110903
3176.52831449
3175.9286946
3175.49783134
3175.38205891
3175.39014786
3175.37828178
3175.3834457
3175.40475322
3175.6012974
3176.08566769
3176.82033528
3177.52787158
3177.73863358
3177.90920892
3178.07432184
3177.93545131
3177.97395139
3178.11352539
3177.94282522
3177.34760114
3176.49267236
3175.8915891
3175.46115545
3175.34850488
3175.36263067
3175.35409271
3175.35892154
3175.37737435
3175.5679552
3176.0477821
3176.78141174
3177.48968212
3177.70390999
3177.87907113
3178.04647663
3177.90250259
3177.97178126
3178.11154183
3177.94080999
3177.34556147
3176.48990301
3175.88679792
3175.4528113
3175.33780895
3175.35122135
3175.34277186
3175.34767881
3175.36611216
3175.55701693
3176.03819197
3176.77438335
3177.48490973
3177.70113602
3177.87705298
3178.04441953
3177.90026086
3178.00063341
3178.13548073
3177.96668061
3177.37498574
3176.51979589
3175.91279596
3175.47226767
3175.34997188
3175.35586935
3175.34391426
3175.34939067
3175.37093655
3175.56842211
3176.05702532
3176.79949886
3177.51354477
3177.73024288
3177.90316139
3178.06820161
3177.9287989
3178.05916088
3178.18386418
3178.0215506
3177.46865678
3176.62147045
3176.02300433
3175.57738436
3175.44045876
3175.4330834
3175.41434425
3175.41885361
3175.44619336
3175.65396104
3176.15570145
3176.90022896
3177.58059834
3177.77455958
3177.95828852
3178.11645108
3177.98701296
3178.1437399
3178.25310091
3178.10536809
3177.66969074
3176.88764288
3176.3157815
3175.909363
3175.74356419
3175.71709064
3175.69055141
3175.69270885
3175.72269651
3175.93727681
3176.46064808
3177.14292481
3177.67723657
3177.81966593
3178.04209942
3178.18587505
3178.07174807
3178.24717021
3178.3364727
3178.21117654
3177.917976
3177.34288305
3176.78587417
3176.46342663
3176.32970153
3176.29440286
3176.26090767
3176.25954883
3176.28926929
3176.49622911
3176.95054776
3177.44577883
3177.75855663
3177.91013439
3178.14802734
3178.27011295
3178.17622488
3178.35934647
3178.42580934
3178.32629196
3178.12197496
3177.80756745
3177.39537029
3177.09611075
3176.99213432
3176.95809033
3176.92142779
3176.91784514
3176.94748948
3177.10592539
3177.40979841
3177.68899934
3177.86952437
3178.06375243
3178.26439794
3178.36127405
3178.29054568
3178.46805691
3178.51245969
3178.43899456
3178.29068886
3178.11681783
3177.90745568
3177.69816489
3177.58594615
3177.52944433
3177.49248808
3177.48719425
3177.51380608
3177.60958501
3177.76774099
3177.91171034
3178.06499672
3178.23379286
3178.37932254
3178.45046077
3178.40231447
3178.56105566
3178.58837011
3178.53630657
3178.43496204
3178.31711345
3178.19610109
3178.08410573
3177.99350163
3177.93105777
3177.89733177
3177.89164774
3177.91416162
3177.96628423
3178.04783247
3178.15217111
3178.26701776
3178.38051034
3178.47925399
3178.52921167
3178.49876439
3178.62687075
3178.63330213
3178.58554802
3178.50554508
3178.41378209
3178.31860032
3178.22893429
3178.15299642
3178.09757099
3178.06639385
3178.06101219
3178.08158
3178.12693852
3178.19385999
3178.27595503
3178.36525644
3178.45287361
3178.53029731
3178.57623918
3178.56752983
3178.65486991
3178.62506271
3178.55622148
3178.45896386
3178.34505284
3178.2269699
3178.11715476
3178.02583492
3177.96026283
3177.92403767
3177.91853233
3177.9439632
3177.99939717
3178.08171148
3178.18406476
3178.2964745
3178.40648225
3178.50132392
3178.5687138
3178.59737304
2689.27678879
2689.24601919
2689.18311761
2689.09472643
2688.99047962
2688.88074866
2688.77727994
2688.69011363
2688.62690176
2688.59177837
2688.58601073
2688.60974631
2688.66219952
2688.73987579
2688.83559399
2688.93963969
2689.04021573
2689.12659497
2689.1883301
2689.21792597
2689.24746293
2689.24172748
2689.19558243
2689.12182232
2689.03536977
2688.94325985
2688.85486894
2688.77786123
2688.72158955
2688.69060427
2688.68514018
2688.7050412
2688.75068825
2688.81794252
2688.89824601
2688.98430941
2689.0668003
2689.138321
2689.18284557
2689.1861673
2689.18633845
2689.19701876
2689.14260994
2689.04199637
2688.92021494
2688.7612257
2688.60446289
2688.53102063
2688.49236155
2688.46052403
2688.45462789
2688.47474402
2688.55245739
2688.6728337
2688.76360309
2688.86622813
2688.98373236
2689.08241852
2689.13514463
2689.12099768
2689.10008635
2689.12508261
2689.04367474
2688.87946526
2688.57216626
2688.24991042
2688.02728628
2687.93997832
2687.91330801
2687.88130147
2687.87646073
2687.89863579
2688.03918293
2688.30886988
2688.56583796
2688.71731803
2688.81970246
2688.97924361
2689.05911721
2689.02990699
2688.99817215
2689.04081921
2688.92398758
2688.57118038
2687.98858394
2687.50900825
2687.17443124
2687.02507052
2686.99056175
2686.96486343
2686.96462808
2686.98924248
2687.18082241
2687.61810154
2688.17014905
2688.59210877
2688.7142564
2688.85615389
2688.97112765
2688.92367435
2688.89086715
2688.95118831
2688.76757627
2688.08399731
2687.35728485
2686.72859244
2686.23869333
2686.06092874
2686.04392006
2686.03524554
2686.04327118
2686.06876672
2686.26976367
2686.77114146
2687.52619368
2688.2966428
2688.69980756
2688.74740255
2688.87903293
2688.81338578
2688.7898213
2688.86535677
2688.55927695
2687.63564795
2686.83473118
2686.04481333
2685.53178407
2685.3468077
2685.35151313
2685.36158
2685.37703454
2685.39935431
2685.59544695
2686.12553195
2686.92522124
2687.89811217
2688.63207163
2688.69583953
2688.79249152
2688.71117475
2688.70527465
2688.79125996
2688.37238738
2687.37270478
2686.49307167
2685.65850497
2685.13496069
2684.97633855
2685.00232259
2685.02517404
2685.04431368
2685.05881807
2685.23755436
2685.7493735
2686.58029371
2687.6131647
2688.50652211
2688.66733651
2688.7190429
2688.62703324
2688.64512187
2688.73849247
2688.28276276
2687.26575704
2686.35729177
2685.52321409
2685.00868184
2684.8665588
2684.91338025
2684.95035494
2684.97268119
2684.97212581
2685.13190193
2685.62620457
2686.45232879
2687.49020522
2688.42481165
2688.62765915
2688.66751555
2688.56805823
2688.61330968
2688.71107288
2688.25474036
2687.23482811
2686.32252601
2685.49069093
2684.98194006
2684.84758438
2684.90962216
2684.95216294
2684.9722876
2684.96815091
2685.11238415
2685.59849641
2686.41869998
2687.4539718
2688.39119839
2688.59860008
2688.64077069
2688.5370869
2688.6110516
2688.70917648
2688.25273117
2687.23133852
2686.31414899
2685.47608774
2684.96152224
2684.82420871
2684.88538669
2684.92848735
2684.9482685
2684.94377768
2685.08892372
2685.57751617
2686.40266847
2687.44411991
2688.38547757
2688.59586271
2688.63870706
2688.53476307
2688.63837561
2688.73254627
2688.27663569
2687.25514731
2686.33219418
2685.47933754
2684.94883435
2684.79673304
2684.83971845
2684.87611596
2684.89942486
2684.89972221
2685.06135935
2685.56321917
2686.40404673
2687.45969019
2688.40739456
2688.61927672
2688.66137674
2688.5612293
2688.69427458
2688.78135953
2688.35738167
2687.34437988
2686.43923782
2685.57371778
2685.02305649
2684.84962602
2684.86958241
2684.88996179
2684.91019087
2684.9272023
2685.10977888
2685.63360041
2686.48953791
2687.55166048
2688.46990864
2688.65056578
2688.70913219
2688.61595793
2688.77494235
2688.85164689
2688.53487136
2687.58634346
2686.74750016
2685.9181657
2685.37127567
2685.16716646
2685.16638993
2685.17672825
2685.19365844
2685.21677626
2685.41612017
2685.96275897
2686.79418785
2687.80504965
2688.57662192
2688.67207055
2688.77894249
2688.69623152
2688.87283183
2688.9342591
2688.74505785
2688.02933803
2687.25443443
2686.58348458
2686.05752737
2685.85823422
2685.83557328
2685.82830244
2685.83811626
2685.86567022
2686.07159642
2686.59091279
2687.3792246
2688.19021469
2688.64245325
2688.72563481
2688.86222637
2688.79519359
2688.9779037
2689.02142608
2688.90339025
2688.52950998
2687.89854404
2687.37088006
2687.0032723
2686.83465639
2686.79500644
2686.77135413
2686.77359952
2686.80109032
2686.99737134
2687.45038185
2688.03264036
2688.5013648
2688.6733272
2688.83562583
2688.95170043
2688.90308722
2689.07846084
2689.10400473
2689.02139954
2688.85462558
2688.52673055
2688.15635017
2687.89054459
2687.78347701
2687.75259071
2687.72241726
2687.71980089
2687.74466194
2687.89029308
2688.17761112
2688.47430152
2688.67094123
2688.79466063
2688.956774
2689.03787844
2689.00786214
2689.16403642
2689.17500204
2689.11955618
2689.01710682
2688.89359033
2688.72910758
2688.55698626
2688.46756877
2688.42360739
2688.39225086
2688.38706582
2688.40807386
2688.49038561
2688.62439987
2688.73025289
2688.83907542
2688.95836892
2689.0590336
2689.11291558
2689.09831836
2689.22493927
2689.21913441
2689.1719518
2689.09660619
2689.00859065
2688.9153711
2688.82648126
2688.74975062
2688.69424365
2688.66385834
2688.65821154
2688.67741462
2688.72205789
2688.78899275
2688.8697207
2688.95690603
2689.04102457
2689.11431843
2689.16002375
2689.16334205
2689.25429216
2689.22285871
2689.15857431
2689.06834139
2688.96231999
2688.85116767
2688.74689983
2688.65972322
2688.59721252
2688.56264736
2688.55670402
2688.57966911
2688.63127042
2688.70876952
2688.8051703
2688.91067102
2689.01317844
2689.1015377
2689.16479505
2689.19502889
2199.9493315
2199.9187086
2199.86717169
2199.79439324
2199.70657582
2199.61185512
2199.52119136
2199.44439177
2199.38771859
2199.3558753
2199.34955115
2199.36893203
2199.41374434
2199.48055881
2199.56329375
2199.65263479
2199.73743764
2199.8092738
2199.86048546
2199.89007945
2199.9204376
2199.88831534
2199.83760633
2199.76836671
2199.68801043
2199.60049786
2199.49951852
2199.42432223
2199.3780807
2199.34790808
2199.34196255
2199.35994491
2199.415852
2199.48675774
2199.55130321
2199.63298602
2199.71026474
2199.77813703
2199.82804513
2199.85785764
2199.87083197
2199.83927187
2199.77478762
2199.67859731
2199.50009634
2199.28173223
2199.13860073
2199.05947412
2199.03198922
2199.00535097
2199.00006993
2199.01631157
2199.11162284
2199.28681575
2199.46713412
2199.5530192
2199.61406072
2199.71030123
2199.77443526
2199.8027144
2199.80039384
2199.77211127
2199.68054838
2199.41177033
2199.00927763
2198.61254933
2198.33707505
2198.21246563
2198.18930962
2198.17459243
2198.17535245
2198.1914985
2198.33482717
2198.67641718
2199.10977505
2199.42336205
2199.54126697
2199.60881477
2199.70141851
2199.72547154
2199.71517245
2199.69421014
2199.50489178
2198.91534293
2198.31935356
2197.7426361
2197.28827576
2197.09507337
2197.07708564
2197.08503259
2197.09612276
2197.11075766
2197.27794939
2197.72872783
2198.38279781
2199.06984009
2199.49948316