/*--------------------------------*- C++ -*----------------------------------*\
| =========                 |                                                 |
| \\      /  F ield         | OpenFOAM: The Open Source CFD Toolbox           |
|  \\    /   O peration     | Version:  3.0.1                                 |
|   \\  /    A nd           | Web:      www.OpenFOAM.org                      |
|    \\/     M anipulation  |                                                 |
\*---------------------------------------------------------------------------*/
FoamFile
{
    version     2.0;
    format      ascii;
    class       volScalarField;
    location    "2.1";
    object      nut;
}
// * * * * * * * * * * * * * * * * * * * * * * * * * * * * * * * * * * * * * //

dimensions      [0 2 -1 0 0 0 0];

internalField   nonuniform List<scalar> 
15984
(
0.000282052888496
0.000292574052581
0.000296414167306
0.000297216637364
0.000297184068594
0.000297217647703
0.000297416712184
0.00029753308487
0.000297359789815
0.000296903345415
0.000296410251934
0.000296033729265
0.000295721236577
0.000295498783876
0.000295351511372
0.000295259486536
0.000295203704166
0.000295171072275
0.00029515178534
0.000295141603073
0.000295136841226
0.000295134575656
0.000295133660805
0.000295133368154
0.000295133456598
0.000295132921178
0.000295131956094
0.000295130457238
0.000295128249087
0.000295125442025
0.000295122338989
0.000295119103159
0.00029511537591
0.000295110581778
0.000295101178412
0.000295063778023
0.000294877274535
0.0002940068797
0.000290616003647
0.000280954144699
0.000316469941485
0.000356172374161
0.00036986049878
0.000372906243287
0.000373206253454
0.000373264992215
0.000373860593594
0.000374988292672
0.000375701652571
0.000375372877172
0.0003744310146
0.000373506197356
0.000372840785185
0.00037237791728
0.000372085184404
0.000371907751026
0.00037180131653
0.000371737664823
0.000371698601152
0.000371674139335
0.000371660034469
0.000371654784737
0.000371652164772
0.000371650768376
0.00037164948744
0.000371647910551
0.000371645737287
0.000371642634427
0.000371638505668
0.000371633934406
0.000371629311215
0.000371624863836
0.000371619690255
0.000371608942231
0.000371565190811
0.000371342397087
0.000370304202446
0.000366163686033
0.000352252120151
0.000313317878618
0.000329086266108
0.000391194649765
0.000411466051527
0.000416213783005
0.00041685776403
0.000417084183208
0.000418145494969
0.000420190129101
0.00042171683639
0.000421605818338
0.000420490826413
0.00041931753952
0.000418424115387
0.000417840720058
0.000417478267009
0.000417263794485
0.000417137891356
0.000417063373548
0.000417017728205
0.000416988822167
0.000416970064251
0.000416958291248
0.000416954206707
0.000416952684989
0.000416951084967
0.000416949449906
0.000416947240155
0.000416943565644
0.000416939245054
0.000416934646813
0.000416928923783
0.000416922178445
0.000416913971425
0.000416893704919
0.000416805594536
0.000416381836217
0.000414565294293
0.000407901430563
0.000386751060537
0.000324920726576
0.000334341628879
0.000409407279642
0.00043333025726
0.000438700382313
0.000439365755216
0.000439787720022
0.000441597189111
0.000445090222483
0.000448077133032
0.000448606738002
0.000447477356272
0.000446135141792
0.000445092489195
0.000444414869727
0.00044400191456
0.000443759595125
0.000443620279926
0.000443538859883
0.000443489475703
0.000443458118919
0.000443437736996
0.000443424752181
0.000443416641554
0.000443413802207
0.000443412188156
0.000443410957831
0.000443409487233
0.000443406740706
0.000443403280666
0.00044339806212
0.000443391288164
0.000443382895342
0.000443371593737
0.000443340568715
0.000443205635799
0.000442589147945
0.000440101227444
0.000431493557324
0.000405385634708
0.00032955302781
0.000336715902768
0.000418400433003
0.000443870333451
0.00045019557179
0.000451570984561
0.000452310382516
0.000454383680027
0.000458249112386
0.000463257882767
0.000464844233126
0.000463849708119
0.000462372489507
0.000461198420313
0.000460427559514
0.00045996910946
0.00045970210255
0.00045955050138
0.000459463391093
0.00045941104818
0.000459377848538
0.000459356347072
0.000459342676323
0.000459334140753
0.000459329999177
0.000459327664445
0.000459326976626
0.000459326618141
0.000459324029208
0.000459320577508
0.00045931507956
0.000459307843695
0.00045929845128
0.000459284581557
0.00045924333525
0.000459064151994
0.000458276509232
0.000455232681824
0.000445140817448
0.000415611832476
0.000331527073444
0.00033781198194
0.000422130829848
0.000448614479316
0.000456492784879
0.000457901795784
0.000458816031535
0.000461514946186
0.000466095170445
0.000471614089136
0.000474499732951
0.000473747973065
0.000472175626203
0.000470873323425
0.00047002002732
0.000469515386627
0.000469228093937
0.000469064715171
0.000468972440914
0.000468917766759
0.000468883103093
0.000468860632089
0.000468846376224
0.000468837569637
0.000468833131489
0.000468830768033
0.000468830249152
0.00046883000717
0.000468827544196
0.000468824202615
0.000468818688652
0.000468811245917
0.000468801257504
0.000468785282599
0.000468735248704
0.000468518468659
0.000467590946864
0.000464115586173
0.000452940408088
0.000421125477182
0.000332393815652
0.000338297952929
0.000423076593933
0.000450897634035
0.000458797647535
0.000459989018959
0.000461031270372
0.000464444647025
0.00047011591509
0.000475853036048
0.000480030037272
0.000479560378914
0.000477926720504
0.000476516304214
0.000475588691436
0.000475042484871
0.000474736161561
0.000474563516967
0.000474466656357
0.000474409681813
0.000474374178338
0.000474350874341
0.000474336031669
0.000474326972914
0.000474322309313
0.000474319976399
0.000474319494333
0.00047431933993
0.000474317015648
0.000474313820448
0.000474308360966
0.000474300876061
0.000474290515713
0.000474272997083
0.000474216073689
0.000473970256997
0.000472938005033
0.000469152030077
0.000457235438031
0.000423975017782
0.000332771153393
0.000338518051168
0.000422903420447
0.000451425512742
0.000459072534165
0.000459944866433
0.000461079656432
0.000465170662162
0.000471814313598
0.000477947712047
0.000483043721202
0.000482815604124
0.00048114322693
0.000479649661289
0.000478661846858
0.000478082397589
0.000477758991258
0.000477580671966
0.000477479727572
0.000477421059378
0.000477384636631
0.000477360719972
0.000477345366879
0.00047733606817
0.000477331229269
0.000477328899738
0.000477328418981
0.000477328324532
0.00047732613934
0.000477323042865
0.0004773176906
0.000477310195602
0.00047729963557
0.000477281078472
0.000477219300896
0.00047695331519
0.000475849966398
0.00047185916389
0.000459474120584
0.000425363681057
0.000332929393784
0.000338637573493
0.000422564848777
0.000451330014467
0.000458728419008
0.000459289924271
0.000460486493478
0.000465113647396
0.000472435861038
0.000479148795959
0.000484575569113
0.000484502555827
0.000482804959478
0.000481255028395
0.000480225493739
0.000479622894605
0.00047928764514
0.000479104833757
0.000479001565851
0.000478941729616
0.000478904677798
0.00047888036938
0.000478864622248
0.000478855128015
0.000478850157631
0.000478847857047
0.000478847331927
0.000478847258156
0.000478845154589
0.000478842162198
0.000478836898676
0.000478829428067
0.000478818776402
0.000478799548134
0.000478734863508
0.000478456609344
0.000477310565479
0.000473200068511
0.000460550251479
0.00042598848401
0.000332991765795
0.000338700941138
0.000422386035109
0.000451194130004
0.00045845325829
0.000458812252039
0.00046004297947
0.000464975819318
0.000472628586412
0.000479638712921
0.000485214322786
0.000485210462563
0.000483498945948
0.000481920378858
0.00048086949599
0.000480255240367
0.000479914162765
0.000479728574231
0.000479624497233
0.000479564129193
0.000479526784851
0.00047950223761
0.000479486275256
0.000479476671557
0.000479471643325
0.000479469425089
0.000479468790165
0.000479468725669
0.000479466660172
0.000479463722262
0.000479458503304
0.000479451048609
0.000479440341683
0.000479420824218
0.000479354747296
0.000479070786587
0.000477905202535
0.000473740573719
0.000460973890781
0.000426221599539
0.000333012781816
0.000338703013582
0.000422395480723
0.00045120171514
0.000458462799462
0.000458825547109
0.000460055483142
0.000464984927793
0.000472634341806
0.000479641458084
0.000485216175363
0.000485209954105
0.000483497995047
0.00048191958487
0.00048086892354
0.000480254796033
0.000479913846069
0.000479728402811
0.000479624374914
0.000479564018902
0.000479526700531
0.000479502171156
0.000479486169197
0.000479476560012
0.000479471525482
0.000479469287469
0.000479468643672
0.000479468574414
0.000479466505297
0.000479463573123
0.000479458350823
0.000479450894415
0.000479440193256
0.000479420682989
0.000479354603558
0.000479070639824
0.00047790505258
0.000473740413919
0.000460973743324
0.000426221452347
0.000333012808041
0.000338642953669
0.000422591245045
0.000451351741084
0.000458755144361
0.000459324121413
0.000460519625577
0.000465138083174
0.000472451644557
0.000479156706939
0.000484580519905
0.00048450089905
0.000482802138064
0.000481252666417
0.000480223757096
0.000479621562456
0.000479286601917
0.000479104175389
0.000479001133612
0.000478941391534
0.000478904408038
0.000478880120311
0.000478864277373
0.000478854743527
0.000478849760099
0.000478847431083
0.000478846868917
0.000478846779546
0.000478844668538
0.000478841679531
0.000478836421138
0.000478828956496
0.000478818310888
0.000478799098532
0.000478734411579
0.000478456142938
0.000477310093398
0.000473199589218
0.000460549765175
0.000425988025926
0.00033299179374
0.000338524722646
0.000422942067426
0.000451458544959
0.000459113248566
0.000459993056686
0.000461125931979
0.00046520637812
0.000471837279143
0.000477962653004
0.000483049750809
0.000482812120413
0.00048113830385
0.00047964563807
0.000478658925306
0.000478080226293
0.000477757120919
0.000477579420665
0.000477478807884
0.000477420382421
0.000477384061152
0.000477360109096
0.000477344691416
0.000477335341338
0.000477330482269
0.000477328079422
0.000477327566972
0.000477327450956
0.000477325256657
0.000477322167986
0.000477316831195
0.000477309340617
0.000477298792917
0.000477280280934
0.000477218510701
0.0004769525213
0.000475849106507
0.000471858264634
0.000459473195485
0.000425362861285
0.000332929350645
0.000338303284058
0.000423119618438
0.000450936977822
0.000458846619678
0.000460044550335
0.000461083977913
0.000464485923226
0.000470142405013
0.000475886130828
0.00048003443957
0.000479554214306
0.000477919484484
0.000476510658523
0.000475584510624
0.000475039317916
0.000474733529283
0.00047456174963
0.000474465180262
0.000474408529525
0.000474373170105
0.000474349807329
0.000474334928259
0.000474325816212
0.000474321130738
0.00047431871569
0.000474318185304
0.000474318020531
0.000474315687224
0.000474312494781
0.000474307052996
0.000474299593488
0.000474289245828
0.00047427175721
0.000474214828451
0.000473968981987
0.000472936741741
0.00046915066774
0.000457234112326
0.000423973793978
0.000332770986612
0.000337813508887
0.000422169698363
0.000448656456063
0.00045654296332
0.000457958033798
0.000458869105323
0.000461556727946
0.000466122553677
0.000471641927815
0.000474499230455
0.000473738393908
0.000472166009153
0.000470866061534
0.000470014589814
0.000469511060679
0.000469225080136
0.000469062281433
0.000468970330821
0.000468915978096
0.000468881508693
0.000468859080523
0.00046884481266
0.000468835949225
0.000468831494417
0.000468829057611
0.000468828483057
0.000468828239924
0.00046882577029
0.000468822412554
0.000468816942824
0.00046880953582
0.000468799585715
0.000468783673926
0.000468733612161
0.000468516807658
0.000467589196358
0.000464113769982
0.000452938638274
0.00042112397533
0.000332393459587
0.00033671212576
0.000418428642438
0.000443938367644
0.000450244007792
0.00045162613765
0.000452362152926
0.000454424858725
0.000458299219058
0.000463273652929
0.000464836901083
0.000463836204
0.000462360898651
0.000461189681124
0.000460420807829
0.000459963824768
0.00045969866604
0.00045954751276
0.000459460732434
0.00045940877667
0.000459375762759
0.000459354343467
0.000459340700945
0.000459332115139
0.000459327990204
0.000459325617082
0.000459324888443
0.000459324521996
0.000459321940102
0.000459318507023
0.000459313041519
0.000459305837462
0.000459296531657
0.000459282605277
0.000459241429144
0.000459062209498
0.000458274447012
0.000455230491199
0.000445138768077
0.000415610077874
0.000331526502523
0.000334332390318
0.000409420215676
0.000433376930342
0.000438774049901
0.000439453245226
0.00043986768726
0.000441661311456
0.000445122991012
0.000448078747592
0.000448592537034
0.000447461094865
0.000446121835474
0.000445082381777
0.000444407054834
0.000443997036816
0.000443755749318
0.000443617043251
0.000443535990731
0.000443486892823
0.000443455733158
0.000443435475543
0.000443422558344
0.000443414440542
0.000443411654397
0.00044340999804
0.000443408762903
0.000443407292991
0.000443404583386
0.000443401166284
0.000443395954925
0.000443389250668
0.000443380908708
0.000443369604478
0.000443338577126
0.000443203541238
0.000442586988805
0.000440098921773
0.000431491376737
0.000405383754023
0.000329552287566
0.000329072772178
0.000391193891749
0.000411488494759
0.000416260508515
0.000416914795525
0.000417136414566
0.000418183510064
0.000420202959346
0.000421706916206
0.000421587244293
0.000420473197621
0.000419303307503
0.00041841343001
0.000417833718821
0.000417473304207
0.000417260038453
0.000417134741826
0.00041706059434
0.000417015273417
0.000416986534533
0.000416967938029
0.000416956242078
0.000416952239169
0.000416950722564
0.00041694910744
0.000416947477831
0.000416945299582
0.000416941635439
0.000416937387436
0.000416932875862
0.00041692721456
0.00041692049968
0.000416912287336
0.000416891987129
0.000416803821086
0.000416379946835
0.000414563252594
0.000407899457967
0.000386749446687
0.000324920044434
0.00031645615158
0.00035616246865
0.000369866234907
0.000372928960436
0.000373236534859
0.000373292058958
0.000373877131033
0.000374987154988
0.000375686376125
0.000375353760996
0.000374414110425
0.000373492856457
0.000372831412496
0.000372371874886
0.000372081105373
0.000371904620178
0.0003717987436
0.000371735477369
0.00037169671983
0.000371672411516
0.000371658780837
0.000371653516623
0.000371650895964
0.000371649482002
0.000371648202231
0.000371646645995
0.000371644463001
0.000371641442352
0.000371637334119
0.000371632833426
0.000371628316397
0.000371623892977
0.000371618722126
0.000371607971967
0.000371564184697
0.000371341307492
0.000370302961591
0.00036616237199
0.000352251079173
0.000313317603334
0.000282046756176
0.000292564727671
0.000296407876419
0.000297216468111
0.000297187748791
0.000297219566055
0.000297413612877
0.000297524048467
0.000297347338427
0.000296891050201
0.000296400793632
0.000296026756736
0.000295716680576
0.000295495983756
0.000295349778007
0.000295258337449
0.000295202972583
0.000295170790983
0.000295151909925
0.00029514216669
0.000295137423461
0.000295135071198
0.000295134147849
0.000295133833935
0.00029513389278
0.00029513335226
0.000295132412504
0.000295130942173
0.000295128764946
0.000295126006864
0.000295122919654
0.000295119731324
0.000295116089398
0.000295111359006
0.000295101978199
0.000295064606004
0.000294878033071
0.000294007545034
0.000290616668695
0.000280954951018
0.000314146813795
0.000353090475806
0.000366905509092
0.000370341143345
0.000370821209689
0.000370987303232
0.000371611316464
0.0003726247661
0.000373383298232
0.000373464120557
0.000373106675129
0.000372672631731
0.00037233024013
0.000372119384585
0.000371962136919
0.000371853179272
0.000371781576766
0.000371735528584
0.00037170590067
0.000371686701314
0.000371675234871
0.000371668072564
0.000371663913414
0.000371662068288
0.000371660980292
0.000371660176682
0.00037165985124
0.000371658402324
0.000371655699187
0.000371652385164
0.000371648128079
0.000371643206449
0.000371637338072
0.000371625554786
0.00037158078928
0.00037135672277
0.000370317324055
0.000366175831735
0.000352265465669
0.000313339571494
0.00085373389412
0.00137615802462
0.00153572906474
0.00157289543547
0.00157717621185
0.00158080452846
0.00159476861645
0.00161960963539
0.0016444625718
0.0016587149748
0.00166305271454
0.00166287381889
0.00166122734487
0.00165958901725
0.00165841245947
0.00165764786154
0.00165716372368
0.00165685586861
0.00165665543884
0.00165652158341
0.00165642176256
0.00165634741585
0.00165630263439
0.00165627987492
0.00165626381468
0.00165625660265
0.00165624825379
0.00165623252933
0.00165620812026
0.00165617614817
0.00165613417398
0.00165608207092
0.00165600738586
0.00165580130027
0.00165487381952
0.00165056061178
0.00163311882274
0.00157354112657
0.00139561104563
0.000852561985438
0.000913291894137
0.00181561209598
0.0020884913421
0.00216340691981
0.00217842569662
0.00218586612135
0.00220434058483
0.00223518495335
0.00226397768353
0.0022783000891
0.00228017993673
0.00227721105079
0.00227362290623
0.00227071541358
0.0022688042658
0.00226762120108
0.00226690093786
0.00226645675166
0.00226617362483
0.00226598647121
0.00226585939929
0.0022657743738
0.00226570690681
0.00226567374276
0.00226565250978
0.00226564251507
0.0022656318514
0.00226560960854
0.00226557622147
0.00226552825726
0.00226546768524
0.00226539056311
0.00226525715417
0.00226482641427
0.00226290321018
0.00225456230959
0.00222324845107
0.00212300441696
0.00183419895812
0.000910223331456
0.000939478487612
0.0020396582803
0.00238285006931
0.00248033599767
0.00250118145801
0.00251210584857
0.00253756810782
0.00257926280351
0.0026167599839
0.00263471382086
0.0026361162105
0.00263135525336
0.00262622859695
0.00262237088214
0.00261990476864
0.00261841890218
0.00261753713881
0.00261700526941
0.00261667154228
0.00261645251144
0.00261630575678
0.00261620870112
0.0026161465705
0.00261611114839
0.00261608794221
0.00261607534902
0.00261606005138
0.00261603463096
0.00261599724424
0.00261594567757
0.00261587939346
0.00261578919476
0.00261560569116
0.00261494545913
0.0026120288437
0.00259999848806
0.00255722003247
0.0024268664345
0.002064977641
0.000935226119034
0.000951863831851
0.00215849253845
0.00254284343794
0.00264646938672
0.00266482408278
0.00267821697865
0.00271605470888
0.00277871398601
0.00283145508365
0.0028568367334
0.0028596446348
0.00285392423207
0.00284758923491
0.00284291911475
0.00283997687519
0.00283823426358
0.0028372186311
0.00283661644059
0.00283624373521
0.00283600085426
0.00283583921866
0.00283573280912
0.00283566618877
0.00283562795669
0.00283560739227
0.00283559382875
0.00283557868547
0.00283555431201
0.00283551754163
0.00283546522073
0.00283539591344
0.00283529496901
0.00283506307242
0.00283417760534
0.00283033108476
0.0028150495868
0.00276285596386
0.00260970026192
0.00219786640022
0.000947071022858
0.000957658408201
0.00221722779924
0.00262056102981
0.00271137134291
0.00272457329728
0.00274031146766
0.00279183418373
0.00288260974644
0.0029614415177
0.00299685251682
0.00300232888717
0.00299624739325
0.00298897084198
0.00298359067952
0.00298022584242
0.00297825859608
0.00297712688927
0.00297646498207
0.00297606006458
0.00297579784251
0.00297562392388
0.00297550980233
0.00297543873155
0.00297539819988
0.00297537641035
0.00297536385852
0.00297535004114
0.00297532663739
0.00297529050943
0.00297523768037
0.00297516573361
0.00297505469952
0.00297477734435
0.00297368902711
0.0029690358281
0.00295105376705
0.00289141531558
0.00272128264799
0.00227531598456
0.000952855536769
0.000960130273706
0.00224122678388
0.00264498766022
0.00272528522415
0.0027331042443
0.00275063349377
0.00281445573773
0.00292908075712
0.00303711174556
0.00308289387561
0.00309153332971
0.00308547731286
0.00307748916377
0.00307151363529
0.0030677871836
0.00306562808567
0.00306439908077
0.00306368723542
0.00306325563232
0.00306297781112
0.00306279351874
0.00306267277167
0.00306259765819
0.00306255486716
0.00306253226186
0.00306251975582
0.0030625063739
0.00306248346952
0.00306244763639
0.00306239414253
0.00306231964836
0.00306219954251
0.00306188350281
0.00306062823217
0.00305533127806
0.00303525823062
0.00297005398725
0.00278779669163
0.00231917874638
0.00095564640392
0.000961034211949
0.00224775707737
0.00264748071714
0.00271981305773
0.00272349350402
0.00274224274949
0.00281524490562
0.0029475078723
0.00307929942376
0.0031331637502
0.00314469325288
0.00313884558996
0.00313035468249
0.00312391680878
0.00311990467255
0.00311759373929
0.00311628871665
0.00311553868962
0.00311508648274
0.00311479631622
0.00311460377253
0.00311447749363
0.00311439892125
0.00311435406604
0.00311433048646
0.00311431762909
0.00311430429296
0.00311428154605
0.00311424572992
0.00311419151344
0.00311411482862
0.00311398735743
0.00311364178166
0.00311226270929
0.00310649891254
0.00308494112738
0.00301588149958
0.00282552050546
0.00234270408659
0.0009569388104
0.000961311450697
0.00224769042917
0.00264451626799
0.00271228061265
0.00271365338151
0.0027330986726
0.00281162458958
0.00295423723759
0.00309920385727
0.00316002099652
0.00317372335758
0.00316810216146
0.00315929347095
0.00315254078792
0.00314833327708
0.00314591732097
0.00314456115551
0.0031437850091
0.00314331890516
0.00314302055112
0.00314282202311
0.00314269160839
0.00314261043472
0.00314256401306
0.00314253971682
0.00314252619655
0.00314251272976
0.00314249002954
0.00314245408557
0.00314239927708
0.00314232095092
0.00314218844018
0.00314182347938
0.00314036452878
0.00313430418916
0.00311181646433
0.00304038290867
0.00284516727144
0.00235429115889
0.000957497730284
0.000961384598071
0.00224663733913
0.00264241709761
0.00270836413937
0.00270893497555
0.00272865189414
0.00280954147935
0.00295658745887
0.00310727560475
0.00317151126916
0.00318633266056
0.00318084429888
0.0031718817913
0.00316497075649
0.00316066429828
0.00315819539021
0.00315681375951
0.00315602465322
0.00315555170897
0.00315524923698
0.00315504754662
0.00315491486718
0.00315483221773
0.0031547849533
0.0031547602293
0.00315474628168
0.00315473255964
0.00315470986951
0.00315467383235
0.00315461881788
0.00315453953595
0.0031544045494
0.00315402983083
0.00315253238891
0.00314632983531
0.00312339947191
0.00305084924376
0.00285339040443
0.00235892860052
0.000957700490401
0.000961389336096
0.00224673255051
0.00264256718364
0.00270854405731
0.0027091443612
0.00272885483565
0.00280973174415
0.00295673484218
0.00310735879911
0.00317152963408
0.00318632987887
0.00318083736778
0.00317187564278
0.00316496604083
0.00316066055505
0.00315819236795
0.00315681133411
0.0031560227431
0.00315555012609
0.00315524783221
0.00315504614629
0.00315491335553
0.00315483058223
0.00315478323261
0.0031547583829
0.00315474436306
0.00315473057127
0.00315470787398
0.00315467183996
0.00315461682505
0.00315453749266
0.00315440244995
0.00315402764936
0.00315253008042
0.00314632740187
0.00312339693739
0.00305084664899
0.0028533879466
0.00235892650924
0.000957700266526
0.000961324298846
0.0022479626516
0.00264496228141
0.0027128093038
0.00271425768286
0.00273370614146
0.00281215512514
0.00295464880566
0.00309942752493
0.00316007028486
0.00317371385975
0.00316808117171
0.00315927510573
0.00315252649011
0.00314832188908
0.00314590799119
0.00314455377215
0.00314377898319
0.00314331385493
0.00314301600851
0.00314281741678
0.00314268669204
0.00314260516024
0.0031425584472
0.00314253380833
0.00314252007385
0.00314250646136
0.00314248374179
0.0031424478074
0.00314239297759
0.00314231449142
0.00314218184561
0.00314181663267
0.00314035747484
0.00313429678285
0.00311180861839
0.003040374846
0.0028451595904
0.00235428495247
0.000957497021463
0.000961051668565
0.00224816949818
0.00264819024787
0.00272068097586
0.00272445985297
0.00274319233302
0.0028160722546
0.00294812057825
0.00307959688128
0.00313322634869
0.003144672287
0.00313880933056
0.00313032338897
0.00312389245201
0.00311988526062
0.00311757752963
0.00311627553608
0.00311552762771
0.00311507689651
0.00311478742123
0.00311459484721
0.00311446819739
0.00311438912188
0.00311434381428
0.00311431975416
0.00311430651725
0.00311429299325
0.00311427022312
0.00311423438809
0.003114180074
0.00311410322211
0.0031139754799
0.00311362953136
0.00311224992923
0.00310648550599
0.00308492734432
0.00301586731965
0.00282550711509
0.00234269332546
0.000956937533163
0.00096014738863
0.00224171843897
0.0026458730629
0.00272641482036
0.00273435003198
0.00275183523249
0.00281548082119
0.00292980717772
0.00303740004972
0.00308295000145
0.00309149530447
0.00308542460168
0.00307744467228
0.00307147897272
0.00306775915272
0.00306560475242
0.00306437936961
0.00306367015273
0.00306324031159
0.00306296340379
0.00306277916755
0.003062658046
0.00306258237957
0.00306253906283
0.00306251586463
0.0030625029513
0.00306248928565
0.00306246629465
0.00306243044752
0.00306237686464
0.00306230219796
0.00306218172766
0.00306186516067
0.0030606091969
0.00305531139321
0.00303523770929
0.00297003321793
0.00278777734011
0.00231916346143
0.000955644419609
0.000957670398769
0.00221772245466
0.0026214715145
0.00271259223915
0.0027259250408
0.0027416018722
0.00279292190421
0.00288331845634
0.0029617054966
0.00299688187642
0.00300226961491
0.00299617877479
0.00298891382309
0.00298354586913
0.00298018989004
0.00297822843803
0.0029771008133
0.00297644148229
0.00297603853278
0.00297577732831
0.00297560362816
0.00297548921058
0.00297541762566
0.00297537659661
0.00297535426217
0.00297534130077
0.00297532708315
0.00297530353951
0.00297526739076
0.00297521443338
0.00297514230077
0.00297503094363
0.00297475305474
0.00297366391728
0.002969009744
0.00295102695103
0.00289138815535
0.0027212578188
0.00227529693003
0.00095285272144
0.000951867791927
0.00215891856614
0.00254354595093
0.00264756525671
0.00266606369153
0.00267938757338
0.00271702972425
0.00277912612172
0.00283164617777
0.0028568266934
0.0028595645638
0.00285384238192
0.00284752244042
0.00284286663347
0.00283993489238
0.00283819906241
0.0028371873719
0.0028365877278
0.00283621698725
0.00283597508841
0.00283581377915
0.002835707202
0.00283564019435
0.0028356015631
0.00283558056369
0.00283556657621
0.00283555100938
0.00283552645837
0.00283548963537
0.00283543717751
0.00283536771656
0.00283526650646
0.00283503392432
0.00283414791295
0.00283030021227
0.00281501784059
0.00276282393733
0.00260967113387
0.00219784430952
0.000947067352594
0.000939474277483
0.00203997877435
0.00238338418688
0.00248109240636
0.0025020293383
0.00251288187951
0.00253823379131
0.00257963242116
0.0026168738553
0.00263466827077
0.00263602317118
0.00263126699945
0.00262615740271
0.00262231534992
0.00261986058402
0.00261838187576
0.00261750387329
0.0026169742697
0.00261664218762
0.00261642404219
0.00261627762341
0.00261618052663
0.00261611817221
0.0026160825616
0.00261605883907
0.00261604593428
0.00261603029204
0.00261600464113
0.00261596725907
0.00261591557042
0.00261584917625
0.00261575859176
0.00261557468642
0.00261491385969
0.00261199621803
0.00259996492343
0.00255718610363
0.00242683574584
0.00206495478776
0.000935221775796
0.000913282491659
0.00181582111507
0.00208886754607
0.00216395145509
0.00217904291215
0.00218644583323
0.00220482049202
0.00223545202988
0.0022640347225
0.00227823989406
0.00228009000942
0.00227712786174
0.00227355625945
0.00227066425081
0.00226876386093
0.00226758720385
0.00226687037028
0.00226642798237
0.0022661461401
0.00226595963896
0.00226583262522
0.00226574759977
0.00226567993252
0.00226564706018
0.00226562542054
0.00226561511456
0.00226560417481
0.00226558174904
0.0022655482693
0.00226550008865
0.00226543935792
0.00226536213041
0.00226522857378
0.00226479751413
0.00226287347998
0.00225453164081
0.00222321700901
0.00212297598623
0.00183417819885
0.000910218849692
0.00085372492607
0.00137627164456
0.00153596575143
0.00157325126315
0.00157758486071
0.00158119442812
0.00159508968042
0.00161979335782
0.00164450267327
0.00165867581361
0.00166299211456
0.00166281544637
0.00166117988467
0.00165955354397
0.00165838467475
0.0016576245077
0.00165714275012
0.00165683603314
0.00165663651109
0.00165650286161
0.0016564008173
0.0016563271747
0.00165628251066
0.00165626016081
0.0016562441009
0.00165623660219
0.0016562283546
0.00165621244479
0.00165618799504
0.00165615598217
0.00165611378747
0.00165606161797
0.00165598683866
0.00165578054654
0.00165485239134
0.00165053849918
0.00163309572481
0.00157351966409
0.00139559484904
0.000852557686591
0.00031414189711
0.000353087986837
0.000366909432059
0.000370354191893
0.00037083914912
0.000371003231046
0.000371619871395
0.000372622462262
0.000373372739791
0.00037345129151
0.000373095344859
0.000372663683473
0.000372323987665
0.000372114987299
0.000371958922164
0.000371850749108
0.000371779641393
0.000371733590471
0.000371704129512
0.00037168495716
0.000371673471269
0.000371666209188
0.000371661993181
0.000371660089118
0.000371658953544
0.000371658106015
0.000371657742571
0.000371656254166
0.000371653549925
0.000371650289889
0.000371646026572
0.000371641098463
0.00037163520922
0.000371623414577
0.000371578587344
0.000371354391181
0.0003703147342
0.000366173048236
0.000352262907873
0.00031333822593
0.000325561061297
0.00038628641074
0.000406934543615
0.000412523677771
0.000413582928392
0.000413950740091
0.00041486978312
0.000416405568024
0.000417753393818
0.000418270332734
0.000418156857699
0.000417845812153
0.000417548591063
0.000417352189356
0.00041722642495
0.000417134601459
0.000417072147604
0.000417031100381
0.000417003964689
0.000416985888693
0.000416974251189
0.00041696712659
0.000416963257368
0.000416961616652
0.00041696132993
0.000416961288915
0.000416961981202
0.000416961755903
0.000416960022874
0.000416957811938
0.000416954466569
0.000416949763306
0.000416942869089
0.000416923331365
0.000416835192812
0.000416410990408
0.000414593513619
0.000407930614088
0.000386784824263
0.000324968840076
0.00090951799595
0.00179080712772
0.00204848807656
0.00211327732522
0.00212412915046
0.00213191903299
0.00215484479078
0.00219423700941
0.00223437126459
0.00225930206935
0.00226910047034
0.00227127623906
0.00227059402602
0.00226923492978
0.0022680097622
0.00226717675391
0.00226663789583
0.0022662908239
0.00226606380761
0.00226591234255
0.00226580930868
0.00226573387504
0.00226568733506
0.00226565915302
0.00226564057514
0.00226562800887
0.00226561550878
0.00226559809368
0.00226557380651