/*--------------------------------*- C++ -*----------------------------------*\
| =========                 |                                                 |
| \\      /  F ield         | OpenFOAM: The Open Source CFD Toolbox           |
|  \\    /   O peration     | Version:  3.0.1                                 |
|   \\  /    A nd           | Web:      www.OpenFOAM.org                      |
|    \\/     M anipulation  |                                                 |
\*---------------------------------------------------------------------------*/
FoamFile
{
    version     2.0;
    format      ascii;
    class       volScalarField;
    location    "0.4";
    object      ddt0(k);
}
// * * * * * * * * * * * * * * * * * * * * * * * * * * * * * * * * * * * * * //

dimensions      [0 2 -3 0 0 0 0];

internalField   nonuniform List<scalar> 
7968
(
-0.065941436189
-0.0655802701976
-0.0653289845623
-0.0652362361153
-0.0652133030699
-0.0652093863432
-0.0652101007823
-0.0652122244265
-0.0652147237993
-0.0652165566201
-0.0652163818075
-0.0652143245327
-0.0652117506648
-0.0652096348594
-0.0652089825878
-0.0652130161692
-0.0652360473575
-0.0653288764955
-0.0655802369295
-0.0659416582046
-0.0655802523177
-0.0653933252948
-0.0644272120425
-0.0638108306758
-0.063611721003
-0.0635742773386
-0.063575363062
-0.0635817286633
-0.0635862444365
-0.0635881879972
-0.063588012801
-0.0635857202297
-0.0635809439228
-0.063574459806
-0.0635732205505
-0.0636108624043
-0.0638100949021
-0.0644267284251
-0.0653931124358
-0.0655803882347
-0.0653288437376
-0.0644270470886
-0.0628535746837
-0.0617530956964
-0.0613419430044
-0.0612473258524
-0.0612415738861
-0.061249850276
-0.061255115462
-0.0612566045322
-0.0612563933087
-0.061254495511
-0.0612488852145
-0.061240424318
-0.0612461191163
-0.0613408337211
-0.0617522316895
-0.0628529627794
-0.0644267259763
-0.065329003656
-0.0652360605702
-0.0638104524077
-0.0617530369018
-0.0603290836385
-0.0597822557542
-0.0596586407915
-0.059657954194
-0.0596745785575
-0.0596837051625
-0.0596858228721
-0.0596855647654
-0.0596829481302
-0.0596733697556
-0.0596565463817
-0.0596571668278
-0.0597809044307
-0.0603280197342
-0.0617522890471
-0.0638101211858
-0.065236215265
-0.0652130802044
-0.063611601575
-0.0613417665972
-0.0597823122186
-0.05919237199
-0.0590755497783
-0.0590720621584
-0.059077942154
-0.059082742788
-0.0590840532666
-0.0590839308686
-0.05908240139
-0.0590774082954
-0.0590714280492
-0.0590736526863
-0.0591905726785
-0.0597808772175
-0.0613407322919
-0.0636110603719
-0.0652132267528
-0.0652091306213
-0.0635740268533
-0.0612473267547
-0.0596587895551
-0.0590757034328
-0.05893432702
-0.0589218308851
-0.0589342069282
-0.0589425786784
-0.0589450268271
-0.0589448748423
-0.0589421216962
-0.0589335050716
-0.0589210181609
-0.0589334711572
-0.0590734007269
-0.0596568717389
-0.0612459633325
-0.0635731876495
-0.0652092841586
-0.0652098379174
-0.0635753841223
-0.0612417911395
-0.0596584050398
-0.059072209598
-0.0589219532379
-0.0589189370947
-0.0589395764806
-0.0589524917204
-0.0589565289004
-0.0589563009256
-0.0589518592436
-0.0589386006548
-0.0589178278258
-0.0589208922254
-0.0590713029283
-0.0596559852846
-0.0612400139375
-0.0635743032578
-0.0652099268424
-0.0652120164606
-0.0635819611548
-0.0612504267076
-0.0596754644161
-0.0590782655172
-0.0589345663052
-0.0589398455985
-0.0589670190043
-0.0589840514256
-0.0589898386387
-0.0589895006808
-0.0589831649014
-0.0589656863523
-0.0589383888897
-0.0589332008401
-0.0590771076376
-0.0596725615525
-0.0612483059011
-0.0635806861158
-0.0652120097821
-0.0652146151961
-0.0635867997703
-0.0612560796108
-0.0596850823648
-0.0590833129574
-0.0589432497563
-0.0589531623444
-0.0589845345306
-0.0590051839705
-0.0590131720107
-0.0590126736247
-0.0590039664368
-0.0589828224081
-0.0589513951365
-0.0589416169964
-0.0590819657545
-0.059681793501
-0.0612536987925
-0.0635853133399
-0.0652145467171
-0.065216650286
-0.0635890222035
-0.0612579229273
-0.0596876536015
-0.059084861964
-0.0589459877741
-0.058957575207
-0.0589908764949
-0.0590138153395
-0.0590240000942
-0.0590233372224
-0.059012303243
-0.0589888260191
-0.0589555941178
-0.0589441971771
-0.0590833610823
-0.0596842799625
-0.0612554431041
-0.0635874309117
-0.0652165589791
-0.065216714565
-0.0635890864285
-0.0612579732691
-0.0596877290273
-0.0590848841328
-0.0589460292181
-0.0589576330808
-0.058990957206
-0.0590139310053
-0.059024146454
-0.0590234828256
-0.0590124136821
-0.0589888968742
-0.0589556389862
-0.0589442348705
-0.0590833900186
-0.0596844182163
-0.0612555623079
-0.0635875514329
-0.0652166739997
-0.0652147508586
-0.0635869018676
-0.061256163748
-0.0596852071013
-0.0590833785213
-0.0589433261208
-0.0589532788262
-0.058984719347
-0.059005421187
-0.059013409044
-0.0590129067102
-0.0590041458002
-0.0589829949056
-0.0589515294609
-0.0589417095239
-0.0590820562619
-0.059682214502
-0.0612540196514
-0.063585610593
-0.0652148082917
-0.0652121693766
-0.0635820790464
-0.0612505185071
-0.059675617904
-0.0590783479153
-0.0589346865726
-0.0589400237003
-0.0589672782003
-0.0589843474431
-0.0589901101687
-0.0589897403341
-0.058983395513
-0.0589659157615
-0.0589385776143
-0.0589333571168
-0.0590772325698
-0.0596730723705
-0.0612487123038
-0.0635810444614
-0.0652123058413
-0.0652099807386
-0.0635755069672
-0.0612418749334
-0.0596585643279
-0.0590723112647
-0.0589220873154
-0.0589191386407
-0.0589398654889
-0.0589528266083
-0.0589568664082
-0.0589566072069
-0.058952147706
-0.0589388620892
-0.0589180380281
-0.0589210628016
-0.0590714555098
-0.0596565440107
-0.0612404643827
-0.0635747030106
-0.0652102121469
-0.0652092635401
-0.0635740223163
-0.0612473568692
-0.0596589261681
-0.0590759697032
-0.0589344505078
-0.0589220048141
-0.0589344630139
-0.0589428828526
-0.0589453496877
-0.0589451790368
-0.0589423934409
-0.0589337594323
-0.0589212176419
-0.0589336320257
-0.0590740568378
-0.0596574337362
-0.0612464055046
-0.0635735053941
-0.065209563103
-0.0652132088419
-0.0636116641914
-0.061341746221
-0.0597823841352
-0.0591925162022
-0.0590759281233
-0.059072192785
-0.0590781327354
-0.0590829875444
-0.0590843240423
-0.059084189663
-0.0590826527409
-0.0590775971192
-0.0590715902057
-0.0590742757997
-0.0591911037282
-0.0597813672656
-0.0613411007158
-0.0636114536433
-0.0652135352752
-0.0652361730095
-0.0638105151615
-0.0617530026036
-0.060329092658
-0.0597823461701
-0.0596588951869
-0.0596584046357
-0.0596752361857
-0.0596844495239
-0.0596866122456
-0.0596863131217
-0.0596836548069
-0.0596740124965
-0.05965710426
-0.059657664818
-0.059781375263
-0.0603284755311
-0.0617527318229
-0.0638104606537
-0.0652365122745
-0.0653289282355
-0.0644269826366
-0.0628534291183
-0.0617529484181
-0.0613418957103
-0.0612474304758
-0.0612418432741
-0.0612502822735
-0.0612556501685
-0.0612571814205
-0.0612569589789
-0.0612550313325
-0.0612493406381
-0.0612407893
-0.0612464461441
-0.0613411293431
-0.0617524605153
-0.0628532706274
-0.0644271563749
-0.0653292526132
-0.0655802853457
-0.0653932691738
-0.0644270263593
-0.0638106640339
-0.0636116108601
-0.0635742132274
-0.0635755231236
-0.063582044108
-0.0635866190309
-0.0635885816488
-0.0635884160758
-0.0635861349009
-0.0635812824272
-0.063574653533
-0.0635733524224
-0.0636110358237
-0.0638101710389
-0.0644269661243
-0.0653934195551
-0.0655805773278
-0.0659416558535
-0.0655803531352
-0.0653290245884
-0.0652362678613
-0.0652133665929
-0.0652095050081
-0.0652102342104
-0.0652123925306
-0.0652149651369
-0.0652168590398
-0.0652167175385
-0.0652146368798
-0.0652120204115
-0.0652098893756
-0.0652092251293
-0.0652132340021
-0.0652362682845
-0.0653291042449
-0.0655804874085
-0.0659418832083
-0.0655904136113
-0.0654615966467
-0.0645106564995
-0.0638969543508
-0.0636958558467
-0.0636543997947
-0.0636520894599
-0.0636564869706
-0.0636605071753
-0.0636626355136
-0.0636625015759
-0.0636601308112
-0.0636559656052
-0.0636515313294
-0.0636538756309
-0.0636953958579
-0.0638966245451
-0.0645104488457
-0.0654615309345
-0.065590732113
-0.0654616768846
-0.0855760401409
-0.0854510843561
-0.0836070601271
-0.0827199598894
-0.0824823482961
-0.0824581233023
-0.0824765574254
-0.0824932774421
-0.0825013337899
-0.082501053355
-0.0824925266075
-0.0824754042885
-0.0824566754294
-0.0824807700845
-0.0827183999726
-0.0836057277286
-0.0854500543256
-0.0855754115251
-0.0654617759638
-0.0645105702928
-0.0854504806583
-0.0848121858696
-0.0821730216602
-0.0807461289014
-0.0802811361234
-0.0801903988942
-0.0801929103091
-0.0802050543938
-0.080211074645
-0.080210813843
-0.0802043002587
-0.0801917383687
-0.0801889548665
-0.0802796098034
-0.0807447241729
-0.0821719634753
-0.0848115806176
-0.0854503179712
-0.0645106083863
-0.0638967410532
-0.0836061633625
-0.0821726350469
-0.0788761522258
-0.0770524089988
-0.0764252476285
-0.0762912068426
-0.0762876347091
-0.0762991300024
-0.0763042335771
-0.0763039532076
-0.076298313463
-0.0762863249788
-0.0762896129891
-0.0764236775507
-0.0770510690347
-0.0788752578175
-0.0821722394535
-0.0836063129146
-0.0638968105538
-0.0636955749634
-0.082718978525
-0.0807456047043
-0.0770522506152
-0.0750146299825
-0.0743172982189
-0.0741800376139
-0.0741900057635
-0.0742098304719
-0.0742169946357
-0.0742166268375
-0.0742088597704
-0.0741881963825
-0.0741777656449
-0.074315292035
-0.0750130459511
-0.0770512287396
-0.0807451393907
-0.0827189949078
-0.0636956166507
-0.0636541168995
-0.0824814694137
-0.080280687274
-0.0764251629787
-0.0743174218353
-0.0736219865485
-0.0735153863079
-0.0735496435282
-0.073581128129
-0.0735915920268
-0.0735911238189
-0.0735797410028
-0.0735472360503
-0.0735123433917
-0.0736189657763
-0.0743151538445
-0.0764237358344
-0.0802799357636
-0.0824813025686
-0.0636540788258
-0.0636518473049
-0.0824574995051
-0.0801902083324
-0.0762914391082
-0.0741806461205
-0.0735159033265
-0.0734442349559
-0.0735024270196
-0.0735451738597
-0.0735586709345
-0.0735580926336
-0.0735434309112
-0.0734994006194
-0.0734403514829
-0.0735118079806
-0.0741771997606
-0.0762893754454
-0.0801890417961
-0.0824569877422
-0.0636517147499
-0.0636563466176
-0.0824762717363
-0.080193088731
-0.0762883253867
-0.0741912607969
-0.0735510901544
-0.0735035053156
-0.0735778258356
-0.0736281182535
-0.0736433715137
-0.073642589215
-0.0736258302626
-0.0735739837643
-0.073498718646
-0.0735460869993
-0.0741871447732
-0.0762857455134
-0.0801915383436
-0.0824754663102
-0.063656092064
-0.0636605343015
-0.0824933580598
-0.0802056604544
-0.0763003693095
-0.0742119796713
-0.0735836518527
-0.0735476196817
-0.0736296154598
-0.0736841175958
-0.073700563003
-0.0736995021229
-0.0736811571422
-0.0736249697259
-0.0735420893508
-0.0735779597076
-0.0742073670737
-0.076297393121
-0.080203812789
-0.0824923057901
-0.0636601562104
-0.0636628713064
-0.0825017906256
-0.0802120778152
-0.0763059556033
-0.0742198727938
-0.073595085653
-0.073562328839
-0.0736465293731
-0.0737023168993
-0.0737188998235
-0.0737179053387
-0.0736992128013
-0.0736414870321
-0.0735565336367
-0.0735891651128
-0.0742148441939
-0.0763028034222
-0.0802101163159
-0.0825006372149
-0.0636624334639
-0.0636629109813
-0.0825018132013
-0.0802121140459
-0.0763060162627
-0.0742200321723
-0.073595342584
-0.073562774184
-0.0736470716528
-0.0737028555011
-0.0737194716007
-0.0737184515343
-0.0736996738082
-0.0736419014195
-0.073556926511
-0.0735894403704
-0.074215054684
-0.0763029217349
-0.080210218139
-0.0825007335514
-0.063662506249
-0.0636606277911
-0.0824934502529
-0.080205729539
-0.0763004764267
-0.0742123779715
-0.0735841745124
-0.0735485041184
-0.0736307859161
-0.0736853860077
-0.0737017113271
-0.0737006246489
-0.0736822567135
-0.0736261058025
-0.0735431415003
-0.0735787561236
-0.0742079659955
-0.0762977412347
-0.0802041086813
-0.0824925799814
-0.06366034955
-0.0636564547216
-0.0824764419263
-0.0801931779348
-0.0762884451146
-0.0741915993704
-0.0735517874572
-0.0735047045074
-0.0735793880764
-0.0736298803339
-0.0736449708464
-0.073643921502
-0.0736273048739
-0.0735754854623
-0.0735000875723
-0.0735471277947
-0.0741878063667
-0.076286211153
-0.0801919612952
-0.0824759107711
-0.0636563277421
-0.0636519640156
-0.08245769538
-0.0801902733978
-0.0762915196994
-0.0741808627797
-0.0735165752804
-0.0734453933428
-0.0735039809847
-0.0735469296548
-0.0735603541057
-0.0735595133171
-0.0735448789316
-0.0735008244081
-0.073441600021
-0.0735127890706
-0.0741779091658
-0.0762898834232
-0.080189524597
-0.0824575449772
-0.063651948374
-0.0636542251493
-0.0824816412549
-0.0802807049684
-0.0764251854289
-0.074317576575
-0.0736224953524
-0.0735163086418
-0.073550896636
-0.0735825391371
-0.0735929822576
-0.0735923385937
-0.0735809331156
-0.0735484048427
-0.0735133693725
-0.0736197166225
-0.0743157131297
-0.0764242406088
-0.0802804740905
-0.0824819774852
-0.0636543087806
-0.0636956492543
-0.0827190938483
-0.0807455803473
-0.0770522319564
-0.0750146991499
-0.074317586777
-0.0741806241064
-0.0741909665635
-0.0742108865406
-0.0742180622559
-0.0742176042248
-0.0742099159949
-0.0741890509559
-0.07417849798
-0.0743158483332
-0.0750135484337
-0.0770517613804
-0.0807457418903
-0.082719778013
-0.0636958326534
-0.063896790462
-0.0836062340273
-0.0821725742854
-0.0788761157052
-0.0770524592189
-0.0764254410712
-0.0762915904563
-0.0762881845658
-0.0762997685426
-0.0763048961242
-0.0763045770251
-0.0762989248509
-0.0762868987059
-0.0762901582021
-0.0764241923635
-0.0770516125697
-0.0788758928715
-0.0821729864292
-0.0836071193903
-0.0638969979786
-0.0645105365473
-0.0854503644676
-0.0848120026036
-0.0821728772476
-0.0807460745376
-0.0802812139924
-0.0801906164305
-0.0801932569665
-0.0802054708571
-0.0802115215373
-0.0802112509132
-0.0802047236643
-0.0801921526094
-0.0801893586011
-0.0802800393796
-0.0807452116292
-0.0821725840387
-0.084812358763
-0.085451362204
-0.064510659824
-0.0654616074289
-0.0855755948296
-0.08545061264
-0.0836067983389
-0.0827197106139
-0.0824822742611
-0.0824581358811
-0.0824767024847
-0.0824934654988
-0.0825015331276
-0.082501250778
-0.0824927067054
-0.0824756222813
-0.0824568917517
-0.0824810420147
-0.0827187136535
-0.0836061643521
-0.0854507550848
-0.0855764146928
-0.0654616333442
-0.0655907370597
-0.0654618094052
-0.0645106896971
-0.063896928605
-0.0636958275017
-0.0636543945279
-0.0636521327403
-0.0636565705182
-0.0636606389778
-0.0636628082349
-0.0636626860536
-0.0636603118546
-0.0636561136249
-0.0636516289421
-0.0636539493465
-0.0636954870964
-0.0638967298354
-0.0645105680157
-0.0654616672046
-0.0655908731314
-0.0653445534489
-0.0645286515865
-0.0629879323375
-0.0618990721611
-0.0614880067032
-0.0613882504358
-0.0613764813979
-0.0613816263934
-0.0613870198258
-0.0613897090096
-0.0613895839404
-0.0613866763065
-0.0613811212972
-0.0613758903792
-0.0613876622685
-0.0614874682032
-0.0618986891815
-0.0629877123675
-0.0645285643544
-0.0653447657738
-0.0645287889733
-0.0855315860594
-0.0849269163687
-0.082314820754
-0.0809099939807
-0.080462355418
-0.0803853618149
-0.0803991476385
-0.0804199126813
-0.0804307061022
-0.0804303462288
-0.0804190221783
-0.0803977686501
-0.0803834860428
-0.0804602476868
-0.0809081578416
-0.082313213102
-0.0849256516198
-0.0855308421818
-0.0645286529066
-0.0629878899254
-0.0849262364997
-0.0839744447764
-0.0805948828113
-0.0785506104657
-0.0777672905448
-0.0775668990921
-0.0775438669
-0.0775534599492
-0.0775605192729
-0.0775602414473
-0.0775526654886
-0.0775426132714
-0.0775652918677
-0.0777655900616
-0.0785491216813
-0.0805938185921
-0.0839738966998
-0.0849262013343
-0.0629877633071
-0.0618988533449
-0.0823137308453
-0.0805943932547
-0.0765254900405
-0.073989083534
-0.0729528637145
-0.0726594578817
-0.072610253168
-0.0726125197554
-0.0726169529773
-0.0726167216901
-0.0726118177497
-0.0726090658255
-0.07265793702
-0.072951373941
-0.0739879021616
-0.0765248362045
-0.0805942789058
-0.0823140352902
-0.061898861641
-0.0614877016138
-0.0809087399165
-0.0785498900535
-0.0739888307936
-0.071138502399
-0.0699589716158
-0.0696109256585
-0.0695431469447
-0.0695442653136
-0.0695490954155
-0.069547738873
-0.069540189754
-0.0695454813785
-0.0696170399476
-0.0699572803998
-0.0711372788015
-0.0739882308683
-0.0785498465308
-0.0809089995485
-0.0614877248713
-0.0613879436158
-0.0804611271599
-0.077766610407
-0.072952630912
-0.0699590172281
-0.0686947430867
-0.0682699582671
-0.0681604401702
-0.0681573558153
-0.0681618783386
-0.0681556667981
-0.0681386108109
-0.0681604149931
-0.0683006045943
-0.068712333575
-0.0699572653004
-0.072951714141
-0.0777663603013
-0.0804613954891
-0.0613879122962
-0.0613762586961
-0.0803844289386
-0.0775664955204
-0.0726595216181
-0.0696120657748
-0.0682571816149
-0.067735750319
-0.067584592057
-0.0675813034861
-0.0675879223859
-0.0675765819364
-0.0675471004024
-0.0675794220172
-0.0677955571193
-0.0683188139474
-0.0696154759441
-0.0726579922466
-0.0775658076132
-0.0803843161924
-0.0613761029943
-0.0613815483236
-0.0803986821689
-0.0775439046087
-0.0726108070149
-0.0695375445541
-0.0681209330912
-0.0675504437977
-0.067385953533
-0.067391155806
-0.0674043187852
-0.0673906778627
-0.0673500330921
-0.0673788007378
-0.0676242851786
-0.06821579518
-0.0695537203144
-0.0726086942291
-0.0775427425356
-0.0803980318244
-0.0613812471563
-0.0613871242283
-0.080419894187
-0.0775539569493
-0.0726135964947
-0.0695338182662
-0.0681067911595
-0.0675314744143
-0.0673727970665
-0.0673894254722
-0.0674102982266
-0.067396444584
-0.0673475868484
-0.0673655052967
-0.0676073773568
-0.068207966956
-0.0695556994832
-0.0726110923718
-0.0775524872019
-0.0804189929608
-0.0613866848411
-0.0613900211567
-0.0804311055867
-0.0775614238184
-0.0726184384165
-0.0695404441733
-0.0681176919737
-0.0675462157038
-0.0673925314639
-0.0674154121845
-0.0674402673482
-0.0674264927518
-0.0673735069317
-0.0673832519234
-0.0676172702892
-0.0682140757351
-0.0695610533989
-0.0726158029474
-0.0775598592044
-0.0804301851579
-0.0613895087665
-0.0613900398492
-0.080431136067
-0.0775614644936
-0.072618488763
-0.069540712143
-0.068117665208
-0.0675427859565
-0.0673852493208
-0.0674064895063
-0.0674313976529
-0.067417533523
-0.0673644642572
-0.0673739446405
-0.067609083222
-0.0682094315219
-0.0695603093776
-0.0726159123893
-0.0775599620338
-0.0804303037714
-0.0613895643265
-0.0613871971193
-0.0804199869626
-0.0775540335204
-0.0726136683787
-0.0695344696523
-0.0681064672849
-0.0675208285283
-0.0673505056741
-0.0673621239744
-0.0673829684285
-0.067369051524
-0.06732020197
-0.0673374100127
-0.0675826513099
-0.0681939474505
-0.0695534206859
-0.0726114084906
-0.0775527796474
-0.080419289046
-0.0613868406832
-0.06138165484
-0.0803989830839
-0.0775440295019
-0.0726108937772
-0.0695387885455
-0.0681232794616
-0.067540198434
-0.0673603788482
-0.0673600171104
-0.0673750275033
-0.0673631229666
-0.0673244660965
-0.0673531754759
-0.0676022319096
-0.0682048558041
-0.0695537983731
-0.0726091161797
-0.0775431696836
-0.0803985013159
-0.0613814747959
-0.0613763719383
-0.0803846943811
-0.0775665990139
-0.0726595674025
-0.0696130686467
-0.0682631638489
-0.0677361935359
-0.0675729776015
-0.0675665616354
-0.0675778488678
-0.0675710506833
-0.0675463008818
-0.0675796345258
-0.0677960680086
-0.0683207248376
-0.0696180764662
-0.0726584053723
-0.0775663073058
-0.0803850146216
-0.0613763391744
-0.0613880477322
-0.0804613053562
-0.0777666763791
-0.0729526291561
-0.0699590926799
-0.0686984220382
-0.068277215036
-0.0681652085528
-0.0681618936436
-0.0681710183136
-0.0681693132837
-0.0681568765973
-0.0681786670176
-0.0683122543777
-0.0687162462266
-0.0699576752964
-0.0729521367857
-0.0777669331874
-0.0804621603586
-0.0613881668418
-0.0614877583321
-0.0809090308371
-0.0785499760598
-0.0739888723038
-0.0711385639396
-0.0699591911054
-0.0696130204506
-0.0695457929665
-0.0695469063045
-0.0695527718444
-0.0695524029022
-0.0695459146227
-0.0695496275409
-0.0696180255517
-0.0699577088464
-0.0711377132784
-0.0739887839372
-0.0785505753448
-0.0809101252982
-0.061487964951
-0.0618988940658
-0.0823139124607
-0.0805944817046
-0.0765256121578
-0.0739892730934
-0.072953149232
-0.0726598899941
-0.0726108039585
-0.072613134329
-0.0726175613061
-0.0726172778771
-0.0726123476584
-0.0726096068047
-0.0726584972911
-0.0729519434262
-0.0739885545584
-0.0765256173769
-0.0805952346536
-0.0823152203046
-0.0618990867468
-0.0629878460284
-0.0849262112203
-0.0839744498836
-0.080594979863
-0.0785508025243
-0.0777676532144
-0.077567396665
-0.0775444609978
-0.0775541290991
-0.077561210113
-0.0775609137283
-0.0775532946719
-0.0775432368004
-0.0775659775715
-0.0777663061189
-0.078549889459
-0.0805947592452
-0.0839750625224
-0.0849276181034
-0.0629878909578
-0.0645286690306
-0.0855312691313
-0.0849266750812
-0.082314710974
-0.0809099447672
-0.0804626881538
-0.0803858113545
-0.0803995962846
-0.0804204599684
-0.0804313008751
-0.0804309535851
-0.0804194650172
-0.0803981715104
-0.0803842429785
-0.080460991331
-0.080908873996
-0.0823140858941
-0.0849268697346
-0.0855324052525
-0.0645286138496
-0.0653447733333
-0.0645287610126
-0.0629879097685
-0.0618990415408
-0.0614879896282
-0.0613882866124
-0.0613765786155
-0.0613817830253
-0.0613872096054
-0.0613899379489
-0.0613898147675
-0.0613868917398
-0.0613813290834
-0.0613760516659
-0.0613877942474
-0.061487600183
-0.0618988257999
-0.0629878488322
-0.0645287296778
-0.0653446387132
-0.065252793107
-0.063918967662
-0.0619040756583
-0.0604945173812
-0.0599412769934
-0.0597989690404
-0.0597787575083
-0.059783034254
-0.0597886183915
-0.059791359003
-0.0597912239369
-0.0597882690546
-0.0597825282682
-0.0597781352116
-0.0597983152025
-0.0599406913935
-0.0604940939774
-0.0619038425154
-0.0639189449126
-0.0652529739273
-0.063919129591
-0.083702501796
-0.0823328612568
-0.0790869157191
-0.0772990225084
-0.0766932976389
-0.0765719693873
-0.0765781244221
-0.0765990532282
-0.0766106317695
-0.0766102358989
-0.0765979588965
-0.0765763778256
-0.0765696761652
-0.0766905693642
-0.0772967365302
-0.0790849929226
-0.0823313546572
-0.0837015929487
-0.0639189840516
-0.061904073046
-0.0823321019993
-0.0806474924202
-0.076606408686
-0.0740888655783
-0.0730619296125
-0.0727714488559
-0.0727236042545
-0.0727285072826
-0.0727353255829
-0.072735045423
-0.0727276733954
-0.0727222073903
-0.0727695346055
-0.07305984877
-0.0740870700325
-0.0766051411453
-0.0806468395158
-0.0823320720526
-0.0619038515952
-0.0604943181688
-0.079085740896
-0.0766058753852
-0.0718348392903
-0.0687526430553
-0.0673779733034
-0.0668884424761
-0.0667498422842
-0.0667295477855
-0.0667284767439
-0.0667235584822
-0.0667147422147
-0.0667467205253
-0.0669106642013
-0.0673899400496
-0.0687513138463
-0.0718341087348
-0.0766057441232
-0.079086000976
-0.0604942315277
-0.0599409854734
-0.0772976388938
-0.0740880863433
-0.0687523957791
-0.0652241794006
-0.0634780161166
-0.0627280527161
-0.0624829917373
-0.0624463979607
-0.0624354785662
-0.0624172497238
-0.0623916882809
-0.0624632460382
-0.0627874589665
-0.0635475329722
-0.0652505825206
-0.0687516837142
-0.0740880140824
-0.0772979643736
-0.0599409418134
-0.0597987053889
-0.0766920348431
-0.0730612956084
-0.067379030168
-0.063460926286
-0.0613564721554
-0.0604192836534
-0.0601478268256
-0.0601288154459
-0.0601157598788
-0.060083013382
-0.0600306045534
-0.0601112558585
-0.0605344484367
-0.0615251163397
-0.0635693133287
-0.0673881594711
-0.0730607382368
-0.0766920021319
-0.059798576723
-0.0597786258679
-0.0765711791972
-0.0727712928861
-0.0668775730228
-0.0626638662979
-0.0603482625996
-0.0593783891994
-0.0591592266441
-0.0591888730354
-0.059192035932
-0.059152017383
-0.0590689555922
-0.0591275805126
-0.0595624836258
-0.0606200643695
-0.0628663451657
-0.0669236169747
-0.0727698868414
-0.0765704159597
-0.0597782826701
-0.0597831097126
-0.0765780191484
-0.0727241451949
-0.0667096642152
-0.0623548671356
-0.0599736646289
-0.0590383652837
-0.0588841452041
-0.0589736335827
-0.0590080275646
-0.0589682288399
-0.0588545185011
-0.0588709017278
-0.0592729560963
-0.0603211216438
-0.0626189865088
-0.0667975262349
-0.072721905161
-0.0765765563252
-0.0597825550599
-0.0597888886285
-0.0765995942983
-0.0727296598493
-0.0666788928285
-0.0622934246646
-0.0599141319705
-0.0590139097497
-0.0589106597262
-0.0590484282647
-0.0591124035684
-0.0590746716967
-0.0589349351565
-0.0589060098156
-0.0592593631327
-0.0602757438654
-0.0625717135874
-0.0667782566775
-0.0727269834103
-0.0765979057952
-0.0597881725877
-0.0597918532462
-0.0766116310581
-0.0727369263169
-0.066683490122
-0.062299927237
-0.0599274772043
-0.0590424979167
-0.0589616262123
-0.0591233884428
-0.0592042214926
-0.0591663317829
-0.0590101164876
-0.0589509222217
-0.0592716185764
-0.0602692040298
-0.062564084716
-0.0667781237278
-0.0727341884995
-0.0766099693922
-0.0597910483476
-0.0597918828393
-0.076611765836
-0.0727369950829
-0.0666841109081
-0.0622990134816
-0.0599211331315
-0.0590279395364
-0.0589385924868
-0.0590964374844
-0.059177340321
-0.059139384009
-0.058983081884
-0.0589214881069
-0.0592405662819
-0.0602429625712
-0.0625491607954
-0.0667741800624
-0.0727343382135
-0.0766101633519
-0.0597911082785
-0.0597889539643
-0.0765997715886
-0.0727297553038
-0.0666806601721
-0.0622905491534
-0.0598949267043
-0.0589700441928
-0.0588412630556
-0.058967070884
-0.0590314265421
-0.058993448572
-0.0588534673353
-0.0588177368465
-0.0591661796988
-0.0601969970881
-0.0625269107435
-0.0667663988392
-0.0727274196674
-0.0765983915823
-0.0597883279566
-0.0597832135496
-0.0765783979632
-0.0727242963836
-0.0667122221369
-0.0623526236502
-0.0599506290617
-0.0589835897617
-0.05879616676
-0.0588732844814
-0.0589138515202
-0.0588803971389
-0.0587729461392
-0.0587829059577
-0.0591759586413
-0.060237551571
-0.0625733135223
-0.0667873394585
-0.0727224911179
-0.0765772145341
-0.0597827675071
-0.0597787611651
-0.0765715705278
-0.0727714308758
-0.0668795510512
-0.0626661257094
-0.0603322376299
-0.0593350352513
-0.0590863826318
-0.0591104320198
-0.0591298873455
-0.0591063084231
-0.0590397259275
-0.0590970067355
-0.0595191900906
-0.0605795811313
-0.0628479336391
-0.0669253604771
-0.0727705023768
-0.0765714013414
-0.0597785182396
-0.0597988237387
-0.0766922515907
-0.0730614128278
-0.0673795987743
-0.0634666315648
-0.0613522577892
-0.0603932882037
-0.0600997483197
-0.060080227532
-0.0600869600858
-0.060074056187
-0.0600415540416
-0.0601238403488
-0.0605331581208
-0.0615210932143
-0.0635697644337
-0.0673913800545
-0.0730613683048
-0.0766928182965
-0.0597988507903
-0.0599410784261
-0.0772981658929
-0.0740883011056
-0.068752479288
-0.0652271890875
-0.0634829720009
-0.0627242998926
-0.0624648790791
-0.0624285200202
-0.0624315504555
-0.0624272961497
-0.0624157941047
-0.0624887517611
-0.0628046770582
-0.0635581540978
-0.0652539004076
-0.0687522315422
-0.0740888083747
-0.0772991774771
-0.0599412028764
-0.0604943617723
-0.0790861495855
-0.0766061427279
-0.0718351261604
-0.0687529482411
-0.0673802899627
-0.0668922247488
-0.0667502590471
-0.0667304972853
-0.0667340169993
-0.0667336482055
-0.0667294260868
-0.0667601388904
-0.0669150933936
-0.0673902160545
-0.0687520022976
-0.0718349851864
-0.0766068169886
-0.0790872683303
-0.0604944573733
-0.0619040275025
-0.082332296125
-0.0806477698346
-0.0766067914139
-0.0740893740314
-0.0730626010202
-0.0727722509292
-0.0727245220271
-0.0727295231113
-0.0727363164662
-0.0727359601646
-0.0727284874461
-0.0727229765057
-0.0727704034849
-0.0730608105085
-0.0740880988032
-0.0766063204816
-0.0806483002874
-0.0823338191438
-0.061903950058
-0.0639189925021
-0.0837024643677
-0.0823330076341
-0.0790871023486
-0.0772994692322
-0.0766940518045
-0.0765728916156
-0.0765792653524
-0.0766005471236
-0.0766120514664
-0.076611673507
-0.0765992222369
-0.0765773272304
-0.0765708636627
-0.0766917301513
-0.0772978344511
-0.0790860769317
-0.082333031166
-0.0837038161749
-0.0639187276393
-0.0652529499793
-0.0639191181283
-0.0619040572149
-0.0604944898191
-0.0599412821183
-0.0597990719438
-0.0597789100689
-0.0597832845668
-0.059788912492
-0.0597916771411
-0.0597915511695
-0.0597885637542
-0.0597827931748
-0.0597783293469
-0.0597985081747
-0.0599408427622
-0.0604942254502
-0.0619039539357
-0.0639189761497
-0.0652526520317
-0.0652299626944
-0.0637107768899
-0.0614808179287
-0.0599259475903
-0.0593074684994
-0.0591436607223
-0.0591170190838
-0.0591188953177
-0.0591231607147
-0.05912517653
-0.0591250206434
-0.0591227799076
-0.059118367927
-0.0591163073862
-0.0591429274329
-0.0593068438599
-0.0599255333245
-0.0614806510677
-0.0637107196929
-0.0652300898328
-0.0637109734616
-0.082767794383
-0.0808783953226
-0.0772468097875
-0.0752407227502
-0.074545836982
-0.0743960047474
-0.0743945987062
-0.0744129693812
-0.0744235179375
-0.0744231400251
-0.0744116400107
-0.074392177323
-0.074392956281
-0.0745423622777
-0.075237635842
-0.0772442150854
-0.0808764954241
-0.0827666598867
-0.0637108178451
-0.061480920693
-0.0808774961
-0.0785827861934
-0.0740719117396
-0.0712484649585
-0.0700455190333
-0.0696355185434
-0.0695255447199
-0.0695144718389
-0.0695165113062
-0.0695116509941
-0.0694997908674
-0.0695218391805
-0.0696559920851
-0.0700558823549
-0.0712459457745
-0.0740700894887
-0.0785817038389
-0.0808772182005
-0.0614805307377
-0.0599257719451
-0.077245551511
-0.0740713958768
-0.0687629973575
-0.0652054020856
-0.0634159469985
-0.0626553791508
-0.0624260356149
-0.0623927212215
-0.0623763854284
-0.0623527263205
-0.0623216491572
-0.0623965032634
-0.0627306182362
-0.0635042595003
-0.0652521117294
-0.0687622716512
-0.0740707444588
-0.0772455483015
-0.0599255587201
-0.0593072034876
-0.0752393758279
-0.0712478325057
-0.0652066033229
-0.0608996687378
-0.0585597289524
-0.0575838047722
-0.0573452816831
-0.0573416808829
-0.0573187522361
-0.0572732262711
-0.0572052773952
-0.0572943066073
-0.0577542000296
-0.0588241032122
-0.061093474364
-0.065249589903
-0.0712467177732
-0.0752388321852
-0.0593069688058
-0.0591435071093
-0.0745447361313
-0.0700470318082
-0.0633752847991
-0.0584870841623
-0.0559112550002
-0.0549329381814
-0.054785130926
-0.054865123419
-0.0548701140573
-0.0548118543884
-0.0546909262807
-0.0547407152787
-0.0552195004889
-0.0563853897586
-0.0589116310963
-0.0635523326558
-0.0700531592263
-0.0745434113408
-0.0591430719793
-0.0591171035517
-0.0743959993969
-0.0696266215488
-0.0625332252086
-0.0573697679235
-0.0547701963452