/*--------------------------------*- C++ -*----------------------------------*\
| =========                 |                                                 |
| \\      /  F ield         | OpenFOAM: The Open Source CFD Toolbox           |
|  \\    /   O peration     | Version:  3.0.1                                 |
|   \\  /    A nd           | Web:      www.OpenFOAM.org                      |
|    \\/     M anipulation  |                                                 |
\*---------------------------------------------------------------------------*/
FoamFile
{
    version     2.0;
    format      ascii;
    class       surfaceScalarField;
    location    "0.4";
    object      meshPhiCN_0;
}
// * * * * * * * * * * * * * * * * * * * * * * * * * * * * * * * * * * * * * //

dimensions      [0 3 -1 0 0 0 0];

internalField   nonuniform List<scalar> 
22672
(
0
0
0
0
0
0
0
0
0
0
0
0
0
0
0
0
0
0
0
0
0
0
0
0
0
0
0
0
0
0
0
0
0
0
0
0
0
0
0
0
0
0
0
0
0
0
0
0
0
0
0
0
0
0
0
0
0
0
0
0
0
0
0
0
0
0
0
0
0
0
0
0
0
0
0
0
0
0
0
0
0
0
0
0
0
0
0
0
0
0
0
0
0
0
0
0
0
0
0
0
0
0
0
0
0
0
0
0
0
0
0
0
0
0
0
0
0
0
0
0
0
0
0
0
0
0
0
0
0
0
0
0
0
0
0
0
0
0
0
0
0
0
0
0
0
0
0
0
0
0
0
0
0
0
0
0
0
0
0
0
0
0
0
0
0
0
0
0
0
0
0
0
0
0
0
0
0
0
0
0
0
0
0
0
0
0
0
0
0
0
0
0
0
0
0
0
0
0
0
0
0
0
0
0
0
0
0
0
0
0
0
0
0
0
0
0
0
0
0
0
0
0
0
0
0
0
0
0
0
0
0
0
0
0
0
0
0
0
0
0
0
0
0
0
0
0
0
0
0
0
0
0
0
0
0
0
0
0
0
0
0
0
0
0
0
0
0
0
0
0
0
0
0
0
0
0
0
0
0
0
0
0
0
0
0
0
0
0
0
0
0
0
0
0
0
0
0
0
0
0
0
0
0
0
0
0
0
0
0
0
0
0
0
0
0
0
0
0
0
0
0
0
0
0
0
0
0
0
0
0
0
0
0
0
0
0
0
0
0
0
0
0
0
0
0
0
0
0
0
0
0
0
0
0
0
0
0
0
0
0
0
0
0
0
0
0
0
0
0
0
0
0
0
0
0
0
0
0
0
0
0
0
0
0
0
0
0
0
0
0
0
0
0
0
0
0
0
0
0
0
0
0
0
0
0
0
0
0
0
0
0
0
0
0
0
0
0
0
0
0
0
0
0
0
0
0
0
0
0
0
0
0
0
0
0
0
0
0
0
0
0
0
0
0
0
0
0
0
0
0
0
0
0
0
0
0
0
0
0
0
0
0
0
0
0
0
0
0
0
0
0
0
0
0
0
0
0
0
0
0
0
0
0
0
0
0
0
0
0
0
0
0
0
0
0
0
0
0
0
0
0
0
0
0
0
0
0
0
0
0
0
0
0
0
0
0
0
0
0
0
0
0
0
0
0
0
0
0
0
0
0
0
0
0
0
0
0
0
0
0
0
0
0
0
0
0
0
0
0
0
0
0
0
0
0
0
0
0
0
0
0
0
0
0
0
0
0
0
0
0
0
0
0
0
0
0
0
0
0
0
0
0
0
0
0
0
0
0
0
0
0
0
0
0
0
0
0
0
0
0
0
0
0
0
0
0
0
0
0
0
0
0
0
0
0
0
0
0
0
0
0
0
0
0
0
0
0
0
0
0
0
0
0
0
0
0
0
0
0
0
0
0
0
0
0
0
0
0
0
0
0
0
0
0
0
0
0
0
0
0
0
0
0
0
0
0
0
0
0
0
0
0
0
0
0
0
0
0
0
0
0
0
0
0
0
0
0
0
0
0
0
0
0
0
0
0
0
0
0
0
0
0
0
0
0
0
0
0
0
0
0
0
0
0
0
0
0
0
0
0
0
0
0
0
0
0
0
0
0
0
0
0
0
0
0
0
0
0
0
0
0
0
0
0
0
0
0
0
0
0
0
0
0
0
0
0
0
0
0
0
0
0
0
0
0
0
0
0
0
0
0
0
0
0
0
0
0
0
0
0
0
0
0
0
0
0
0
0
0
0
0
0
0
0
0
0
0
0
0
0
0
0
0
0
0
0
0
0
0
0
0
0
0
0
0
0
0
0
0
0
0
0
0
0
0
0
0
0
0
0
0
0
0
0
0
0
0
0
0
0
0
0
0
0
0
0
0
0
0
0
0
0
0
0
0
0
0
0
0
0
0
0
0
0
0
0
0
0
0
0
0
0
0
0
0
0
0
0
0
0
0
0
0
0
0
0
0
0
0
0
0
0
0
0
0
0
0
0
0
0
0
0
0
0
0
0
0
0
0
0
0
0
0
0
0
0
0
0
0
0
0
0
0
0
0
0
0
0
0
0
0
0
0
0
0
0
0
0
0
0
0
0
0
0
0
0
0
0
0
0
0
0
0
0
0
0
0
0
0
0
0
0
0
0
0
0
0
0
0
0
0
0
0
0
0
0
0
0
0
0
0
0
0
0
0
0
0
0
0
0
0
0
0
0
0
0
0
0
0
0
0
0
0
0
0
0
0
0
0
0
0
0
0
0
0
0
0
0
0
0
0
0
0
0
0
0
0
0
0
0
0
0
0
0
0
0
0
0
0
0
0
0
0
0
0
0
0
0
0
0
0
0
0
0
0
0
0
0
0
0
0
0
0
0
0
0
0
0
0
0
0
0
0
0
0
0
0
0
0
0
0
0
0
0
0
0
0
0
0
0
0
0
0
0
0
0
0
0
0
0
0
0
0
0
0
0
0
0
0
0
0
0
0
0
0
0
0
0
0
0
0
0
0
0
0
0
0
0
0
0
0
0
0
0
0
0
0
0
0
0
0
0
0
0
0
0
0
0
0
0
0
0
0
0
0
0
0
0
0
0
0
0
0
0
0
0
0
0
0
0
0
0
0
0
0
0
0
0
0
0
0
0
0
0
0
0
0
0
0
0
0
0
0
0
0
0
0
0
0
0
0
0
0
0
0
0
0
0
0
0
0
0
0
0
0
0
0
0
0
0
0
0
0
0
0
0
0
0
0
0
0
0
0
0
0
0
0
0
0
0
0
0
0
0
0
0
0
0
0
0
0
0
0
0
0
0
0
0
0
0
0
0
0
0
0
0
0
0
0
0
0
0
0
0
0
0
0
0
0
0
0
0
0
0
0
0
0
0
0
0
0
0
0
0
0
0
0
0
0
0
0
0
0
0
0
0
0
0
0
0
0
0
0
0
0
0
0
0
0
0
0
0
0
0
0
0
0
0
0
0
0
0
0
0
0
0
0
0
0
0
0
0
0
0
0
0
0
0
0
0
0
0
0
0
0
0
0
0
0
0
0
0
0
0
0
0
0
0
0
0
0
0
0
0
0
0
0
0
0
0
0
0
0
0
0
0
0
0
0
0
0
0
0
0
0
0
0
0
0
0
0
0
0
0
0
0
0
0
0
0
0
0
0
0
0
0
0
0
0
0
0
0
0
0
0
0
0
0
0
0
0
0
0
0
0
0
0
0
0
0
0
0
0
0
0
0
0
0
0
0
0
0
0
0
0
0
0
0
0
0
0
0
0
0
0
0
0
0
0
0
0
0
0
0
0
0
0
0
0
0
0
0
0
0
0
0
0
0
0
0
0
0
0
0
0
0
0
0
0
0
0
0
0
0
0
0
0
0
0
0
0
0
0
0
0
0
0
0
0
0
0
0
0
0
0
0
0
0
0
0
0
0
0
0
0
0
0
0
0
0
0
0
0
0
0
0
0
0
0
0
0
0
0
0
0
0
0
0
0
0
0
0
0
0
0
0
0
0
0
0
0
0
0
0
0
0
0
0
0
0
0
0
0
0
0
0
0
0
0
0
0
0
0
0
0
0
0
0
0
0
0
0
0
0
0
0
0
0
0
0
0
0
0
0
0
0
0
0
0
0
0
0
0
0
0
0
0
0
0
0
0
0
0
0
0
0
0
0
0
0
0
0
0
0
0
0
0
0
0
0
0
0
0
0
0
0
0
0
0
0
0
0
0
0
0
0
0
0
0
0
0
0
0
0
0
0
0
0
0
0
0
0
0
0
0
0
0
0
0
0
0
0
0
0
0
0
0
0
0
0
0
0
0
0
0
0
0
0
0
0
0
0
0
0
0
0
0
0
0
0
0
0
0
0
0
0
0
0
0
0
0
0
0
0
0
0
0
0
0
0
0
0
0
0
0
0
0
0
0
0
0
0
0
0
0
0
0
0
0
0
0
0
0
0
0
0
0
0
0
0
0
0
0
0
0
0
0
0
0
0
0
0
0
0
0
0
0
0
0
0
0
0
0
0
0
0
0
0
0
0
0
0
0
0
0
0
0
0
0
0
0
0
0
0
0
0
0
0
0
0
0
0
0
0
0
0
0
0
0
0
0
0
0
0
0
0
0
0
0
0
0
0
0
0
0
0
0
0
0
0
0
0
0
0
0
0
0
0
0
0
0
0
0
0
0
0
0
0
0
0
0
0
0
0
0
0
0
0
0
0
0
0
0
0
0
0
0
0
0
0
0
0
0
0
0
0
0
0
0
0
0
0
0
0
0
0
0
0
0
0
0
0
0
0
0
0
0
0
0
0
0
0
0
0
0
0
0
0
0
0
0
0
0
0
0
0
0
0
0
0
0
0
0
0
0
0
0
0
0
0
0
0
0
0
0
0
0
0
0
0
0
0
0
0
0
0
0
0
0
0
0
0
0
0
0
0
0
0
0
0
0
0
0
0
0
0
0
0
0
0
0
0
0
0
0
0
0
0
0
0
0
0
0
0
0
0
0
0
0
0
0
0
0
0
0
0
0
0
0
0
0
0
0
0
0
0
0
0
0
0
0
0
0
0
0
0
0
0
0
0
0
0
0
0
0
0
0
0
0
0
0
0
0
0
0
0
0
0
0
0
0
0
0
0
0
0
0
0
0
0
0
0
0
0
0
0
0
0
0
0
0
0
0
0
0
0
0
0
0
0
0
0
0
0
0
0
0
0
0
0
0
0
0
0
0
0
0
0
0
0
0
0
0
0
0
0
0
0
0
0
0
0
0
0
0
0
0
0
0
0
0
0
0
0
0
0
0
0
0
0
0
0
0
0
0
0
0
0
0
0
0
0
0
0
0
0
0
0
0
0
0
0
0
0
0
0
0
0
0
0
0
0
0
0
0
0
0
0
0
0
0
0
0
0
0
0
0
0
0
0
0
0
0
0
0
0
0
0
0
0
0
0
0
0
0
0
0
0
0
0
0
0
0
0
0
0
0
0
0
0
0
0
0
0
0
0
0
0
0
0
0
0
0
0
0
0
0
0
0
0
0
0
0
0
0
0
0
0
0
0
0
0
0
0
0
0
0
0
0
0
0
0
0
0
0
0
0
0
0
0
0
0
0
0
0
0
0
0
0
0
0
0
0
0
0
0
0
0
0
0
0
0
0
0
0
0
0
0
0
0
0
0
0
0
0
0
0
0
0
0
0
0
0
0
0
0
0
0
0
0
0
0
0
0
0
0
0
0
0
0
0
0
0
0
0
0
0
0
0
0
0
0
0
0
0
0
0
0
0
0
0
0
0
0
0
0
0
0
0
0
0
0
0
0
0
0
0
0
0
0
0
0
0
0
0
0
0
0
0
0
0
0
0
0
0
0
0
0
0
0
0
0
0
0
0
0
0
0
0
0
0
0
0
0
0
0
0
0
0
0
0
0
0
0
0
0
0
0
0
0
0
0
0
0
0
0
0
0
0
0
0
0
0
0
0
0
0
0
0
0
0
0
0
0
0
0
0
0
0
0
0
0
0
0
0
0
0
0
0
0
0
0
0
0
0
0
0
0
0
0
0
0
0
0
0
0
0
0
0
0
0
0
0
0
0
0
0
0
0
0
0
0
0
0
0
0
0
0
0
0
0
0
0
0
0
0
0
0
0
0
0
0
0
0
0
0
0
0
0
0
0
0
0
0
0
0
0
0
0
0
0
0
0
0
0
0
0
0
0
0
0
0
0
0
0
0
0
0
0
0
0
0
0
0
0
0
0
0
0
0
0
0
0
0
0
0
0
0
0
0
0
0
0
0
8.99783238368e-09
1.05941557285e-09
1.64796996662e-08
1.61558630637e-08
3.45838091734e-09
4.65803553358e-08
1.61558367455e-08
5.29465009289e-09
6.07129287115e-08
1.61558104641e-08
6.28810761575e-09
6.1735398234e-08
1.61557841626e-08
7.28156667297e-09
6.27578661711e-08
1.61557579105e-08
8.2750273356e-09
6.37803325177e-08
8.99778344972e-09
7.10502625277e-09
5.03344547594e-08
0
2.71915457839e-09
1.81885197848e-08
0
0
0
0
0
0
0
0
0
0
0
0
0
0
0
0
0
0
0
0
0
0
0
0
0
0
0
0
0
0
0
0
2.47098341911e-08
2.21782817767e-09
4.64716679462e-08
7.41207254266e-08
1.01289892277e-08
1.87537353641e-07
9.93645811523e-08
2.06603684976e-08
3.33068815878e-07
9.93637968138e-08
2.81385763204e-08
3.87232287841e-07
9.93630124382e-08
3.3419631933e-08
3.93684426079e-07
9.93622280493e-08
3.87007319829e-08
4.00136521452e-07
9.93614436891e-08
4.39818764302e-08
4.06588574009e-07
7.41178749397e-08
4.36196724822e-08
3.60445043761e-07
2.4709305473e-08
2.87958238644e-08
2.0846571215e-07
0
8.48807068447e-09
5.29274540026e-08
0
0
0
0
0
0
0
0
0
0
0
0
0
0
0
0
0
0
0
0
0
0
0
0
0
0
8.444585709e-09
5.06148310972e-10
1.63257902848e-08
8.77688675483e-08
6.35091934775e-09
1.86806676315e-07
1.87763642569e-07
2.12311529755e-08
5.4033512269e-07
2.305132431e-07
3.86972771306e-08
8.31323274581e-07
2.30510472476e-07
5.14502394826e-08
9.30610100575e-07
2.30507701742e-07
6.1108878008e-08
9.45965604267e-07
2.30504931048e-07
7.07676648778e-08
9.61321003983e-07
2.30502160369e-07
8.04266001193e-08
9.76676299745e-07
1.87752137619e-07
8.21327163013e-08
8.99625898014e-07
8.77648583903e-08
6.18761863727e-08
6.01410005331e-07
8.4445025295e-09
2.56441988486e-08
2.13132976736e-07
0
3.27240436144e-09
1.91735568013e-08
0
0
0
0
0
0
0
0
0
0
0
0
0
0
0
0
0
0
0
0
0
0
0
2.31106024803e-08
9.08779094838e-10
4.60115442982e-08
1.40992230869e-07
8.37657126761e-09
3.30443111717e-07
2.65116785276e-07
2.59489263949e-08
8.27906936947e-07
3.16045773847e-07
4.60910041106e-08
1.20210883852e-06
3.16041819525e-07
6.09393257269e-08
1.32810435744e-06
3.16037865182e-07
7.23805421441e-08
1.34979141653e-06
3.16033910784e-07
8.38219666314e-08
1.37147841587e-06
3.16029956413e-07
9.52635993206e-08
1.39316535553e-06
2.65099858339e-07
9.79460653797e-08
1.30014433368e-06
1.40985462715e-07
7.60401591888e-08
9.21356308314e-07
2.31103036812e-08
3.44619542953e-08
3.77188058526e-07
0
5.87574105658e-09
5.39732360266e-08
0
0
0
0
0
0
0
0
0
0
0
0
0
0
0
0
0
0
0
0
0
0
0
2.88352080727e-08
9.08779566955e-10
5.97447173836e-08
1.53224379514e-07
8.3765875606e-09
3.82574501007e-07
2.80122167008e-07
2.59489780631e-08
9.22866967664e-07
3.3176169374e-07
4.60910676853e-08
1.32246292509e-06
3.31757688253e-07
6.09394138996e-08
1.45660751947e-06
3.31753682754e-07
7.2380691095e-08
1.48012949666e-06
3.31749677285e-07
8.38221764479e-08
1.50365147388e-06
3.3174567169e-07
9.52638698604e-08
1.52717345106e-06
2.80105031911e-07
9.79463058952e-08
1.42916607119e-06
1.532175421e-07
7.60402545921e-08
1.02604462259e-06
2.88349052524e-08
3.44619592952e-08
4.36317186409e-07
0
5.87574100914e-09
6.99726114721e-08
0
0
0
0
0
0
0
0
0
0
0
0
0
0
0
0
0
0
0
0
0
0
0
2.78417291422e-08
9.08779982961e-10
6.04910232917e-08
1.47942709281e-07
8.37660387966e-09
3.8728893296e-07
2.70461444051e-07
2.59490298007e-08
9.34087350629e-07
3.20317510548e-07
4.60911312563e-08
1.33829668095e-06
3.20313400983e-07
6.09395020548e-08
1.47377105912e-06
3.20309291407e-07
7.23808401201e-08
1.49729303632e-06
3.20305181867e-07
8.38223861882e-08
1.52081501351e-06
3.20301072267e-07
9.52641403998e-08
1.54433699072e-06
2.70443863876e-07
9.7946546342e-08
1.44498845458e-06
1.47935694143e-07
7.60403499759e-08
1.03724520862e-06
2.78414184916e-08
3.44619642404e-08
4.41023462054e-07
0
5.87574093435e-09
7.07186178316e-08
0
0
0
0
0
0
0
0
0
0
0
0
0
0
0
0
0
0
0
0
0
0
0
2.6848249298e-08
9.08780399144e-10
6.12373301455e-08
1.42661013082e-07
8.3766201864e-09
3.92003389933e-07
2.60800634419e-07
2.59490814398e-08
9.45307794359e-07
3.08873205724e-07
4.60911948737e-08
1.35413047172e-06
3.08868992128e-07
6.09395902646e-08
1.49093459877e-06
3.0886477849e-07
7.23809890373e-08
1.51445657598e-06
3.08860564839e-07
8.38225958919e-08
1.53797855316e-06
3.08856351245e-07
9.52644109287e-08
1.56150053038e-06
2.60782608985e-07
9.79467868404e-08
1.46081080313e-06
1.42653820348e-07
7.60404452838e-08
1.04844573394e-06
2.68479307499e-08
3.4461969265e-08
4.45729712708e-07
0
5.87574089308e-09
7.14646232661e-08
0
0
0
0
0
0
0
0
0
0
0
0
0
0
0
0
0
0
0
0
0
0
0
2.58547685218e-08
9.08780842064e-10
6.19836378983e-08
1.37379290938e-07
8.37663648129e-09
3.9671787192e-07
2.51139738053e-07
2.59491331615e-08
9.56528298776e-07
2.97428779336e-07
4.60912584424e-08
1.36996429733e-06
2.97424461673e-07
6.09396784556e-08
1.50809813843e-06
2.97420143954e-07
7.23811379628e-08
1.53162011564e-06
2.97415826287e-07
8.38228056835e-08
1.55514209283e-06
2.97411508625e-07
9.52646814443e-08
1.57866407005e-06
2.51121267527e-07
9.79470272651e-08
1.47663311674e-06
1.37371920536e-07
7.60405405984e-08
1.0596461985e-06
2.58544421526e-08
3.4461974268e-08
4.50435938276e-07
0
5.87574083416e-09
7.22106277935e-08
0
0
0
0
0
0
0
0
0
0
0
0
0
0
0
0
0
0
0
0
0
0
0
1.94637912127e-08
5.06149163513e-10
4.87509739306e-08
1.18029281703e-07
6.35098058964e-09
3.50435018344e-07
2.21670376387e-07
2.12313818122e-08
8.77783518399e-07
2.64176385956e-07
3.86975592254e-08
1.27364598076e-06
2.64173240396e-07
5.14506164641e-08
1.40593838549e-06
2.64170094843e-07
6.11095150436e-08
1.42763519602e-06
2.64166949274e-07
7.07685619413e-08
1.44933206624e-06
2.64163803729e-07
8.04277572745e-08
1.47102899623e-06
2.21657301716e-07
8.21337173373e-08
1.37167477495e-06
1.18024690286e-07
6.18765387798e-08
9.71182676099e-07
1.9463695473e-08
2.56442042216e-08
3.97158557104e-07
0
3.27240424303e-09
5.67123948667e-08
0
0
0
0
0
0
0
0
0
0
0
0
0
0
0
0
0
0
0
0
0
0
0
6.78478562923e-09
0
1.75725829735e-08
6.90990113168e-08
2.21783977634e-09
2.02080068718e-07
1.47108684609e-07
1.01290854861e-08
5.84902506156e-07
1.80409563158e-07
2.06604974606e-08
8.99479383599e-07
1.80408652873e-07
2.81387265571e-08
1.00585275645e-06
1.80407742557e-07
3.34198859266e-08
1.02122523524e-06
1.80406832232e-07
3.87010897542e-08
1.03659781798e-06
1.80405921912e-07
4.39823379526e-08
1.05197050468e-06
1.47105417353e-07
4.36200262796e-08
9.67815663737e-07
6.90985216259e-08
2.87958897304e-08
6.45969426137e-07
6.78479912039e-09
8.48806659017e-09
2.28401906694e-07
0
0
2.04204313412e-08
0
0
0
0
0
0
0
0
0
0
0
0
0
0
0
0
0
0
0
0
0
0
0
0
0
0
1.84391397688e-08
0
5.11823504846e-08
5.48246923493e-08
1.05941780802e-09
2.06745626227e-07
7.32754265029e-08
3.45838912104e-09
3.67163161671e-07
7.32754588329e-08
5.29465670692e-09
4.26428907637e-07
7.32754911066e-08
6.28811874597e-09
4.32888039599e-07
7.32755234027e-08
7.28158255883e-09
4.39347214371e-07
7.3275555684e-08
8.27504781709e-09
4.45806431966e-07
5.48249208354e-08
7.10503385812e-09
3.94554869861e-07
1.84392212057e-08
2.71915346479e-09
2.27674271918e-07
0
0
5.76378617281e-08
0
0
0
0
0
0
0
0
0
0
0
0
0
0
0
0
0
0
0
0
0
0
0
0
0
0
0
0
0
0
0
0
6.23152472872e-09
0
1.85577484992e-08
1.11887641824e-08
0
5.23897027776e-08
1.11887679798e-08
0
6.81752973455e-08
1.11887718192e-08
0
6.91980237243e-08
1.11887756285e-08
0
7.02207516615e-08
1.11887794664e-08
0
7.12434811615e-08
6.2315318342e-09
0
5.61438584997e-08
0
0
2.02664182899e-08
0
0
0
0
0
0
0
0
0
0
0
0
0
0
0
0
0
0
0
0
0
0
0
0
0
0
0
0
0
0
0
0
0
0
0
0
0
0
0
0
0
0
0
0
0
0
0
0
0
0
0
0
0
0
0
0
0
0
0
0
0
0
0
0
0
0
0
0
0
0
0
0
0
0
0
0
0
0
0
0
0
0
0
0
0
0
0
0
0
0
0
0
0
0
0
0
0
0
0
0
0
0
0
0
0
0
0
0
0
0
0
0
0
0
0
0
0
0
0
0
0
0
0
0
0
0
0
0
0
0
0
0
0
0
0
0
0
0
0
0
0
0
0
0
0
0
0
0
0
0
0
0
0
0
0
0
0
0
0
0
0
0
0
0
0
0
0
0
0
0
0
0
0
0
0
0
0
0
0
0
0
0
0
0
0
0
0
0
0
0
0
0
0
0
0
0
0
0
0
0
0
0
0
0
0
0
0
0
0
0
0
0
0
0
0
0
0
0
0
0
0
0
0
0
0
0
0
0
0
0
0
0
0
0
0
0
0
0
0
0
0
0
0
0
0
0
0
0
0
0
0
0
0
0
0
0
0
0
0
0
0
0
0
0
0
0
0
0
0
0
0
0
0
0
0
0
0
0
0
0
0
0
0
0
0
0
0
0
0
0
0
0
0
0
0
0
0
0
0
0
0
0
0
0
0
0
0
0
0
0
0
0
0
0
0
0
0
0
0
0
0
0
0
0
0
0
0
0
0
0
0
0
0
0
0
0
0
0
0
0
0
0
0
0
0
0
0
0
0
0
0
0
0
0
0
0
0
0
0
0
0
0
0
0
0
0
0
0
0
0
0
0
0
0
0
0
0
0
0
0
0
0
0
0
0
0
0
0
0
0
0
0
0
0
0
0
0
0
0
0
0
0
0
0
0
0
0
0
0
0
0
0
0
0
0
0
0
0
0
0
0
0
0
0
0
1.61413094731e-08
1.03239789899e-09
2.87047926892e-08
5.09034442737e-08
5.85469692135e-09
1.20831356439e-07
6.71270332356e-08
1.32481660731e-08
2.15742173631e-07
6.71265878251e-08
1.89179196403e-08
2.49355724086e-07
6.71261424971e-08
2.30506708409e-08
2.53605808954e-07
6.71256970849e-08
2.71834492223e-08
2.57855866666e-07
6.71252517317e-08
3.13162548096e-08
2.62105897161e-07
5.09019075221e-08
3.09138468662e-08
2.33919985536e-07
1.61411034099e-08
1.92279306766e-08
1.34601130513e-07
0
5.00595415883e-09
3.27958711574e-08
0
0
0
0
0
0
0
0
0
0
0
0
0
0
0
0
0
0
0
0
0
0
0
0
0
0
3.58982834872e-08
1.22895534106e-09
6.55449590186e-08
1.42676254003e-07
9.57633663483e-09
3.29343516178e-07
2.70556572779e-07
2.99975303086e-08
7.54097586895e-07
3.27266488746e-07
5.56555784223e-08
1.08305378223e-06
3.27259550251e-07
7.6262445641e-08
1.19558716329e-06
3.27252611754e-07
9.27688792987e-08
1.21574950552e-06
3.27245673233e-07
1.09275693509e-07
1.23591149279e-06
3.27238734723e-07
1.25782888412e-07
1.25607312504e-06
2.70526075937e-07
1.30496690962e-07
1.17436003999e-06
1.42662206904e-07
1.0397785632e-07
8.42277964223e-07
3.58969136676e-08
5.31252261408e-08
3.7827429446e-07
0
1.26266280651e-08
7.72794179341e-08
0
0
0
0
0
0
0
0
0
0
0
0
0
0
0
0
0
0
0
0
1.51479313686e-08
3.89544147933e-11
2.84285171948e-08
1.58420261818e-07
4.36672438521e-09
3.27945939577e-07
4.22428623601e-07
2.50132715815e-08
1.06132470791e-06
6.7710131989e-07
6.82073128673e-08
1.93503424062e-06
7.81643098217e-07
1.18926680794e-07
2.52302373283e-06
7.81617011509e-07
1.59852604594e-07
2.72231409491e-06
7.8159092473e-07
1.9394083416e-07
2.76773128474e-06
7.81564837821e-07
2.28030333416e-07
2.81314754267e-06
7.81538751019e-07
2.62121102297e-07
2.85856286878e-06
6.76976835894e-07
2.76822348992e-07
2.73461039833e-06
4.22352017024e-07
2.35404551533e-07
2.16220035333e-06
1.5840195281e-07
1.42679819625e-07
1.22086652518e-06
1.51476159573e-08
5.05115905642e-08
3.87201929344e-07
0
5.99934444099e-09
3.45644164144e-08
0
0
0
0
0
0
0
0
0
0
0
0
0
0
0
0
0
6.13534748464e-08
1.22105208953e-10
1.19247478109e-07
3.28258921747e-07
7.82606225667e-09
7.4762829929e-07
7.38399894528e-07
4.02622175084e-08
1.92650327082e-06
1.10129560516e-06
1.0236500249e-07
3.15071540404e-06
1.24288197277e-06
1.7257647351e-07
3.94016065519e-06
1.24283499852e-06
2.29885835268e-07
4.2098871998e-06
1.2427880241e-06
2.78582583988e-07
4.27936377639e-06
1.24274104959e-06
3.27281592909e-07
4.34883925846e-06
1.24269407494e-06
3.75982862083e-07
4.41831364601e-06
1.10106251127e-06
4.0036036751e-07
4.26774326788e-06
7.38234728787e-07
3.52350197686e-07
3.518752419e-06
3.28204788034e-07
2.29553088596e-07
2.2162625393e-06
6.13500727131e-08
9.63111962011e-08
8.83461022172e-07
0
1.89202375437e-08
1.44737012695e-07
0
0
0
0
0
0
0
0
0
0
0
0
0
0
0
0
0
1.05072959095e-07
1.60567989842e-10
2.12127524024e-07
4.41150566849e-07
9.40301993744e-09
1.06912712671e-06
9.29951709976e-07
4.65541330907e-08
2.50092537261e-06
1.3409073414e-06
1.15739638042e-07
3.92284587679e-06
1.49853758794e-06
1.93222140617e-07
4.82585432788e-06
1.49848534508e-06
2.56725460409e-07
5.1358013988e-06
1.49843310209e-06
3.11005428575e-07
5.21966531175e-06
1.49838085883e-06
3.65288087125e-07
5.30352873479e-06
1.49832861538e-06
4.19573436097e-07
5.38739166794e-06
1.3406442185e-06
4.47834046207e-07
5.2230986073e-06
9.29755189029e-07
3.98078365553e-07
4.37704992903e-06
4.41077449134e-07
2.65338985916e-07
2.87446293931e-06
1.05066759229e-07
1.16680753702e-07
1.26286107186e-06
0
2.49508994532e-08
2.57012734242e-07
0
0
0
0
0
0
0
0
0
0
0
0
0
0
0
0
0
1.15667168903e-07
1.60570104269e-10
2.44170992783e-07
4.62573956421e-07
9.40308031216e-09
1.17517933303e-06
9.57835315281e-07
4.65544121874e-08
2.68686312161e-06
1.36974596343e-06
1.15740169437e-07
4.17323762186e-06
1.5271481715e-06
1.93222747215e-07
5.11344986638e-06
1.52709826057e-06
2.5672642299e-07
5.43602263952e-06
1.52704834951e-06
3.11007177024e-07
5.52380723372e-06
1.52699843821e-06
3.65290621484e-07
5.61159182793e-06
1.52694852664e-06
4.19576756328e-07
5.69937642209e-06
1.36949382389e-06
4.47837371519e-07
5.52964214292e-06
9.57645011927e-07
3.98080554101e-07
4.65097531936e-06
4.62501452697e-07
2.65339866002e-07
3.08373409922e-06
1.15660886321e-07
1.16680905932e-07
1.38599432695e-06
0
2.49509038225e-08
2.95228911093e-07
0
0
0
0
0
0
0
0
0
0
0
0
0
0
0
0
0
1.11534052546e-07
1.60572176361e-10
2.47276256596e-07
4.46062384323e-07
9.40314064701e-09
1.18994505393e-06
9.23729946368e-07
4.65546912624e-08
2.72014527309e-06
1.32101845011e-06
1.15740700803e-07
4.22410176148e-06
1.47283109783e-06
1.93223353691e-07
5.17472052574e-06
1.47277984163e-06
2.56727385321e-07
5.50007890269e-06
1.47272858519e-06
3.11008925257e-07
5.58786349684e-06
1.47267732852e-06
3.65293155551e-07
5.67564809105e-06
1.47262607168e-06
4.19580076226e-07
5.76343268522e-06
1.32075952921e-06
4.47840696572e-07
5.59081897262e-06
9.23534563966e-07
3.98082742583e-07
4.70162982292e-06
4.45987977355e-07
2.65340746083e-07
3.11683776655e-06
1.11527606687e-07
1.16681058195e-07
1.40069205448e-06
0
2.49509082082e-08
2.98328964498e-07
0
0
0
0
0
0
0
0
0
0
0
0
0
0
0
0
0
1.07400920259e-07
1.60574199865e-10
2.5038153629e-07
4.29550589867e-07
9.40320105128e-09
1.20471098222e-06
8.89623835674e-07
4.65549702677e-08
2.75342796905e-06
1.27228961608e-06
1.15741231869e-07
4.27496654071e-06
1.41851245221e-06
1.93223959798e-07
5.2359914714e-06
1.41845985061e-06
2.56728347347e-07
5.5641351658e-06
1.41840724888e-06
3.11010673189e-07
5.65191975997e-06
1.41835464689e-06
3.65295689406e-07
5.73970435418e-06
1.41830204476e-06
4.19583395906e-07
5.82748894835e-06
1.27202391394e-06
4.47844021414e-07
5.65199551607e-06
8.89423374097e-07
3.98084930838e-07
4.75228368698e-06
4.29474279681e-07
2.65341626123e-07
3.14994088945e-06
1.07394311171e-07
1.16681210463e-07
1.4153895746e-06
0
2.49509125754e-08
3.01429002015e-07
0
0
0
0
0
0
0
0
0
0
0
0
0
0
0
0
0
1.03267772072e-07
1.60576242033e-10
2.5348683187e-07
4.13038572992e-07
9.40326134655e-09
1.21947711792e-06
8.55516983057e-07
4.65552491419e-08
2.78671120946e-06
1.22355946147e-06
1.15741762781e-07
4.32583195941e-06
1.36419223451e-06
1.93224565744e-07
5.29726270325e-06
1.36413828765e-06
2.56729309185e-07
5.62819142892e-06
1.3640843405e-06
3.11012420819e-07
5.71597602311e-06
1.36403039327e-06
3.65298222926e-07
5.80376061733e-06
1.36397644565e-06
4.19586715357e-07
5.89154521149e-06
1.22328697798e-06
4.47847345935e-07
5.71317177331e-06
8.55311442398e-07
3.98087118869e-07
4.80293691156e-06
4.12960359545e-07
2.65342506074e-07
3.18304346785e-06
1.0326099981e-07
1.16681362695e-07
1.43008688731e-06
0
2.49509169727e-08
3.04529023663e-07
0
0
0
0
0
0
0
0
0
0
0
0
0
0
0
0
0
8.74046083997e-08
1.2211230271e-10
2.25400131558e-07
3.66277506729e-07
7.82633359017e-09
1.13591174057e-06
7.71955289498e-07
4.0263578387e-08
2.65574223578e-06
1.11295346357e-06
1.02367696415e-07
4.16231913313e-06
1.24373473601e-06
1.72579581961e-07
5.11575098892e-06
1.24369141382e-06
2.29890734432e-07
5.43929447115e-06
1.24364809146e-06
2.78591444572e-07
5.52323891677e-06
1.24360476888e-06
3.27294414847e-07
5.6071838523e-06
1.24356144608e-06
3.75999645334e-07
5.69112927769e-06
1.11273572741e-06
4.00377087001e-07
5.51293620411e-06
7.71794012213e-07
3.52360982762e-07
4.61594462894e-06
3.66219119722e-07
2.2955721482e-07
3.02872341304e-06
8.74006361038e-08
9.63118193465e-08
1.32943480379e-06
0
1.89202526875e-08
2.70273391062e-07
0
0
0
0
0
0
0
0
0
0
0
0
0
0
0
0
0
4.79779856246e-08
3.89552822191e-11
1.29293870203e-07
2.54243473793e-07
4.36686366737e-09
8.12028668647e-07
5.71082645051e-07
2.50141606679e-08
2.09242157969e-06
8.51107356542e-07
6.82093688791e-08
3.41931824777e-06
9.60325210999e-07
1.18929150471e-07
4.2712364777e-06
9.60304373016e-07
1.59856407077e-07
4.55803921195e-06
9.6028353494e-07
1.93947603718e-07
4.6276957165e-06
9.60262696694e-07
2.28040069951e-07
4.69735331557e-06
9.60241858234e-07
2.62133805729e-07
4.76701200925e-06
8.51004761158e-07
2.76834761158e-07
4.59920647045e-06
5.71012284823e-07
2.35411990856e-07
3.78722545703e-06
2.5422302648e-07
1.42682188235e-07
2.38193504804e-06
4.7977757227e-08
5.05117763526e-08
9.47774813401e-07
0
5.99934644253e-09
1.54783701554e-07
0
0
0
0
0
0
0
0
0
0
0
0
0
0
0
0
0
1.11741352597e-08
0
3.14133912755e-08
1.14856988347e-07
1.22896968547e-09
3.63654611848e-07
3.04696032977e-07
9.57659428592e-09
1.17775526127e-06
4.87684573286e-07
2.99983007469e-08
2.14637116157e-06
5.6272144426e-07
5.56566236286e-08
2.79522507419e-06
5.62716536353e-07
7.62639841218e-08
3.01152192743e-06
5.62711628357e-07
9.27715295605e-08
3.05709230823e-06
5.62706720331e-07
1.09279455651e-07
3.10266362092e-06
5.62701812184e-07
1.25787762305e-07
3.14823586551e-06
4.87661820094e-07
1.30501219484e-07
3.00721997582e-06
3.04683786046e-07
1.03980095001e-07
2.37360411242e-06
1.14856090471e-07
5.31255963559e-08
1.33724639185e-06
1.11741811584e-08
1.26266332982e-08
4.22897752941e-07
0
0
3.75495291987e-08
0
0
0
0
0
0
0
0
0
0
0
0
0
0
0
0
0
0
0
0
2.44994278694e-08
0
7.41074672341e-08
9.65180798834e-08
1.03240297467e-09
3.72581570794e-07
1.82037793495e-07
5.85476751412e-09
8.53171575505e-07
2.19949688177e-07
1.32482779586e-08
1.22427687258e-06
2.19949687454e-07
1.89180576257e-08
1.34926799735e-06
2.19949686763e-07
2.30509041651e-08
1.3694886977e-06
2.19949685952e-07
2.71837779424e-08
1.38970975306e-06
2.19949685166e-07
3.13166788525e-08
1.40993116343e-06
1.82038146433e-07
3.09141657144e-08
1.31574144819e-06
9.65190349246e-08
1.92279832168e-08
9.41385740011e-07
2.44996152695e-08
5.00595348938e-09
4.21505632594e-07
0
0
8.58411998135e-08
0
0
0
0
0
0
0
0
0
0
0
0
0
0
0
0
0
0
0
0
0
0
0
0
0
0
1.01807094832e-08
0
3.31823530898e-08
3.21035146664e-08
0
1.39432288314e-07
4.23340812346e-08
0
2.48486397987e-07
4.2334138224e-08
0
2.86600144242e-07
4.23341952915e-08
0
2.90854701187e-07
4.233425228e-08
0
2.9510928535e-07
4.23343093448e-08
0
2.99363896702e-07
3.21037114045e-08
0
2.66672262094e-07
1.01807358629e-08
0
1.53199046761e-07
0
0
3.72729169445e-08
0
0
0
0
0
0
0
0
0
0
0
0
0
0
0
0
0
0
0
0
0
0
0
0
0
0
0
0
0
0
0
0
0
0
0
0
0
0
0
0
0
0
0
0
0
0
0
0
0
0
0
0
0
0
0
0
0
0
0
0
0
0
0
0
0
0
0
0
0
0
0
0
0
0
0
0
0
0
0
0
0
0
0
0
0
0
0
0
0
0
0
0
0
0
0
0
0
0
0
0
0
0
0
0
0
0
0
0
0
0
0
0
0
0
0
0
0
0
0
0
0
0
0
0
0
0
0
0
0
0
0
0
0
0
0
0
0
0
0
0
0
0
0
0
0
0
0
0
0
0
0
0
0
0
0
0
0
0
0
0
0
0
0
0
0
0
0
0
0
0
0
0
0
0
0
0
0
0
0
0
0
0
0
0
0
0
0
0
0
0
0
0
0
0
0
0
0
0
0
0
0
0
0
0
0
0
0
0
0
0
0
0
0
0
0
0
0
0
0
0
0
0
0
0
0
0
0
0
0
0
0
0
0
0
0
0
0
0
0
0
0
0
0
0
0
0
0
0
0
0
0
0
0
0
0
0
0
0
0
0
0
0
0
0
0
0
0
0
0
0
0
0
0
0
0
0
0
0
0
0
0
0
0
0
0
0
0
0
0
0
0
0
0
0
0
0
0
0
0
0
0
0
0
0
1.61267039712e-08
6.59295442687e-10
2.83317078529e-08
5.08575679015e-08
4.30486087046e-09
1.19281858173e-07
6.70666562449e-08
1.05195657919e-08
2.13014864059e-07
6.70662199279e-08
1.58142342765e-08
2.46253857904e-07
6.70657836315e-08
1.99469927661e-08
2.50503935509e-07
6.70653473513e-08
2.40797784818e-08
2.54753985923e-07
6.70649110353e-08
2.82125913794e-08
2.59004009148e-07
5.08560624133e-08
2.81853386037e-08
2.31192982796e-07
1.61265021115e-08
1.76781859209e-08
1.33052026302e-07
0
4.63286162577e-09
3.24228306602e-08
0
0
0
0
0
0
0
0
0
0
0
0
0
0
0
0
0
0
0
0
0
0
0
9.47958523076e-10
-2.02593138583e-11
1.67901084645e-09
6.50018350152e-08
6.54767463243e-10
1.18910277314e-07
2.12103035537e-07
9.28625434127e-09
4.75652088009e-07
3.81544282613e-07
3.41283701238e-08
9.7194114522e-07
4.52780578534e-07
6.7649573912e-08
1.34105133915e-06
4.52768104666e-07
9.64700783129e-08
1.46757633438e-06
4.52755630754e-07
1.20883762729e-07
1.49260679473e-06
4.52743156847e-07
1.45298072625e-07
1.51763662963e-06
4.52730682926e-07
1.6971300796e-07
1.54266583903e-06
3.81487781794e-07
1.7929042191e-07
1.45567341257e-06
2.12074030528e-07
1.46664177031e-07
1.08768369807e-06
6.49974266262e-08
7.96674961727e-08
5.4810328091e-07
9.47957398054e-10
2.16748354025e-08
1.40553255721e-07
0
3.41227397431e-10
2.05114684181e-09
0
0
0
0
0
0
0
0
0
0
0
0
0
0
0
0
0
6.38842334674e-08
-1.39119532224e-09
1.18336757196e-07
3.36924576377e-07
2.35117794648e-09
6.80710048226e-07
7.60389366824e-07
3.11344038159e-08
1.73258132005e-06
1.13433140933e-06
9.32944641886e-08
2.85028333258e-06
1.28022827295e-06
1.68621473772e-07
3.57741210468e-06
1.28016765198e-06
2.34597233675e-07
3.82695462931e-06
1.28010703088e-06
2.92920595155e-07
3.89149363618e-06
1.28004640972e-06
3.51246472862e-07
3.95603039725e-06
1.27998578832e-06
4.09574866874e-07
4.02056491246e-06
1.13403017441e-06
4.42450215413e-07
3.88145863756e-06
7.60174638755e-07
3.9776179833e-07
3.1907678448e-06
3.3685251465e-07
2.6734462835e-07
1.99918838415e-06
6.38788664049e-08
1.16056150374e-07
8.076911463e-07
0
2.33993234708e-08
1.44229155649e-07
0
0
0
0
0
0
0
0
0
0
0
0
0
0
1.46366360466e-08
-8.30869612164e-10
2.79172950704e-08
2.46503645767e-07
-4.65189409161e-09
4.71470798783e-07
8.17955264584e-07
5.1397586391e-09
1.7247389444e-06
1.52334972189e-06
5.83590005354e-08
3.50245979572e-06
2.0766818923e-06
1.58613042957e-07
5.17795580848e-06
2.28355891168e-06
2.75389943175e-07
6.22426809099e-06
2.28342744052e-06
3.79108321504e-07
6.59009355575e-06
2.28329596908e-06
4.72655654552e-07
6.69998701084e-06
2.28316449734e-06
5.66208287757e-07
6.8098767502e-06
2.28303302527e-06
6.5976622108e-07
6.91976277374e-06
2.07600072279e-06
7.19614286644e-07
6.7486382353e-06
1.52278756631e-06
6.74031674365e-07
5.79339476628e-06
8.17687927746e-07
5.00745820509e-07
4.04130782304e-06
2.46456983708e-07
2.63791462344e-07
2.0489289174e-06
1.46362716593e-08
7.68675139902e-08
5.74800885717e-07
0
6.12294998388e-09
3.50756464181e-08
0
0
0
0
0
0
0
0
0
0
0
5.92297841412e-08
-2.62131576285e-09
1.17124626959e-07
4.82906223642e-07
-8.52030343408e-09
9.59083737894e-07
1.2973287702e-06
7.55500792954e-09
2.82444453703e-06
2.18916579595e-06
7.97820276483e-08
5.15429448624e-06
2.8563649423e-06
2.07663157399e-07
7.24461220418e-06
3.10102469041e-06
3.54048315835e-07
8.52582076217e-06
3.10084539818e-06
4.850401664e-07
8.98005702672e-06
3.1006661056e-06
6.04321260489e-07
9.12820115432e-06
3.10048681247e-06
7.23610094601e-07
9.27634174735e-06
3.10030751898e-06
8.42906668869e-07
9.42447880582e-06
2.85541666157e-06
9.23438189402e-07
9.23711803747e-06
2.18832695013e-06
8.81215488313e-07
8.09864358418e-06
1.29686301152e-06
6.8439039981e-07
5.94226687403e-06
4.82787000357e-07
3.94993025493e-07
3.35409074226e-06
5.92258479148e-08
1.38974447327e-07
1.16947622206e-06
0
1.93101545156e-08
1.46859834033e-07
0
0
0
0
0
0
0
0
0
0
0
1.01333952447e-07
-3.45744759392e-09
2.08390206974e-07
6.36300775445e-07
-1.01599758712e-08
1.31750498098e-06
1.55842474497e-06
8.48993647985e-09
3.52920899715e-06
2.52584221716e-06
8.78053205722e-08
6.16802453251e-06
3.23571304065e-06
2.25689339285e-07
8.48740096134e-06
3.49381145573e-06
3.82713983477e-07
9.89676590124e-06
3.49363795902e-06
5.23557200786e-07
1.03994419577e-05
3.49346446187e-06
6.52181764047e-07
1.05692365689e-05
3.49329096402e-06
7.80815023051e-07
1.07390297345e-05
3.49311746557e-06
9.0945697784e-07
1.09088214546e-05
3.23478732103e-06
9.9766173508e-07
1.07140674431e-05
2.52499947305e-06
9.57315003862e-07
9.47809412531e-06
1.55792745479e-06
7.5316946185e-07
7.10216011718e-06
6.36154185835e-07
4.46298483653e-07
4.18570334173e-06
1.0132674627e-07
1.6514245308e-07
1.60517483935e-06
0
2.54651651983e-08
2.60749465583e-07
0
0
0
0
0
0
0
0
0
0
0
1.11414015977e-07
-3.45745082695e-09
2.39919637485e-07
6.61715212316e-07
-1.01599529435e-08
1.43564585339e-06
1.5850643739e-06
8.49030710377e-09
3.75913699458e-06
2.54441379909e-06
8.7806343551e-08
6.50223252914e-06
3.24509279285e-06
2.25690919418e-07
8.90055108234e-06
3.49931073244e-06
3.82715651481e-07
1.0353729329e-05
3.49915289351e-06
5.23560016266e-07
1.08717429673e-05
3.49899505398e-06
6.52187119572e-07
1.10473104622e-05
3.4988372139e-06
7.80822918661e-07
1.12228779571e-05
3.49867937306e-06
9.09467413599e-07
1.1398445452e-05
3.2442489805e-06
9.97672559252e-07
1.11991242548e-05
2.54364075212e-06