/*--------------------------------*- C++ -*----------------------------------*\
| =========                 |                                                 |
| \\      /  F ield         | OpenFOAM: The Open Source CFD Toolbox           |
|  \\    /   O peration     | Version:  3.0.1                                 |
|   \\  /    A nd           | Web:      www.OpenFOAM.org                      |
|    \\/     M anipulation  |                                                 |
\*---------------------------------------------------------------------------*/
FoamFile
{
    version     2.0;
    format      ascii;
    class       volScalarField;
    location    "0.4";
    object      rAU;
}
// * * * * * * * * * * * * * * * * * * * * * * * * * * * * * * * * * * * * * //

dimensions      [-1 3 1 0 0 0 0];

internalField   nonuniform List<scalar> 
7968
(
1.04127995839e-05
1.03826948086e-05
1.0381788653e-05
1.03817653699e-05
1.03818386953e-05
1.03809964237e-05
1.03805357903e-05
1.03811073392e-05
1.03812974726e-05
1.03813673706e-05
1.03813658116e-05
1.03812897157e-05
1.03810900284e-05
1.03805051307e-05
1.03810096567e-05
1.03818653066e-05
1.03817577566e-05
1.03817953038e-05
1.03826935628e-05
1.04127832932e-05
1.03826992037e-05
1.03141936188e-05
1.02999548362e-05
1.02959516093e-05
1.02949759432e-05
1.02945613633e-05
1.02944159133e-05
1.02944806017e-05
1.02945911753e-05
1.02946360892e-05
1.02946340844e-05
1.02945879453e-05
1.02944733639e-05
1.02944168165e-05
1.02945767923e-05
1.02949967616e-05
1.02959505211e-05
1.02999560022e-05
1.03141888779e-05
1.03826907786e-05
1.03817465738e-05
1.02999499029e-05
1.02774851968e-05
1.02701490687e-05
1.0268139234e-05
1.02676593196e-05
1.02675658233e-05
1.02676864989e-05
1.02678060668e-05
1.0267875812e-05
1.02678728714e-05
1.02677984028e-05
1.02676762656e-05
1.02675663649e-05
1.0267663899e-05
1.02681388937e-05
1.0270156355e-05
1.02774800601e-05
1.02999399124e-05
1.03817487829e-05
1.03817517271e-05
1.02958735069e-05
1.02701432237e-05
1.02611574176e-05
1.02586861813e-05
1.02580786584e-05
1.02581180764e-05
1.02583763839e-05
1.02586522456e-05
1.02587804356e-05
1.02587770989e-05
1.02586423274e-05
1.02583666623e-05
1.02581139026e-05
1.02580781286e-05
1.02586858727e-05
1.02611504959e-05
1.02701366604e-05
1.02958677476e-05
1.03817460279e-05
1.03818157721e-05
1.02949617573e-05
1.02681047547e-05
1.0258673707e-05
1.02559040179e-05
1.02552249928e-05
1.0255278987e-05
1.02556977093e-05
1.02560176965e-05
1.02561605269e-05
1.0256157314e-05
1.02560094241e-05
1.02556883869e-05
1.02552717981e-05
1.02552325962e-05
1.02559071227e-05
1.02586656129e-05
1.0268097635e-05
1.02949541208e-05
1.03818170478e-05
1.03809903759e-05
1.02945184087e-05
1.02676605654e-05
1.02580880942e-05
1.02552521881e-05
1.02543244938e-05
1.02538507409e-05
1.02536918889e-05
1.02535228027e-05
1.02533169191e-05
1.02533172562e-05
1.0253524431e-05
1.02536862735e-05
1.02538559608e-05
1.02543411117e-05
1.02552582947e-05
1.02580889477e-05
1.02676614274e-05
1.0294521107e-05
1.03809763462e-05
1.03805324341e-05
1.0294406896e-05
1.02675497995e-05
1.02581447803e-05
1.025529243e-05
1.02538627334e-05
1.0252971568e-05
1.02530167507e-05
1.02529021179e-05
1.02526835223e-05
1.02526852259e-05
1.02529025506e-05
1.02530096145e-05
1.02529666617e-05
1.02538892805e-05
1.02553062708e-05
1.02581435454e-05
1.02675515906e-05
1.0294409478e-05
1.03805081145e-05
1.03810916268e-05
1.02944377126e-05
1.02676863685e-05
1.02583895191e-05
1.02557256167e-05
1.02536563666e-05
1.02530077043e-05
1.02538696471e-05
1.02543514473e-05
1.02544348871e-05
1.02544351777e-05
1.02543424933e-05
1.02538497881e-05
1.02529862661e-05
1.02536796465e-05
1.02557513005e-05
1.02583842964e-05
1.02676896382e-05
1.02944340631e-05
1.03810883843e-05
1.03812746825e-05
1.02945786203e-05
1.02677950722e-05
1.02586691187e-05
1.02560150641e-05
1.0253503465e-05
1.02528836203e-05
1.02543475303e-05
1.02550265929e-05
1.02551930866e-05
1.02551921649e-05
1.02550158736e-05
1.02543231041e-05
1.02528396352e-05
1.0253529267e-05
1.02560568428e-05
1.0258658107e-05
1.02677923087e-05
1.02945778313e-05
1.03812716227e-05
1.03813617293e-05
1.02946233312e-05
1.02678750907e-05
1.02587930518e-05
1.0256161996e-05
1.02532738695e-05
1.02526639083e-05
1.02544306086e-05
1.02551913189e-05
1.02553808344e-05
1.02553771854e-05
1.02551790941e-05
1.02544043145e-05
1.02526060621e-05
1.02533008246e-05
1.02562158903e-05
1.02587781727e-05
1.02678722639e-05
1.02946192723e-05
1.03813578826e-05
1.03813605018e-05
1.0294629075e-05
1.02678729914e-05
1.02587909853e-05
1.02561649204e-05
1.02532732973e-05
1.02526621858e-05
1.02544325711e-05
1.02551944632e-05
1.02553832647e-05
1.02553796827e-05
1.02551822414e-05
1.02544087783e-05
1.0252608559e-05
1.02533035283e-05
1.02562159231e-05
1.02587776897e-05
1.02678724057e-05
1.02946255549e-05
1.03813592033e-05
1.03812808195e-05
1.02945812364e-05
1.02677995212e-05
1.02586676119e-05
1.02560211697e-05
1.02535028456e-05
1.02528805619e-05
1.02543490328e-05
1.02550310535e-05
1.02551993451e-05
1.02551987195e-05
1.02550239615e-05
1.02543297204e-05
1.02528467778e-05
1.02535350734e-05
1.02560599421e-05
1.02586604067e-05
1.02677978606e-05
1.0294584597e-05
1.03812827163e-05
1.03810962505e-05
1.02944466974e-05
1.0267685955e-05
1.02583903023e-05
1.02557308553e-05
1.02536644733e-05
1.0253008794e-05
1.02538753137e-05
1.02543631464e-05
1.02544492974e-05
1.02544525145e-05
1.02543602126e-05
1.02538661697e-05
1.02529990009e-05
1.02536993771e-05
1.02557589328e-05
1.02583880106e-05
1.02676931763e-05
1.02944500835e-05
1.03811101249e-05
1.038055039e-05
1.02944123396e-05
1.02675552502e-05
1.02581456845e-05
1.02552979492e-05
1.02538706684e-05
1.02529795387e-05
1.02530253026e-05
1.02529164682e-05
1.02527033598e-05
1.02527089312e-05
1.02529264047e-05
1.02530314872e-05
1.02529905518e-05
1.02539072353e-05
1.02553099582e-05
1.0258146715e-05
1.0267558691e-05
1.02944220564e-05
1.0380575982e-05
1.03810029955e-05
1.02945273621e-05
1.02676633633e-05
1.02580881472e-05
1.02552530958e-05
1.02543325797e-05
1.02538582655e-05
1.02537035036e-05
1.02535396192e-05
1.02533364182e-05
1.02533391415e-05
1.02535466912e-05
1.0253708016e-05
1.02538716781e-05
1.025434133e-05
1.02552559399e-05
1.02580907623e-05
1.02676633577e-05
1.02945257638e-05
1.03810107035e-05
1.03818165405e-05
1.02949609584e-05
1.02680991829e-05
1.02586698205e-05
1.02559037855e-05
1.02552267005e-05
1.02552765977e-05
1.02556974991e-05
1.02560174917e-05
1.02561607727e-05
1.02561571593e-05
1.02560074426e-05
1.02556872907e-05
1.02552670016e-05
1.0255227961e-05
1.02559044508e-05
1.02586678388e-05
1.02680993652e-05
1.02949527992e-05
1.03817995508e-05
1.03817453176e-05
1.02958841111e-05
1.02701393158e-05
1.02611501802e-05
1.02586828969e-05
1.02580746214e-05
1.0258116101e-05
1.02583699197e-05
1.02586493278e-05
1.02587762113e-05
1.02587733445e-05
1.02586395144e-05
1.0258363133e-05
1.02581124565e-05
1.02580752253e-05
1.02586847309e-05
1.02611558727e-05
1.02701459115e-05
1.02958833906e-05
1.03817399531e-05
1.03817593282e-05
1.0299950359e-05
1.02774833316e-05
1.02701499325e-05
1.02681368522e-05
1.02676600045e-05
1.02675664712e-05
1.02676912156e-05
1.02678088786e-05
1.02678812976e-05
1.02678788575e-05
1.02678039014e-05
1.02676823285e-05
1.02675680643e-05
1.02676655826e-05
1.02681390866e-05
1.02701685699e-05
1.02774926962e-05
1.02999570772e-05
1.03817601815e-05
1.03826975512e-05
1.03141921585e-05
1.02999484848e-05
1.02959449251e-05
1.02949713024e-05
1.02945609389e-05
1.02944099544e-05
1.02944733682e-05
1.02945891305e-05
1.02946321653e-05
1.02946320215e-05
1.02945888634e-05
1.02944732549e-05
1.02944170134e-05
1.02945739549e-05
1.02949930975e-05
1.02959567967e-05
1.02999613943e-05
1.03142075972e-05
1.03827016774e-05
1.04127849452e-05
1.03826863469e-05
1.03817909324e-05
1.03817665811e-05
1.03818559828e-05
1.03809639156e-05
1.03804911241e-05
1.03811029561e-05
1.03812896136e-05
1.03813610985e-05
1.03813615585e-05
1.03812882599e-05
1.03810935287e-05
1.03804985517e-05
1.03809989818e-05
1.03818667291e-05
1.0381759403e-05
1.03817975921e-05
1.0382699708e-05
1.04127954231e-05
1.03828153453e-05
1.03144170984e-05
1.0300227489e-05
1.02963297289e-05
1.0295490778e-05
1.02947528972e-05
1.0294476062e-05
1.0294855842e-05
1.02950745164e-05
1.02951509877e-05
1.02951490918e-05
1.02950638286e-05
1.02948335254e-05
1.02944576884e-05
1.02947728326e-05
1.02955139767e-05
1.02963244847e-05
1.03002282636e-05
1.03144106282e-05
1.03828073478e-05
1.0314423224e-05
9.98864804753e-06
9.86092686111e-06
9.82307509029e-06
9.81359244375e-06
9.81169214203e-06
9.81146005444e-06
9.81163466515e-06
9.81181137799e-06
9.81191122466e-06
9.811908458e-06
9.81180496215e-06
9.8116247876e-06
9.81145688352e-06
9.81169426164e-06
9.81359271382e-06
9.82306690824e-06
9.86091987367e-06
9.98863795148e-06
1.03144215396e-05
1.03002233479e-05
9.86092036259e-06
9.66826849705e-06
9.60318512093e-06
9.58471894175e-06
9.58046700718e-06
9.5797633829e-06
9.57979106755e-06
9.57992260323e-06
9.5799962621e-06
9.57999356822e-06
9.57991601268e-06
9.57978267616e-06
9.57975750358e-06
9.58046362534e-06
9.58471256884e-06
9.60317552493e-06
9.66825672319e-06
9.86091379068e-06
1.03002262822e-05
1.02963252624e-05
9.82307074987e-06
9.6031806053e-06
9.52416561975e-06
9.50033937032e-06
9.4944935163e-06
9.49331658163e-06
9.49326575701e-06
9.49343017947e-06
9.49349490517e-06
9.49349128185e-06
9.4934191367e-06
9.49325070773e-06
9.49331130269e-06
9.49448991328e-06
9.50033283846e-06
9.52415587346e-06
9.60316986001e-06
9.8230601685e-06
1.02963183538e-05
1.02954887856e-05
9.81358863936e-06
9.58472154148e-06
9.50034012138e-06
9.47426117915e-06
9.46799230952e-06
9.46718525645e-06
9.46739014374e-06
9.4675941554e-06
9.46764934293e-06
9.4676438984e-06
9.46758376458e-06
9.46737504389e-06
9.46716918441e-06
9.46797314281e-06
9.47425924747e-06
9.50033170656e-06
9.58471231939e-06
9.81358196127e-06
1.02954869873e-05
1.02947672564e-05
9.81169332296e-06
9.58046619125e-06
9.49449905569e-06
9.46799441538e-06
9.46207111009e-06
9.46146315763e-06
9.46184973411e-06
9.4620926263e-06
9.46212932146e-06
9.46212511784e-06
9.46208008215e-06
9.46182872863e-06
9.46143884774e-06
9.46205187608e-06
9.46797230277e-06
9.49449367369e-06
9.58045889311e-06
9.8116909795e-06
1.02947771788e-05
1.0294477608e-05
9.81146034929e-06
9.5797678682e-06
9.49330744678e-06
9.46719484239e-06
9.4614609862e-06
9.46131418955e-06
9.46207532784e-06
9.46246562411e-06
9.46252363328e-06
9.46251933219e-06
9.46245316097e-06
9.46205136404e-06
9.46127899668e-06
9.46143036186e-06
9.46717220417e-06
9.49330695904e-06
9.57976170119e-06
9.81145927841e-06
1.02944908143e-05
1.02948506897e-05
9.81163212193e-06
9.57978299017e-06
9.49327704269e-06
9.4673944481e-06
9.46184679583e-06
9.46207197992e-06
9.46311429453e-06
9.4636367985e-06
9.46375514132e-06
9.46374790832e-06
9.46362284073e-06
9.46308781071e-06
9.46203184889e-06
9.4618067137e-06
9.46736744628e-06
9.49324947699e-06
9.57977280713e-06
9.81162906997e-06
1.02948536991e-05
1.02950665033e-05
9.81179999517e-06
9.57992563372e-06
9.49343225646e-06
9.46760722559e-06
9.46207743274e-06
9.46245816225e-06
9.46363547126e-06
9.46425819309e-06
9.46439212331e-06
9.46438836126e-06
9.46424120256e-06
9.46360589529e-06
9.46241440719e-06
9.4620323885e-06
9.46757783006e-06
9.49339750529e-06
9.57991371388e-06
9.81179269448e-06
1.02950670405e-05
1.02951397837e-05
9.81190643613e-06
9.57999212249e-06
9.49351291817e-06
9.46764913717e-06
9.4621159909e-06
9.46251281374e-06
9.4637522162e-06
9.4644003679e-06
9.46458943684e-06
9.4645781847e-06
9.46437774774e-06
9.46371721699e-06
9.46246365135e-06
9.46207160647e-06
9.46761534816e-06
9.49347682418e-06
9.5799757102e-06
9.81189840618e-06
1.0295139397e-05
1.02951423832e-05
9.81190550088e-06
9.57999351301e-06
9.49351305911e-06
9.46765105441e-06
9.46211879997e-06
9.46251771754e-06
9.4637571979e-06
9.46440031684e-06
9.46458973562e-06
9.46458008715e-06
9.46438071929e-06
9.46372221977e-06
9.46247081718e-06
9.46207601931e-06
9.46761880869e-06
9.49347784219e-06
9.57997845235e-06
9.81189888116e-06
1.02951428827e-05
1.02950686723e-05
9.81180362095e-06
9.5799248988e-06
9.49343355223e-06
9.46760735217e-06
9.46208353812e-06
9.46246603335e-06
9.46364547423e-06
9.46426723613e-06
9.46439838647e-06
9.46439544872e-06
9.4642504115e-06
9.4636160791e-06
9.46242458856e-06
9.46204484455e-06
9.46758071305e-06
9.49340244735e-06
9.57991538024e-06
9.81179911277e-06
1.02950743324e-05
1.0294854868e-05
9.81163431512e-06
9.57978469118e-06
9.49327578994e-06
9.46739587529e-06
9.46185290175e-06
9.46208310304e-06
9.46312904612e-06
9.46365182013e-06
9.4637670074e-06
9.46376220372e-06
9.46363690018e-06
9.46310305556e-06
9.46204821244e-06
9.46182378187e-06
9.4673728136e-06
9.49325363898e-06
9.57977664299e-06
9.81163497533e-06
1.02948666962e-05
1.02944882513e-05
9.81146379709e-06
9.57976908443e-06
9.49330819278e-06
9.46719395164e-06
9.46146775651e-06
9.46132648481e-06
9.46209162521e-06
9.46248467989e-06
9.46254193108e-06
9.46253850806e-06
9.46247169155e-06
9.46207078212e-06
9.46130148518e-06
9.46144833658e-06
9.46717532084e-06
9.49330565528e-06
9.57976483058e-06
9.81146461288e-06
1.02945139996e-05
1.02947770171e-05
9.81169615179e-06
9.58046622909e-06
9.49449841329e-06
9.46799316072e-06
9.46207256383e-06
9.46147155209e-06
9.46186439287e-06
9.46211075956e-06
9.46214978027e-06
9.46214623461e-06
9.46210047285e-06
9.46184966166e-06
9.46145602456e-06
9.46205602313e-06
9.46797557851e-06
9.49449509938e-06
9.58046166432e-06
9.81169210751e-06
1.02947774193e-05
1.0295488191e-05
9.81359018057e-06
9.58471853013e-06
9.50033597496e-06
9.47425903415e-06
9.46798987064e-06
9.46718625536e-06
9.46739174701e-06
9.46759818992e-06
9.46765307348e-06
9.46764803451e-06
9.46758729306e-06
9.46737718502e-06
9.46717105873e-06
9.46797399546e-06
9.47425568019e-06
9.5003348139e-06
9.58471728423e-06
9.81358512827e-06
1.02954715576e-05
1.02963200743e-05
9.82306714367e-06
9.60317441422e-06
9.52415856387e-06
9.50033221392e-06
9.49448886412e-06
9.49331488759e-06
9.49326278182e-06
9.49342787715e-06
9.49349410652e-06
9.49349159134e-06
9.49341910446e-06
9.49325091251e-06
9.49330414326e-06
9.4944845344e-06
9.50033227696e-06
9.52416225696e-06
9.60318018007e-06
9.82307271366e-06
1.02963205545e-05
1.03002254424e-05
9.86091798312e-06
9.66825940907e-06
9.60317646196e-06
9.58471155857e-06
9.58045924142e-06
9.57975635393e-06
9.57978369795e-06
9.57991659862e-06
9.57999030683e-06
9.57998802647e-06
9.57991085785e-06
9.57977656767e-06
9.57975059824e-06
9.58045741685e-06
9.58471268204e-06
9.60318308823e-06
9.66827127138e-06
9.86093054661e-06
1.03002276146e-05
1.03144237514e-05
9.98863932916e-06
9.86092174004e-06
9.82306646202e-06
9.8135887127e-06
9.81168661724e-06
9.81145243153e-06
9.81162832474e-06
9.81180375592e-06
9.81190638344e-06
9.81190436539e-06
9.81180135607e-06
9.81162099031e-06
9.81144987834e-06
9.81168778733e-06
9.81359114417e-06
9.8230741073e-06
9.86093250944e-06
9.9886569924e-06
1.03144310918e-05
1.03828116282e-05
1.03144184773e-05
1.03002306492e-05
1.0296330483e-05
1.02954985273e-05
1.02947506331e-05
1.02944613794e-05
1.02948495272e-05
1.02950722452e-05
1.02951503632e-05
1.02951495266e-05
1.02950657708e-05
1.02948353034e-05
1.02944552174e-05
1.02947641365e-05
1.02955090184e-05
1.02963318989e-05
1.03002313993e-05
1.03144211966e-05
1.03828219943e-05
1.03817150149e-05
1.03001457409e-05
1.02779244806e-05
1.02707791756e-05
1.02689038465e-05
1.02682439847e-05
1.02680344861e-05
1.02682409587e-05
1.0268390982e-05
1.02684707626e-05
1.02684657701e-05
1.0268386173e-05
1.02682230836e-05
1.02680369283e-05
1.02682675597e-05
1.02689144363e-05
1.02707756172e-05
1.02779196013e-05
1.03001344461e-05
1.03817090643e-05
1.03001346072e-05
9.86118440884e-06
9.66894797859e-06
9.60420297418e-06
9.58602713375e-06
9.58199404512e-06
9.5814466957e-06
9.58158722087e-06
9.58179589412e-06
9.58191210753e-06
9.58190997166e-06
9.5817887881e-06
9.58157796816e-06
9.58143995125e-06
9.58199031769e-06
9.58601721144e-06
9.60418739548e-06
9.66893093372e-06
9.86117879235e-06
1.03001271317e-05
1.02779000009e-05
9.66893591945e-06
9.36719412787e-06
9.25199212932e-06
9.21538841679e-06
9.2059368556e-06
9.20400991344e-06
9.20379640056e-06
9.2038913812e-06
9.20397448971e-06
9.20397250499e-06
9.20388849611e-06
9.20379293864e-06
9.20400483066e-06
9.20592815178e-06
9.21537514466e-06
9.25197419245e-06
9.36717728506e-06
9.668927316e-06
1.02778993753e-05
1.02707735502e-05
9.6041949087e-06
9.25199101021e-06
9.10874178543e-06
9.06034535094e-06
9.04702219076e-06
9.04442074583e-06
9.04409459966e-06
9.04413381244e-06
9.04416398784e-06
9.04416301804e-06
9.04413124803e-06
9.04408664524e-06
9.04441880194e-06
9.04703275204e-06
9.06033842482e-06
9.10872678633e-06
9.25197533108e-06
9.6041881656e-06
1.0270764874e-05
1.02689061951e-05
9.58602068314e-06
9.21538861163e-06
9.06034725963e-06
9.00683793826e-06
8.99218167335e-06
8.98918712854e-06
8.98914554426e-06
8.98928892636e-06
8.98927588851e-06
8.98927047745e-06
8.98929058139e-06
8.98912906019e-06
8.9891549886e-06
8.99215882083e-06
9.00684179128e-06
9.06033923816e-06
9.21537520414e-06
9.58601599298e-06
1.02689019228e-05
1.02682548783e-05
9.58199399805e-06
9.20593814369e-06
9.04702516037e-06
8.99218886935e-06
8.9775856053e-06
8.97637667047e-06
8.97769686556e-06
8.9782413283e-06
8.9782703283e-06
8.97827707245e-06
8.97825312966e-06
8.97765232924e-06
8.9762620705e-06
8.97749352913e-06
8.99215293156e-06
9.04703521889e-06
9.20592741941e-06
9.581991404e-06
1.02682607551e-05
1.02680431022e-05
9.58144416213e-06
9.20401124867e-06
9.04443520984e-06
8.98920702478e-06
8.97642061742e-06
8.97764738994e-06
8.98049147705e-06
8.98151097548e-06
8.98160127024e-06
8.98160931314e-06
8.98152989615e-06
8.98041256202e-06
8.97741981794e-06
8.97620518312e-06
8.98912590095e-06
9.04441967286e-06
9.20400323111e-06
9.58144594086e-06
1.02680593778e-05
1.02682377217e-05
9.58158416737e-06
9.20379520197e-06
9.04411795595e-06
8.98919528872e-06
8.97782188794e-06
8.98059402028e-06
8.98438062255e-06
8.9857268555e-06
8.98587899289e-06
8.9858764774e-06
8.98573516229e-06
8.98427997451e-06
8.98029910373e-06
8.97750614383e-06
8.98906452592e-06
9.04406855945e-06
9.20378910261e-06
9.5815847482e-06
1.02682524177e-05
1.02683981794e-05
9.58179321067e-06
9.20388688736e-06
9.04415668667e-06
8.98936455608e-06
8.97840134528e-06
8.98167172508e-06
8.98578692755e-06
8.98726763535e-06
8.98755654208e-06
8.98755824787e-06
8.98726614914e-06
8.98567026163e-06
8.98136242504e-06
8.97806220967e-06
8.98921004527e-06
9.04410517864e-06
9.20387969973e-06
9.5817907312e-06
1.02684033388e-05
1.02684703411e-05
9.58190734845e-06
9.20397130992e-06
9.04418612265e-06
8.98935380361e-06
8.97843921371e-06
8.98177101916e-06
8.98595590406e-06
8.98757038284e-06
8.98782982146e-06
8.98781086013e-06
8.98757539134e-06
8.98583504724e-06
8.98146334805e-06
8.97810367276e-06
8.98920589307e-06
9.04413256756e-06
9.20396141565e-06
9.5819018473e-06
1.02684731553e-05
1.02684716003e-05
9.58190908262e-06
9.20397081143e-06
9.04418651842e-06
8.98935632441e-06
8.97844531779e-06
8.98178317484e-06
8.98596918397e-06
8.98758602092e-06
8.98783774473e-06
8.98782649308e-06
8.98759592284e-06
8.98585341009e-06
8.9814831799e-06
8.97811733113e-06
8.98921097994e-06
9.04413415461e-06
9.20396222929e-06
9.58190406301e-06
1.02684748584e-05
1.02684032372e-05
9.58179586801e-06
9.20388831069e-06
9.04415713084e-06
8.98936760647e-06
8.9784163128e-06
8.98170961456e-06
8.98584457864e-06
8.98732223216e-06
8.98761013891e-06
8.98761534433e-06
8.98732254308e-06
8.98572779656e-06
8.98141477314e-06
8.97809583137e-06
8.98922073471e-06
9.04410867219e-06
9.2038813232e-06
9.58179570974e-06
1.02684118376e-05
1.02682401183e-05
9.5815868194e-06
9.20379677035e-06
9.04411786717e-06
8.98919845301e-06
8.97783396511e-06
8.98063785391e-06
8.98445407036e-06
8.98580436142e-06
8.98593890507e-06
8.98594851331e-06
8.9857955483e-06
8.98434326326e-06
8.98035411415e-06
8.97753808744e-06
8.98907492448e-06
9.04407350593e-06
9.2037909017e-06
9.58159091443e-06
1.02682606783e-05
1.02680538197e-05
9.58144756287e-06
9.2040119006e-06
9.04443626231e-06
8.98920254406e-06
8.97642516144e-06
8.97767050758e-06
8.9805397115e-06
8.98156398901e-06
8.98164102188e-06
8.98164240446e-06
8.98155255707e-06
8.98043424838e-06
8.97743931586e-06
8.97621723756e-06
8.98912809016e-06
9.04442067763e-06
9.20400534058e-06
9.58145141159e-06
1.02680731668e-05
1.0268264432e-05
9.58199645832e-06
9.20593707367e-06
9.04702815207e-06
8.99218708496e-06
8.97758049112e-06
8.97637835568e-06
8.97770757737e-06
8.97825385712e-06
8.97827283799e-06
8.97827153213e-06
8.97823953239e-06
8.9776374407e-06
8.97625469489e-06
8.9774921022e-06
8.99215448552e-06
9.04703283886e-06
9.20593095116e-06
9.58199595379e-06
1.02682568148e-05
1.02689027148e-05
9.58601917921e-06
9.21538228947e-06
9.06034077874e-06
9.00683527257e-06
8.99217569884e-06
8.98917927675e-06
8.98914204318e-06
8.98928616855e-06
8.98927013437e-06
8.9892624274e-06
8.98927880114e-06
8.98911852959e-06
8.98914716835e-06
8.99215357523e-06
9.00683494699e-06
9.06033788723e-06
9.21538038661e-06
9.58602131297e-06
1.02688886178e-05
1.02707727302e-05
9.60418990534e-06
9.25198098052e-06
9.1087285504e-06
9.0603343072e-06
9.04701574727e-06
9.04440986129e-06
9.04408276787e-06
9.04412408367e-06
9.04415435378e-06
9.04415347641e-06
9.04412123838e-06
9.04407643985e-06
9.04440421896e-06
9.04701765364e-06
9.06033099031e-06
9.10872762639e-06
9.25198470162e-06
9.60420251369e-06
1.02707724842e-05
1.02779076364e-05
9.66892920146e-06
9.36718211892e-06
9.25197775439e-06
9.21537450883e-06
9.2059249516e-06
9.20399841708e-06
9.20378636934e-06
9.203880009e-06
9.20396313968e-06
9.20396075835e-06
9.20387479784e-06
9.20377929681e-06
9.20399089813e-06
9.20591843067e-06
9.21537086673e-06
9.2519791902e-06
9.3671940779e-06
9.66894911374e-06
1.02779096749e-05
1.03001265129e-05
9.8611806869e-06
9.66894033604e-06
9.60419741946e-06
9.58602466378e-06
9.58199076507e-06
9.58144631748e-06
9.5815876846e-06
9.58179775151e-06
9.58191365211e-06
9.58191177027e-06
9.58179176371e-06
9.58158009095e-06
9.58143921398e-06
9.58198725205e-06
9.5860198454e-06
9.60420125583e-06
9.6689511372e-06
9.86119927097e-06
1.03001304969e-05
1.03817161321e-05
1.03001463803e-05
1.02779296942e-05
1.0270780917e-05
1.02689106337e-05
1.02682398131e-05
1.02680283636e-05
1.02682454028e-05
1.02683943468e-05
1.02684761909e-05
1.02684719645e-05
1.02683941333e-05
1.02682326298e-05
1.02680329646e-05
1.02682547856e-05
1.02689158271e-05
1.02707837158e-05
1.02779238773e-05
1.03001430263e-05
1.03817230872e-05
1.03810514541e-05
1.02958240593e-05
1.02703351086e-05
1.02616201131e-05
1.02592109447e-05
1.02585740678e-05
1.02583725185e-05
1.02583487859e-05
1.02583764003e-05
1.02583917926e-05
1.02583927226e-05
1.02583730568e-05
1.0258340172e-05
1.02583790258e-05
1.02585923826e-05
1.02592111566e-05
1.02616129296e-05
1.02703225305e-05
1.02958103788e-05
1.03810520723e-05
1.02958103447e-05
9.82282712168e-06
9.60390357217e-06
9.52553255882e-06
9.50218717606e-06
9.49670280337e-06
9.49575626513e-06
9.49574335363e-06
9.49587608695e-06
9.49596644642e-06
9.49596534581e-06
9.49587161408e-06
9.49573691224e-06
9.49575092483e-06
9.49669401293e-06
9.50217082881e-06
9.52551001407e-06
9.60388139884e-06
9.82280433664e-06
1.02958067164e-05
1.02702961895e-05
9.60389529628e-06
9.25218833482e-06
9.10940669735e-06
9.06139466639e-06
9.04830341173e-06
9.04558669874e-06
9.04526996386e-06
9.04533852184e-06
9.04539926403e-06
9.04539880609e-06
9.045340204e-06
9.04526990607e-06
9.04557796502e-06
9.04829089053e-06
9.06137905216e-06
9.1093852254e-06
9.25216659528e-06
9.60388685334e-06
1.02702792047e-05
1.02615939292e-05
9.52551963755e-06
9.10940473603e-06
8.9293008911e-06
8.86499223495e-06
8.84674702705e-06
8.84372692889e-06
8.84394960542e-06
8.84411283157e-06
8.84412947446e-06
8.84413753637e-06
8.84413486765e-06
8.84393536716e-06
8.84365641764e-06
8.84670201827e-06
8.86496985853e-06
8.92928375863e-06
9.10938657077e-06
9.52551077702e-06
1.02615812478e-05
1.02592147906e-05
9.50218098308e-06
9.06139462735e-06
8.86499629898e-06
8.79386308666e-06
8.7752779781e-06
8.77392323649e-06
8.77570700636e-06
8.77629585426e-06
8.77630097144e-06
8.77632085379e-06
8.77634312091e-06
8.77562865692e-06
8.77364753694e-06
8.77500834188e-06
8.79373875131e-06
8.86496701183e-06
9.06137998785e-06
9.50217550191e-06
1.02592005802e-05
1.02585847116e-05
9.49669799813e-06
9.04830949658e-06
8.84676487442e-06
8.77534223246e-06
8.75965391296e-06
8.76171932625e-06
8.76494116411e-06
8.76593629068e-06
8.76603670656e-06
8.76606907261e-06
8.76602396432e-06
8.76479749979e-06
8.76114505109e-06
8.75896800604e-06
8.77493160873e-06
8.84667363219e-06
9.04829170452e-06
9.49669514571e-06
1.02585847884e-05
1.02583797546e-05
9.49576052924e-06
9.04560231315e-06
8.84382263309e-06
8.77415700199e-06
8.76197090009e-06
8.76566653359e-06
8.76967899099e-06
8.77113839548e-06
8.77145319602e-06
8.77148280771e-06
8.77125287468e-06
8.76947350491e-06
8.76480996274e-06
8.76086140302e-06
8.77339109351e-06
8.84356663229e-06
9.04556493158e-06
9.49575891834e-06
1.02583925509e-05
1.02583542354e-05
9.49574925862e-06
9.04529909716e-06
8.84412433996e-06
8.77614960287e-06
8.76552583297e-06
8.77006925276e-06
8.77488922213e-06
8.77698112762e-06
8.77762573205e-06
8.77759838799e-06
8.77708330588e-06
8.77464522532e-06
8.76904802632e-06
8.76414843041e-06
8.77514592316e-06
8.84374264401e-06
9.0452421897e-06
9.49574815097e-06
1.0258367714e-05
1.02583828382e-05
9.49588529998e-06
9.0453692946e-06
8.84431741171e-06
8.77683741727e-06
8.76667899835e-06
8.77171993123e-06
8.77718114076e-06
8.77983671958e-06
8.7807766384e-06
8.78079079296e-06
8.77992032095e-06
8.77694753597e-06
8.77068270063e-06
8.76524607585e-06
8.77577143404e-06
8.84390468393e-06
9.04530604514e-06
9.49588147966e-06
1.02583896355e-05
1.02584075615e-05
9.49598060213e-06
9.04542868256e-06
8.84432665929e-06
8.77683547401e-06
8.76677549281e-06
8.77203757239e-06
8.7778103758e-06
8.78078421728e-06
8.78195341255e-06
8.78187946155e-06
8.78088106254e-06
8.77757988799e-06
8.77102203309e-06
8.76537445939e-06
8.77579123086e-06
8.8439198229e-06
9.04536382762e-06
9.49597325911e-06
1.02584046653e-05
1.0258407885e-05
9.49598235963e-06
9.0454279011e-06
8.84432733047e-06
8.77684188704e-06
8.76679625672e-06
8.77207720683e-06
8.77785912414e-06
8.78082514399e-06
8.78196969852e-06
8.78192810347e-06
8.78093881348e-06
8.77762407111e-06
8.7710847181e-06
8.76542976117e-06
8.77582389074e-06
8.84392991002e-06
9.04536622121e-06
9.49597503265e-06
1.02584060803e-05
1.02583898722e-05
9.49589030643e-06
9.04537039555e-06
8.84431856432e-06
8.77685846674e-06
8.76674448886e-06
8.77185012752e-06
8.77735791506e-06
8.78002089701e-06
8.78093702061e-06
8.78097337579e-06
8.78010879453e-06
8.77712152192e-06
8.77087407742e-06
8.7654113498e-06
8.77586624793e-06
8.84393131209e-06
9.04530981553e-06
9.49588609151e-06
1.02583961604e-05
1.02583595847e-05
9.4957542463e-06
9.04530001507e-06
8.84412431127e-06
8.77617437836e-06
8.76560589316e-06
8.77024216727e-06
8.7751414851e-06
8.77725776295e-06
8.77782469395e-06
8.7778756301e-06
8.77730079001e-06
8.77487464762e-06
8.76928950702e-06
8.76434571024e-06
8.77525386588e-06
8.8437713709e-06
9.04524705158e-06
9.49575497507e-06
1.02583741274e-05
1.02583854975e-05
9.4957659566e-06
9.04560259788e-06
8.84382074659e-06
8.77417073597e-06
8.7620313605e-06
8.76580459857e-06
8.76989142274e-06
8.77135984993e-06
8.77163100551e-06
8.7716390578e-06
8.77137001203e-06
8.76959307533e-06
8.76494675396e-06
8.76098011196e-06
8.77345204836e-06
8.84358034501e-06
9.04556989884e-06
9.49576428261e-06
1.0258394895e-05
1.02585963017e-05
9.49670308324e-06
9.04830778824e-06
8.84676173413e-06
8.77534286379e-06
8.75968124083e-06
8.76179777747e-06
8.7650655544e-06
8.76605847939e-06
8.76612217781e-06
8.76612194297e-06
8.76603675177e-06
8.76480078127e-06
8.76117100692e-06
8.75899890619e-06
8.77494259669e-06
8.84667150167e-06
9.04829678577e-06
9.49670290081e-06
1.02585867206e-05
1.02592121273e-05
9.50217980944e-06
9.06138839442e-06
8.86498598759e-06
8.79385094685e-06
8.77527540829e-06
8.77394385966e-06
8.77575400948e-06
8.7763397651e-06
8.77631983942e-06
8.77631548645e-06
8.77631329444e-06
8.7755934478e-06
8.77362347659e-06
8.77499112451e-06
8.79372751256e-06
8.86496387546e-06
9.06138622487e-06
9.50218369142e-06
1.02591926021e-05
1.02615988073e-05
9.52551453408e-06
9.10939182845e-06
8.92928468084e-06
8.86497479717e-06
8.84672977048e-06
8.84370287625e-06
8.84393709726e-06
8.84409819092e-06
8.84410538472e-06
8.84410420948e-06
8.84409101041e-06
8.84389217288e-06
8.84362279627e-06
8.84667865336e-06
8.8649576658e-06
8.92928074899e-06
9.10939534847e-06
9.52552497384e-06
1.02615890534e-05
1.02702840612e-05
9.6038923599e-06
9.25217287068e-06
9.10938994902e-06
9.06137738299e-06
9.04828934071e-06
9.04557192228e-06
9.04525509816e-06
9.04532198531e-06
9.04538109301e-06
9.04537953726e-06
9.04531813087e-06
9.04524799237e-06
9.04556041718e-06
9.04827943311e-06
9.0613728672e-06
9.1093903279e-06
9.25217633805e-06
9.60390461363e-06
1.02702722326e-05
1.02958098062e-05
9.82281649691e-06
9.60390029143e-06
9.52552588939e-06
9.50218608446e-06
9.49670109911e-06
9.49576088289e-06
9.49575017976e-06
9.49588347716e-06
9.49597404617e-06
9.49597134577e-06
9.49587659719e-06
9.49574260453e-06
9.49575121411e-06
9.49669342506e-06
9.5021779868e-06
9.52552085444e-06
9.60389785046e-06
9.82281807782e-06
1.02958097234e-05
1.03810605204e-05
1.02958326384e-05
1.02703317068e-05
1.02616233801e-05
1.02592150942e-05
1.02585705837e-05
1.02583838207e-05
1.02583544871e-05
1.02583861068e-05
1.02584010127e-05
1.02584004958e-05
1.02583836381e-05
1.02583524458e-05
1.02583791953e-05
1.02585835457e-05
1.02592105927e-05
1.02616159736e-05
1.02703147928e-05
1.02958206155e-05
1.03810756555e-05
1.03794323348e-05
1.02930014209e-05
1.02671869602e-05
1.02580587674e-05
1.02555309629e-05
1.02548133039e-05
1.02542036553e-05
1.02532232349e-05
1.02530644734e-05
1.02529671764e-05
1.02529645235e-05
1.02530540034e-05
1.02532201673e-05
1.02542085284e-05
1.02548162643e-05
1.02555219071e-05
1.02580431061e-05
1.02671724018e-05
1.02929522132e-05
1.03794199529e-05
1.02929708332e-05
9.81252766334e-06
9.58461873215e-06
9.5013670458e-06
9.47590348953e-06
9.46961180162e-06
9.46814258217e-06
9.46736495471e-06