/*--------------------------------*- C++ -*----------------------------------*\
| =========                 |                                                 |
| \\      /  F ield         | OpenFOAM: The Open Source CFD Toolbox           |
|  \\    /   O peration     | Version:  3.0.1                                 |
|   \\  /    A nd           | Web:      www.OpenFOAM.org                      |
|    \\/     M anipulation  |                                                 |
\*---------------------------------------------------------------------------*/
FoamFile
{
    version     2.0;
    format      ascii;
    class       surfaceVectorField;
    location    "0.4";
    object      Uf_0;
}
// * * * * * * * * * * * * * * * * * * * * * * * * * * * * * * * * * * * * * //

dimensions      [0 1 -1 0 0 0 0];

internalField   nonuniform List<vector> 
22672
(
(0.000144873731399 5.52595228655e-05 -0.000171943624138)
(5.41829703616e-05 0.000146890220138 -0.000171823720244)
(5.852876011e-05 5.96794136777e-05 -0.000291785684959)
(0.000358484430072 6.53849777701e-05 -0.000203764449202)
(0.000249425419003 0.000154772619196 -0.000236002300411)
(0.000251703999592 7.2445758264e-05 -0.000368406725526)
(0.000564836327645 9.11342862143e-05 -0.000212818139774)
(0.00048729349401 0.000189065621761 -0.000261193285001)
(0.00047485151729 9.91837488119e-05 -0.000395440031066)
(0.000713758323788 0.000129594806207 -0.000213643826798)
(0.000680269244389 0.000253048786342 -0.000266887635378)
(0.000658091725593 0.000140778953423 -0.00040199048608)
(0.000780588186055 0.000177598509975 -0.000214890704486)
(0.000797747208582 0.000339286428515 -0.000270279643624)
(0.000767855856582 0.000194610281194 -0.00040613135461)
(0.000755102958611 0.000227493118522 -0.000217038038276)
(0.000820766994684 0.000437743668497 -0.000274720268384)
(0.000788534289826 0.0002566210179 -0.000412267075757)
(0.000642243446407 0.000270980874651 -0.000219687912535)
(0.00074494208317 0.000531354919771 -0.000278877866533)
(0.000716141088736 0.000314369908904 -0.000418496230101)
(0.000460785636518 0.00030413799285 -0.000223006569817)
(0.000585009834496 0.00060807283219 -0.000283897440643)
(0.000562249437726 0.00036156739559 -0.000426607528744)
(0.000234740429337 0.000324523167982 -0.00022571736215)
(0.00036686011455 0.000660322169151 -0.000289361828476)
(0.000352474779679 0.000393585764106 -0.000434261820411)
(-1.1478734563e-05 0.000331263981448 -0.000226884318134)
(0.00011715797809 0.000685556965862 -0.000292860617583)
(0.000112254598228 0.00040931829958 -0.000439316839902)
(-0.000256969537779 0.000324166325981 -0.000226036910942)
(-0.000141726590154 0.000685199519504 -0.00029311779697)
(-0.000136796907112 0.000409147057405 -0.000439684661896)
(-0.000480839536627 0.000303403874513 -0.000223470113275)
(-0.000390031466137 0.000658900679922 -0.000289888317969)
(-0.000375496985884 0.000392771799605 -0.000435006806439)
(-0.000659405518151 0.000269871484483 -0.000220378570915)
(-0.000605174855678 0.000606189331378 -0.000284622905125)
(-0.000582339627637 0.000360343090569 -0.00042760313477)
(-0.000768588954374 0.000225481487285 -0.0002181327273)
(-0.000761573940793 0.000528986698427 -0.00027991321802)
(-0.000732481949214 0.000312618488098 -0.000419790085953)
(-0.000789421285045 0.00017522891718 -0.000216146869633)
(-0.000832958947802 0.000434756946055 -0.000275746838414)
(-0.00080061595881 0.00025403861575 -0.000413921369158)
(-0.000718441659665 0.000128084074552 -0.000214011697184)
(-0.000806534118744 0.00033631214141 -0.000271431065049)
(-0.000776622247345 0.000192182742969 -0.000407300261742)
(-0.000567610120459 9.07529368297e-05 -0.000212325828411)
(-0.000684957956687 0.000250943635268 -0.000266917761551)
(-0.000662978706001 0.000139027824399 -0.000401795398392)
(-0.000360716763995 6.42176959427e-05 -0.000204406002867)
(-0.000488447515509 0.000188055519438 -0.000261202380988)
(-0.000476202829648 9.84603347397e-05 -0.000394979395556)
(-0.00014432477167 5.15380845966e-05 -0.000174359076464)
(-0.000252165736258 0.000152143152738 -0.00023818940366)
(-0.000253713748135 6.92862733363e-05 -0.000368573556871)
(-4.78448415591e-05 0.000146027810079 -0.000174681074526)
(-5.16484321403e-05 5.48707588897e-05 -0.00029037841933)
(0.000151994629682 0.000253105631742 -0.000235882396517)
(6.40845599196e-05 0.000362943997861 -0.000203796577456)
(7.0753323902e-05 0.000255361828982 -0.000368071678768)
(0.00038900382362 0.000291842202403 -0.000293431136209)
(0.000287480457959 0.00039509848541 -0.000293555733938)
(0.000282880578354 0.000287527957206 -0.000477358899675)
(0.00062092844719 0.000371864192686 -0.000315262780604)
(0.000566456597298 0.000481875501829 -0.000329846106995)
(0.000526077008179 0.000358551534262 -0.000524756251301)
(0.000790990046824 0.00049030309754 -0.000323523452204)
(0.000796659212331 0.00062506313998 -0.000337291589022)
(0.000727199747253 0.000474358494613 -0.000542093265975)
(0.000867252388082 0.000634189250453 -0.000330109207522)
(0.000938298768662 0.000815494316865 -0.000336871215194)
(0.000851241506895 0.000627050259954 -0.000552480857922)
(0.000838936990092 0.000782840791413 -0.000336560096641)
(0.000965264424503 0.00102655028632 -0.000334731177265)
(0.000874000726172 0.000796831581574 -0.000560493210298)
(0.000710546128198 0.000914791733837 -0.000343087394642)
(0.000872318412891 0.00122893086564 -0.000332768702954)
(0.000790119315998 0.000958474366427 -0.000569177246886)
(0.000506129506164 0.00101401508575 -0.000350252699302)
(0.000679792684228 0.00139222830858 -0.000334173214607)
(0.000617017641093 0.00108939332378 -0.000579721195245)
(0.000256352355009 0.00107348188708 -0.000356505083909)
(0.000422778373751 0.00150180840071 -0.000339334884604)
(0.000384405347374 0.00117690029624 -0.000591682938967)
(-1.33315279942e-05 0.00109271466638 -0.000359094096419)
(0.000134466248425 0.00155503214883 -0.000343798673247)
(0.000121682950217 0.0012193074756 -0.000599759153884)
(-0.000282096361044 0.00107225910181 -0.000356969203997)
(-0.000162153671253 0.0015541432124 -0.000344084173172)
(-0.00014924591453 0.00121861352863 -0.000600143939895)
(-0.000529796865801 0.00101166710443 -0.000351041109819)
(-0.000448961630354 0.00149929820366 -0.000340039392356)
(-0.000410465804177 0.00117475423705 -0.00059266293103)
(-0.000730656481436 0.000911559248805 -0.000344157552231)
(-0.000702796815056 0.00138823929297 -0.000335208848432)
(-0.000640040087229 0.00108608796912 -0.000581160800846)
(-0.000854497949823 0.000778962488258 -0.000337527329134)
(-0.000891627716469 0.00122380040103 -0.00033411785778)
(-0.000809599869578 0.000954233134059 -0.000570950816209)
(-0.000879213495015 0.000630002604077 -0.00033103103383)
(-0.000979753311494 0.00102157423264 -0.000335801413598)
(-0.000888814813318 0.000792072843542 -0.000562091515664)
(-0.000798672850085 0.000486576348493 -0.000324337129417)
(-0.000948430258977 0.000809784554446 -0.00033816889691)
(-0.000861711922764 0.000622021506692 -0.000554015860698)
(-0.000625123481595 0.00036898558944 -0.000315794314129)
(-0.000802218307696 0.000620516365857 -0.000338025891159)
(-0.000733170016686 0.000469939555188 -0.000543137691896)
(-0.000388490719496 0.00028943461572 -0.000294985781781)
(-0.000568210704971 0.000477005945201 -0.000330393817994)
(-0.00052796204073 0.000354709113084 -0.0005256093498)
(-0.000148418619472 0.000253147559491 -0.000238511401721)
(-0.000288693355325 0.000390964747368 -0.000295366900825)
(-0.00028349307288 0.000284155588091 -0.000478926309452)
(-5.85654609015e-05 0.000364374304504 -0.000205600037676)
(-6.54131132896e-05 0.000256458735664 -0.00036678539631)
(0.000186283227289 0.000494195433464 -0.000261469914877)
(8.97846278411e-05 0.000572640544801 -0.000212814209416)
(9.74875602137e-05 0.000481784044363 -0.00039600176332)
(0.000475481661536 0.00057446570289 -0.000329970704724)
(0.000367467527622 0.000630847922258 -0.000315454691061)
(0.000353779929323 0.000534093984362 -0.000524969176882)
(0.000762062740689 0.000723453164664 -0.000351874915413)
(0.000715279162976 0.000772023897 -0.000351655997806)
(0.000647095215154 0.000655422878951 -0.000576746957206)
(0.000973991792892 0.000936999305315 -0.000350639352012)
(0.00100876541012 0.000997091754554 -0.000345683000544)
(0.000895807211756 0.000853428948806 -0.000583968362548)
(0.00106951064961 0.00119173799134 -0.000341493184937)
(0.00119019355653 0.00128954990992 -0.000320914021063)
(0.00104973980466 0.00111202030021 -0.000569575748642)
(0.00103106149893 0.00145306044669 -0.000330939783579)
(0.00122311599177 0.00161175851634 -0.000288504825469)
(0.00107629082494 0.00139745413851 -0.000546749136154)
(0.00086716129517 0.00168351770254 -0.00032385452292)
(0.00109931898639 0.00191751855313 -0.000257971804986)
(0.000968080995248 0.00166767396419 -0.000524665682858)
(0.000611975003401 0.00185467796984 -0.000323255399909)
(0.000847878855542 0.00216191763355 -0.000240232200586)
(0.000748537130137 0.00188389296842 -0.000514470231718)
(0.0003077458049 0.00195593960987 -0.000326628473943)
(0.00052180282169 0.00232314756141 -0.000236803309566)
(0.000461604927353 0.00202639179334 -0.000517068342398)
(-1.45967530068e-05 0.00198837157393 -0.000328788750001)
(0.000165951881386 0.00240054871611 -0.000239361292552)
(0.000146032023779 0.00209469385525 -0.000523126628066)
(-0.000336108773997 0.00195381250382 -0.000327154361531)
(-0.00019617214846 0.00239928187299 -0.000239681951041)
(-0.00017596592101 0.00209348784763 -0.000523576936173)
(-0.000637884573408 0.00185059857732 -0.000324207130969)
(-0.00055035254181 0.00231948183198 -0.00023772749523)
(-0.000489887444596 0.00202289609882 -0.000518359329613)
(-0.000889229288317 0.00167793353697 -0.000325169153981)
(-0.000872845893206 0.00215605554456 -0.000241522101802)
(-0.000773518126093 0.00187836854733 -0.00051642779635)
(-0.00104870917127 0.00144695632146 -0.000332391942244)
(-0.00111963178625 0.00191038627532 -0.000259793698228)
(-0.000988849265142 0.0016608027369 -0.000527070569973)
(-0.00108224693109 0.00118531220665 -0.000342939276678)
(-0.00123846618697 0.00160426552951 -0.000290297528737)
(-0.00109228375225 0.00139023495141 -0.000549129673378)
(-0.000982242918941 0.00093064794966 -0.000351857658652)
(-0.0012008238626 0.00128163956338 -0.000322659472416)
(-0.00106124535376 0.00110417800868 -0.000571848800737)
(-0.000766302534103 0.000717453625164 -0.000352625395024)
(-0.00101467051082 0.0009901993672 -0.000346948124827)
(-0.000902900914499 0.000846096844723 -0.000585626692118)
(-0.000476801979733 0.000569098286553 -0.000330774937038)
(-0.000717776264378 0.000765395387065 -0.000352354705722)
(-0.000650635282486 0.000648174614558 -0.000577904342441)
(-0.00018512744596 0.00049233424677 -0.000262455536781)
(-0.000368541978087 0.000625057369124 -0.000316623013369)
(-0.000355308344267 0.000528179800006 -0.00052578750094)
(-8.52851489625e-05 0.000573018824229 -0.000213507275002)
(-9.47782110999e-05 0.000480858257413 -0.000393783195169)
(0.000250027400455 0.000690637161629 -0.0002667989856)
(0.000127946669154 0.000724249527496 -0.000213650148294)
(0.00013902588956 0.000668465649701 -0.000401654991576)
(0.000618919206076 0.000808132106594 -0.000337139984143)
(0.000485776878362 0.00080421344974 -0.000323410431263)
(0.000469579882702 0.000738551325449 -0.000542273567435)
(0.000987227862433 0.0010204649702 -0.000345464082937)
(0.000928833845653 0.000987114276225 -0.00035045729523)
(0.000845118859312 0.000907509841412 -0.00058340909207)
(0.00126227738086 0.00131848991814 -0.000315957669594)
(0.00130676038992 0.0012759078127 -0.000315921830561)
(0.00116702940745 0.00117882165628 -0.000553865896608)
(0.00138626077321 0.00167109087604 -0.000267925661594)
(0.00154160060826 0.00164654105238 -0.000247115026054)
(0.00136724066129 0.00153086088609 -0.000480962461966)
(0.00133046576868 0.00202971110624 -0.000215536846877)
(0.00158016645526 0.0020527625592 -0.00016110032755)
(0.00139789618172 0.00191629493016 -0.000385183367568)
(0.00110928739744 0.00234248724025 -0.000174349482653)
(0.00141057426903 0.00243324624192 -8.04870877805e-05)
(0.00124724912902 0.00227679207994 -0.000294510591232)
(0.000774492755034 0.00257194116237 -0.000153780110243)
(0.0010760516482 0.00273375494261 -2.92186979122e-05)
(0.000952833479926 0.00256119333037 -0.000236993033221)
(0.000386591123034 0.00270594587119 -0.000149536128175)
(0.000654916478275 0.00292927025733 -1.19149634801e-05)
(0.000580793082486 0.00274590433187 -0.000218163692001)
(-1.58994236509e-05 0.00274846382433 -0.000150254493592)
(0.000208131739404 0.00302176582963 -1.16146938883e-05)
(0.000183744023779 0.0028331661605 -0.000218664888689)
(-0.000417456423752 0.0027031547221 -0.00015025508474)
(-0.000241191692796 0.00302019833869 -1.20176330184e-05)
(-0.000216442892794 0.00283158533312 -0.000219296644895)
(-0.000802433820358 0.00256661607325 -0.000155042466064)
(-0.000686050279489 0.0029245654217 -1.3157441294e-05)
(-0.000611647444896 0.00274127104089 -0.00022004506119)
(-0.00113313187339 0.00233525473679 -0.000176146646049)
(-0.00110298427935 0.00272662911877 -3.09977676859e-05)
(-0.000979816373421 0.0025539515222 -0.000239818897799)
(-0.00134909443946 0.00202147065992 -0.000217699284721)
(-0.00143196360457 0.00242441909329 -8.29243428596e-05)
(-0.00126912348516 0.00226783081022 -0.000298021250562)
(-0.00139930283419 0.00166243033826 -0.000270017724475)
(-0.00159602281903 0.00204319836229 -0.000163641402615)
(-0.00141456741296 0.00190655587288 -0.000388686252006)
(-0.00127037645335 0.00131006728321 -0.00031774993859)
(-0.00155210761378 0.00163692185414 -0.000249379421462)
(-0.00137892567372 0.00152076855924 -0.000484183605208)
(-0.000990539664051 0.00101274567291 -0.000346677435525)
(-0.00131223647471 0.00126685318685 -0.000317649918566)
(-0.00117405531593 0.00116925502705 -0.000556478785568)
(-0.000619354268972 0.000801857193883 -0.000338202782054)
(-0.000931013587953 0.000979377953139 -0.00035134015048)
(-0.000848661172103 0.00089859248058 -0.000585166817304)
(-0.000248872809845 0.000687787443705 -0.000267674751591)
(-0.00048657083645 0.00079800815716 -0.000324545903342)
(-0.000470893776486 0.000731598906898 -0.000543436282865)
(-0.000123804489342 0.00072353136757 -0.000213944963103)
(-0.000136469579688 0.000666056708723 -0.000399385283096)
(0.000336214866777 0.00081132774164 -0.000270261593957)
(0.000175607884496 0.0007941256162 -0.000215132210369)
(0.00019254274283 0.000781450045477 -0.000406104243519)
(0.000808996352683 0.000953045022106 -0.00033672774235)
(0.000629578413278 0.000883057811113 -0.000329927341041)
(0.000622171838137 0.000865813023046 -0.000551634672714)
(0.00127959182688 0.0012053547677 -0.000320915042854)
(0.00118380117676 0.00108594429211 -0.000341384325055)
(0.00110372229943 0.00106471330726 -0.000569425447751)
(0.00163292089558 0.00155706117651 -0.000247079187021)
(0.00165962173202 0.0014032482144 -0.000267778261493)
(0.00151905232706 0.00138259954123 -0.000480656724205)
(0.00178936803425 0.0019700459375 -0.00014028969201)
(0.00195457384652 0.00180682855522 -0.000140195242407)
(0.0017756210946 0.00179120129854 -0.000316707069817)
(0.00170979037689 0.00238662032613 -2.60505684539e-05)
(0.00199634663471 0.00224542093087 1.57267208244e-05)
(0.00180629987097 0.00223394228512 -0.0001130384593)
(0.00141249289379 0.00274561389697 6.46436969604e-05)
(0.00176920146467 0.00265269965821 0.000160615122164)
(0.00159777311829 0.00264284574135 7.7898689824e-05)
(0.000974796520978 0.00300520143169 0.000112646448851)
(0.00133536308742 0.00297028959787 0.000253567109169)
(0.00120583507467 0.00296026657777 0.000201224953833)
(0.000482636700613 0.00315471779032 0.000126006470806)
(0.000804244439917 0.00317370661606 0.000286997368977)
(0.000726264178268 0.00316332667334 0.000247791257428)
(-1.74756267785e-05 0.0032016354525 0.000126622166685)
(0.000254985200141 0.00326864309865 0.000289522448623)
(0.000229259614779 0.00325788575211 0.000253304103291)
(-0.000516507851744 0.00315131572748 0.000125080010427)
(-0.00029144370767 0.00326684568512 0.000289008106494)
(-0.000265370339487 0.00325600814114 0.00025245304122)
(-0.00100507525423 0.00299881627634 0.000110887257084)
(-0.000838359327712 0.00316822786027 0.000285231444978)
(-0.000760187327822 0.0031576657152 0.000244970934679)
(-0.0014376344165 0.00273708431357 6.22245355033e-05)
(-0.00136443917915 0.00296217357153 0.000250860279125)
(-0.00123517061671 0.00295163448301 0.00019707713614)
(-0.00172902269721 0.00237679817843 -2.88664607533e-05)
(-0.00179188570887 0.00264282767679 0.000157319735001)
(-0.00162113271294 0.00263223277229 7.30364584742e-05)
(-0.00180259691204 0.00195984542865 -0.000143003099602)
(-0.00201259091116 0.00223477919029 1.23244748675e-05)
(-0.00182360712326 0.00222238523096 -0.0001179583258)
(-0.00164082647252 0.00154712621598 -0.000249279401438)
(-0.00196484848102 0.00179629585494 -0.000143122459486)
(-0.00178728973991 0.00177957187555 -0.000321107003891)
(-0.00128320076369 0.00119630960303 -0.000322312633521)
(-0.00166439150719 0.00139339563826 -0.000269939543215)
(-0.00152578194924 0.00137141833818 -0.000484141987776)
(-0.000809558793345 0.000945505946938 -0.000337683271768)
(-0.00118541973929 0.00107749759197 -0.000342553113072)
(-0.00110706152128 0.00105466043462 -0.000571744307388)
(-0.000334971225827 0.000806913694549 -0.000270816114854)
(-0.000630047057897 0.000876390001355 -0.00033090245866)
(-0.000623522727306 0.000857490308641 -0.000552955613256)
(-0.000171428750987 0.000792519241715 -0.000215190802373)
(-0.000190541966556 0.000777391454004 -0.000403947016944)
(0.000434549018394 0.000836478031198 -0.000274797957453)
(0.000225759409674 0.000771377399088 -0.000216999512953)
(0.000254544587513 0.000804340337844 -0.000411806953949)
(0.00102050802317 0.000982682538879 -0.000334583923746)
(0.000778653724607 0.000857221468611 -0.000336356984583)
(0.000792171455259 0.000891200334173 -0.000560122133239)
(0.00160219302798 0.00124124376602 -0.000288247543694)
(0.00144566626823 0.00105031193123 -0.000330565203373)
(0.00138965363981 0.00109409331529 -0.000546040698583)
(0.00203934749964 0.00159902406932 -0.00016089431688)
(0.00201894298676 0.00135070324166 -0.000215126382055)
(0.00190497660741 0.00141641884388 -0.000384582558353)
(0.00222787900562 0.0020157268938 1.58211704272e-05)
(0.00237164919242 0.00173095225417 -2.55872976699e-05)
(0.00221854294468 0.00182557749805 -0.000112612391839)
(0.00211667850405 0.00243283825622 0.000202392411442)
(0.00241345498905 0.00213842535098 0.000202667603035)
(0.00224464619041 0.00226425007011 0.000218252592131)
(0.0017333050606 0.0027879448505 0.000349538534372)
(0.00212435084387 0.00251397248844 0.000413906731627)
(0.00196807946492 0.00266460160891 0.00052216629956)
(0.00118403870123 0.00304095966533 0.000427918029295)
(0.00158842769698 0.00280258918614 0.000547057784443)
(0.00146896566194 0.00297033009842 0.000717036251159)
(0.000581721716482 0.00318501324796 0.000450513346794)
(0.000948327306282 0.00298569501596 0.000594137277285)
(0.000875747146069 0.00316353537644 0.000790397332522)
(-1.93402852529e-05 0.00322977444053 0.000451908388432)
(0.000299764958004 0.00307064185191 0.000597223178217)
(0.000275567260105 0.0032525641064 0.000799128810164)
(-0.000619063448769 0.00318119889685 0.000449159541044)
(-0.000340026878354 0.00306860616723 0.000596509979325)
(-0.000315711966308 0.00325041764292 0.000798024827636)
(-0.0012174397745 0.00303384876873 0.000425204467019)
(-0.000985729416566 0.00297996957172 0.000591577486056)
(-0.000913275457192 0.00315717163145 0.000786694381616)
(-0.00176036630871 0.0027786557238 0.000345955478622)
(-0.00161967409975 0.00279398342437 0.000543068362959)
(-0.00150084559443 0.00296069950985 0.000711174852753)
(-0.00213676753369 0.0024224405405 0.000198510670621)
(-0.00214813665334 0.00250389029781 0.000409333791529)
(-0.00199286232141 0.00265311916231 0.000515394528576)
(-0.00224118636075 0.00200505942185 1.22051149838e-05)
(-0.00242996561389 0.00212776599962 0.000198115541109)
(-0.00226236679165 0.00225199318659 0.000211483575189)
(-0.00204668666196 0.00158886875144 -0.000163782601263)
(-0.00238143403528 0.00172037000056 -2.92473853968e-05)
(-0.00222999601972 0.00181339692854 -0.000118528969254)
(-0.00160513927852 0.00123220708326 -0.000290180022766)
(-0.00202275321412 0.0013411428826 -0.000217953323466)
(-0.00191097308712 0.00140503691813 -0.00038925720032)
(-0.00102050771315 0.00097530836423 -0.000335772299964)
(-0.0014464915478 0.00104211445331 -0.000332226473173)
(-0.00139231413346 0.0010839264815 -0.00054921653737)
(-0.000432898641842 0.000832778437905 -0.000275277146179)
(-0.000778186577394 0.000850663234719 -0.000337615624692)
(-0.000792961490024 0.00088298577933 -0.000561851417949)
(-0.000220775667989 0.000769255307072 -0.000217701260512)
(-0.000252108190527 0.000800850420537 -0.000409611341348)
(0.000528875394383 0.000762951772258 -0.000278558540083)
(0.000269748109306 0.000660195162939 -0.000219294922441)
(0.00031279236308 0.000734185043284 -0.000417690853547)
(0.00122339339128 0.000892196221015 -0.00033233826421)
(0.000911331470149 0.000730772630714 -0.000342664847286)
(0.000954474522439 0.000809510712263 -0.000568058183116)
(0.00190879428171 0.00112016314339 -0.000257444041734)
(0.00167696807423 0.000888489163375 -0.00032315267981)
(0.00166054512757 0.000988298818661 -0.000523553783084)
(0.00242076519705 0.00143254562585 -7.98193628455e-05)
(0.0023328342688 0.00113199672618 -0.000173368847518)
(0.00226639028487 0.0012685457812 -0.000293223958997)
(0.00263579088952 0.00179229043939 0.000161259134938)
(0.00273174477388 0.00143656013136 6.56553888248e-05)
(0.00262829993415 0.00162040435784 7.94219881857e-05)
(0.00249232580453 0.00214806752103 0.00041418192322)
(0.00276918855039 0.00175881206249 0.00035064022943)
(0.00264531731275 0.00199175444353 0.000523144405382)
(0.00202597559303 0.00244801561195 0.000611425981698)
(0.00242431525385 0.00205222707823 0.00061195403039)
(0.00230273117621 0.00232679750076 0.000928165322968)
(0.00137260852802 0.00265987858127 0.000713277032433)
(0.00180013566209 0.00227553475163 0.000771813994954)
(0.00170375633857 0.00257940863606 0.0011804881855)
(0.000670119556066 0.00277995701661 0.000740847108709)
(0.00106821128683 0.00241677230835 0.000825599272704)
(0.00100790387008 0.00273829593869 0.00127147098218)
(-2.1312532751e-05 0.00281681538482 0.00074182476911)
(0.00033654272168 0.00248223738616 0.000827167138577)
(0.000315986470587 0.002810932709 0.0012798876346)
(-0.000710740918522 0.00277608959706 0.000738927924336)
(-0.000380660888113 0.0024797752868 0.000826189303801)
(-0.000360516339222 0.00280849303785 0.0012783044981)
(-0.00140879761749 0.00265292359157 0.000709441381995)
(-0.00110869087693 0.00241174499333 0.000822110150214)
(-0.00104923171183 0.00273198864843 0.00126632457993)
(-0.00205459238072 0.00243893069488 0.000606446675865)
(-0.0018335051035 0.00226742988094 0.000766334399181)
(-0.00173815199005 0.00256966948001 0.00117239295256)
(-0.00251282251249 0.00213815869378 0.000408938662016)
(-0.00244892179848 0.00204308016248 0.000605951275782)
(-0.00232868505987 0.00231558913747 0.000919087297132)
(-0.00264862727743 0.0017822649656 0.000156663040728)
(-0.00278581292705 0.00174944860148 0.000344787392476)
(-0.00266332453804 0.00198000999203 0.000514170284331)
(-0.00242720086697 0.00142325767595 -8.34181076007e-05)
(-0.00274081001995 0.00142755276532 6.13612676926e-05)
(-0.00263918955986 0.00160888734523 7.14378406274e-05)
(-0.00191058789134 0.00111204751316 -0.000259999773874)
(-0.00233562131772 0.00112385954686 -0.000177041447814)
(-0.00227155450754 0.00125810960337 -0.000299284926962)
(-0.00122243977114 0.000885754676438 -0.000334069797901)
(-0.00167694442036 0.000881733228191 -0.000325408175948)
(-0.00166248211921 0.000978968983055 -0.000527723349444)
(-0.000526071820177 0.000759836028019 -0.000280039739024)
(-0.000910138480312 0.000725035364417 -0.000344527523223)
(-0.000954397935311 0.000802263086227 -0.000570694592896)
(-0.000264483117644 0.000660092903261 -0.000220542886856)
(-0.00030978798803 0.000730994371659 -0.000416876608696)
(0.000605965798708 0.00060468853467 -0.000283401229645)
(0.000303057823551 0.000479534709806 -0.000222475973391)
(0.000360236406393 0.000581982375241 -0.000425294214615)
(0.00138771406619 0.000701091067496 -0.000333479262886)
(0.00101129530546 0.000527379838169 -0.000349585938147)
(0.00108615847655 0.000637627594578 -0.000578334220953)
(0.00215450106336 0.000870562618058 -0.000239077485594)
(0.00184944344246 0.000634282185888 -0.000322062787792)
(0.0018779929349 0.0007701867092 -0.000512544317332)
(0.00272269712389 0.0011003566237 -2.78940958477e-05)
(0.00256391352291 0.000798421084092 -0.00015213051649)
(0.00255229373599 0.000976055498712 -0.000234568806141)
(0.00295471933749 0.00136137143952 0.000255036483318)
(0.0029930271594 0.00100077706907 0.000114600925421)
(0.00294723327798 0.00123093265879 0.000203825208727)
(0.00278165478922 0.00161590984167 0.000548412336601)
(0.00302368130871 0.00121205037375 0.000430193308405)
(0.00295216901505 0.00149590127226 0.000719896210796)
(0.00224916807112 0.00182858145658 0.000772342043646)
(0.00263717492965 0.00140237243704 0.000715229480224)
(0.0025557592488 0.00173211283046 0.00118240818168)
(0.00151609831903 0.00197846063938 0.000884136235224)
(0.00195003191598 0.00154705901751 0.000885324358705)
(0.00188016440647 0.00190927757997 0.00146160174463)
(0.000736823159501 0.00206340409272 0.000911919302573)
(0.00115315630375 0.001638865934 0.000938048027823)
(0.00110702498537 0.00202074561822 0.00155722366152)
(-2.32445611926e-05 0.00208911320907 0.000911531673268)
(0.000362259365556 0.00168101801798 0.000936947402499)
(0.000345701828176 0.00207142885238 0.00156131637918)
(-0.000781671353717 0.00205997166581 0.000909371529679)
(-0.000409803763317 0.00167907793235 0.000935656750511)
(-0.00039450687008 0.00206901020963 0.00155914585489)
(-0.00155509312582 0.00197249180234 0.0008790031674)
(-0.0011961663092 0.00163475587063 0.000933671900792)
(-0.0011517755993 0.00201523736963 0.00155043185842)
(-0.00227909392874 0.00182084480494 0.000765838999098)
(-0.00198516033352 0.00154062829421 0.000878238172581)
(-0.00191688939571 0.00190065983209 0.0014508282642)
(-0.00280243252057 0.00160776968233 0.000541800006242)
(-0.00266218683954 0.00139557729554 0.000707970500264)
(-0.00258251988073 0.00172265373639 0.00117087484664)
(-0.00296695841217 0.0013533538065 0.00024948561944)
(-0.00304017893911 0.00120533666822 0.000423169875397)
(-0.00297019616874 0.00148619338977 0.000708678182257)
(-0.00272825272615 0.0010929570809 -3.22620725205e-05)
(-0.00300148704604 0.000994480394051 0.000109448481027)
(-0.00295745459523 0.00122158679708 0.000194411902212)
(-0.00215538099446 0.000864269299511 -0.000242449849888)
(-0.00256573497991 0.00079308232754 -0.000156486077427)
(-0.00255650647682 0.000967581598289 -0.000242046115364)
(-0.00138585009441 0.000696341500512 -0.00033586590127)
(-0.00184861733714 0.000630004331678 -0.000324842483997)
(-0.0018791086961 0.000762927381051 -0.000517750223933)
(-0.000603113069932 0.000602411000085 -0.000285030671055)
(-0.00100993429341 0.000524138688723 -0.000351752457853)
(-0.00108571608408 0.000632095091457 -0.000581783798625)
(-0.000298265722098 0.000481844021691 -0.000223258408198)
(-0.000357392039103 0.00057979024265 -0.00042482444977)
(0.000658590351158 0.000386982386079 -0.000288660681893)
(0.000323537774134 0.000253672624811 -0.000225129074758)
(0.000392449912378 0.000372642147086 -0.000432709155838)
(0.00149847337535 0.00044434790259 -0.000338169463052)
(0.00107158647421 0.000277101156318 -0.00035545141132)
(0.00117453969646 0.000405140140541 -0.000589574341423)
(0.00231743715412 0.000544927458107 -0.000235115818687)
(0.00195223764342 0.00032965811039 -0.00032498106945)
(0.00202204767267 0.000483417240254 -0.000514295000599)
(0.00292022755741 0.000680023686248 -9.63549522127e-06)
(0.00269992028554 0.000410307511076 -0.000147258075172)
(0.00273903674519 0.000604386494154 -0.000214617375388)
(0.00316013484612 0.000831591630579 0.000289757750507)
(0.00314477698891 0.000508582799106 0.000129100305468)
(0.00315251675219 0.000752154869984 0.000252355949077)
(0.00296659918898 0.000977871051548 0.000597010452027)
(0.0031699395527 0.000610147713664 0.000454135054918)
(0.00314753501859 0.000904082166275 0.000795507581342)
(0.00239165070464 0.00109963205166 0.000828211795283)
(0.00275915493074 0.000700829705133 0.000744478292969)
(0.0027164694612 0.00103852720593 0.00127655067635)
(0.0016080613273 0.00118560845985 0.000939236151304)
(0.00203602287631 0.000769524183504 0.000915139852082)
(0.00199242669989 0.00113956847476 0.00156116636615)
(0.000780505987503 0.00123400810908 0.000963076127749)
(0.00120155734268 0.000814247733902 0.000964162825634)
(0.0011701094013 0.00120309087296 0.00165219605628)
(-2.47654252531e-05 0.00124841021825 0.000961072479742)
(0.000376666076796 0.000834841944213 0.000962378154956)
(0.000364309631874 0.00123132188806 0.00165145386777)
(-0.000828400240193 0.00123166197873 0.000959957121624)
(-0.000426550474813 0.000834216834312 0.000960641199702)
(-0.000416693731639 0.00122974895495 0.00164849401003)
(-0.00164879603817 0.00118135915692 0.000932906905972)
(-0.001246465925 0.000811310841278 0.000958759891025)
(-0.00121756788905 0.00119906076305 0.00164383987796)
(-0.00242222465233 0.0010944382882 0.000820369673746)
(-0.00207208889216 0.000766273217712 0.000906841200155)
(-0.00203071470158 0.00113347323454 0.00154779116681)
(-0.00298743591927 0.00097276824515 0.000589340369419)
(-0.00278407780351 0.000697691610712 0.000736344691616)
(-0.00274348908108 0.00103234720295 0.0012631165695)
(-0.0031719429693 0.000826898793515 0.000283132736984)
(-0.00318602323898 0.000607333140706 0.000446263771177)
(-0.00316542250332 0.000897922350048 0.000782542287951)
(-0.00292498915083 0.000675893744595 -1.47755238793e-05)
(-0.00315268490083 0.000506196566372 0.000123086547911)
(-0.00316223519743 0.000746459946723 0.000241371709326)
(-0.00231741112949 0.000541624832892 -0.000238878711535)
(-0.00270104115218 0.000408609348725 -0.000151956444747)