/*--------------------------------*- C++ -*----------------------------------*\
| =========                 |                                                 |
| \\      /  F ield         | OpenFOAM: The Open Source CFD Toolbox           |
|  \\    /   O peration     | Version:  3.0.1                                 |
|   \\  /    A nd           | Web:      www.OpenFOAM.org                      |
|    \\/     M anipulation  |                                                 |
\*---------------------------------------------------------------------------*/
FoamFile
{
    version     2.0;
    format      ascii;
    class       surfaceScalarField;
    location    "6.6";
    object      phi;
}
// * * * * * * * * * * * * * * * * * * * * * * * * * * * * * * * * * * * * * //

dimensions      [0 3 -1 0 0 0 0];

internalField   nonuniform List<scalar> 
22672
(
6.94169077429e-07
5.44585200693e-07
-1.23875111053e-06
2.26460453017e-06
1.17454500129e-07
-1.6878864355e-06
4.0317365572e-06
-4.08778545015e-08
-1.72625068359e-06
5.47279166411e-06
-9.70660554475e-09
-1.43134520877e-06
6.29503113799e-06
1.96929146495e-07
-1.01916560921e-06
6.36761910376e-06
5.18486167959e-07
-5.91071455518e-07
5.76749737604e-06
8.28300818426e-07
-2.28176776427e-07
4.59198861688e-06
1.10316279597e-06
7.23479049149e-08
3.01814716131e-06
1.2920633111e-06
2.81779735635e-07
1.26245246993e-06
1.38155266821e-06
3.74143321788e-07
-4.70919965925e-07
1.37050947214e-06
3.62864057831e-07
-1.99449776954e-06
1.26345350064e-06
2.60125294309e-07
-3.13932067297e-06
1.07347486516e-06
7.13490219863e-08
-3.7872534165e-06
8.20930218865e-07
-1.72996426986e-07
-3.88243853312e-06
5.50316380333e-07
-4.55130109308e-07
-3.39066867671e-06
2.90483268156e-07
-7.82251852276e-07
-2.43051854625e-06
1.35975565176e-07
-1.09612431517e-06
-1.24800149545e-06
1.41755687063e-07
-1.32427124135e-06
-2.54272900853e-07
2.89185831871e-07
-1.28291276224e-06
6.43446082309e-07
-8.97717832143e-07
2.94034887333e-07
1.90055276524e-06
-1.64999897021e-06
2.22379673088e-06
1.80214492507e-06
-3.61444855525e-06
4.43255702058e-06
1.89579390512e-06
-4.1454284417e-06
6.14615015758e-06
2.20460034387e-06
-3.92789674937e-06
7.0620680592e-06
2.70673182404e-06
-3.42571760189e-06
7.11351083937e-06
3.29705921031e-06
-2.83001325377e-06
6.3841040077e-06
3.82602055233e-06
-2.26831075864e-06
5.02309706101e-06
4.2560438993e-06
-1.79187242012e-06
3.23702667508e-06
4.53807383545e-06
-1.45993875288e-06
1.25901006852e-06
4.66251159404e-06
-1.30294119515e-06
-6.83875556431e-07
4.63427234005e-06
-1.32087627293e-06
-2.3861651095e-06
4.46107618559e-06
-1.49533221233e-06
-3.67021758418e-06
4.15626386355e-06
-1.79873557263e-06
-4.40048869609e-06
3.74326153265e-06
-2.1920591669e-06
-4.48886859101e-06
3.26654390966e-06
-2.62784649024e-06
-3.90067445789e-06
2.76777248645e-06
-3.0654820915e-06
-2.71196928062e-06
2.36075673777e-06
-3.41348497841e-06
-1.16217970796e-06
2.12082927404e-06
-3.52886166793e-06
1.1619458148e-07
2.04321698685e-06
-3.03240382134e-06
2.08202154778e-06
-1.32237980523e-06
1.50329511155e-07
3.44892275145e-06
-1.69869614451e-06
2.34760643031e-06
3.77859991314e-06
-4.17372841538e-06
4.81923835132e-06
4.128597495e-06
-4.70443220057e-06
6.66248015962e-06
4.67105962183e-06
-4.30969812851e-06
7.59750226524e-06
5.37343768011e-06
-3.60172544894e-06
7.59289799488e-06
6.12799481782e-06
-2.82632930598e-06
6.75929443992e-06
6.78558321635e-06
-2.12595754594e-06
5.27446207267e-06
7.30443163756e-06
-1.56355421464e-06
3.35749171158e-06
7.6435756228e-06
-1.1885305761e-06
1.25184265663e-06
7.78765732663e-06
-1.01949601296e-06
-8.10750610643e-07
7.74804801267e-06
-1.05118181142e-06
-2.62255644673e-06
7.53681132592e-06
-1.26392869478e-06
-4.00024707073e-06
7.16530618463e-06
-1.63135102228e-06
-4.80098439423e-06
6.66419583276e-06
-2.12019621502e-06
-4.91863080157e-06
6.06915335678e-06
-2.68496218157e-06
-4.29979692718e-06
5.42285051043e-06
-3.27391093145e-06
-2.99287479618e-06
4.83690117366e-06
-3.78306547489e-06
-1.22699975494e-06
4.38396468183e-06
-4.02900920505e-06
2.66029542432e-07
4.06806792495e-06
-3.51787883734e-06
3.71445233661e-06
-1.36640032752e-06
1.73405621811e-07
4.72089338735e-06
-1.4453732449e-06
2.66201467404e-06
5.31572752842e-06
-4.02573361075e-06
5.37512381113e-06
5.79944598922e-06
-4.38395484755e-06
7.3273664101e-06
6.44802373373e-06
-3.72920438413e-06
8.24932985034e-06
7.22551600104e-06
-2.77403998552e-06
8.14975933926e-06
8.02844133124e-06
-1.80087479274e-06
7.17729786715e-06
8.72157247744e-06
-9.63527087275e-07
5.54543365144e-06
9.26321916849e-06
-3.26923003068e-07
3.48263529216e-06
9.60904144839e-06
9.73326094467e-08
1.24531384133e-06
9.75710050825e-06
2.67878260288e-07
-9.41614045581e-07
9.71684784438e-06
2.18128076359e-07
-2.87685051159e-06
9.50245003988e-06
-3.04021376587e-08
-4.36768256477e-06
9.12976416013e-06
-4.73625712458e-07
-5.26933888822e-06
8.61799660792e-06
-1.0521441524e-06
-5.4499505242e-06
8.00359998951e-06
-1.7538346075e-06
-4.8290692434e-06
7.32277719493e-06
-2.52080745995e-06
-3.4266916972e-06
6.67567269645e-06
-3.24114840358e-06
-1.46607098231e-06
6.12572715547e-06
-3.70238231462e-06
2.56532101461e-07
5.67885214181e-06
-3.33338622407e-06
5.07748898042e-06
-1.10650382709e-06
3.74422089151e-07
5.4385061403e-06
-1.09203227166e-06
3.15993252497e-06
6.13849191944e-06
-3.60827231496e-06
6.08028693099e-06
6.64553582069e-06
-3.76644210702e-06
8.11108064973e-06
7.28142301618e-06
-2.86419145324e-06
8.99298248333e-06
8.01850587466e-06
-1.67489083545e-06
8.77677092563e-06
8.76824343006e-06
-5.23590332107e-07
7.6425084727e-06
9.40506515749e-06
4.5076942981e-07
5.83722494748e-06
9.90408639455e-06
1.16441558527e-06
3.61968107011e-06
1.02243150351e-05
1.60226941357e-06
1.2400904822e-06
1.03617057849e-05
1.77498445287e-06
-1.07950913139e-06
1.03291218441e-05
1.70732488855e-06
-3.14360775059e-06
1.01421962599e-05
1.42435184147e-06
-4.76969650902e-06
9.81517192042e-06
9.40680586012e-07
-5.78922976118e-06
9.36582233734e-06
2.71707224197e-07
-6.0541917127e-06
8.82305391736e-06
-5.5449216297e-07
-5.45687466005e-06
8.21044776868e-06
-1.48498765874e-06
-3.98918861059e-06
7.61201692535e-06
-2.40403008827e-06
-1.86690566789e-06
7.07622126768e-06
-3.07277658016e-06
7.89381582743e-08
6.60704310379e-06
-2.87403404834e-06
5.88876348024e-06
-7.32335825298e-07
6.83645590204e-07
5.47461345104e-06
-7.19750815939e-07
3.74340928747e-06
6.17253870284e-06
-3.09380855977e-06
6.83629602914e-06
6.62930059441e-06
-3.07665009389e-06
8.9209142309e-06
7.17209805327e-06
-1.97529253575e-06
9.75087467273e-06
7.79313521212e-06
-6.04589885487e-07
9.40222469582e-06
8.41061501129e-06
7.06277524491e-07
8.10760566423e-06
8.93988393591e-06
1.75979878001e-06
6.13330389164e-06
9.35580956342e-06
2.5225767686e-06
3.7608294143e-06
9.62232167376e-06
2.97446589913e-06
1.24340784089e-06
9.73866615997e-06
3.1404593659e-06
-1.20375625975e-06
9.71889060465e-06
3.05739373574e-06
-3.39436183489e-06
9.57903750559e-06
2.75376297773e-06
-5.14903394339e-06
9.33271779658e-06
2.237125097e-06
-6.28923751425e-06
8.99167517453e-06
1.51434977498e-06
-6.65077463729e-06
8.57661962748e-06
6.07970632351e-07
-6.09489817416e-06
8.1009770625e-06
-4.46406307085e-07
-4.58954414656e-06
7.62456662187e-06
-1.5179039644e-06
-2.34142336842e-06
7.17887957775e-06
-2.35077895597e-06
-1.85082578517e-07
6.75625028487e-06
-2.30554750666e-06
6.02774566183e-06
-3.24064392303e-07
9.85140636442e-07
4.89004221318e-06
-4.0056780009e-07
4.27126388729e-06
5.48293271217e-06
-2.59651592657e-06
7.5013697605e-06
5.84224525925e-06
-2.44304981903e-06
9.6266723264e-06
6.24829068051e-06
-1.20149532247e-06
1.04019463161e-05
6.70963113272e-06
3.0822902656e-07
9.94384461984e-06
7.16780706456e-06
1.7009077198e-06
8.51113971145e-06
7.56105805332e-06
2.81152821465e-06
6.39278340291e-06
7.87171923878e-06
3.60244369073e-06
3.88888903108e-06
8.06944698372e-06
4.05676605155e-06
1.25738237395e-06
8.15888061666e-06
4.21128936335e-06
-1.29222614295e-06
8.15540524772e-06
4.1130913489e-06
-3.58315254302e-06
8.07379825097e-06
3.79616347592e-06
-5.44095733483e-06
7.92583540917e-06
3.26468531607e-06
-6.68135545167e-06
7.71572873363e-06
2.51634297571e-06
-7.12633994128e-06
7.45470824433e-06
1.56689457547e-06
-6.61665086973e-06
7.14716894374e-06
4.44118086591e-07
-5.09610953486e-06
6.82960197734e-06
-7.25577238913e-07
-2.76171975023e-06
6.51388446269e-06
-1.66939475716e-06
-4.39311982794e-07
6.18155054819e-06
-1.7477077217e-06
5.5530382103e-06
3.53957706558e-08
1.25602870543e-06
3.76796004769e-06
-1.33945395017e-07
4.70481378593e-06
4.19808272632e-06
-2.1639343008e-06
8.03096889583e-06
4.44012100236e-06
-1.92403077113e-06
1.01848027037e-05
4.70140195455e-06
-6.06945953798e-07
1.09181565546e-05
4.98888388599e-06
9.87391493027e-07
1.03745454328e-05
5.27873440685e-06
2.43268094374e-06
8.83311236863e-06
5.52923263508e-06
3.57325495161e-06
6.59918813377e-06
5.72792648969e-06
4.37771307669e-06
3.99179702143e-06
5.85665157903e-06
4.82018256086e-06
1.27651214196e-06
5.92212447796e-06
4.95203728225e-06
-1.34088895209e-06
5.93409427462e-06
4.83870871653e-06
-3.70095599508e-06
5.9116846523e-06
4.52217773459e-06
-5.63205674991e-06
5.86672026797e-06
3.99021342078e-06
-6.94645699762e-06
5.7912802281e-06
3.23884668586e-06
-7.45709975954e-06
5.68685717358e-06
2.27849217548e-06
-6.9898178227e-06
5.55279599521e-06
1.1270898069e-06
-5.47196009792e-06
5.40147186798e-06
-8.97283079272e-08
-3.09092649453e-06
5.22803019054e-06
-1.0951794831e-06
-6.62068580478e-07
5.00826539805e-06
-1.2555724638e-06
4.5304523996e-06
3.60517559198e-07
1.45025104823e-06
2.27022872838e-06
4.7481024653e-08
4.99883068645e-06
2.49860034972e-06
-1.84909692144e-06
8.38772970263e-06
2.61508873325e-06
-1.56386718479e-06
1.05542696491e-05
2.73526916396e-06
-2.00408612318e-07
1.12606627862e-05
2.86063430092e-06
1.42185390674e-06
1.06602698538e-05
2.99175968903e-06
2.88736413936e-06
9.04564169817e-06
3.10812430509e-06
4.03573226121e-06
6.73630834501e-06
3.20348586433e-06
4.83376937479e-06
4.06638286024e-06
3.27282271761e-06
5.25374970819e-06
1.30303076797e-06
3.31915870436e-06
5.36631348457e-06
-1.34851417577e-06
3.35493203562e-06
5.23070324899e-06
-3.73277398991e-06
3.39323377185e-06
4.90270729192e-06
-5.69948569378e-06
3.43952454031e-06
4.39390456936e-06
-7.0574681249e-06
3.48860032613e-06
3.66065999612e-06
-7.61369065703e-06
3.5268095291e-06
2.71626836244e-06
-7.18422311263e-06
3.55243928797e-06
1.57088790028e-06
-5.68496468393e-06
3.55388303449e-06
3.48329736343e-07
-3.29388230168e-06
3.51669268316e-06
-6.79744941004e-07
-8.18238068334e-07
3.41790045192e-06
-8.85278858793e-07
3.12877134744e-06
5.8344342138e-07
1.54905851524e-06
5.77592239386e-07
1.43578421959e-07
5.14054625429e-06
5.92560561594e-07
-1.68544794884e-06
8.55639526764e-06
5.82947207906e-07
-1.38370829006e-06
1.07209815838e-05
5.6540457705e-07
5.27643392113e-09
1.14169484328e-05
5.45721390683e-07
1.61894313668e-06
1.07918934944e-05
5.31794717553e-07
3.08501602457e-06
9.1452602291e-06
5.26763639964e-07
4.22798934709e-06
6.8080873629e-06
5.30613256245e-07
5.01004053093e-06
4.11640248943e-06
5.4809289947e-07
5.41640973852e-06
1.34501386923e-06
5.87008011786e-07
5.50353465061e-06
-1.30330842688e-06
6.53377947834e-07
5.34987221619e-06
-3.68063866537e-06
7.52669294122e-07
5.01789114195e-06
-5.64830755365e-06
8.85728651729e-07
4.52146181705e-06
-7.01729718834e-06
1.04175067128e-06
3.8158369317e-06
-7.5954574497e-06
1.20714275872e-06
2.89782526748e-06
-7.19506104867e-06
1.37525332713e-06
1.77678840863e-06
-5.72676135586e-06
1.51513125813e-06
5.70451576726e-07
-3.36022213342e-06
1.60381055867e-06
-4.53656963536e-07
-8.91756516758e-07
1.62439592842e-06
-6.74960436479e-07
1.53847243739e-06
6.98542993777e-07
1.55074234646e-06
-1.11093253842e-06
1.37782674859e-07
5.12949912528e-06
-1.30462650249e-06
-1.68156991921e-06
8.53449393438e-06
-1.43638458981e-06
-1.38566400605e-06
1.06949363846e-05
-1.58758342544e-06
-7.4564455121e-09
1.13927970001e-05
-1.74818151524e-06
1.59603925097e-06
1.07745837698e-05
-1.90228005261e-06
3.05228405341e-06
9.13948734459e-06
-2.02319052123e-06
4.18504599469e-06
6.81755049235e-06
-2.10328063203e-06
4.95582583708e-06
4.14796452122e-06
-2.130241216e-06
5.34791521454e-06
1.40633425254e-06
-2.09271083327e-06
5.42134456598e-06
-1.20736357041e-06
-1.99179238621e-06
5.25886413124e-06
-3.54999453313e-06
-1.83161644038e-06
4.9269132894e-06
-5.48791784467e-06
-1.61669579157e-06
4.44034498347e-06
-6.838618206e-06
-1.35942621153e-06
3.75187509269e-06
-7.41511551813e-06
-1.07398995338e-06
2.85762848085e-06
-7.03307305092e-06
-7.72414818915e-07
1.76562476233e-06
-5.6046230319e-06
-5.01653298897e-07
5.88334280248e-07
-3.29414998428e-06
-2.92693537922e-07
-4.13968552707e-07
-8.79902621499e-07
-1.58452290852e-07
-6.31398209904e-07
-5.01439537691e-08
7.08714554077e-07
1.45623552462e-06
-2.60272045736e-06
3.55525389916e-08
4.96756849697e-06
-2.98525719804e-06
-1.8307025536e-06
8.32573163374e-06
-3.23214709629e-06
-1.56240164913e-06
1.04812063239e-05
-3.5126664678e-06
-2.3039359993e-07
1.11939556265e-05
-3.82304102063e-06
1.36210729259e-06
1.06145657353e-05
-4.12247963645e-06
2.79958574521e-06
9.03413304444e-06
-4.36235798696e-06
3.9195958653e-06
6.77175344149e-06
-4.52849760736e-06
4.68759204709e-06
4.16660057902e-06
-4.59477907879e-06
5.06968627853e-06
1.48894728497e-06
-4.56060101562e-06
5.14553938254e-06
-1.06265319168e-06
-4.42712949983e-06
4.98693402205e-06
-3.34677768189e-06
-4.20775315409e-06
4.6602582364e-06
-5.22651511699e-06
-3.9123998342e-06
4.17543911466e-06
-6.53130273236e-06
-3.5492818852e-06
3.49464150617e-06
-7.08271863271e-06
-3.14207312655e-06
2.61949786049e-06
-6.70684485325e-06
-2.70738895792e-06
1.55909974395e-06
-5.3236994988e-06
-2.30631467821e-06
4.21516050579e-07
-3.09714112944e-06
-1.97997664792e-06
-5.39274584211e-07
-7.81630627684e-07
-1.73838477456e-06
-7.35576808224e-07
-1.46098599862e-06
6.29212376385e-07
1.26976504589e-06
-3.73366293124e-06
-1.38822420363e-07
4.66192846018e-06
-4.26225212952e-06
-2.11516870127e-06
7.9421435194e-06
-4.61183775052e-06
-1.90052529239e-06
1.00798452873e-05
-5.02041739655e-06
-6.29952565469e-07
1.08263451371e-05
-5.4846919827e-06
9.15148533029e-07
1.03189719589e-05
-5.93283680645e-06
2.31772705445e-06
8.83428910153e-06
-6.29487945447e-06
3.41720056617e-06
6.67875003277e-06
-6.55101328417e-06
4.1780508262e-06
4.17522588264e-06
-6.66533280453e-06
4.57407409237e-06
1.59422727308e-06
-6.63909165887e-06
4.65948583771e-06
-8.69863948388e-07
-6.48089979232e-06
4.51785860241e-06
-3.07265676296e-06
-6.20469689656e-06
4.19973419325e-06
-4.86892129999e-06
-5.82522344347e-06
3.70908631417e-06
-6.10121930013e-06
-5.35567357702e-06
3.03868836082e-06
-6.60568881539e-06
-4.8243534345e-06
2.18674898857e-06
-6.22499243943e-06
-4.25693673507e-06
1.16885110597e-06
-4.89512364117e-06
-3.72739738302e-06
9.12142119781e-08
-2.77791668226e-06
-3.28510005174e-06
-8.12082624784e-07
-6.07899017179e-07
-2.94885518846e-06
-9.59545800283e-07
-2.543703937e-06
4.74820027462e-07
1.01156452412e-06
-4.36009232971e-06
-3.85134859467e-07
4.22940869123e-06
-4.98050376478e-06
-2.49959256245e-06
7.40331691458e-06
-5.41183181856e-06
-2.37391476606e-06
9.51187050141e-06
-5.93748472204e-06
-1.19148760595e-06
1.03083613025e-05
-6.53856646482e-06
2.57381593794e-07
9.90226198547e-06
-7.12439812404e-06
1.59765793643e-06
8.54805275353e-06
-7.60127531163e-06
2.6606020151e-06
6.53509367636e-06
-7.94192678644e-06
3.40386941071e-06
4.16910384658e-06
-8.10706970088e-06
3.80772372736e-06
1.70909863933e-06
-8.09547964346e-06
3.91639055485e-06
-6.42802288404e-07
-7.92046505098e-06
3.79146400869e-06
-2.73314805674e-06
-7.59823261925e-06
3.48387978647e-06
-4.42029155985e-06
-7.14663708457e-06
3.00855588146e-06
-5.55714972759e-06
-6.58325204196e-06
2.36443577687e-06
-5.9969182466e-06
-5.94043739543e-06
1.55585203641e-06
-5.60471607045e-06
-5.2549892325e-06
6.05850345679e-07
-4.33328187948e-06
-4.60987184404e-06
-3.88959159708e-07
-2.3513910705e-06
-4.07094817866e-06
-1.19604152902e-06
-3.72542659533e-07
-3.66256387648e-06
-1.26513807685e-06
-3.17805884359e-06
2.61813470813e-07
7.27125083294e-07
-4.41311015761e-06
-6.74106760993e-07
3.71633774772e-06
-5.03457338701e-06
-2.93514275316e-06
6.74882345366e-06
-5.50440356469e-06
-2.93991415464e-06
8.81883260971e-06
-6.10548417615e-06
-1.90201052642e-06
9.67761654814e-06
-6.80266688836e-06
-5.94684980698e-07
9.39559261776e-06
-7.49887552632e-06
6.56499341908e-07
8.19862150925e-06
-8.06573924486e-06
1.66143273905e-06
6.35264692074e-06
-8.47456155356e-06
2.3786069958e-06
4.14435179934e-06
-8.6845272929e-06
2.78575052715e-06
1.8282362086e-06
-8.69291248449e-06
2.91354657833e-06
-3.89563088203e-07
-8.51522784657e-06
2.81256063902e-06
-2.34914138562e-06
-8.16689692153e-06
2.52824154305e-06
-3.90791961401e-06
-7.66986607247e-06
2.08200651605e-06
-4.93082481628e-06
-7.04371336492e-06
1.48336615011e-06
-5.2917129761e-06
-6.32432999802e-06
7.4478071998e-07
-4.88176457461e-06
-5.55685701727e-06
-1.08080261325e-07
-3.67995420901e-06
-4.83803309229e-06
-9.73648283808e-07
-1.85918617103e-06
-4.24114384321e-06
-1.65057101516e-06
-1.16510094736e-07
-3.79618149663e-06
-1.60905664512e-06
-3.30144772525e-06
6.88011495208e-09
4.42489992831e-07
-3.84741291233e-06
-1.00818640102e-06
3.16473634306e-06
-4.37593107116e-06
-3.38088793374e-06
6.02600124281e-06
-4.81900893676e-06
-3.54665918466e-06
8.04529945515e-06
-5.42240967698e-06
-2.70237290502e-06
8.96409418582e-06
-6.14578656389e-06
-1.57567580872e-06
8.82320281635e-06
-6.882565338e-06
-4.75420038821e-07
7.80132940247e-06
-7.49483237859e-06
4.50965046366e-07
6.14205105888e-06
-7.94060906157e-06
1.12532429397e-06
4.10918081695e-06
-8.17957332233e-06
1.52791486238e-06
1.95214525591e-06
-8.21036698957e-06
1.67448894189e-06
-1.18155206536e-07
-8.04784014753e-06
1.60291198057e-06
-1.93397870455e-06
-7.70446124513e-06
1.35338737281e-06
-3.35333444567e-06
-7.20659154497e-06
9.56081063186e-07
-4.25426791307e-06
-6.5713715064e-06
4.28591724183e-07
-4.5296379468e-06
-5.83769916269e-06
-2.11260411329e-07
-4.10598495507e-06
-5.06011280813e-06
-9.20396481632e-07
-2.98358813887e-06
-4.33780631584e-06
-1.62262246891e-06
-1.34262832429e-06
-3.75253856445e-06
-2.12956351868e-06
1.4726514813e-07
-3.33032369163e-06
-1.95574929533e-06
-2.90052464275e-06
-2.53656487769e-07
2.61840618218e-07
-2.78073735571e-06
-1.32851490661e-06
2.70202029105e-06
-3.0753436855e-06
-3.7407658022e-06
5.36218994207e-06
-3.39454829722e-06
-4.08462934301e-06
7.307766154e-06
-3.89511954858e-06
-3.4728658569e-06
8.27263265155e-06
-4.54252855764e-06
-2.56812452633e-06
8.25709985059e-06
-5.22926021002e-06
-1.63777278881e-06
7.40574607438e-06
-5.80980334949e-06
-8.33675998505e-07
5.92914241742e-06
-6.24168374674e-06
-2.22322487851e-07
4.06345627929e-06
-6.48814984029e-06
1.7426192875e-07
2.05911722561e-06
-6.540090542e-06
3.34062112356e-07
1.28862813496e-07
-6.41195900662e-06
2.94373073521e-07
-1.54767671445e-06
-6.11887078931e-06
9.09491759088e-08
-2.82903397274e-06
-5.67340305346e-06
-2.51830856279e-07
-3.61379847489e-06
-5.10504006808e-06
-6.81566317687e-07
-3.81439133494e-06
-4.44720581434e-06
-1.18989963432e-06
-3.38509442931e-06
-3.75496737331e-06
-1.73444121471e-06
-2.35481742063e-06
-3.12918180299e-06
-2.23890006857e-06
-9.08725394643e-07
-2.65104225866e-06
-2.54758650358e-06
3.28137852624e-07
-2.33715242274e-06
-2.23003232241e-06
-2.07163641696e-06
-5.00748774637e-07
2.5039660058e-07
-1.47169079854e-06
-1.55944139647e-06
2.41771665513e-06
-1.38191564581e-06
-3.86074629755e-06
4.84636861989e-06
-1.4676283527e-06
-4.35557037171e-06
6.68731584812e-06
-1.75296121889e-06
-3.98310444566e-06
7.66812227848e-06
-2.21511256878e-06
-3.30822179408e-06
7.7503909379e-06
-2.75040337057e-06
-2.56112531952e-06
7.04111787455e-06
-3.21921061595e-06
-1.8813198053e-06
5.71738674149e-06
-3.58320140419e-06
-1.33475147521e-06
4.00082955062e-06
-3.80201842981e-06
-9.6957443204e-07
2.13185004518e-06
-3.8700201088e-06
-8.0109094403e-07
3.28778748732e-07
-3.79548985142e-06
-8.13397595968e-07
-1.22710266247e-06
-3.58809273032e-06
-9.74896079676e-07
-2.39781603649e-06
-3.26007639882e-06
-1.24261242559e-06
-3.08661126781e-06
-2.83392608297e-06
-1.58231765035e-06
-3.23104919895e-06
-2.34474607857e-06
-1.95802047902e-06
-2.81234852062e-06
-1.84131332558e-06
-2.33235317048e-06
-1.88544229354e-06
-1.4169951349e-06
-2.6390910745e-06
-6.38744046715e-07
-1.14672418922e-06
-2.75101418102e-06
3.65806942192e-07
-1.03133802241e-06
-2.31036291726e-06
-1.04524448379e-06
-6.60583160429e-07
3.92366396616e-07
-3.52345354525e-07
-1.51170957678e-06
2.31453083136e-06
3.42677559035e-08
-3.33834559618e-06
4.49170532147e-06
1.86273436544e-07
-3.83107430852e-06
6.20112472306e-06
1.58030675409e-07
-3.62040975963e-06
7.16706961834e-06
-4.81335374398e-08
-3.13292289951e-06
7.30363923578e-06
-3.35352051791e-07
-2.55162038995e-06
6.6959288474e-06
-6.11756384858e-07
-1.99974365243e-06
5.49399481877e-06
-8.49130977555e-07
-1.53213637741e-06
3.9049149555e-06
-1.00762602056e-06
-1.20531249673e-06
2.1577603714e-06
-1.07551118432e-06
-1.04735409748e-06
4.66544709287e-07
-1.05486008627e-06
-1.0494135584e-06
-9.89685480921e-07
-9.51343632827e-07
-1.18051801716e-06
-2.07580347626e-06
-7.76084768893e-07
-1.39787241429e-06
-2.70191607351e-06
-5.4741011895e-07
-1.66040186717e-06
-2.81985320939e-06
-2.95942619513e-07
-1.93086459219e-06
-2.42545529666e-06
-5.71555994044e-08
-2.17855369141e-06
-1.60343950795e-06
1.10151013339e-07
-2.34915975145e-06
-5.44537600826e-07
1.40263587501e-07
-2.3458872098e-06
2.73632439497e-07
5.1275254087e-08
-1.9007804597e-06
-1.91154302672e-07
-5.80455752908e-07
7.65199030418e-07
-1.11754276851e-06
2.34971435358e-06
-1.55024605011e-06
4.12070498029e-06
-1.58471590341e-06
5.58125865412e-06
-1.30252203935e-06
6.43829348424e-06
-9.05167773731e-07
6.58513618208e-06
-4.82194486137e-07
6.09466252579e-06
-1.21282694781e-07
5.0591816151e-06
1.86349876724e-07
3.66348536269e-06
3.88070227568e-07
2.11402843687e-06
4.73945904999e-07
6.0210952348e-07
4.5705923135e-07
-7.11921405988e-07
3.62687964978e-07
-1.69769761809e-06
2.09692355562e-07
-2.26251248616e-06
1.74058627255e-08
-2.38812422418e-06
-1.70329603035e-07
-2.07359876865e-06
-3.71679621421e-07
-1.41371727797e-06
-5.49728875206e-07
-6.1781013079e-07
-6.55641722561e-07
-1.13927613576e-08
-5.55140124045e-07
-2.02546072167e-07
1.64716061155e-06
1.50401911209e-06
-4.38992763823e-06
3.50230108709e-06
1.81625610666e-06
-5.35927972669e-06
5.16202927551e-06
2.10924491213e-06
-5.49522062009e-06
6.33974378898e-06
2.40847018436e-06
-5.01752698429e-06
6.87964499397e-06
2.6882141664e-06
-4.24727836605e-06
6.73818072835e-06
2.93002792844e-06
-3.37963284778e-06
5.9549813073e-06
3.11269608127e-06
-2.55767152201e-06
4.65794773767e-06
3.23682810074e-06
-1.8674450521e-06
3.02521176491e-06
3.30692601821e-06
-1.39240902882e-06
1.23745434073e-06
3.33471386731e-06
-1.17281205583e-06
-5.2344795636e-07
3.32709105703e-06
-1.2033237575e-06
-2.09244949013e-06
3.28356339961e-06
-1.4544356561e-06
-3.33099032026e-06
3.19936003434e-06
-1.88946922475e-06
-4.12059441619e-06
3.06678600582e-06
-2.45017729508e-06
-4.3904359205e-06
2.88687136579e-06
-3.07215882956e-06
-4.13689882519e-06
2.66176760433e-06
-3.6975553152e-06
-3.41495699946e-06
2.40964993037e-06
-4.22771475282e-06
-2.3471149504e-06
2.13784670113e-06
-4.52995858802e-06
-1.11995182101e-06
1.84438832188e-06
-4.35446271865e-06
1.4817411135e-06
-3.49940980383e-06
2.05046703716e-06
3.12454173996e-06
-5.3209853976e-06
3.89295239495e-06
3.42054840405e-06
-7.06122296398e-06
5.37458666281e-06
3.73057212524e-06
-7.24838687084e-06
6.37599076989e-06
4.11096953404e-06
-6.63179746221e-06
6.79100425253e-06
4.52072016452e-06
-5.67323471006e-06
6.59291735229e-06
4.91716116043e-06
-4.61905760854e-06
5.8162339511e-06
5.25590230992e-06
-3.63483199332e-06
4.57242770615e-06
5.51644053673e-06
-2.82767735516e-06
3.01096989891e-06
5.68605696145e-06
-2.27761088939e-06
1.29939952208e-06
5.76760692765e-06
-2.02426303554e-06
-3.92589170858e-07
5.76504009936e-06
-2.06683583713e-06
-1.90980430761e-06
5.68027321309e-06
-2.37482608594e-06
-3.119531479e-06
5.51453131908e-06
-2.9041788215e-06
-3.92029600271e-06
5.26820174479e-06
-3.59270944051e-06
-4.24819603714e-06
4.95579597014e-06
-4.3688700396e-06
-4.09836977703e-06
4.59659050251e-06
-5.15013014962e-06
-3.51106055158e-06
4.22564198155e-06
-5.81678507072e-06
-2.58050990772e-06
3.8704130922e-06
-6.19197742073e-06
-1.3885831329e-06
3.54495098062e-06
-5.92489188365e-06
3.17501993638e-06
-4.40424089993e-06
2.38468514202e-06
4.5576975877e-06
-5.51653413935e-06
4.24362171524e-06
4.70087676459e-06
-7.31299042452e-06
5.63080253367e-06
4.92605595148e-06
-7.2870941893e-06
6.52134824446e-06
5.28925403494e-06
-6.37852607093e-06
6.84559650202e-06
5.73658349741e-06
-5.1418352163e-06
6.58936828042e-06
6.20723163306e-06
-3.86017018393e-06
5.79206166732e-06
6.63909312001e-06
-2.71184077148e-06
4.55787060284e-06
6.99190409563e-06
-1.80482604646e-06
3.02701380192e-06
7.2331264601e-06
-1.20474280015e-06
1.35229307864e-06
7.36097289789e-06
-9.38140855641e-07
-3.08216595224e-07
7.37171660953e-06
-9.97348223352e-07
-1.80942502559e-06
7.26882369836e-06
-1.35127026268e-06
-3.02887120523e-06
7.06376031587e-06
-1.96113328861e-06
-3.86573700448e-06
6.75699764704e-06
-2.77212571867e-06
-4.25720646146e-06
6.38218327849e-06
-3.71987938859e-06
-4.18927451079e-06
5.97119054e-06
-4.7164422082e-06
-3.69029695054e-06
5.57167274498e-06
-5.62807298003e-06
-2.83219392253e-06
5.22688860171e-06
-6.24358677496e-06
-1.63609678822e-06
4.96719260099e-06
-6.1362164856e-06
4.72130035663e-06
-4.54877684316e-06
2.70207034541e-06
5.56889775494e-06
-5.15864115976e-06
4.64118195064e-06
5.55363023809e-06
-6.81759624573e-06
6.00870999016e-06
5.67329887429e-06
-6.49872372347e-06
6.84136759213e-06
5.97725778688e-06
-5.24986413586e-06
7.09723181687e-06
6.40564584239e-06
-3.69896549011e-06
6.77682115768e-06
6.89058609743e-06
-2.16381804412e-06
5.93011567608e-06
7.35512562081e-06
-8.32853967073e-07
4.65661331318e-06
7.75214264153e-06
1.86340686114e-07
3.10652429194e-06
8.04492846709e-06
8.35619391062e-07
1.41426280797e-06
8.20561205756e-06
1.11550038187e-06
-2.67317363398e-07
8.23140294804e-06
1.04002180833e-06
-1.79805061148e-06
8.1271364474e-06
6.42018363257e-07
-3.07258487761e-06
7.90260955838e-06
-3.79406281813e-08
-3.97110664165e-06
7.58928190192e-06
-9.85906564946e-07
-4.43510100814e-06
7.2126675116e-06
-2.12032437608e-06
-4.43636501107e-06
6.81090043663e-06
-3.35925318092e-06
-3.98898172632e-06
6.44086834193e-06
-4.55772695532e-06
-3.14501397896e-06
6.1523656393e-06
-5.47182654132e-06
-1.88358753611e-06
5.98321332133e-06
-5.61083261432e-06
5.86292951672e-06
-4.13172002676e-06
2.99428477713e-06
6.01278582188e-06
-4.5302029952e-06
5.06136954408e-06
5.87881080711e-06
-6.00053577252e-06
6.46475591908e-06
5.90550444003e-06
-5.40203262741e-06
7.28095387069e-06
6.13533526036e-06
-3.83846605383e-06
7.49213214747e-06
6.5122255908e-06
-1.99264867494e-06
7.10858476797e-06
6.9653367466e-06
-2.14793993948e-07
6.19906837757e-06
7.42769277084e-06
1.2877178493e-06
4.86434859437e-06
7.83308067345e-06
2.41819628807e-06
3.24520666276e-06
8.13717383779e-06
3.12916490025e-06
1.48762218824e-06
8.31315341071e-06
3.42502662133e-06
-2.61353576626e-07
8.35258903225e-06
3.3351137928e-06
-1.86605031257e-06
8.26170963617e-06
2.89447475485e-06
-3.20823999763e-06
8.05751123674e-06
2.12796802432e-06
-4.18293932106e-06
7.76653319108e-06
1.06915470138e-06
-4.72051489257e-06
7.42225108966e-06
-2.26500697853e-07
-4.77696060151e-06
7.0739300128e-06
-1.69157193835e-06
-4.35140029385e-06
6.76767293278e-06
-3.15639516532e-06
-3.47702401786e-06
6.55512700909e-06
-4.34991407971e-06
-2.1073400011e-06
6.47107089878e-06
-4.73157519808e-06
6.44320379349e-06
-3.41994978773e-06
3.2467433498e-06
5.840432377e-06
-3.7941391041e-06
5.46617038476e-06
5.64656390832e-06
-5.08098740842e-06
6.94162376056e-06
5.60795064252e-06
-4.25454894691e-06
7.77369122457e-06
5.76540753836e-06
-2.43743226242e-06
7.95891545015e-06
6.0718102306e-06
-3.49399475681e-07
7.5309797895e-06
6.47309421064e-06
1.6264543519e-06
6.54878472969e-06
6.89068932171e-06
3.2789954707e-06
5.13163053945e-06
7.2683016556e-06
4.50450795458e-06
3.42206795126e-06
7.55799050827e-06
5.26320982401e-06
1.57195724775e-06
7.73206614946e-06
5.57165552712e-06
-2.69277254708e-07
7.78195941592e-06
5.46925629017e-06
-1.96501584526e-06
7.71489270486e-06
4.99631712603e-06
-3.39340343837e-06
7.54940476437e-06
4.17361789108e-06
-4.44893152698e-06
7.31182689546e-06
3.02458294069e-06
-5.04546430913e-06
7.03531626651e-06
1.5914371041e-06
-5.14420427625e-06
6.75853180898e-06
-3.22690762491e-08
-4.71742815456e-06
6.53739380598e-06
-1.71440156882e-06
-3.78678901209e-06
6.40414258268e-06
-3.13043385848e-06
-2.29277238762e-06
6.38498585606e-06
-3.71347889751e-06
6.40185154531e-06
-2.57548434489e-06
3.43822321001e-06
5.08002467478e-06
-3.07838217944e-06
5.81233278199e-06
4.88243918312e-06
-4.20650005282e-06
7.37857951699e-06
4.8146540376e-06
-3.21599988578e-06
8.24432219959e-06
4.91524748077e-06
-1.21707869478e-06
8.43108499904e-06
5.14901375221e-06
1.04426113168e-06
7.96474808835e-06
5.46991631578e-06
3.17042024984e-06
6.9177796905e-06
5.81555338729e-06
4.93362979686e-06
5.41711094096e-06
6.13701724115e-06
6.23439390218e-06
3.61232672151e-06
6.39025585913e-06
7.02928202037e-06
1.66280232243e-06
6.54905307863e-06
7.34382416288e-06
-2.75649160088e-07
6.60577012521e-06
7.22772974267e-06
-2.06223714041e-06
6.56853916451e-06
6.72910287045e-06
-3.57355527294e-06
6.45758156902e-06
5.86782469365e-06
-4.7003036636e-06
6.29456907434e-06
4.66034737697e-06
-5.34982379795e-06
6.10664483985e-06
3.14508450966e-06
-5.46722217149e-06
5.9250651057e-06
1.39498183368e-06
-5.02879038639e-06
5.78664252127e-06
-4.13258636694e-07
-4.03269244396e-06
5.72459422029e-06
-1.98594472044e-06
-2.4213243988e-06
5.74293378628e-06
-2.71702363904e-06
5.75696316548e-06
-1.7410401147e-06
3.56930451105e-06
3.83663253822e-06
-2.45985708011e-06
6.07892695383e-06
3.68237871978e-06
-3.47349606055e-06
7.73601282732e-06
3.61670548343e-06
-2.38316860011e-06
8.64307319705e-06
3.67102620185e-06
-2.69786436466e-07
8.84156366545e-06
3.83615993182e-06