/*--------------------------------*- C++ -*----------------------------------*\
| =========                 |                                                 |
| \\      /  F ield         | OpenFOAM: The Open Source CFD Toolbox           |
|  \\    /   O peration     | Version:  3.0.1                                 |
|   \\  /    A nd           | Web:      www.OpenFOAM.org                      |
|    \\/     M anipulation  |                                                 |
\*---------------------------------------------------------------------------*/
FoamFile
{
    version     2.0;
    format      ascii;
    class       surfaceVectorField;
    location    "6.6";
    object      Uf;
}
// * * * * * * * * * * * * * * * * * * * * * * * * * * * * * * * * * * * * * //

dimensions      [0 1 -1 0 0 0 0];

internalField   nonuniform List<vector> 
22672
(
(0.000277667630972 -5.86540846397e-05 -0.0001416968388)
(-3.10644379377e-05 0.000217834080277 -0.000135821397189)
(0.000198464415612 0.000176946345199 -0.000495500444212)
(0.000905841812067 -0.000206738696882 -0.000175208383444)
(0.000444203107934 4.69818000516e-05 -0.000536997203805)
(0.000758752177214 0.000142521775267 -0.0006751545742)
(0.00161269462288 -0.000276050947467 -0.000124117907385)
(0.00133196351942 -1.63511418006e-05 -0.00064956633802)
(0.00152922850382 0.000148000536304 -0.000690500273437)
(0.00218911666564 -0.000279646257069 -2.77701626027e-05)
(0.00206215350827 -3.8826422179e-06 -0.000591938607054)
(0.00214989089259 0.000178632138627 -0.000572538083508)
(0.00251801245519 -0.000225325098527 7.5163447009e-05)
(0.00257116408435 7.87716585979e-05 -0.00047913019763)
(0.00256592210581 0.000236475167822 -0.000407666243685)
(0.0025470476415 -0.000147275601559 0.000162703076841)
(0.00275503765275 0.000207394467183 -0.000349620174124)
(0.0026931794456 0.000307761481144 -0.000236428582207)
(0.00230699895041 -6.82017390593e-05 0.00022905381172)
(0.00262788012871 0.00033132032737 -0.000238524676033)
(0.00254298236896 0.000368726200936 -9.12707105708e-05)
(0.00183679544675 6.81930342224e-07 0.000274375321381)
(0.00222693481891 0.000441265118387 -0.000142570930361)
(0.00214355504502 0.000420412968584 2.8939161966e-05)
(0.00120725886452 4.47313757967e-05 0.000296461042612)
(0.00161509410812 0.00051682532444 -7.92385576184e-05)
(0.0015550028415 0.000454741288879 0.000112711894254)
(0.000504980987971 5.85866716498e-05 0.000301612640271)
(0.000883378116434 0.000552621067286 -5.01415416563e-05)
(0.000859433037912 0.000470195415529 0.000149657328715)
(-0.00018836798637 4.24627746568e-05 0.000292813747562)
(0.00012090670232 0.000548203788857 -5.33717493478e-05)
(0.000136243775127 0.000467670554722 0.000145145623132)
(-0.000797799107814 -1.39510026431e-07 0.000270448892144)
(-0.00058864354704 0.000505381400255 -8.51813174278e-05)
(-0.000540146160652 0.000447867952067 0.000104050117723)
(-0.00125572826919 -6.22642748587e-05 0.000231020543142)
(-0.00116928437845 0.000429389946065 -0.000141989315682)
(-0.0011021903117 0.000411826149805 2.85396087945e-05)
(-0.0015149013666 -0.000130679198938 0.000175962577784)
(-0.00155670218699 0.000328372087546 -0.00022050978419)
(-0.00149105959625 0.000361765233069 -6.91985707946e-05)
(-0.00155297541325 -0.000193418504908 0.000104382041908)
(-0.0017163005789 0.000220126552133 -0.000308218253667)
(-0.00167327920545 0.000305690597329 -0.000182052043723)
(-0.00135626747069 -0.000230853951043 1.99324955873e-05)
(-0.00162359209217 0.000116193307263 -0.000407075351342)
(-0.00163204766226 0.000245420489519 -0.000312900740911)
(-0.000972207418499 -0.000217439638242 -6.13229741836e-05)
(-0.00128402761185 5.43902260704e-05 -0.000492330749712)
(-0.00137407769716 0.000199595746955 -0.000438449726066)
(-0.000499200598179 -0.00015056482391 -0.000106400245914)
(-0.000783820890474 5.67022748252e-05 -0.000534240531101)
(-0.000969268166841 0.000176481435249 -0.000529708496541)
(-0.000101709160341 -2.1835818071e-05 -7.98904474149e-05)
(-0.0001664593867 0.000115674332748 -0.000434637540924)
(-0.000454291345638 0.000167525122535 -0.000513165104894)
(0.000102186913569 0.000257378432924 -8.53223773319e-05)
(-0.000106868944586 0.000181209857038 -0.000359087132857)
(0.000117613954933 0.000336563177591 -0.000531121762194)
(-0.000174380638157 0.000760221106095 -0.00016259158577)
(0.000182584638066 0.000659715825279 -0.000659999588083)
(0.000889518692351 0.000245533587377 -0.00101135515838)
(0.000367343885291 0.000720857970028 -0.00101458496181)
(0.000783276371147 0.000653474754655 -0.0014457794221)
(0.00177302280823 0.0002601399403 -0.00111738703769)
(0.00143870328827 0.000758317562049 -0.00127038907442)
(0.00163700833072 0.000702624644837 -0.00165817137668)
(0.00245846006303 0.000363993475463 -0.00104329864208)
(0.0022759014742 0.00088184013755 -0.00121713070104)
(0.00229219968761 0.00080590653989 -0.00157115869975)
(0.00282482722368 0.000533067394453 -0.000903913818763)
(0.00283034164949 0.00108269272961 -0.00106114438175)
(0.00270879787334 0.000953113718359 -0.00137028704076)
(0.00284540433575 0.000716511708387 -0.000750847926997)
(0.00301616768023 0.00131882368412 -0.000872790695943)
(0.00282516115377 0.0011163084907 -0.00113200530151)
(0.00255364160308 0.00087756894549 -0.000610149418114)
(0.00285381663438 0.00153040822093 -0.000699531702154)
(0.00265167603897 0.00125918894157 -0.000907324303455)
(0.00200923882441 0.000998626213592 -0.00049618480936)
(0.00239690837895 0.00170241755972 -0.000551620168893)
(0.00222635602879 0.00137251606019 -0.000716748968046)
(0.00129481067003 0.00106847369648 -0.000425841141887)
(0.00171820978214 0.00181522953418 -0.000448647415831)
(0.00161051723516 0.00144524021854 -0.000583975501154)
(0.00050360402741 0.00108667191019 -0.000405125931276)
(0.000915883063127 0.00186500463761 -0.000400332846813)
(0.000885984185543 0.00147823934663 -0.000521176478059)
(-0.000273550222572 0.00105451050739 -0.000431366814337)
(8.44087526395e-05 0.00185370893602 -0.000406868492635)
(0.000133784837983 0.0014730235829 -0.000528350509171)
(-0.000954466043801 0.000975561022916 -0.000497619525253)
(-0.000687675446838 0.00178443047424 -0.000462108746485)
(-0.000569305765717 0.00143071552724 -0.000598132884931)
(-0.00146808703367 0.000856248029898 -0.000593519643013)
(-0.00132090479483 0.00166250554542 -0.000556904640142)
(-0.00115480882937 0.00135353160416 -0.000719494229054)
(-0.00176019547844 0.000709615475322 -0.000704690615641)
(-0.00174807137445 0.00149730461306 -0.000680240543093)
(-0.00156484761895 0.0012444241106 -0.00087682366676)
(-0.0017955474364 0.000553078236088 -0.000819675646918)
(-0.00192744195625 0.00130661756386 -0.000816330371331)
(-0.00176347102228 0.0011141174004 -0.0010511385961)
(-0.00156026978315 0.000417538255051 -0.000919338596641)
(-0.00182585317703 0.00110710899458 -0.000955845381334)
(-0.00172906896416 0.00097312746609 -0.0012261928366)
(-0.00108478771225 0.000341029694421 -0.000965248306629)
(-0.00144297487589 0.000944302695109 -0.00106554547683)
(-0.00146658924152 0.000849620451241 -0.00136539399136)
(-0.000464871883185 0.000336975983217 -0.00086247782611)
(-0.000853492721103 0.000848331709617 -0.00109189184424)
(-0.00103102098724 0.00076275243272 -0.00141154466717)
(4.6477832592e-05 0.000411826223755 -0.000440069470841)
(-8.71475967716e-05 0.000817286794739 -0.000862747474787)
(-0.00044629249604 0.000712133943919 -0.00121296152854)
(0.000228494502571 0.000832808619112 -0.000118981155711)
(-8.05059692201e-05 0.000689328179057 -0.000528951922094)
(6.01318044619e-05 0.00112660189257 -0.000646054785389)
(-0.000243517621908 0.00137956910058 -0.000113149322333)
(0.000196935490564 0.00133290256302 -0.000679478457805)
(0.000939042572125 0.00121274810114 -0.00127361887785)
(0.000387383054016 0.00151143996526 -0.00113351187605)
(0.000846626699211 0.00141105154857 -0.00166949136615)
(0.00192769534053 0.00135776049557 -0.00137013273777)
(0.001592850723 0.001651438998 -0.00138116002961)
(0.00175963224126 0.00151966132788 -0.00188177288023)
(0.00266499206385 0.00157659111242 -0.00123497644071)
(0.00250144442515 0.00186842384873 -0.00125569415749)
(0.00242973579538 0.00168935190138 -0.0017238792514)
(0.0030390009061 0.00184227102506 -0.00103002125893)
(0.00307536053555 0.00214937507204 -0.00102073798784)
(0.00283662956543 0.00190456094465 -0.00144069017958)
(0.00303715919795 0.00210386135269 -0.000821474471099)
(0.00324343087083 0.00245119792713 -0.000767071462275)
(0.00293275193791 0.00213359718724 -0.00113053172239)
(0.00270371777597 0.00232347282467 -0.000641002452933)
(0.00303849711257 0.00271423328654 -0.000545798196281)
(0.00273341219473 0.00233557611865 -0.000850383018376)
(0.00210978482907 0.00248442813862 -0.000504082775364)
(0.00252810007518 0.00292177265502 -0.000370146102907)
(0.0022837164932 0.00249616669875 -0.000625421685857)
(0.00134299668463 0.00257530095571 -0.000423139120758)
(0.0017939865339 0.00305743024912 -0.000256190801102)
(0.00164701735531 0.0026021717798 -0.000475412230441)
(0.000500737062652 0.00259505818631 -0.000402075408172)
(0.000938158768839 0.00311506293065 -0.000205785526156)
(0.000903980466311 0.00265074902118 -0.000407798405182)
(-0.000324300244257 0.00254748928836 -0.000437610424782)
(5.67418297292e-05 0.00309921920507 -0.000218070910366)
(0.000134447174603 0.00264382983023 -0.000420472724569)
(-0.00104902257869 0.00243730550781 -0.000521393861374)
(-0.000762766222698 0.00301472453037 -0.000285850806597)
(-0.000586263142251 0.00258401141825 -0.000505571477914)
(-0.00160009882829 0.00227247066709 -0.000643625540223)
(-0.00144005839639 0.00286612247385 -0.000398950580246)
(-0.00119098919685 0.00247507402731 -0.000652540408912)
(-0.00192039375769 0.00206629219924 -0.000791880298784)
(-0.0019065034102 0.0026656783331 -0.000554578676334)
(-0.00162267916209 0.00232274693066 -0.000848078486007)
(-0.00196745232063 0.00183535611052 -0.000952500105748)
(-0.00211423722679 0.00242766134271 -0.000734923195965)
(-0.00184269088833 0.00213974252206 -0.00107398487263)
(-0.00171991877087 0.00161076445616 -0.00110205226153)
(-0.00202113350247 0.00216914020417 -0.000928708013882)
(-0.0018243954736 0.00194001649198 -0.00130956437258)
(-0.00119714991847 0.00142993348319 -0.00119218901444)
(-0.00161711453175 0.00193476046946 -0.00110035915516)
(-0.00156720720527 0.00175462318121 -0.00151322618996)
(-0.000490799901975 0.00130782590025 -0.00109216149292)
(-0.000967396071768 0.00175358587273 -0.00118234469565)
(-0.00111693111215 0.00160583903415 -0.00161160368202)
(0.000106411816973 0.00122043509217 -0.000541659159657)
(-9.42728437473e-05 0.00162722716998 -0.000958220764297)
(-0.000484174631379 0.00149854219498 -0.00140715153493)
(0.000288470096265 0.00148578093464 -7.43352541621e-05)
(-8.70715963526e-05 0.00139577822741 -0.000546560131007)
(6.93622487243e-05 0.00177501969849 -0.000600606412992)
(-0.000251199501066 0.00188835735494 -2.43835347571e-05)
(0.000230166271756 0.00187409136657 -0.000578149297958)
(0.00106480586962 0.00196557737892 -0.0012410530278)
(0.000489742564052 0.00212629101137 -0.00108101773855)
(0.000954191704057 0.00198854051033 -0.0016102934443)
(0.00215004952445 0.00218067685738 -0.00126672144932)
(0.00181392882046 0.00231977839569 -0.00127073931643)
(0.0019343787222 0.00211334437937 -0.00175358193902)
(0.00293094656404 0.00246043003886 -0.00104145570462)
(0.00278533568613 0.00257920949349 -0.00105515845907)
(0.00262973617418 0.00230730330587 -0.00149168175365)
(0.00329973194013 0.00277610508952 -0.000757788191187)
(0.00336882624356 0.00289020640042 -0.000734399473121)
(0.00303017943213 0.00255173515272 -0.00110961599421)
(0.00325990373571 0.0030774376293 -0.000491395187457)
(0.00350606962023 0.0032113765325 -0.000413860281027)
(0.00309932671582 0.00281147318931 -0.000720349917097)
(0.00287091914686 0.00332700985125 -0.000274941846255)
(0.0032470066155 0.00348862899098 -0.000150087214039)
(0.00286337395408 0.00304361120359 -0.00038541083491)
(0.00221817346057 0.00350725908601 -0.000122254128645)
(0.00267161577256 0.0037052876674 4.94071845968e-05)
(0.00237497644934 0.00323033487195 -0.000130769201227)
(0.00139305411686 0.00360768099619 -3.88372065013e-05)
(0.0018745159053 0.00384361657936 0.000171286644882)
(0.00170306987704 0.00335587378295 3.89330437787e-05)
(0.00049812553653 0.00362888238761 -2.17810283501e-05)
(0.000961817143718 0.0039028402033 0.000219890012343)
(0.00092928858364 0.00341531408638 0.000107151304115)
(-0.000376645618232 0.00357581880399 -6.63112921808e-05)
(2.83296707504e-05 0.00388673913775 0.000200617032906)
(0.000131267623341 0.0034102533042 8.72512305434e-05)
(-0.00115074020464 0.00345382974792 -0.000163407525469)
(-0.000841337213703 0.00380098001595 0.00012137936806)
(-0.000618566620902 0.00334420477594 -1.21608550635e-05)
(-0.00174707302591 0.00327085020045 -0.000309903716357)
(-0.00156901619209 0.00365190566405 -1.05018022094e-05)
(-0.00125533156078 0.00322200949494 -0.000189450284983)
(-0.00210773555529 0.00303957498767 -0.000497621573515)
(-0.00208402214024 0.00344719864317 -0.000195745832955)
(-0.00172119462848 0.00305244029897 -0.000420857660958)
(-0.00217998020968 0.00277551651313 -0.0007111311041)
(-0.0023303212616 0.00320143999581 -0.000417930054392)
(-0.00197258673475 0.00284880944231 -0.000701533843)
(-0.00193162769736 0.0025081540359 -0.000927014907514)
(-0.00225716259958 0.00292911087797 -0.000669389182462)
(-0.00197693310615 0.00262651380961 -0.00100832298398)
(-0.00137067667888 0.00227283599678 -0.00109051483637)
(-0.00184224339289 0.00267026907858 -0.000911425802762)
(-0.00172470444435 0.00241771258729 -0.00129645936143)
(-0.000586428392926 0.00208467714178 -0.00104840396703)
(-0.00114167071263 0.00245029086219 -0.00106630744403)
(-0.00125350699634 0.00224625040789 -0.00148095292585)
(0.000102612840584 0.00189938128917 -0.000490896858802)
(-0.000173782953333 0.00227154085672 -0.000891044843005)
(-0.000565955617968 0.00212020834275 -0.00133335448963)
(0.000296115349832 0.00203099559217 1.20046346592e-05)
(-0.000111111607935 0.00197898442409 -0.000442601530837)
(0.00014976883566 0.00222847690809 -0.000504794860311)
(-0.000203203539033 0.00217540245612 6.83080692312e-05)
(0.000287676719276 0.00223572773247 -0.000436812908664)
(0.00126397300999 0.00246648026836 -0.00111070402718)
(0.000654324804961 0.00245539676777 -0.000965151056874)
(0.00110185474488 0.0023538507237 -0.00144330892598)
(0.0024321147724 0.00270206595019 -0.00105917632619)
(0.00207951559141 0.00265821432828 -0.00109239858422)
(0.00215151079606 0.00247035417564 -0.00150657684281)
(0.00324443225989 0.00299085359038 -0.000748102227574)
(0.00310295153014 0.00291256920647 -0.000797761392686)
(0.00287697055784 0.00265695393348 -0.0011456765813)
(0.00359719299333 0.00330699796078 -0.000390471562961)
(0.00368800705327 0.00320740234987 -0.000402611810747)
(0.00327227639612 0.00289486738693 -0.000669956334178)
(0.00351070837025 0.00360394665703 -7.25523076086e-05)
(0.00378566273818 0.00350729737202 -2.75933260731e-05)
(0.00331178574736 0.00315063992615 -0.000209436132843)
(0.00305700338908 0.00384738267252 0.000174261816813)
(0.0034670547591 0.003762026063 0.000269820309177)
(0.00303369971441 0.00338227214956 0.000180307771924)
(0.00233488997899 0.00402210522279 0.000342947958124)
(0.00282222239298 0.00396163455782 0.0004865792141)
(0.00249753041118 0.00357104390974 0.000465766234106)
(0.00144787242804 0.0041193679096 0.000430013863727)
(0.00195890583547 0.00408972601405 0.00061323583806)
(0.00177928408474 0.00370033309488 0.000640907765427)
(0.00049603619288 0.00414079268163 0.000442288073599)
(0.000987850695001 0.00414468231397 0.000657677886913)
(0.000962884226813 0.00376395112253 0.000709993781149)
(-0.000431803652558 0.00409162628806 0.000388307693147)
(1.55190620097e-06 0.00413164873765 0.000631483824449)
(0.000124890646825 0.00376284075448 0.00068292995542)
(-0.00125744310024 0.0039779928247 0.00027428509132)
(-0.000918743214338 0.00405687850395 0.000543401229658)
(-0.000664632265805 0.00370113764092 0.000569740736587)
(-0.00190787860361 0.00380663940253 0.000103656081192)
(-0.00169864631854 0.00392606876817 0.000395826393945)
(-0.00134223029742 0.00358480302307 0.000376272234405)
(-0.00231569190447 0.00358754856466 -0.000116054313832)
(-0.00226554526277 0.00374632893493 0.000190360262039)
(-0.00184895513097 0.00342338670201 0.000108682889679)
(-0.00242167668508 0.0033337224942 -0.000376188132754)
(-0.00255580225313 0.00352922156695 -6.37088487469e-05)
(-0.00213695550147 0.0032295162291 -0.000221796865188)
(-0.00218274986402 0.0030707902887 -0.00065380007771)
(-0.00251072247659 0.00328417910747 -0.000361726108154)
(-0.00216747781765 0.00301874702975 -0.000593995063497)
(-0.00159567544423 0.00282906062226 -0.000887218410428)
(-0.00209424380931 0.00304480677014 -0.000663396905137)
(-0.00192126046009 0.0028206580848 -0.00096161203531)
(-0.000746762267156 0.00262098386238 -0.000908948320005)
(-0.00135416784659 0.00283048850707 -0.000881874656384)
(-0.0014270305085 0.00265702763142 -0.00122911063207)
(3.15752633097e-05 0.00238812583203 -0.000388143349544)
(-0.00030807574948 0.00264281724152 -0.000760529943725)
(-0.000682546337811 0.00253668882681 -0.00114961361934)
(0.000254534645148 0.0023555053921 0.000106872096372)
(-0.000154687997703 0.00238475310331 -0.000292934330119)
(0.000273458236082 0.00238987465997 -0.000392048127332)
(-0.000130524987228 0.00218984538042 0.00014682750431)
(0.000357999035653 0.00233851065952 -0.000287900326375)
(0.00149736371499 0.00263363899879 -0.000946845613917)
(0.000833736856498 0.00246901548114 -0.000832369795247)
(0.00126445477958 0.00244851085021 -0.00123752342391)
(0.00273451841166 0.00285248832852 -0.000830983650721)
(0.00234174425427 0.00265172023776 -0.000906265365225)
(0.00238157046069 0.0025444946293 -0.00123066003756)
(0.00356836569236 0.00311069170317 -0.000452270975858)
(0.00340742304192 0.00286883922131 -0.000552737681186)
(0.00313889890744 0.00270280982118 -0.0007901170143)
(0.00390034986909 0.0033873224485 -3.97335738593e-05)
(0.00398951459248 0.00311725408485 -0.000104841403278)
(0.00353173567325 0.00290963722733 -0.000241835954195)
(0.00376088987833 0.00364350674835 0.000314779290712)
(0.0040462089235 0.00336424600452 0.000307141941228)
(0.00354194242639 0.00313472301079 0.000282511009796)
(0.00324304226569 0.00385352495823 0.000582137706463)
(0.00367235816993 0.00357595357436 0.000626430155213)
(0.00322147874219 0.00334182706588 0.000703919512002)
(0.00245332155666 0.00400505541235 0.000756867094035)
(0.00296365775221 0.00374232382537 0.000851380832736)
(0.00263513838471 0.00351392370176 0.00100903070744)
(0.00150433176572 0.00408976187907 0.000840899861246)
(0.00203918132903 0.0038489286695 0.000975553740235)
(0.00186631934031 0.0036337729724 0.00118978635965)
(0.000497363136354 0.00410985224756 0.000846873637763)
(0.00101478034317 0.00389546646399 0.00101289751757)
(0.00100253995372 0.00369510550567 0.00125618374636)
(-0.000481502503901 0.00407120404937 0.00078657736096)
(-1.84925698187e-05 0.00388755624186 0.000980161389845)
(0.000120230301511 0.0036987830183 0.0012229574943)
(-0.00135774473396 0.00397976053708 0.000664942532283)
(-0.000983385776632 0.00383161500223 0.000887445184113)
(-0.000712523065158 0.00364931488942 0.00110150519109)
(-0.00205961357736 0.00384138041648 0.000482530574791)
(-0.00180929574811 0.00373308711863 0.000734116659896)
(-0.00143360728929 0.00355318592113 0.000894850038802)
(-0.0025156950057 0.00366425649831 0.000242705727123)
(-0.00242286657259 0.00359667006981 0.000519036597153)
(-0.00198297563548 0.00341899243895 0.000605739909993)
(-0.00266030985492 0.00345666219024 -4.92468241465e-05)
(-0.00275444239522 0.00343064785099 0.000247279699553)
(-0.00230819959366 0.00325869663728 0.00024318825294)
(-0.00243795926966 0.00323648178975 -0.000371322935581)
(-0.00274013760433 0.003240390825 -8.03337644898e-05)
(-0.00236525396471 0.0030845529396 -0.000178562522834)
(-0.00183581765862 0.00302669571017 -0.000658053151094)
(-0.0023286750722 0.00304982664875 -0.000421741879551)
(-0.00212524763541 0.00292183014528 -0.00060716158576)
(-0.000936569347368 0.00283497236528 -0.000733456280104)
(-0.0015606588604 0.0028715518311 -0.000686135631219)
(-0.0016085129859 0.00278724489294 -0.00094031158239)
(-7.40330314067e-05 0.00259348890033 -0.000265514497809)
(-0.000456629385546 0.00270250011395 -0.000612477526025)
(-0.000811944469202 0.00268642679586 -0.000922219002666)
(0.000189426950968 0.00241109826473 0.000190840109192)
(-0.000210578301845 0.00253589212147 -0.000129625756921)
(0.000394056254577 0.00226345617356 -0.000293494163605)
(-5.47544415093e-05 0.00195601688527 0.000207199804753)
(0.000418684718313 0.00218614789061 -0.000160227120036)
(0.00170850555492 0.00247812577104 -0.000791789546554)
(0.000992952326745 0.00219317308487 -0.000706407263232)
(0.00140763022878 0.00227614763646 -0.00103860637063)
(0.0030005479042 0.00265631373379 -0.000628019395689)
(0.0025639294482 0.0023368981037 -0.000741459266597)
(0.00258561994565 0.00234601818068 -0.000977219927611)
(0.00385066893056 0.00286121807981 -0.000205308108606)
(0.00366216527414 0.0024993162722 -0.000349430824217)
(0.00337421576255 0.00246654023901 -0.000480598128988)
(0.00416077852645 0.00307870010968 0.000242034111809)
(0.00423939818679 0.00268385245309 0.00013016043243)
(0.00376770773774 0.00262972653269 0.000123291610624)
(0.00397753784794 0.00328011597781 0.000618792805729)
(0.00426227512785 0.00286712282582 0.000563719649672)
(0.00375430487335 0.00281089966494 0.000680363087919)
(0.00340445588458 0.00344665703375 0.000895673281485)
(0.00384390125328 0.00302442322133 0.000893141965325)
(0.00339828488709 0.00298145027659 0.00112461128586)
(0.00255711336116 0.00356684246767 0.00107006747894)
(0.0030819963748 0.00314868769551 0.001119735726)
(0.00276712498287 0.00312604811022 0.00144097747629)
(0.00155555561243 0.00363410141238 0.00114755139656)
(0.00210704218152 0.00322777879349 0.00123473479645)
(0.0019517412347 0.00322819438607 0.00162270642062)
(0.000502952949581 0.00365227792906 0.00114618526965)
(0.00103941334076 0.00326355224667 0.00125893426247)
(0.00104385936555 0.00328276015664 0.00168451574534)
(-0.000516890457181 0.00362776975608 0.001081029213)
(-3.02364667173e-05 0.00326216209909 0.00122083159241)
(0.000120711164597 0.00329125720701 0.00164523653956)
(-0.00143326101721 0.00356548880919 0.000956619311727)
(-0.00102696046058 0.00322951930039 0.00113139966576)
(-0.000750558725656 0.00325827169657 0.00151846539037)
(-0.00217638293393 0.0034693253902 0.000770622682258)
(-0.00188743988411 0.00317033416367 0.00097893196878)
(-0.00150949821697 0.00318975780167 0.00130587412643)
(-0.00267254218067 0.0033447045427 0.000523610569582)
(-0.00253756385757 0.00308629149345 0.000762784917251)
(-0.00209569317266 0.00309275755545 0.00100653719028)
(-0.00285053597651 0.00319690557303 0.000216192759209)
(-0.00290174774981 0.00298188329773 0.000486672101459)
(-0.00245228963174 0.00297691825719 0.000626757830189)
(-0.00264666034789 0.00303726981412 -0.000130752708459)
(-0.00291463425719 0.0028588675775 0.000145310979825)
(-0.00253217177059 0.0028513130917 0.000177647234636)
(-0.00203844381394 0.0028797298186 -0.000449824359676)
(-0.00251228744831 0.00273184079093 -0.000217406081519)
(-0.0022972015368 0.00273495150008 -0.000290230895565)
(-0.00110468790009 0.00272580772093 -0.00056515687714)
(-0.00172808414689 0.00260555378508 -0.000509311390099)
(-0.00176183071505 0.00263901374616 -0.000667757902863)
(-0.000175724793118 0.0025095106723 -0.000156122919025)
(-0.000586601519112 0.00247262021928 -0.000472143347917)
(-0.000923268614123 0.00256338552541 -0.000699083088682)
(0.000122402076468 0.00222121528412 0.00025471536305)
(-0.000258567054666 0.00242781435613 1.41583082623e-05)
(0.000502411482171 0.00188416360686 -0.000205713294875)
(1.3220288459e-05 0.00150718401907 0.000250339504181)
(0.000470441018702 0.00180384952981 -5.35781580067e-05)
(0.00188192551437 0.00204885138723 -0.000656076983275)
(0.00111542601502 0.00167923309053 -0.000600571385965)
(0.00152208270679 0.00187052399182 -0.00086557372032)
(0.00321238755833 0.00217517079054 -0.000462870695124)
(0.00272962314986 0.00177604840095 -0.00061273326955)
(0.00274885134524 0.00191549810767 -0.000769612308454)
(0.00407392108147 0.00231575621214 -1.39622831811e-05)
(0.00384990289235 0.00188056078182 -0.000202125860332)
(0.00356442054983 0.00199615939034 -0.000242778381519)
(0.00436726262186 0.00246439687803 0.000451845970292)
(0.00442234786694 0.0019955535544 0.000295884927129)
(0.00396058786614 0.0021101841574 0.000394956597211)
(0.00414981817311 0.00260271687494 0.000838068809268)
(0.0044213978903 0.00211149376274 0.000737726227752)
(0.00393110021665 0.00223997576326 0.000973072377495)
(0.00353324494745 0.00271727466898 0.00111720440984)
(0.00397031711354 0.00221169305403 0.00106884211296)
(0.00354806829088 0.00236469189295 0.00142930198064)
(0.00263967525351 0.00280026740109 0.00128440304352)
(0.00316941459146 0.00229117059588 0.00128938835908)
(0.00288071546172 0.00247261379976 0.00175108523068)
(0.00159671880857 0.00284862240825 0.00134611766237)
(0.0021575737368 0.00234266063161 0.00138663003851)
(0.00202685948828 0.00255072139503 0.00192807302434)
(0.000510604856783 0.00286479553474 0.00133358058523)
(0.00105948923222 0.00236884979118 0.00139890841062)
(0.0010823022242 0.00259535539679 0.0019808149129)
(-0.000536355580837 0.00285372935153 0.00127120204517)
(-3.25751510611e-05 0.00237363770985 0.00135462035355)
(0.000126248026409 0.00260764404937 0.00193548348661)
(-0.00148038239803 0.00282352752539 0.00115371232281)
(-0.00104784940612 0.00236467386092 0.00126839250446)
(-0.000773509075272 0.00259293453587 0.00180887109384)
(-0.00225282269996 0.00277658133856 0.000971094203773)
(-0.00192636265733 0.00234668810719 0.00112911629488)
(-0.0015608951209 0.00255803139002 0.00159608536831)
(-0.00277858279905 0.00271250504073 0.000725846449128)
(-0.00260094372019 0.00231651209124 0.000919517388954)
(-0.0021748832971 0.00250575538547 0.00129553867434)
(-0.00298283990382 0.00263290732017 0.000415790322074)
(-0.00298822911552 0.00227474286943 0.000648423280959)
(-0.0025549990987 0.00244201120568 0.000911396870192)
(-0.00279592712908 0.00254299373609 5.86576067649e-05)
(-0.00302245106186 0.00222111839808 0.000306500078356)
(-0.00265253281982 0.00237211017376 0.00045083592276)
(-0.00218878403917 0.00244807924612 -0.000276893111942)
(-0.00263159081952 0.00216058874719 -6.45750649924e-05)
(-0.00242233004804 0.0023069059152 -3.58913231709e-05)
(-0.00123637059781 0.00234397878329 -0.000416297860876)
(-0.00184268759586 0.00209121207622 -0.000367213872825)
(-0.00187404566273 0.00225234196528 -0.00043807179324)
(-0.000264827432191 0.0021752841729 -6.1305065842e-05)
(-0.000682749450235 0.00200330615922 -0.000353403197539)
(-0.00100658129211 0.00220301780612 -0.000502228985521)
(6.32523781408e-05 0.00181218095984 0.000299630863573)
(-0.000297772243757 0.00209140061805 0.000144207023679)
(0.000580100419292 0.00130444506364 -0.000144518586909)
(5.88533314325e-05 0.000908091491353 0.000272155295646)
(0.000505458900968 0.00124173683697 1.89924098612e-05)
(0.00199953227458 0.00140703699478 -0.000557227672239)
(0.00118960555526 0.000999440139888 -0.000530813210484)
(0.00159719273508 0.00128358224594 -0.000739638768577)
(0.00335509188105 0.00147996274745 -0.000351988434757)
(0.00282801452777 0.0010460354933 -0.000531711639841)
(0.00285836078171 0.00130770101575 -0.000625546873914)
(0.00422170785964 0.00155753750892 0.000107721349979)
(0.00395947950578 0.00109410766558 -0.000117269007088)
(0.00369423866937 0.0013523037384 -8.01634449271e-05)
(0.00450426511447 0.00163896450307 0.000581765184589)
(0.00452814990604 0.00114425372037 0.00038894863398)
(0.00409412112721 0.00141830413166 0.000568741562696)
(0.00426410794153 0.00171596749885 0.000968499531446)
(0.00451383754077 0.00119670387561 0.000831081893087)
(0.00405530233901 0.00149594775283 0.00115494565575)
(0.00361825667927 0.00178075349594 0.0012410260622)
(0.00404373938052 0.00124324972204 0.00115849063777)
(0.00365478655137 0.00157263271238 0.00161429290448)
(0.00269452333801 0.0018290489692 0.00139161535407)
(0.00322198298711 0.00128139434573 0.00136556442414)
(0.00296346059403 0.00164143175045 0.00193350774992)
(0.00162655314409 0.00185825699671 0.00143942078676)
(0.00218874779322 0.00130912908704 0.0014499971535)
(0.0020825840676 0.00169289529451 0.00210149988328)
(0.000521212307188 0.00187238381112 0.00141994817894)
(0.00107659157202 0.00132766348175 0.00145501279582)
(0.00111406443154 0.00172536294411 0.00214652539383)
(-0.000539405670309 0.00187857386668 0.00135181081284)
(-2.23442309045e-05 0.00134197281425 0.00140359755123)
(0.000139363783925 0.00174285372333 0.0020922812996)
(-0.00149310959597 0.00188063940923 0.00124379647653)
(-0.00104257175314 0.00135729350874 0.00131494326119)
(-0.000777013842842 0.00174986554043 0.00196108291677)
(-0.00227979427751 0.00187917031471 0.00107753948006)
(-0.00192440283523 0.00137580981612 0.00119007881802)
(-0.00157793498319 0.00174886887351 0.00175756182775)
(-0.00282298724996 0.0018720630287 0.000842094220785)
(-0.00260849041982 0.00139544013045 0.000993273190139)
(-0.00220847985403 0.00174190134525 0.00146426399845)
(-0.00304547626281 0.0018569128456 0.00053913303724)
(-0.00300847559347 0.00141072381164 0.000732181722276)
(-0.00260351485928 0.00172959882661 0.00108650734498)
(-0.00287368924505 0.00183333793388 0.000183267406598)
(-0.0030573417112 0.00142097571519 0.000397728070336)
(-0.00271369574941 0.00171405973357 0.000628355160111)
(-0.00227398587357 0.00179916735027 -0.000154895825876)
(-0.00267889769514 0.0014215532138 2.87225528209e-05)
(-0.00248894981746 0.00169775367564 0.000139331894537)
(-0.00131755292067 0.00174703317761 -0.000304319209489)
(-0.00189598090443 0.00140667707326 -0.000273050326352)
(-0.00193596819443 0.00168094607317 -0.000271897976401)
(-0.000327295227334 0.00163705503824 7.53273187634e-06)
(-0.000736133448284 0.00136716018077 -0.000272439678424)
(-0.00105465169457 0.0016554532896 -0.000354111543517)
(2.3012355852e-05 0.00125150853897 0.000324497618972)