/*--------------------------------*- C++ -*----------------------------------*\
| =========                 |                                                 |
| \\      /  F ield         | OpenFOAM: The Open Source CFD Toolbox           |
|  \\    /   O peration     | Version:  3.0.1                                 |
|   \\  /    A nd           | Web:      www.OpenFOAM.org                      |
|    \\/     M anipulation  |                                                 |
\*---------------------------------------------------------------------------*/
FoamFile
{
    version     2.0;
    format      ascii;
    class       volScalarField;
    location    "1.8";
    object      ddt0(epsilon);
}
// * * * * * * * * * * * * * * * * * * * * * * * * * * * * * * * * * * * * * //

dimensions      [0 2 -4 0 0 0 0];

internalField   nonuniform List<scalar> 
7968
(
-0.00399281873998
-0.00421778880054
-0.00434796628589
-0.00439420515861
-0.00440542416664
-0.00440771339437
-0.00440973058756
-0.00441279309945
-0.00441583613419
-0.00441826892767
-0.00441819190916
-0.00441568377507
-0.00441263039475
-0.00440957666945
-0.00440758158969
-0.00440531767852
-0.00439412953581
-0.00434792555495
-0.0042178032199
-0.00399283197166
-0.00421781553459
-0.00565089379294
-0.00652021003334
-0.0069063615159
-0.0070438622051
-0.0070811698652
-0.0070911499401
-0.00710038823886
-0.00711100256393
-0.00711830033853
-0.00711820500934
-0.00711074080169
-0.00710000825372
-0.0070907230374
-0.00708072952634
-0.00704342725298
-0.00690597848659
-0.00651992405132
-0.00565081811154
-0.00421785558789
-0.00434799627951
-0.00652014858389
-0.00796522149318
-0.00867966127234
-0.00897166735055
-0.00906525174394
-0.00908906978373
-0.00910079302398
-0.00911363409737
-0.0091228476731
-0.00912273422599
-0.0091133026672
-0.00910030851754
-0.00908848799031
-0.00906466628741
-0.00897107599963
-0.00867912483448
-0.00796482679911
-0.00651997960825
-0.00434803467955
-0.00439418196925
-0.00690600922665
-0.00867934826136
-0.00961149265203
-0.010018220185
-0.0101560950045
-0.0101890002957
-0.0101996713734
-0.0102120203868
-0.0102217312644
-0.0102215905193
-0.0102115966714
-0.0101990803388
-0.0101883303633
-0.0101553513319
-0.0100175080395
-0.00961083482158
-0.00867885068722
-0.00690575454841
-0.00439421362202
-0.00440528812655
-0.00704306095902
-0.00897086218806
-0.0100177255945
-0.010485721494
-0.0106438164919
-0.0106630554468
-0.0106525337303
-0.0106438510879
-0.0106418814114
-0.0106417861449
-0.0106435630778
-0.0106521160815
-0.0106625506647
-0.0106429901323
-0.0104848413567
-0.0100169428709
-0.0089702316552
-0.0070427165088
-0.00440530241902
-0.00440742718937
-0.00707986293643
-0.00906388586265
-0.0101550270515
-0.0106433170133
-0.0108074308266
-0.0108227967671
-0.0107970735984
-0.0107790631608
-0.0107734978084
-0.0107733913582
-0.0107787523512
-0.0107966262274
-0.0108222866835
-0.0108068598058
-0.0106423569451
-0.0101540952991
-0.00906314305005
-0.00707942986416
-0.00440741898193
-0.00440927575016
-0.00708935967326
-0.00908713627837
-0.010187429639
-0.0106618784233
-0.0108222342699
-0.010818251679
-0.010777807544
-0.0107508002833
-0.0107413692641
-0.0107412488958
-0.0107504664685
-0.0107773285775
-0.0108176715594
-0.0108216630498
-0.0106612579549
-0.0101863478731
-0.00908625681366
-0.00708883571906
-0.00440924045542
-0.00441217658922
-0.00709823668066
-0.00909847742746
-0.010197648054
-0.0106508773263
-0.010795948124
-0.0107769022362
-0.0107243392341
-0.0106900194048
-0.0106775274284
-0.0106773782903
-0.0106896541762
-0.0107238308272
-0.0107762747461
-0.0107952970271
-0.0106501829643
-0.0101963530592
-0.00909744081146
-0.00709760486112
-0.00441211227911
-0.00441510994901
-0.00710873464593
-0.00911125788654
-0.0102100037993
-0.0106420801033
-0.0107778984416
-0.0107498763794
-0.0106899534843
-0.0106507107113
-0.0106353209263
-0.0106351234413
-0.0106502457819
-0.0106893763256
-0.0107491857448
-0.0107771371587
-0.0106412479674
-0.0102084919109
-0.00911004967678
-0.00710799753682
-0.00441500947481
-0.00441756333065
-0.00711616583132
-0.00912075906597
-0.0102200906843
-0.0106403706272
-0.0107726728065
-0.0107410215358
-0.0106779270806
-0.0106356824184
-0.0106181428332
-0.0106179558182
-0.0106351697188
-0.0106772716952
-0.0107402633689
-0.0107718248173
-0.0106394186474
-0.0102183847387
-0.00911941639657
-0.00711536130113
-0.00441743815236
-0.0044177075633
-0.00711642292922
-0.00912116150837
-0.0102206195209
-0.0106406469191
-0.0107729052253
-0.0107412663156
-0.0106781774933
-0.0106359410616
-0.0106184747535
-0.0106182472701
-0.0106354089122
-0.0106775080779
-0.0107404903454
-0.0107720235318
-0.0106396296817
-0.010218805615
-0.00911973122269
-0.00711558489874
-0.00441759160733
-0.00441543522216
-0.00710941968208
-0.00911233086663
-0.0102113660543
-0.0106427883106
-0.0107785202398
-0.0107505641127
-0.0106906482417
-0.0106514064153
-0.0106360780768
-0.0106358587386
-0.0106509369667
-0.0106900467558
-0.0107498389751
-0.0107776764579
-0.0106418027382
-0.0102096131783
-0.0091109167484
-0.00710861099577
-0.00441534696366
-0.00441254987449
-0.00709919927563
-0.00909995838255
-0.0101995560392
-0.0106517982441
-0.0107967204453
-0.0107777479222
-0.0107251991574
-0.0106908941417
-0.0106784576145
-0.010678325059
-0.0106905854287
-0.0107247531506
-0.0107771508355
-0.0107959980248
-0.0106509364663
-0.0101979810187
-0.00909870464444
-0.00709850964644
-0.00441250129178
-0.0044096317972
-0.00709042853861
-0.00908875439979
-0.0101895017025
-0.0106628437581
-0.0108229473802
-0.0108189353539
-0.010778456517
-0.0107515409398
-0.0107422100759
-0.010742137344
-0.0107513487564
-0.0107781567031
-0.0108185002592
-0.0108223930513
-0.0106621546468
-0.0101882424286
-0.00908776689027
-0.00708987584805
-0.0044096206994
-0.00440773193669
-0.00708088137246
-0.00906537493685
-0.0101569993361
-0.0106455652497
-0.0108080629966
-0.010823223359
-0.0107974703952
-0.0107795421575
-0.0107740889356
-0.0107740526332
-0.0107794354427
-0.0107972765508
-0.0108229250003
-0.0108076412442
-0.0106446589716
-0.0101560991256
-0.00906464108809
-0.00708051720205
-0.00440776368515
-0.00440552197168
-0.007043933111
-0.00897211129251
-0.0100194044772
-0.0104876999748
-0.0106458884957
-0.0106632981422
-0.0106526567135
-0.0106440320949
-0.0106422187324
-0.0106422141699
-0.010643996915
-0.0106525628792
-0.010663121072
-0.0106453455414
-0.0104870575098
-0.0100187656937
-0.00897162575493
-0.00704373403919
-0.00440558805722
-0.0043943389195
-0.00690668184036
-0.0086802598036
-0.00961266267004
-0.0100195941193
-0.0101575671702
-0.0101905213079
-0.0102011813411
-0.0102136568316
-0.0102235628352
-0.0102235733504
-0.0102136423561
-0.0102010712325
-0.0101902927068
-0.010157238952
-0.010019206548
-0.00961225984087
-0.0086799647124
-0.00690660020674
-0.00439441932648
-0.00434806987616
-0.00652056238049
-0.00796577023017
-0.0086802620713
-0.00897228202327
-0.00906589367379
-0.00908971481834
-0.00910148288013
-0.00911443961159
-0.00912381045442
-0.00912382549077
-0.00911446000992
-0.00910148099022
-0.00908964792543
-0.00906575509555
-0.0089720945634
-0.00868002093599
-0.00796556056057
-0.0065205270712
-0.00434814051222
-0.00421784726152
-0.00565112711834
-0.00652047067719
-0.00690660441812
-0.00704402159869
-0.00708124186803
-0.0070911748158
-0.00710040055423
-0.00711109402234
-0.00711850991295
-0.00711852665349
-0.0071111583778
-0.0071004836073
-0.00709123808618
-0.00708126032963
-0.0070439573221
-0.00690647438815
-0.00652032833251
-0.00565108968268
-0.00421788204798
-0.00399281109958
-0.0042177931616
-0.00434795770142
-0.00439418683119
-0.00440538770547
-0.00440764868467
-0.00440963726111
-0.00441268845479
-0.00441574032229
-0.00441821512858
-0.00441819589699
-0.00441572044383
-0.0044126791979
-0.00440963384769
-0.00440764099007
-0.0044053761839
-0.00439417435815
-0.00434794509615
-0.0042177949893
-0.00399281393494
-0.00421709506879
-0.00563889203013
-0.00650431108308
-0.00688723424501
-0.00701737884947
-0.00704363843518
-0.00704149728534
-0.00703949567964
-0.00704205610019
-0.00704554741166
-0.0070454795098
-0.0070418771127
-0.00703925857474
-0.00704124150085
-0.00704338497563
-0.00701714286199
-0.00688703568072
-0.00650417294904
-0.00563884624721
-0.00421710042884
-0.00563882002133
-0.00640111961531
-0.00713844584104
-0.00749760546058
-0.00762649025858
-0.00765259030654
-0.00764725028695
-0.00764002846993
-0.007637285149
-0.00763709326035
-0.00763706072733
-0.0076371908226
-0.00763989045006
-0.00764708879121
-0.007652414658
-0.00762629986437
-0.0074974075252
-0.00713825488962
-0.00640096401403
-0.00563870899569
-0.00650425803149
-0.00713843256764
-0.00794179864221
-0.00836721127372
-0.0085361443136
-0.00857859589029
-0.00857596764729
-0.00856668539703
-0.00856179922589
-0.00856061601266
-0.00856058771849
-0.00856171215055
-0.00856655425762
-0.00857580858588
-0.00857841472097
-0.0085359323087
-0.00836697094005
-0.0079415476238
-0.00713821417769
-0.00650413067924
-0.00688709162778
-0.00749749570951
-0.00836709741605
-0.00885042209147
-0.00905475023207
-0.0091124043822
-0.00911271752021
-0.00910189403235
-0.00909479994343
-0.00909215838959
-0.00909211799892
-0.00909471318716
-0.00910177152405
-0.00911256934674
-0.00911222565067
-0.00905453618392
-0.00885016630548
-0.00836681828497
-0.00749725436593
-0.00688697001866
-0.00701698830645
-0.00762618736004
-0.0085358323284
-0.00905454887544
-0.00928004755835
-0.00934483912633
-0.00934069775702
-0.00932223542575
-0.00930924454466
-0.00930399833578
-0.00930398516425
-0.00930919119935
-0.00932215155048
-0.00934058854917
-0.00934467435209
-0.00927983813828
-0.00905429364447
-0.00853554140818
-0.00762593372973
-0.00701685694259
-0.00704293063716
-0.00765204468848
-0.00857804693452
-0.00911196265328
-0.00934460565226
-0.00940717939162
-0.00939680679734
-0.0093711259012
-0.0093534409256
-0.00934617494714
-0.00934617166792
-0.00935340652108
-0.00937106179616
-0.00939672893696
-0.00940707109621
-0.00934441592058
-0.00911171150948
-0.008577750607
-0.00765177992144
-0.0070427763677
-0.00704045946655
-0.00764645862702
-0.00857518456791
-0.00911204323095
-0.00934023062111
-0.00939659100682
-0.00937753920828
-0.0093447994829
-0.00932303448113
-0.00931402969291
-0.00931403459271
-0.00932301949642
-0.00934475024782
-0.00937747660864
-0.00939651602963
-0.0093401030711
-0.0091117866829
-0.00857487134645
-0.00764617398508
-0.00704026351769
-0.00703818302008
-0.00763904748935
-0.00856572940056
-0.00910103554269
-0.00932159076525
-0.00937074052168
-0.0093446444498
-0.00930644823144
-0.00928190007701
-0.00927244136828
-0.00927245728743
-0.00928189221258
-0.00930640925734
-0.00934459910616
-0.00937067525554
-0.00932146919894
-0.00910074895757
-0.00856538371003
-0.00763872898546
-0.00703793255964
-0.00704062041886
-0.00763622839659
-0.00856080141159
-0.00909393662813
-0.009308529543
-0.00935295642097
-0.00932272036241
-0.00928172112926
-0.0092575869723
-0.00924930012604
-0.00924931096498
-0.00925757797691
-0.00928169859073
-0.00932268581867
-0.00935289473012
-0.0093083965116
-0.00909361055147
-0.00856041023289
-0.00763586755207
-0.00704030269634
-0.0070441853211
-0.00763609082321
-0.00855970207216
-0.00909188831562
-0.00930332073062
-0.00934565749798
-0.00931364242715
-0.00927231021341
-0.00924936365853
-0.0092420751757
-0.00924206456413
-0.00924934131687
-0.00927228417461
-0.0093135936366
-0.00934558961804
-0.00930317474272
-0.00909161148676
-0.0085592647181
-0.00763569335997
-0.00704382250982
-0.00704435473638
-0.00763620471632
-0.00855983976295
-0.00909194305397
-0.00930337806749
-0.00934569305494
-0.00931368693935
-0.00927234744918
-0.00924936259767
-0.00924208249591
-0.00924206371974
-0.00924933726203
-0.00927231340828
-0.009313633217
-0.00934562605503
-0.00930322199039
-0.00909169844209
-0.00855936390306
-0.00763577982595
-0.00704397537299
-0.00704106842048
-0.00763653555688
-0.00856116820754
-0.00909427216695
-0.00930867007744
-0.00935302290608
-0.00932280530987
-0.00928182754496
-0.0092576516627
-0.00924938365829
-0.00924937763174
-0.00925763648376
-0.00928181823611
-0.00932279257352
-0.00935297868777
-0.00930851094396
-0.00909386614092
-0.00856068267064
-0.00763610581796
-0.00704070999834
-0.0070387879185
-0.00763947451788
-0.00856623967197
-0.00910151475826
-0.00932176645002
-0.00937079909367
-0.00934470138082
-0.00930654095246
-0.00928202445385
-0.00927258490496
-0.00927260024324
-0.00928203588249
-0.00930655227765
-0.00934470841701
-0.0093707663588
-0.00932161660149
-0.00910111762864
-0.00856578184022
-0.00763907754944
-0.00703849961338
-0.00704109804398
-0.00764692507631
-0.00857573459554
-0.00911255184178
-0.00934039998872
-0.00939658653086
-0.0093775018377
-0.00934479419981
-0.0093230620257
-0.00931407211208
-0.00931409311815
-0.00932308965115
-0.00934481937686
-0.00937751639576
-0.00939655809652
-0.00934026600446
-0.00911221408152
-0.00857534068208
-0.00764658596611
-0.00704089390855
-0.00704350791219
-0.00765247885568
-0.00857855153221
-0.00911243905012
-0.00934493491195
-0.00940713514452
-0.00939664493805
-0.00937094794151
-0.00935327263605
-0.00934602655893
-0.00934604396239
-0.00935330358805
-0.0093709801088
-0.00939666210254
-0.0094071003566
-0.00934475798488
-0.0091121715747
-0.00857823585516
-0.00765221498497
-0.00704340437408
-0.00701745195918
-0.0076265517804
-0.00853624709968
-0.00905493465597
-0.0092803460223
-0.00934498541195
-0.0093405035979
-0.00932196765242
-0.00930897750912
-0.00930377575377
-0.00930379019893
-0.00930900485256
-0.00932199470391
-0.00934051186947
-0.00934490857236
-0.00928020620288
-0.00905473581991
-0.00853600923596
-0.00762635778136
-0.00701742112597
-0.00688741757983
-0.00749778768672
-0.00836740700602
-0.00885067833562
-0.00905494135575
-0.00911251614387
-0.00911273994321
-0.00910185849525
-0.00909478671774
-0.00909252703339
-0.00909252916651
-0.00909479454561
-0.00910185472468
-0.00911271460246
-0.00911245842455
-0.00905484455575
-0.00885053905105
-0.00836723338606
-0.00749764220349
-0.00688741516231
-0.00650446625831
-0.00713867156048
-0.00794202228939
-0.0083673494394
-0.0085362017071
-0.00857858980798
-0.00857591179713
-0.00856659797619
-0.00856172067472
-0.00856057306738
-0.0085605784231
-0.00856172945278
-0.00856660206288
-0.00857590089938
-0.00857855680743
-0.00853613786836
-0.00836725055747
-0.00794189092474
-0.00713854651305
-0.00650442297962
-0.00563895503066
-0.00640135471233
-0.00713863374178
-0.00749768949315
-0.00762647442188
-0.00765249229864
-0.00764709011435
-0.007639831394
-0.00763709338723
-0.00763694080408
-0.00763694797598
-0.00763711713669
-0.00763986239705
-0.00764711381612
-0.00765249666853
-0.00762645069779
-0.0074976371546
-0.00713855277585
-0.00640125602166
-0.00563885252408
-0.00421706472428
-0.00563906482405
-0.00650444404186
-0.00688727282948
-0.00701732576484
-0.00704349880048
-0.00704128523326
-0.00703925522433
-0.00704184191616
-0.00704540930277
-0.00704541489494
-0.00704187362592
-0.00703930271925
-0.00704132713193
-0.00704351473781
-0.0070173177464
-0.00688725117228
-0.00650441684394
-0.00563904760704
-0.0042170745706
-0.00434903668586
-0.00649776850022
-0.00792510548198
-0.00862372483262
-0.00889737906748
-0.00897018882939
-0.00897293930552
-0.00896521271674
-0.00896300247999
-0.0089641569669
-0.00896408879454
-0.0089628122445
-0.00896494303344
-0.00897263561453
-0.00896987091311
-0.00889705738405
-0.00862342653208
-0.00792486786017
-0.00649765230162
-0.00434905859338
-0.00649763836519
-0.00711846111659
-0.00791249128419
-0.00832969976779
-0.00849288262526
-0.00853202536809
-0.0085278420171
-0.00851772546145
-0.00851222221662
-0.0085106463402
-0.00851063031021
-0.0085121717778
-0.00851764984549
-0.00852775419029
-0.00853192113208
-0.00849274769552
-0.00832952876806
-0.00791228962626
-0.00711824842245
-0.00649741450707
-0.00792492020267
-0.0079124728485
-0.00857208344393
-0.00895405744152
-0.00911403304097
-0.00915655209498
-0.00915405054688
-0.00914325135002
-0.00913583376562
-0.00913318821591
-0.00913318658023
-0.00913581525466
-0.0091432228565
-0.00915401611677
-0.00915649205395
-0.00911391697261
-0.00895386600862
-0.00857181870262
-0.00791217725144
-0.00792462154767
-0.00862334154742
-0.00832960239366
-0.00895397646161
-0.0093383683679
-0.00950812702657
-0.00955768818232
-0.0095576508123
-0.00954573620513
-0.00953156154479
-0.00952725507547
-0.00952727091329
-0.00953154772326
-0.00954563024881
-0.00955765202796
-0.00955766185206
-0.00950802802033
-0.00933816240489
-0.00895366944465
-0.00832927572598
-0.00862303092079
-0.00889655136862
-0.00849260259594
-0.00911381003681
-0.0095079988263
-0.00968640784381
-0.00973848429623
-0.00973588818403
-0.00972102846677
-0.00970942693927
-0.00970443171443
-0.00970447091943
-0.00970951991183
-0.00972106699752
-0.00973585890315
-0.00973846275888
-0.0096863288431
-0.00950780107279
-0.00911348911846
-0.0084922659688
-0.00889622393789
-0.00896884081575
-0.00853150794668
-0.00915616433098
-0.00955741716279
-0.00973835778339
-0.00978899265122
-0.00978550229503
-0.00976958451068
-0.00975663356943
-0.00975044302758
-0.00975062928287
-0.00975717455221
-0.00977010340841
-0.00978561975654
-0.0097889317091
-0.00973828728777
-0.00955723390022
-0.00915584245462
-0.00853116941214
-0.00896848462076
-0.00897107783652
-0.0085270791218
-0.00915349984579
-0.0095572473642
-0.00973558997523
-0.00978586503702
-0.00978405086187
-0.00976864023763
-0.00975435229204
-0.00974725069419
-0.00974767150016
-0.00975558861928
-0.00977005563478
-0.00978473952186
-0.00978581601931
-0.00973553083681
-0.0095570686286
-0.00915317023143
-0.00852672727475
-0.00897066083004
-0.00896294082865
-0.0085167679952
-0.00914258393982
-0.00954526563838
-0.00972092965444
-0.00977067378083
-0.00976908245828
-0.00975272899172
-0.00973835316372
-0.00973194518579
-0.00973252348064
-0.0097400791389
-0.0097548007197
-0.00977034940246
-0.00977077575321
-0.00972086243976
-0.00954507521687
-0.00914223341336
-0.00851638602245
-0.00896243577125
-0.00896056397134
-0.00851118049062
-0.00913515721351
-0.00953122170635
-0.00970951280977
-0.0097576493763
-0.00975393745559
-0.00973699997262
-0.00972409832612
-0.00971930850193
-0.00971990264306
-0.00972594383806
-0.00973929875461
-0.00975541362961
-0.00975784486493
-0.0097094468219
-0.00953103489139
-0.00913477732345
-0.00851075648283
-0.00895995441984
-0.0089618366727
-0.00850963724983
-0.00913253938926
-0.00952631141195
-0.00970439925709
-0.00975062829286
-0.00974489650104
-0.00972783686705
-0.00971618027416
-0.00971257180663
-0.00971323091737
-0.00971805448194
-0.00973015043631
-0.00974639198787
-0.00975083724742
-0.00970433476256
-0.00952601850122
-0.00913212082237
-0.00850916830164
-0.00896114004804
-0.00896209421957
-0.00850975255879
-0.00913265193933
-0.0095264607686
-0.0097043518421
-0.00974997499204
-0.00974330170609
-0.00972560250543
-0.00971375395688
-0.0097101088874
-0.00971077356786
-0.00971566250678
-0.00972794234346
-0.00974481163889
-0.00975019045732
-0.00970427923672
-0.00952608879671
-0.00913219688516
-0.00850924601366
-0.00896134732952
-0.00896126390744
-0.00851148753546
-0.00913545532786
-0.00953139411894
-0.00970933688664
-0.00975567438142
-0.00974915837606
-0.00973032310256
-0.00971687348326
-0.00971199756043
-0.00971263625594
-0.00971878945673
-0.00973267905031
-0.00975068409235
-0.00975589401071
-0.00970925862927
-0.0095311938242
-0.0091349873492
-0.00851097365781
-0.0089605332613
-0.00896392990808
-0.00851719648763
-0.0091430206205
-0.0095456126894
-0.00972104677733
-0.00976892150149
-0.00976376098265
-0.00974477953975
-0.00972966302416
-0.00972325922009
-0.00972385402879
-0.00973142215708
-0.00974691813293
-0.00976508813425
-0.00976904436359
-0.00972094693044
-0.00954533179382
-0.00914254947735
-0.00851670965174
-0.00896329493985
-0.00897217809428
-0.00852754532169
-0.00915398682172
-0.00955764258788
-0.00973602094961
-0.00978581399779
-0.00978187177037
-0.00976422779814
-0.00974924773627
-0.00974218410583
-0.00974261737331
-0.00975049579716
-0.00976566936954
-0.00978259458453
-0.00978577447328
-0.00973592052085
-0.00955736634523
-0.0091535494328
-0.00852711562344
-0.00897168121377
-0.00896988860449
-0.00853193525042
-0.00915662791963
-0.00955780393776
-0.00973855164709
-0.00978944346118
-0.00978611169355
-0.00976977593809
-0.0097565507901
-0.00975037212801
-0.00975056638289
-0.00975709513461
-0.00977030141531
-0.00978624531338
-0.00978939178086
-0.0097384841478
-0.0095575598608
-0.00915624800871
-0.00853158384929
-0.00896955717852
-0.00889745152747
-0.00849295813333
-0.00911420826006
-0.00950833879336
-0.00968661100324
-0.00973853270988
-0.00973596094315
-0.00972118166218
-0.0097096317706
-0.00970463447736
-0.00970467836742
-0.00970974044782
-0.00972124973165
-0.00973595908543
-0.00973855225146
-0.00968653570389
-0.00950813816959
-0.00911389971285
-0.00849268585915
-0.00889725258858
-0.00862405628917
-0.00832990338384
-0.00895429072741
-0.00933860929323
-0.0095082854125
-0.00955774911265
-0.00955762335145
-0.00954566469755
-0.00953154434749
-0.00952681890554
-0.00952684033692
-0.00953157019786
-0.00954569054226
-0.00955765119427
-0.00955775349991
-0.00950822856175
-0.00933846567175
-0.00895406389981
-0.00832969748998
-0.00862393258925
-0.00792546881374
-0.00791276828259
-0.00857233664932
-0.00895419897273
-0.00911408211982
-0.00915653583869
-0.00915398361855
-0.00914314503887
-0.00913572428359
-0.00913306434181
-0.00913307351566
-0.00913574379633
-0.00914317324317
-0.00915401356452
-0.00915655183587
-0.00911406079206
-0.00895412256954
-0.00857219820915
-0.00791261413311
-0.00792532709335
-0.00649800018409
-0.00711882178802
-0.00791275446129
-0.0083298097268
-0.0084928660913
-0.00853192257154
-0.00852767624445
-0.00851751898671
-0.00851201080484
-0.00851045553596
-0.0085104685172
-0.00851205066286
-0.00851758146412
-0.00852774807452
-0.00853198852967
-0.00849291313886
-0.00832982406869
-0.00791272070536
-0.00711872886284
-0.00649783380542
-0.00434900484461
-0.00649822281563
-0.00792562274467
-0.00862412607002
-0.00889763410044
-0.00897031023935
-0.00897294950703
-0.00896516980829
-0.00896299522509
-0.0089642514197
-0.00896428152977
-0.00896309072203
-0.00896530745916
-0.00897308708331
-0.00897041357124
-0.00889769563627
-0.00862415131369
-0.00792561440999
-0.00649821045945
-0.00434903471914
-0.00439677755155
-0.00687792402797
-0.00861099348621
-0.00950462381185
-0.00987743573764
-0.00998585041852
-0.00999218527338
-0.00997747387385
-0.00996787003186
-0.00996473802187
-0.00996467106283
-0.00996768198046
-0.00997720641076
-0.00999188279744
-0.00998552266951
-0.00987707953204
-0.00950427222992
-0.0086106724334
-0.00687778967102
-0.00439682198338
-0.00687768658525
-0.00746439407269
-0.00831134585385
-0.00877050901551
-0.00895550829669
-0.00899998917735
-0.00899224218436
-0.00897610723769
-0.0089657244139
-0.00896161477594
-0.00896160398551
-0.00896568842457
-0.00897605589682
-0.00899217986188
-0.00899990172937
-0.00895537150323
-0.00877031510984
-0.00831110386683
-0.00746413172124
-0.00687739503478
-0.00861068922988
-0.00831132903989
-0.00892444443201
-0.00929442570419
-0.0094518032472
-0.00949257062071
-0.00948717677178
-0.00947239719345
-0.00946267765928
-0.00945857493625
-0.00945858262414
-0.009462682112
-0.00947240051445
-0.00948718826087
-0.00949254544318
-0.00945169432336
-0.00929420730108
-0.00892411825858
-0.00831094604438
-0.00861025036758
-0.00950401026104
-0.0087704096855
-0.00929435829697
-0.00963915454543
-0.00979507786039
-0.00984223304328
-0.00984488996587
-0.00983045202695
-0.00982415561705
-0.00982050068955
-0.00982063003962
-0.00982451503365
-0.00983093387115
-0.00984505498049
-0.00984224447525
-0.0097949936398
-0.00963891086164
-0.00929396515705
-0.0087699761962
-0.00950355661805
-0.00987616813253
-0.00895519305865
-0.00945159717894
-0.00979496417711
-0.00995811721519
-0.0100155166762
-0.0100287221112
-0.0100251713732
-0.0100186540539
-0.0100150491538
-0.0100155840062
-0.0100202381844
-0.0100271113717
-0.0100300812315
-0.0100160142626
-0.00995809436597
-0.00979473406848
-0.00945118098059
-0.00895474265027
-0.00987567249846
-0.00998380355445
-0.00899938300262
-0.00949220175945
-0.00984185223418
-0.0100155925962
-0.0100883585982
-0.0101117090919
-0.0101117789234
-0.0101054491677
-0.0101018011208
-0.0101028482419
-0.0101085708156
-0.010115813972
-0.0101151139239
-0.0100903141918
-0.0100159649549
-0.00984169362214
-0.00949178832691
-0.00899893265701
-0.00998326043758
-0.00998941626378
-0.0089913406648
-0.00948664458326
-0.00984441525836
-0.010028740441
-0.0101116249736
-0.0101378445599
-0.0101387731253
-0.0101322262072
-0.0101287764488
-0.0101302010104
-0.0101364565109
-0.0101443092912
-0.0101427777291
-0.0101151050811
-0.0100300070888
-0.00984440668916
-0.00948623345541
-0.00899087827359
-0.00998878276623
-0.00997415049578
-0.00897497553821
-0.00947177655354
-0.0098305612009
-0.0100251059004
-0.010111692158
-0.0101386595608
-0.0101401962452
-0.0101349509227
-0.0101322597565
-0.0101338738901
-0.010139760713
-0.0101465059956
-0.0101443719804
-0.0101159461554
-0.0100270551927
-0.00983062759747
-0.00947134564031
-0.00897448067236
-0.00997338455033
-0.00996434322656
-0.00896450119459
-0.00946198595516
-0.0098239246919
-0.0100173263772
-0.0101028717994
-0.0101288193044
-0.0101312251508
-0.0101277410466
-0.010126340771
-0.0101280023498
-0.0101326997609
-0.0101377542456
-0.0101347697576
-0.0101073360704
-0.0100194626029
-0.00982402480342
-0.00946153006105
-0.00896395941412
-0.00996342189545
-0.00996140842531
-0.0089604527894
-0.00945795946782
-0.0098197209078
-0.0100111880678
-0.0100941386735
-0.0101186547867
-0.0101207584397
-0.0101182411763
-0.0101180049203
-0.0101197142311
-0.0101232406939
-0.0101273259236
-0.0101246745849
-0.0100986321095
-0.010013342262
-0.00981980765487
-0.009457468014
-0.00895986091144
-0.00996034769529
-0.00996181478089
-0.00896060446921
-0.00945809065387
-0.0098193648417
-0.0100091642409
-0.0100899841048
-0.0101129461032
-0.0101142790021
-0.0101115732972
-0.0101113249851
-0.010113031892
-0.0101165794151
-0.0101208538074
-0.0101189925626
-0.0100944960752
-0.0100113184516
-0.00981943196722
-0.00945756292508
-0.00895997366536
-0.0099606739792
-0.00996546367479
-0.00896491383452
-0.00946234385421
-0.00982280498167
-0.0100112436257
-0.0100904614207
-0.0101118187502
-0.0101119137174
-0.0101079001821
-0.0101064941013
-0.0101081698457
-0.0101128684564
-0.0101184521803
-0.0101178247169
-0.010094972806
-0.0100133945024
-0.00982287384251
-0.00946179687855
-0.00896427681209
-0.00996434617107
-0.00997576533318
-0.0089755616237
-0.00947225895263
-0.00982935824025
-0.0100177910016
-0.0100959435767
-0.0101168404534
-0.0101153147546
-0.0101093497451
-0.0101066918957
-0.0101082971689
-0.0101141255943
-0.0101216154166
-0.0101225918364
-0.0101002226671
-0.0100197613057
-0.00982949704901
-0.00947174554279
-0.00897496233166
-0.00997477967473
-0.00999125645944
-0.00899199707669
-0.00948720370529
-0.00984444780091
-0.0100240319345
-0.0100988537949
-0.0101191053294
-0.0101169893309
-0.0101097397188
-0.0101063346954
-0.0101077323913
-0.0101138952918
-0.0101224509067
-0.0101239964344
-0.0101023027654
-0.0100252751522
-0.00984438002553
-0.00948671535098
-0.00899147373184
-0.00999048035266
-0.00998560652903
-0.0090000057763
-0.00949275616422
-0.0098423452494
-0.0100142034112
-0.0100813610089
-0.0100988723191
-0.0100960473807
-0.0100890150191
-0.0100853719678
-0.0100863902601
-0.0100920237966
-0.0100999518897
-0.0101021996065
-0.010083285032
-0.010014576123
-0.00984216132971
-0.00949232471554
-0.00899958240616
-0.00998507242428
-0.00987774954337
-0.00895572734619
-0.00945209996793
-0.00979533071639
-0.00995824705169
-0.0100142578692
-0.0100241005048
-0.0100179072906
-0.0100106922311
-0.0100070951812
-0.0100076057136
-0.0100121967223
-0.0100197644013
-0.0100254232648
-0.0100147664403
-0.00995827441197
-0.00979515659375
-0.00945174979309
-0.00895540687535
-0.00987743141692
-0.00950530890211
-0.00877087954853
-0.00929478893591
-0.00963945441329
-0.00979524860839
-0.00984213486113
-0.00984425000777
-0.00982955578291
-0.00982306011634
-0.00981939035472
-0.00981951416539
-0.00982341439697
-0.00982995241272
-0.0098444390891
-0.00984220679659
-0.00979526520507
-0.00963933488741
-0.00929454145101
-0.00877064950737
-0.00950513830366
-0.00861165457818
-0.00831179708933
-0.00892483287894
-0.00929467970217
-0.00945195166097
-0.00949264757542
-0.00948719292042
-0.00947239831742
-0.00946265752021
-0.00945857000713
-0.00945858543006
-0.00946269751912
-0.00947246799782
-0.00948728861136
-0.00949273859012
-0.00945199649165
-0.00929464469432
-0.00892471132175
-0.00831164871404
-0.00861149671217
-0.00687832241977
-0.00746495794848
-0.00831180137282
-0.00877080804444
-0.0089556891251
-0.00900010810418
-0.00899231980592
-0.00897616831012
-0.00896580932993
-0.00896174660818
-0.00896177021039
-0.00896588204328
-0.00897628489102
-0.00899246399465
-0.00900025548537
-0.00895581992374
-0.00877089762076
-0.00831182746366
-0.00746490733994
-0.00687817106861
-0.0043967423018
-0.00687868796827
-0.00861199033061
-0.00950563968173
-0.00987837556965
-0.00998671893149
-0.00999299172477
-0.00997828692181
-0.00996879238376
-0.00996582740352
-0.00996589157922
-0.00996897919057
-0.00997856350484
-0.00999329116939
-0.00998698404126
-0.00987858898195
-0.00950579205596
-0.00861208362984
-0.00687874953583
-0.00439679204151
-0.00440305437642
-0.00698745613998
-0.00883246478447
-0.0098018608924
-0.0102119461418
-0.0103295535268
-0.0103289502036
-0.010301200163
-0.0102792113872
-0.0102686039252
-0.0102685432609
-0.0102790410581
-0.010300953888
-0.0103286704091
-0.0103292392325
-0.0102115906172
-0.00980148763801
-0.00883215305364
-0.00698737161182
-0.00440312195036
-0.00698720150779
-0.00755955114852
-0.00842331797871
-0.00889199397857
-0.00907821163214
-0.00911747909336
-0.00910130166735
-0.00907658055176
-0.00905954559376
-0.00905182018552
-0.00905181225398
-0.00905952137961
-0.00907654724255
-0.00910126016327
-0.00911740522597
-0.00907807049481
-0.00889177511788
-0.00842304610709
-0.00755926691511
-0.00698691911872
-0.00883208540946
-0.00842331969438
-0.0090176621518
-0.00937866854738
-0.00953170271459
-0.00957119254919
-0.00956765026394