/*--------------------------------*- C++ -*----------------------------------*\
| =========                 |                                                 |
| \\      /  F ield         | OpenFOAM: The Open Source CFD Toolbox           |
|  \\    /   O peration     | Version:  3.0.1                                 |
|   \\  /    A nd           | Web:      www.OpenFOAM.org                      |
|    \\/     M anipulation  |                                                 |
\*---------------------------------------------------------------------------*/
FoamFile
{
    version     2.0;
    format      ascii;
    class       volScalarField;
    location    "1.8";
    object      p;
}
// * * * * * * * * * * * * * * * * * * * * * * * * * * * * * * * * * * * * * //

dimensions      [1 -1 -2 0 0 0 0];

internalField   nonuniform List<scalar> 
7968
(
5117.73528663
5117.70027341
5117.57546399
5117.38362661
5117.14526744
5116.88898488
5116.64756119
5116.44610129
5116.3020682
5116.2270688
5116.22650987
5116.30039657
5116.44332898
5116.64373496
5116.88418446
5117.13964441
5117.37737335
5117.56881662
5117.69348112
5117.72871465
5117.69965368
5117.71642761
5117.6234458
5117.45136614
5117.22244058
5116.97015268
5116.72867971
5116.52694196
5116.38322073
5116.3085838
5116.30815957
5116.38194298
5116.52478811
5116.72562435
5116.96621581
5117.21772852
5117.44602178
5117.61766769
5117.71045072
5117.69382814
5117.57345698
5117.62208628
5117.54552649
5117.37832497
5117.14296355
5116.87782341
5116.62203219
5116.40807257
5116.25630589
5116.17791805
5116.1777035
5116.2556432
5116.40688948
5116.62019467
5116.87527421
5117.13971777
5117.37446391
5117.54120526
5117.61753808
5117.56902516
5117.37963595
5117.44799982
5117.37625509
5117.20088356
5116.94695806
5116.65907353
5116.38242119
5116.1524484
5115.99079166
5115.90803445
5115.90807549
5115.99088077
5116.15245692
5116.38209274
5116.65827014
5116.9456224
5117.19902638
5117.3739753
5117.44550208
5117.37722099
5117.13866045
5117.21637559
5117.13801931
5116.94394995
5116.66499729
5116.35265619
5116.05708992
5115.81508527
5115.64665551
5115.56058198
5115.56087862
5115.6474749
5115.81623805
5116.05830967
5116.35373566
5116.66580207
5116.94442789
5117.13819745
5117.21639065
5117.13874494
5116.87912012
5116.96061142
5116.86909774
5116.65196765
5116.34833159
5116.01563657
5115.70805221
5115.46125556
5115.29207788
5115.20604201
5115.20657133
5115.29357739
5115.46348305
5115.71075257
5116.01858219
5116.35134715
5116.65492815
5116.87197101
5116.96344633
5116.882025
5116.63368482
5116.71487027
5116.6085694
5116.37003234
5116.04699095
5115.70202944
5115.39046202
5115.14730145
5114.98492651
5114.90372513
5114.9044484
5114.9870142
5115.15055902
5115.39458779
5115.70680088
5116.05222528
5116.37555697
5116.61427952
5116.72070589
5116.63960267
5116.42753198
5116.50804024
5116.38884325
5116.13348962
5115.79772485
5115.44753802
5115.13948179
5114.91031542
5114.76233227
5114.68905715
5114.68999428
5114.76501638
5114.91455196
5115.14502492
5115.45414335
5115.80520609
5116.14161771
5116.39745893
5116.51695795
5116.43653581
5116.27817868
5116.35846657
5116.23027357
5115.96383832
5115.6209827
5115.26975997
5114.96831721
5114.75362929
5114.61982733
5114.5541935
5114.55536944
5114.62319346
5114.75893993
5114.97535795
5115.27831865
5115.6307807
5115.97455745
5116.24180461
5116.37047804
5116.29027983
5116.19741874
5116.27753148
5116.14454094
5115.87205181
5115.52642687
5115.17525274
5114.87838379
5114.67187792
5114.54593821
5114.48481588
5114.48621649
5114.55005179
5114.67843634
5114.88712153
5115.18593407
5115.53861859
5115.88519563
5116.15897174
5116.29264822
5116.21263306
5116.19096811
5116.2709521
5116.13790056
5115.86557518
5115.51978082
5115.16863924
5114.87192652
5114.66562249
5114.53992374
5114.479128
5114.48079279
5114.54488271
5114.67361678
5114.88265561
5115.18178777
5115.53471825
5115.88149744
5116.1554229
5116.28923243
5116.20931625
5116.25897524
5116.33885864
5116.21035247
5115.94389494
5115.60122335
5115.25040645
5114.94953948
5114.73554841
5114.6025331
5114.53783756
5114.53984166
5114.60845907
5114.7451139
5114.96241748
5115.26619307
5115.61928652
5115.96357385
5116.23127894
5116.36033936
5116.28042774
5116.39610632
5116.47599376
5116.35632899
5116.10094753
5115.76573552
5115.41643879
5115.10957489
5114.88165444
5114.73497845
5114.66315976
5114.66551588
5114.74192016
5114.89284045
5115.12458743
5115.43477144
5115.7867214
5116.12386282
5116.38036677
5116.50044184
5116.42046061
5116.59090569
5116.67136677
5116.56462623
5116.32626802
5116.00413842
5115.66059429
5115.35083242
5115.10960297
5114.94904493
5114.86978728
5114.87246788
5114.95693875
5115.12229771
5115.36777982
5115.68117319
5116.02758832
5116.35174455
5116.59121845
5116.69831539
5116.61774527
5116.82620797
5116.90698637
5116.81516324
5116.59849827
5116.29616788
5115.96551535
5115.66039213
5115.41619201
5115.24961096
5115.16608199
5115.16904236
5115.25831344
5115.43014572
5115.67894289
5115.98791624
5116.32155989
5116.62590206
5116.84365409
5116.93580962
5116.85494638
5117.07726437
5117.15424808
5117.07576424
5116.88249108
5116.60533576
5116.29559755
5116.00322669
5115.76450395
5115.59921598
5115.51604885
5115.51920845
5115.60848147
5115.77934965
5116.02292025
5116.31929282
5116.63201416
5116.91113939
5117.10544539
5117.18422951
5117.10719307
5117.31149719
5117.37925086
5117.3075956
5117.13335345
5116.88166549
5116.59695142
5116.32408057
5116.09804665
5115.9399957
5115.86035341
5115.86365294
5115.94962121
5116.11345058
5116.34447448
5116.62136745
5116.90901956
5117.16259854
5117.33780068
5117.40972458
5117.34198386
5117.50052535
5117.54872538
5117.47251483
5117.30676645
5117.07401828
5116.81246282
5116.56091615
5116.35142462
5116.20391168
5116.12937672
5116.13271102
5116.21368997
5116.36707806
5116.58160473
5116.83714981
5117.10156035
5117.33610636
5117.50274306
5117.57920495
5117.53109666
5117.62380035
5117.64041427
5117.54809046
5117.37777528
5117.15176503
5116.9033706
5116.66646339
5116.46955154
5116.33052197
5116.26018368
5116.26351754
5116.34031536
5116.48523044
5116.68716176
5116.9280198
5117.17920363
5117.40692949
5117.57809539
5117.67070623
5117.65433945
5117.65824987
5117.62338342
5117.49955276
5117.30973546
5117.07452544
5116.82233644
5116.58567849
5116.38925416
5116.25014092
5116.17964933
5116.18295563
5116.25986044
5116.40481702
5116.60622384
5116.84679604
5117.10173447
5117.33862311
5117.52929855
5117.65354444
5117.6888025
4628.15368338
4628.09203077
4627.93895924
4627.71862897
4627.45606261
4627.17983381
4626.92077124
4626.70550301
4626.55186407
4626.47184569
4626.47140504
4626.55054141
4626.70328712
4626.91763637
4627.17580349
4627.45120838
4627.71308929
4627.93295378
4628.08583981
4628.147696
4628.09133075
4628.0831614
4627.9610827
4627.76434898
4627.52644713
4627.273962
4627.03487524
4626.83521951
4626.69224511
4626.61754512
4626.61721901
4626.69125765
4626.83352254
4627.03237505
4627.27062724
4627.52230988
4627.75951901
4627.95576676
4628.07765716
4628.08602151
4627.93674331
4627.95963109
4627.8496376
4627.65875863
4627.42584281
4627.17726655
4626.94083824
4626.74215598
4626.59969924
4626.52530171
4626.52515834
4626.59926371
4626.74134724
4626.93940558
4627.17511523
4627.42296538
4627.65521269
4627.84560288
4627.95542418
4627.93271638
4627.71421106
4627.76069349
4627.656463
4627.4633714
4627.22756746
4626.97685067
4626.73947607
4626.53935701
4626.39615469
4626.3228357
4626.32292225
4626.39643282
4626.53978578
4626.7394445
4626.97630053
4627.22644661
4627.46168808
4627.65435332
4627.75842885
4627.71208969
4627.44874977
4627.51976994
4627.42027213
4627.22409526
4626.98738075
4626.74005588
4626.51114888
4626.32040822
4626.18394786
4626.11204103
4626.11236433
4626.18486294
4626.32171314
4626.51248783
4626.74123201
4626.98827004
4627.22463055
4627.42052608
4627.51993593
4627.44899694
4627.16888043
4627.26336433
4627.16734385
4626.96859452
4626.73497104
4626.5006492
4626.28812621
4626.11544578
4625.99258866
4625.92728102
4625.92786961
4625.99413497
4626.11765376
4626.29078545
4626.50355163
4626.73792764
4626.97152479
4627.17022289
4627.26625659
4627.17179716
4626.90545768
4627.01954195
4626.9255917
4626.72526144
4626.49932962
4626.28119397
4626.09010523
4625.94000756
4625.83578531
4625.77996025
4625.78073985
4625.83790661
4625.94322252
4626.09408346
4626.2857638
4626.50439062
4626.73065966
4626.93122948
4627.02532555
4626.91121643
4626.68515672
4626.81437717
4626.72068573
4626.51831135
4626.3003458
4626.09965773
4625.93176676
4625.80429596
4625.71618583
4625.66892748
4625.66985348
4625.71879857
4625.80843152
4625.93706431
4626.10587311
4626.30752148
4626.52619831
4626.72914386
4626.82312623
4626.69385058
4626.52590823
4626.66518611
4626.5708316
4626.36571446
4626.15460297
4625.96722969
4625.81764237
4625.70649389
4625.6355412
4625.59896431
4625.60014781
4625.63882666
4625.71152927
4625.82430912
4625.9752786
4626.1639958
4626.3760405
4626.5821373
4626.676942
4626.53758796
4626.43992513
4626.58390613
4626.4882021
4626.27735969
4626.07311556
4625.89268182
4625.75134696
4625.64992283
4625.59008402
4625.56017371
4625.5615161
4625.59411347
4625.65618349
4625.75955725
4625.90277208
4626.08477382
4626.28907975
4626.50228607
4626.59870624
4626.45464878
4626.43347026
4626.57728333
4626.4815976
4626.27223255
4626.06637337
4625.88573855
4625.74457741
4625.64326202
4625.58361435
4625.55396677
4625.55556346
4625.58834715
4625.65087231
4625.75471082
4625.89823772
4626.08061503
4626.28531813
4626.49863699
4626.59522642
4626.45130642
4626.50667999
4626.64540391
4626.55053277
4626.34526154
4626.13405961
4625.94677379
4625.79790799
4625.68735127
4625.61716238
4625.58156969
4625.58356199
4625.62299249
4625.69663635
4625.81034709
4625.96206526
4626.15172972
4626.36455074
4626.57128403
4626.6666155
4626.52765664
4626.65365229
4626.7819793
4626.68744848
4626.48458331
4626.26701903
4626.06683081
4625.89987655
4625.77399351
4625.68720143
4625.64144641
4625.64381305
4625.69413781
4625.78503986
4625.91456681
4626.08484715
4626.28783524
4626.50763762
4626.7115161
4626.80627648
4626.67761315
4626.8625207
4626.97548033
4626.88064754
4626.68010978
4626.4547041
4626.23749868
4626.04776791
4625.89960759
4625.79763171
4625.74366614
4625.74639224
4625.8055889
4625.9122993
4626.06461571
4626.25800262
4626.47822746
4626.70581569
4626.90744594
4627.00244749
4626.88910306
4627.11571607
4627.20892094
4627.11207236
4626.91340642
4626.68073727
4626.4478887
4626.23737004
4626.0669262
4625.94654892
4625.8838235
4625.88690311
4625.95551982
4626.08116343
4626.25617624
4626.47058193
4626.70653067
4626.94133056
4627.14104289
4627.23797788
4627.14435925
4627.3868948
4627.45654559
4627.35635714
4627.16060357
4626.92537724
4626.68034082
4626.45412714
4626.26638728
4626.13286751
4626.06375151
4626.06705476
4626.1424973
4626.28173695
4626.47441157
4626.70468421
4626.95283281
4627.19010295
4627.38680109
4627.48699535
4627.41693286
4627.64546252
4627.69065185
4627.58596218
4627.39368784
4627.15989959
4626.9121647
4626.67844916
4626.48246346
4626.34258874
4626.27088136
4626.27442523
4626.35260863
4626.49844534
4626.69959104
4626.93746953
4627.188276
4627.42399671
4627.61711459
4627.72177236
4627.67623289
4627.8630886
4627.88494418
4627.77484863
4627.58521906
4627.35481883
4627.10978351
4626.87758845
4626.68343677
4626.54520735
4626.47455826
4626.47803337
4626.55535985
4626.69966947
4626.89902647
4627.13536224
4627.38338829
4627.61561445
4627.80603369
4627.91614388
4627.89407228
4628.01476216
4628.00603048
4627.88433446
4627.68928861
4627.45432799
4627.20579857
4626.97134684
4626.77658125
4626.63833335
4626.56794392
4626.57137761
4626.6484098
4626.79270444
4626.99262437
4627.23114104
4627.48255586
4627.71927398
4627.91512446
4628.03698462
4628.04573836
4628.07599381
4628.01433236
4627.86214185
4627.64386516
4627.38453039
4627.11249194
4626.85827136
4626.64809123
4626.49939207
4626.4238671
4626.42724422
4626.50931163
4626.66396787
4626.8792164
4627.1374167
4627.41226638
4627.67331863
4627.89244795
4628.04497932
4628.1068821
4138.73391495
4138.65525463
4138.47290037
4138.21528445
4137.9134882
4137.59898144
4137.3045896
4137.06000687
4136.88555254
4136.794715
4136.79444091
4136.8847186
4137.05855827
4137.30244281
4137.59609363
4137.90984587
4138.21093102
4138.46802178
4138.65014993
4138.72895032
4138.65442428
4138.65450112
4138.52015445
4138.29732652
4138.03482591
4137.76002193
4137.50077057
4137.28368828
4137.12784631
4137.04608329
4137.04586984
4137.12719903
4137.28254066
4137.4989554
4137.7574632
4138.0315058
4138.29331625
4138.51566239
4138.64988763
4138.65002922
4138.47027535
4138.51847006
4138.40461142
4138.1881386
4137.93321896
4137.66737931
4137.41663902
4137.20598528
4137.05696306
4136.97863854
4136.9785199
4137.05664251
4137.205457
4137.4154319
4137.6654851
4137.93067612
4138.18500354
4138.40107172
4138.51488862
4138.46696916
4138.20998539
4138.29299598
4138.1854015
4137.9592293
4137.69517108
4137.42342087
4137.16972228
4136.95491887
4136.816961
4136.74197238
4136.74204129
4136.81728284
4136.95622856
4137.16959467
4137.42263871
4137.693915
4137.95756032
4138.1834778
4138.29110685
4138.20832992
4137.90474972
4138.02687122
4137.92655449
4137.69099923
4137.41768538
4137.13839372
4136.68553117
4136.12930271
4135.84039001
4135.77271496
4135.77294784
4135.84116597
4136.13044382
4136.68637161
4137.13903789
4137.41804656
4137.6911763
4137.92668846
4138.0271399
4137.90515277
4137.58593073
4137.74737688
4137.65556604
4137.41371357
4137.13256607
4136.29121493
4134.37928521
4132.52877467
4131.85164222
4131.79473356
4131.79540699
4131.85373582
4132.53165941
4134.38201914
4136.29347524
4137.13466128
4137.41591524
4137.65800415
4137.75005944
4137.58864081
4137.28651799
4137.48261588
4137.39884637
4137.15390514
4136.67258132
4134.37219362
4130.02901697
4126.59868228
4125.52041315
4125.46202986
4125.463065
4125.52398718
4126.60319677
4130.03355487
4134.37645433
4136.67663424
4137.15829049
4137.40376538
4137.48786837
4137.29169693
4137.0363361
4137.25940156
4137.18179834
4136.93546562
4136.10870502
4132.51246354
4126.58091412
4122.29781549
4121.0231293
4121.00067831
4121.00227167
4121.02750113
4122.3029971
4126.58664236
4132.51860142
4136.11499319
4136.94221598
4137.18934523
4137.26732989
4137.04410708
4136.85587667
4137.09700098
4137.02514393
4136.78600414
4135.81047995
4131.82460697
4125.48847409
4121.00836359
4119.74160983
4119.75209937
4119.7529009
4119.74512222
4121.01537901
4125.49622764
4131.83289567
4135.81919791
4136.79576023
4137.03559793
4137.10774825
4136.86637433
4136.75889102
4137.00872473
4136.94025092
4136.70869996
4135.73410166
4131.75733019
4125.42225602
4120.97486764
4119.73927015
4119.75643426
4119.75865956
4119.74461177
4120.98339554
4125.43223785
4131.76830651
4135.74584976
4136.72288663
4136.95403006
4137.02249079
4136.77227722
4136.75252255
4137.00205674
4136.93296661
4136.69948165
4135.72621518
4131.74885406
4125.41275327
4120.96436906
4119.72652238
4119.74496254
4119.74696929
4119.73400339
4120.97529581
4125.42520213
4131.76285661
4135.74133669
4136.71862053
4136.95022366
4137.01898044
4136.76895016
4136.83691948
4137.07722584
4137.0041475
4136.7637497
4135.78785922
4131.7999698
4125.46138359
4120.98034721
4119.71163015
4119.72379064
4119.7258789
4119.71952343
4120.99299164
4125.47666562
4131.81715595
4135.80587525
4136.78355606
4137.0243737
4137.09731016
4136.85646105
4137.00519969
4137.22699092
4137.14758146
4136.89845027
4136.07310577
4132.47554577
4126.54227589
4122.25643872
4120.98375559
4120.96369435
4120.96663695
4120.99254278
4122.27023891
4126.55999328
4132.49541321
4136.09423366
4136.92263114
4137.17111906
4137.25021384
4137.0278036
4137.24391035
4137.43837718
4137.35283679
4137.10664116
4136.62599503
4134.32652881
4129.98413988
4126.55192946
4125.47425086
4125.41929393
4125.42252281
4125.48341376
4126.56636815
4130.00302462
4134.34821992
4136.64964106
4137.1323438
4137.37915685
4137.46448178
4137.26933297
4137.53290717
4137.69244063
4137.59899511
4137.35654334
4137.07584417
4136.23668155
4134.32809354
4132.48030692
4131.80536992
4131.75106978
4131.75421115
4131.81452876
4132.49503711
4134.34765779
4136.25989301
4137.10188333
4137.38454303
4137.62776119
4137.72096715
4137.5606899
4137.84271205
4137.96275272
4137.86102481
4137.62531153
4137.35300661
4137.07597074
4136.62640098
4136.07404766
4135.78845431
4135.72419507
4135.72751948
4135.79830235
4136.08979834
4136.64724107
4137.10085229
4137.38092062
4137.65513385
4137.89162044
4137.99306254
4137.87225592
4138.14068048
4138.22168348
4138.11302877
4137.88724915
4137.6249527
4137.35616736
4137.10651281
4136.89814826
4136.76194584
4136.69205556
4136.69544968
4136.77227986
4136.91450695
4137.12824372
4137.38211911
4137.65394508
4137.91813094
4138.1446431
4138.25301902
4138.17132555
4138.3957223
4138.44230978
4138.32792463
4138.11248826
4137.86000347
4137.59767802
4137.3513143
4137.14554608
4137.00081506
4136.92691109
4136.93048288
4137.01130123
4137.16225288
4137.37332173
4137.62389936
4137.88924753
4138.14356803
4138.35972974
4138.47395382
4138.42688749
4138.57678657
4138.57597346
4138.44181452
4138.22066024
4137.96119749
4137.6904536
4137.43595889
4137.22387975
4137.07286294
4136.9955501
4136.99906949
4137.08318267
4137.24036426
4137.45767143
4137.71629574
4137.98997604
4138.25123905
4138.47319368
4138.60744305
4138.60809184
4138.65511823
4138.5764237
4138.39500417
4138.13962827
4137.84126884
4137.53112921
4137.24173011
4137.00231891
4136.83282713
4136.74645049
4136.74987924
4136.84289498
4137.01841992
4137.26296313
4137.5564028
4137.86939886
4138.16952825
4138.42578785
4138.60751202
4138.68632217
3649.46979587
3649.37469302
3649.15809544
3648.85228337
3648.49400352
3648.11963734
3647.76782101
3647.47408248
3647.26374636
3647.15397494
3647.15384443
3647.26333564
3647.47331788
3647.76659657
3648.11784781
3648.4915852
3648.84921681
3649.15450342
3649.37086255
3649.46601237
3649.37374763
3649.38588096
3649.24102211
3648.98719153
3648.68446886
3648.36483303
3648.06068577
3647.80373419
3647.61788387
3647.51999884
3647.519844
3647.6174299
3647.80290886
3648.05938774
3648.3629259
3648.68192187
3648.98404055
3649.23748924
3649.38231093
3649.37039755
3649.15505628
3649.23902303
3649.12869976
3648.8832061
3648.58454282
3648.26870755
3647.96844393
3647.71775361
3647.53966141
3647.44756956
3647.44730682
3647.53898264
3647.71655855
3647.96685925
3648.26663818
3648.58208032
3648.88038278
3649.12570714
3649.23618237
3649.1525371
3648.84602403
3648.98201958
3648.87996078
3648.61332787
3648.2867531
3647.58963943
3646.15439982
3644.78528963
3644.2536482
3644.16977758
3644.16978271
3644.25368069
3644.78401866
3646.15320106
3647.5878431
3648.28479222
3648.61135814
3648.8780916
3648.98044935
3648.84478036
3648.4836523
3648.67502123
3648.57666931
3648.28186306
3647.10080511
3643.48532387
3637.8615606
3633.47926892
3632.0613785
3631.99244467
3631.99327221
3632.06404579
3633.48276138
3637.86432444
3643.48614673
3647.10025895
3648.28110439
3648.57636701
3648.67518522
3648.48401255
3648.10422203
3648.34985916
3648.25488949
3647.57845454
3643.48031409
3633.64278477
3621.38252249
3612.93787599
3610.44017763
3610.38057234
3610.38192697
3610.44543042
3612.94582758
3621.39045402
3633.64827738
3643.48243929
3647.57940948
3648.25638957
3648.35197185
3648.10638327
3647.74665687
3648.03934955
3647.94789657
3646.1366195
3637.85087232
3621.37542576
3602.85835412
3590.89999366
3587.53331639
3587.51811316
3587.52078943
3587.54163382
3590.91274587
3602.87196925
3621.38625983
3637.85659625
3646.13991113
3647.95145087
3648.04356869
3647.75077872
3647.44673681
3647.77554888
3647.68945538
3644.75689738
3633.46054391
3612.91970947
3590.88552331
3577.10994651
3573.31160868
3573.32346142
3573.32703651
3573.32232069
3577.12665453
3590.90414327
3612.93567001
3633.46990887
3644.76295851
3647.69530911
3647.78199947
3647.45298606
3647.23010487
3647.58294797
3647.50437932
3644.22138857
3632.03177246
3610.40753814
3587.49974234
3573.29113072
3569.39617583
3569.41949606
3569.42380909
3569.40868881
3573.31021721
3587.52138167
3610.4260178
3632.04462492
3644.23051492
3647.51291283
3647.5918503
3647.23870497
3647.11412663
3647.47851305
3647.40503614
3644.12967034
3631.94828646
3610.32726482
3587.46187746
3573.27764454
3569.39413607
3569.42552177
3569.42999272
3569.40758154
3573.29884992
3587.48669003
3610.34859382
3631.96514301
3644.14274009
3647.41674173
3647.49018747
3647.12536158
3647.10807504
3647.47212251
3647.39794015
3644.12124851
3631.93756303
3610.31232331
3587.44362782
3573.25760819
3569.37450109
3569.40623376
3569.41107471
3569.38870746
3573.28064609
3587.47130171
3610.337566
3631.95879993
3644.13845904
3647.41296485
3647.48681332
3647.12220401
3647.21202479
3647.5639256
3647.48342325
3644.19744447
3631.9999911
3610.36370957
3587.44592825
3573.23132118
3569.33627183
3569.36076251
3569.36608789
3569.35176553
3573.25633883
3587.47660509
3610.39330655
3632.02585832
3644.21798376
3647.50171105
3647.58175205
3647.22923091
3647.41685209
3647.74425108
3647.65573719
3644.72172212
3633.41466443
3612.85783583
3590.80630822
3577.0207967
3573.22099079
3573.23426115
3573.23958558
3573.23684215
3577.04655177
3590.83836162
3612.8900536
3633.44328048
3644.74371193
3647.6770789
3647.76525785
3647.43719513
3647.70534505
3647.9961588
3647.90194312
3646.08966509
3637.79873913
3621.30982044
3602.77380594
3590.80322583
3587.43490023
3587.42139551
3587.42629209
3587.44956667
3590.82712795
3602.80398753
3621.3410121
3637.8279449
3646.11527733
3647.92670765
3648.02034833
3647.72874566
3648.05220939
3648.29560471
3648.19828605
3647.52107074
3643.42393362
3633.58217986
3621.31081468
3612.85708447
3610.35877224
3610.30067082
3610.30472855
3610.3705635
3612.87664591
3621.33702511
3633.61104045
3643.45247158
3647.54853892
3648.22586376
3648.32265566
3648.07835935
3648.42207666
3648.61100598
3648.51077472
3648.21520563
3647.03684406
3643.42577255
3637.80399185
3633.42176409
3632.00615072
3631.93929316
3631.94288549
3632.01662424
3633.43889742
3637.82684231
3643.45229584
3647.06502928
3648.24441515
3648.54058008
3648.6403608
3648.450476
3648.77649852
3648.91013627
3648.80677883
3648.54036703
3648.21547272
3647.52198794
3646.0923483
3644.72655457
3644.20225425
3644.1229693
3644.12655234
3644.21258758
3644.74333966
3646.11456226
3647.54812355
3648.24420858
3648.57087512
3648.83804292
3648.94102809
3648.8065273
3649.07961093
3649.16175881
3649.05090847
3648.80661378
3648.51066517
3648.19860933
3647.90294657
3647.65701208
3647.48408605
3647.39666783
3647.40035111
3647.49466748
3647.67377737
3647.92494849
3648.22477276
3648.53981461
3648.83765229
3649.08272345
3649.19337543
3649.11063132
3649.29475526
3649.30598192
3649.16151568
3648.90977271
3648.61061382
3648.29546471
3647.99643729
3647.74473411
3647.56399616
3647.47068257
3647.47422003
3647.57432803
3647.76121046
3648.01808224
3648.32124082
3648.63937599
3648.94043839
3649.19307252
3649.33766121
3649.32618227
3649.38939712
3649.29450155
3649.07928183
3648.7763174
3648.42210493
3648.05266028
3647.70628655
3647.4180268
3647.21284777
3647.1075541
3647.11097129
3647.2228683
3647.4340412
3647.72740909
3648.07785303
3648.45022743
3648.80632408
3649.11028712
3649.32586774
3649.42082894
3160.38919939
3160.27419633
3160.01860482
3159.65535503
3159.22387918
3158.76630566
3158.33068518
3157.96241682
3157.69629654
3157.55632184
3157.55625898
3157.69608892
3157.96201891
3158.33001301
3158.76522561
3159.22230249
3159.65324921
3160.01608537
3160.27146485
3160.38647834
3160.27315415
3160.28200274
3160.11639264
3159.82100015
3159.45851408
3159.06485652
3158.68097679
3158.34983462
3158.10743597
3157.97887039
3157.97870379
3158.10697629
3158.34905315
3158.67979596
3159.06316079
3159.45636275
3159.8184212
3160.11360846
3160.27931535
3160.27070145
3160.01525604
3160.11418159
3159.98673568
3159.69674929
3159.33287039
3158.58667818
3157.08858609
3155.64770906
3155.06572359
3154.95086344
3154.95074299
3155.06561394
3155.64723973
3157.08695228
3158.58391644
3159.33012193
3159.69394665
3159.98405487
3160.11189256
3160.01337794
3159.64840025
3159.81525935
3159.69314584
3159.34671897
3157.46289106
3152.24780458
3144.72050707
3139.0169699
3137.22270808
3137.12876203
3137.12941403
3137.22480021
3139.01962773
3144.72211842
3152.24707294
3157.46050412
3159.34414213
3159.69108143
3159.81382006
3159.64736802
3159.21231068
3159.44802436
3159.32407847
3157.45686626
3149.14512766
3132.61575094
3113.9515798
3101.79409592
3098.31294749
3098.24972136
3098.25115568
3098.3189483
3101.8030964
3113.95999698
3132.62192666
3149.14697981
3157.4560571
3159.32308012
3159.44780539
3159.21239916
3158.74915011
3159.04839603
3158.57102375
3152.23700965
3132.60974438
3102.01786717
3072.22654729
3054.29653603
3049.38979146
3049.38187247
3049.38583197
3049.40205067
3054.31588025
3072.24790389
3102.03507071
3132.61826294
3152.23888071
3158.57163113
3159.04960724
3158.75051756
3158.30739387
3158.65793703
3157.06683334
3144.70438215
3113.93977976
3072.21074759
3034.45191548
3012.49869754
3006.64680484
3006.71116206
3006.71757097
3006.66524077
3012.52872446
3034.4866631
3072.23993423
3113.95647534
3144.71048384
3157.0699904
3158.66078356
3158.31019604
3157.93283402
3158.31999597
3155.62012137
3138.9928552
3101.75680852
3054.25193241
3012.47535497
2988.54035028
2982.23988155
2982.31475458
2982.32231542
2982.26267474
2988.57782197
3012.51947865
3054.29036135
3101.78171646
3139.00418299
3155.62573457
3158.32461798
3157.93726161
3157.66061075
3158.07111752
3155.0309855
3137.1873146
3098.25439722
3049.31399822
3006.58864963
2982.20206445
2975.78293184
2975.85615988
2975.86563596
2975.8097839
2982.24296027
3006.63792957
3049.3583449
3098.28543025
3137.20335208
3155.03924822
3158.077783
3157.66697305
3157.51483755
3157.93644209
3154.90740004
3137.075673
3098.17342052
3049.27433223
3006.60970252
2982.23029074
2975.80930072
2975.89042311
2975.89920804
2975.8366448
2982.2742029
3006.66380072
3049.32422585
3098.21142525
3137.09634334
3154.91908785
3157.94562274
3157.52354947
3157.50940351
3157.93065099
3154.9000611
3137.06457008
3098.15420887
3049.24695645
3006.57532321
2982.19293737
2975.77421891
2975.85522278
2975.86465429
2975.80114338
2982.23832134
3006.63357056
3049.30237666
3098.19816699
3137.09035492
3154.91549294
3157.94267769
3157.52082699
3157.64428772
3158.05383867
3155.00947961
3137.15361753
3098.19988527
3049.23407006
3006.48651962
2982.08757561
2975.66939065
2975.74387965
2975.75404733
2975.69805587
2982.13467644
3006.54686324
3049.29333391
3098.24766528
3137.18547588
3155.02861532
3158.06892289
3157.65871977
3157.90548075
3158.29126605
3155.58686339
3138.94320499
3101.67537107
3054.12928906
3012.31633724
2988.36302166
2982.05779599
2982.13404155
2982.14354648
2982.08625217
2988.4101873
3012.37615664
3054.18963437
3101.72553235
3138.97774511
3155.60878235
3158.30953932
3157.92307835
3158.2688183
3158.61755678
3157.02359859
3144.64688535
3113.84919508
3072.0722145
3034.26922665
3012.29418671
3006.43824185
3006.50390978
3006.51239788
3006.46435084
3012.33757895
3034.32417636
3072.12893605
3113.89934809
3144.68116839
3157.04731924
3158.63915435
3158.28965756
3158.69942989
3158.99651144
3158.51699411
3152.17874585
3132.53128159
3101.89779245
3072.06698462
3054.11333167
3049.20347018
3049.200121
3049.20711212
3049.22462851
3054.14842293
3072.11188167
3101.94448085
3132.57224055
3152.20973441
3158.54269797
3159.02136431
3158.72339804
3159.15206627
3159.38554011
3159.26025381
3157.3942736
3149.08038986
3132.53383751
3113.84981301
3101.67220383
3098.19018492
3098.13598526
3098.14116291
3098.2054674
3101.69753899
3113.88309637
3132.56940696
3149.11193533
3157.42244774
3159.28834192
3159.41327108
3159.17883127
3159.57898958
3159.743726
3159.62094897
3159.27542042
3157.39527115
3152.18462319
3144.65746757
3138.95322205
3137.16227305
3137.06954088
3137.07371862
3137.17371814
3138.97164808
3144.68144327
3152.21182165
3157.42329823
3159.30427978
3159.65111114
3159.77363076
3159.60798762
3159.93872638
3160.03609733
3159.90893051
3159.6213494
3159.26151298
3158.51953035
3157.02856615
3155.5948014
3155.01878258
3154.90829761
3154.91210924
3155.02938955
3155.61159133
3157.0503489
3158.5450123
3159.28960092
3159.65157563
3159.94020039
3160.0673126
3159.96933514
3160.19213136
3160.20050044
3160.03624233
3159.74434542
3159.38693727
3158.99912819
3158.62174627
3158.29690927
3158.0603447
3157.93663845
3157.94006211
3158.07031823
3158.31275686
3158.64252129
3159.02400185
3159.41492495
3159.77450368
3160.06758186
3160.23215583
3160.22355323
3160.30628071
3160.19211253
3159.9390613
3159.58008933
3159.15423254
3158.70301933
3158.27409997
3157.91227868
3157.65194429
3157.51664442
3157.51992522
3157.66156696
3157.92767022
3158.29444477
3158.72743172
3159.18171488
3159.60971628
3159.96996991
3160.22360594
3160.33788006
2671.52666965
2671.38614565
2671.08705606
2670.65440058
2670.12710831
2669.55192559
2668.99103284
2668.50693479
2668.15129108
2667.9611573
2667.96104608
2668.15092934
2668.50637268
2668.99030003
2669.55091338
2670.12575679
2670.6527059
2671.08513613
2671.38413128
2671.52470916
2671.38508828
2671.36543447
2671.16318414
2670.81095032
2670.36285266
2669.85590431
2669.14799262
2668.34233209
2667.85021001
2667.6707953
2667.67060384
2667.84973913
2668.34142717
2669.14656834
2669.85407249
2670.36067057
2670.8085346
2671.16077791
2671.36330379
2671.38322647
2671.08361563
2671.16099784
2671.00234577
2670.64874216
2669.38269748
2665.65284818
2659.8577381
2655.27459153
2653.69770149
2653.54338893
2653.54372355
2653.69954597
2655.27712003
2659.85915499
2665.65143208
2669.37980768
2670.6457074
2670.99970477
2671.1589941
2671.08209945
2670.64735778
2670.80523382
2670.64514536
2668.74772191
2660.40589874
2643.83135144
2625.1304486
2612.90334565
2609.33554879
2609.21302089
2609.2145671
2609.34049876
2612.91136674
2625.13729123
2643.83449225
2660.40666526
2668.74551632
2670.64274257
2670.80373747
2670.64634711
2670.11524503
2670.35222352
2669.37342408
2660.39982322
2635.59063205
2599.56802781
2565.74800608
2545.64233489
2540.14897444
2540.12549477
2540.12936679
2540.15976776
2545.65935639
2565.76783928
2599.58635382
2635.60074336