/*--------------------------------*- C++ -*----------------------------------*\
| =========                 |                                                 |
| \\      /  F ield         | OpenFOAM: The Open Source CFD Toolbox           |
|  \\    /   O peration     | Version:  3.0.1                                 |
|   \\  /    A nd           | Web:      www.OpenFOAM.org                      |
|    \\/     M anipulation  |                                                 |
\*---------------------------------------------------------------------------*/
FoamFile
{
    version     2.0;
    format      ascii;
    class       volScalarField;
    location    "1.8";
    object      p_rgh;
}
// * * * * * * * * * * * * * * * * * * * * * * * * * * * * * * * * * * * * * //

dimensions      [1 -1 -2 0 0 0 0];

internalField   nonuniform List<scalar> 
7968
(
5362.54382644
5362.50881216
5362.38400519
5362.19217644
5361.95381752
5361.69753489
5361.45611136
5361.25465141
5361.11061871
5361.03561896
5361.03506177
5361.1089441
5361.25182336
5361.45223876
5361.69268217
5361.94813002
5362.18585664
5362.37729326
5362.5019606
5362.53724635
5362.50820282
5362.52497761
5362.4319958
5362.25991557
5362.03099053
5361.77870289
5361.53722971
5361.33549155
5361.19177102
5361.11713401
5361.11670976
5361.19049377
5361.33332349
5361.53413979
5361.77469601
5362.02620721
5362.25450045
5362.42614635
5362.51894936
5362.50234029
5362.38200563
5362.43063429
5362.35407311
5362.18687466
5361.95151295
5361.6863726
5361.43058241
5361.21662159
5361.06486253
5360.98646914
5360.98625627
5361.06419259
5361.21543682
5361.42871011
5361.68379118
5361.94819685
5362.18294352
5362.34968915
5362.42604087
5362.3775634
5362.18818271
5362.25654681
5362.18480185
5362.00943084
5361.7555077
5361.46763048
5361.19096992
5360.96100318
5360.79935029
5360.71659193
5360.71662475
5360.79942903
5360.961005
5361.1906343
5361.46677174
5361.75410754
5362.00751973
5362.18246424
5362.25405212
5362.18576974
5361.94720424
5362.02492414
5361.94656317
5361.7524998
5361.47355161
5361.16120801
5360.8656449
5360.62363427
5360.45522343
5360.36915961
5360.36947338
5360.45601974
5360.62478317
5360.86685879
5361.16227682
5361.47431162
5361.75297813
5361.94674751
5362.02494015
5361.94729559
5361.68766121
5361.76915613
5361.67764519
5361.46051746
5361.15688273
5360.82419092
5360.516603
5360.26981835
5360.10064145
5360.0146485
5360.01516997
5360.10217666
5360.2720382
5360.519305
5360.82713348
5361.15989884
5361.46347508
5361.68051855
5361.77199498
5361.69057626
5361.44221756
5361.52341805
5361.41711434
5361.17858267
5360.85554237
5360.51057992
5360.19901881
5359.95585633
5359.79350355
5359.71230663
5359.71302586
5359.79561927
5359.9591531
5360.20314653
5360.51535014
5360.86076947
5361.18410294
5361.4228262
5361.52925357
5361.44815471
5361.23607011
5361.31657373
5361.19737672
5360.94202389
5360.60627487
5360.2560907
5359.94803498
5359.71887979
5359.57091898
5359.49764385
5359.49857142
5359.57358405
5359.7231527
5359.9535947
5360.26268173
5360.6137449
5360.95015959
5361.20600313
5361.32550573
5361.24508578
5361.08672541
5361.16701101
5361.0388065
5360.77236691
5360.42951279
5360.07830823
5359.77687564
5359.56219801
5359.42839602
5359.36274685
5359.36393806
5359.43177511
5359.56750542
5359.78393716
5360.08685977
5360.43931964
5360.78309433
5361.05034309
5361.17902788
5361.09882983
5361.00596861
5361.08606397
5360.95308661
5360.6805771
5360.33495543
5359.98379
5359.68694349
5359.48044196
5359.35449074
5359.29336703
5359.29476896
5359.35861712
5359.48702152
5359.69568126
5359.99448663
5360.34715478
5360.69372997
5360.96751015
5361.10119816
5361.02118306
5360.99950865
5361.07948729
5360.94643581
5360.67409935
5360.32830634
5359.97718956
5359.6804878
5359.47417877
5359.34847374
5359.28768059
5359.28934436
5359.35343753
5359.48217783
5359.69123136
5359.99033865
5360.34325684
5360.69003468
5360.96396612
5361.09778243
5361.0178661
5361.06751863
5361.14739314
5361.01887999
5360.75241984
5360.40974773
5360.05895749
5359.75809582
5359.54410104
5359.41108387
5359.34638775
5359.34839231
5359.41701056
5359.5536723
5359.77097281
5360.07475451
5360.42783097
5360.7721138
5361.03982703
5361.16887136
5361.08896394
5361.20464687
5361.28454387
5361.16486628
5360.90947371
5360.57428536
5360.22499
5359.91812975
5359.69020618
5359.54352845
5359.4717109
5359.47406712
5359.55047776
5359.70139908
5359.93314254
5360.24332212
5360.59527432
5360.93240556
5361.18890989
5361.30897046
5361.2289974
5361.3994441
5361.47991452
5361.3731763
5361.13481579
5360.81268842
5360.46914454
5360.1593831
5359.91815178
5359.75759794
5359.67834119
5359.68102634
5359.76549065
5359.93085109
5360.17632975
5360.48972527
5360.83613832
5361.16028846
5361.39976412
5361.50684971
5361.42627093
5361.63474672
5361.71552353
5361.6237108
5361.40704708
5361.10471126
5360.77405834
5360.46894235
5360.22473928
5360.05816154
5359.97463357
5359.97758671
5360.06685977
5360.23869572
5360.48749369
5360.79647008
5361.13010925
5361.43443301
5361.65218522
5361.74434186
5361.66348084
5361.88578487
5361.96277158
5361.88429074
5361.69101568
5361.41387551
5361.10412106
5360.81177142
5360.57305113
5360.40776487
5360.32459421
5360.32775322
5360.41702588
5360.58789807
5360.83147081
5361.12784623
5361.44056434
5361.71967423
5361.91395899
5361.99275124
5361.91570447
5362.12001113
5362.18776033
5362.1161126
5361.94187598
5361.69018424
5361.40546962
5361.13260257
5360.90659579
5360.7485461
5360.66890371
5360.67220658
5360.75817488
5360.92200296
5361.15302883
5361.4299179
5361.71754068
5361.97111177
5362.14630962
5362.21823403
5362.15049395
5362.30905976
5362.35725133
5362.28102446
5362.11527906
5361.88256523
5361.62098276
5361.36945856
5361.15997462
5361.01246168
5360.93792984
5360.9412632
5361.02224351
5361.175632
5361.39016026
5361.6457086
5361.91007678
5362.14461885
5362.31125663
5362.38771974
5362.33961543
5362.43234855
5362.44895964
5362.35660208
5362.18629736
5361.9602953
5361.71191849
5361.47501398
5361.27810259
5361.13907252
5361.06873495
5361.07206936
5361.14886555
5361.29378709
5361.49571725
5361.73657269
5361.98772582
5362.21543875
5362.38661182
5362.47921896
5362.46286115
5362.46679806
5362.43192892
5362.30809128
5362.1182535
5361.88305388
5361.63085802
5361.39422473
5361.19780477
5361.05869116
5360.98820157
5360.99150624
5361.06841614
5361.21336722
5361.41478165
5361.65535337
5361.91026585
5362.14713172
5362.33780289
5362.46205617
5362.4973494
5362.57926538
5362.51763861
5362.364566
5362.14427719
5361.88171101
5361.60548428
5361.34642126
5361.13115469
5360.97751805
5360.89750791
5360.89705862
5360.97619044
5361.12893712
5361.34328637
5361.60131277
5361.87667515
5362.13853028
5362.35837392
5362.51142679
5362.57329109
5362.51696526
5362.50878866
5362.38672479
5362.18999898
5361.95209714
5361.69961201
5361.46052675
5361.26087035
5361.1178982
5361.04319725
5361.04286816
5361.11690646
5361.25916971
5361.45802527
5361.69616798
5361.94786369
5362.18505344
5362.38133344
5362.50326996
5362.51155917
5362.36239124
5362.38527997
5362.2752876
5362.08440646
5361.85149281
5361.60291714
5361.3664903
5361.16781527
5361.02536585
5360.95096476
5360.95080826
5361.02490911
5361.16699472
5361.36505653
5361.6006752
5361.84852825
5362.08076685
5362.27119215
5362.38104216
5362.35829007
5362.13989162
5362.18634518
5362.08210914
5361.88901903
5361.65321791
5361.40249764
5361.16514407
5360.96503452
5360.82185036
5360.74853923
5360.74862375
5360.82207574
5360.9654463
5361.16510039
5361.40194802
5361.65205122
5361.88727546
5362.07998389
5362.18407623
5362.13774192
5361.87441485
5361.94544114
5361.84590324
5361.64972935
5361.41302526
5361.16570171
5360.93680725
5360.7460832
5360.60960892
5360.53773693
5360.53805008
5360.61057084
5360.74738618
5360.93815017
5361.16688433
5361.41392032
5361.65027587
5361.84617424
5361.94559881
5361.87465799
5361.59454604
5361.68902204
5361.59297701
5361.39423052
5361.16060562
5360.92628971
5360.71378309
5360.54109914
5360.41825865
5360.35293596
5360.35353037
5360.41981585
5360.54332711
5360.71644903
5360.92920351
5361.16357547
5361.39718107
5361.59589437
5361.69192365
5361.5974531
5361.3311107
5361.44520219
5361.35124769
5361.15092411
5360.92497162
5360.70684586
5360.5157578
5360.36567899
5360.26148292
5360.20561025
5360.20638986
5360.26355876
5360.36889709
5360.51974968
5360.71138454
5360.93002601
5361.1563519
5361.35692033
5361.4509845
5361.33686931
5361.11081013
5361.24003298
5361.14633859
5360.9439532
5360.72595762
5360.52530999
5360.35742507
5360.22994915
5360.1418641
5360.09460578
5360.09550356
5360.14444857
5360.23408735
5360.36274271
5360.53147652
5360.73313022
5360.95187907
5361.15480871
5361.24878323
5361.11950436
5360.95156045
5361.09083875
5360.99646577
5360.79130652
5360.58025084
5360.39289813
5360.24329773
5360.13214463
5360.06119161
5360.02463312
5360.02584633
5360.06449641
5360.13718058
5360.24996495
5360.40091454
5360.58962064
5360.80170015
5361.0078006
5361.10259432
5360.96324184
5360.86557587
5361.00955875
5360.91381204
5360.70296876
5360.49873787
5360.31835115
5360.1769981
5360.07557785
5360.01573906
5359.98582783
5359.9871827
5360.01976537
5360.08183517
5360.18520858
5360.32842468
5360.51040477
5360.71473206
5360.92793671
5361.02435624
5360.88030122
5360.85912087
5361.00293408
5360.90719907
5360.69781137
5360.49203939
5360.31140065
5360.17022902
5360.06891491
5360.00928007
5359.97962797
5359.98122267
5360.01400638
5360.07652623
5360.18036766
5360.32388852
5360.50626288
5360.71097315
5360.92428699
5361.02087758
5360.87695869
5360.93232396
5361.07105631
5360.97617895
5360.77086291
5360.55972427
5360.3724335
5360.22355909
5360.11300525
5360.04281641
5360.00723083
5360.00921945
5360.04864948
5360.12229533
5360.23599893
5360.3877175
5360.57738504
5360.79020645
5360.99692126
5361.09226702
5360.95330715
5361.07930313
5361.20763137
5361.11310258
5360.91024032
5360.69267337
5360.49249063
5360.32553267
5360.19964666
5360.11286228
5360.06710848
5360.06946608
5360.1197972
5360.21069201
5360.34022201
5360.51049824
5360.71348749
5360.93329958
5361.13713376
5361.23192648
5361.10326194
5361.28817126
5361.40113085
5361.30630094
5361.10576498
5360.88035678
5360.66315076
5360.47343069
5360.32526673
5360.22329464
5360.1693317
5360.17204224
5360.23124922
5360.3379667
5360.49027307
5360.68365556
5360.9038809
5361.13146706
5361.33308953
5361.42806901
5361.31473308
5361.54135558
5361.6345718
5361.5377234
5361.33906314
5361.10638892
5360.87354081
5360.663024
5360.49258461
5360.37220954
5360.30949418
5360.3125589
5360.38118681
5360.50683125
5360.68183655
5360.89623688
5361.13218101
5361.36698355
5361.56667331
5361.66362788
5361.56999344
5361.81247156
5361.88217792
5361.78200982
5361.58625569
5361.35103128
5361.10599267
5360.87977845
5360.69204346
5360.55853177
5360.48940898
5360.49271959
5360.56816609
5360.70739146
5360.9000685
5361.13033425
5361.37847818
5361.61570038
5361.81242474
5361.91264535
5361.84252072
5362.07094017
5362.11618048
5362.0115325
5361.81926577
5361.58555085
5361.33781155
5361.10409933
5360.90811509
5360.76824497
5360.69653607
5360.70008089
5360.77826503
5360.92411009
5361.12524452
5361.36312172
5361.61385308
5361.84957899
5362.0426582
5362.14730953
5362.10176172
5362.28862196
5362.3104701
5362.2003765
5362.0107646
5361.78046933
5361.53543411
5361.30324645
5361.10909522
5360.97086387
5360.90021576
5360.90369002
5360.98101377
5361.12532412
5361.32468596
5361.56101278
5361.80897167
5362.04115649
5362.23159845
5362.34169329
5362.31957121
5362.44040675
5362.43161621
5362.30986073
5362.11483254
5361.87992854
5361.63145007
5361.39700004
5361.20223811
5361.06399247
5360.99360082
5360.99702926
5361.07406345
5361.21835592
5361.4182782
5361.65679715
5361.90818838
5362.14484602
5362.34067571
5362.46252765
5362.47131082
5362.5016384
5362.43992065
5362.28768973
5362.06936228
5361.81007919
5361.53813969
5361.28392369
5361.0737472
5360.9250545
5360.84951943
5360.85291249
5360.93496425
5361.08963628
5361.30487446
5361.56307278
5361.83792363
5362.09883043
5362.3179479
5362.47059178
5362.53252281
5362.77654207
5362.69794045
5362.51554694
5362.25803179
5361.95623473
5361.64173146
5361.34734188
5361.10275764
5360.92831208
5360.83747954
5360.8372002
5360.9274695
5361.10130846
5361.34519292
5361.63884382
5361.95233039
5362.25334895
5362.51044831
5362.69272104
5362.77160881
5362.69706673
5362.69720446
5362.5628704
5362.34002489
5362.07754545
5361.80277452
5361.54352078
5361.32644527
5361.1705994
5361.08885067
5361.08862694
5361.16995033
5361.32529126
5361.54170739
5361.80022163
5362.07425307
5362.33605299
5362.55834779
5362.69258914
5362.69262785
5362.51301428
5362.56122006
5362.44736142
5362.23088736
5361.97596924
5361.71012958
5361.45940186
5361.24874294
5361.09973174
5361.02140145
5361.02128276
5361.09940482
5361.24821159
5361.45821403
5361.70823577
5361.97342104
5362.22775354
5362.44376148
5362.55758918
5362.50955363
5362.25274521
5362.33575464
5362.2281513
5362.00198093
5361.73792249
5361.46617955
5361.21249604
5360.99769694
5360.85979576
5360.78480111
5360.7847967
5360.86004548
5360.99899981
5361.21235584
5361.46540723
5361.7366656
5362.00031089
5362.22619288
5362.33385753
5362.25108121
5361.94753737
5362.06963032
5361.96930922
5361.73374507
5361.46043088
5361.18114566
5360.92519261
5360.72264254
5360.5904933
5360.52277357
5360.5229581
5360.59103597
5360.72360487
5360.92600092
5361.1817904
5361.46080544
5361.73392651
5361.96942141
5362.0698936
5361.94791113
5361.62870166
5361.79015252
5361.69832547
5361.45646227
5361.17532275
5360.8926818
5360.65200393
5360.47469912
5360.3434089
5360.2862411
5360.28991486
5360.34781544
5360.47524459
5360.65385619
5360.89468642
5361.17741185
5361.45869135
5361.70076599
5361.79282405
5361.6314059
5361.32931141
5361.52537417
5361.44163387
5361.19666473
5360.91235088
5360.64422805
5360.37537426
5360.14383663
5360.09726583
5360.11794016
5360.1212158
5360.10123543
5360.15193926
5360.38011239
5360.64766752
5360.91630097
5361.20107307
5361.44654712
5361.53063149
5361.33445331
5361.07910118
5361.30216149
5361.22456228
5360.97825271
5360.70178079
5360.45111884
5360.16253172
5360.09877708
5360.04437031
5360.02126516
5360.0222046
5360.04677994
5360.1063898
5360.17111633
5360.45367595
5360.70788402
5360.98502875
5361.23213596
5361.31008812
5361.08687594
5360.89863993
5361.13975971
5361.06790267
5360.82877353
5360.56007152
5360.31093301
5360.11067354
5360.03070031
5360.02493008
5360.03478741
5360.03495758
5360.02654762
5360.03488553
5360.12029372
5360.31575131
5360.56855304
5360.83858416
5361.07835658
5361.15051207
5360.90913941
5360.8016547
5361.05148267
5360.98300434
5360.75145592
5360.48382448
5360.25232241
5360.08809905
5359.9997384
5360.02526081
5360.04179293
5360.04350628
5360.02876821
5360.00528996
5360.09503928
5360.26055716
5360.49528603
5360.76566344
5360.99679048
5361.06525933
5360.81503772
5360.79528081
5361.04481699
5360.97572168
5360.7422359
5360.4758547
5360.24276967
5360.08051713
5359.99177849
5360.01518647
5360.0329884
5360.03438405
5360.02077884
5359.99958181
5360.08956784
5360.25359571
5360.49080546
5360.76138481
5360.99298682
5361.06174217
5360.81170566
5360.87967961
5361.11998165
5361.04690606
5360.80650764
5360.53789077
5360.28348295
5360.08940601
5360.01027237
5360.00295784
5360.01448308
5360.01593367
5360.00894371
5360.01965589
5360.10389781
5360.29842845
5360.5554046
5360.82630959
5361.06713252
5361.14006432
5360.89922064
5361.04794717
5361.26974853
5361.19033802
5360.94120713
5360.66624498
5360.41329866
5360.1236754
5360.07033914
5360.0134785
5359.99291063
5359.99534225
5360.02073283
5360.08208854
5360.13674336
5360.43135078
5360.68701092
5360.9653697
5361.2138734
5361.29296995
5361.0705536
5361.28665347
5361.48113786
5361.395595
5361.14939695
5360.86539944
5360.59813531
5360.32690899
5360.10293218
5360.06104761
5360.07882596
5360.08181898
5360.06637932
5360.11348028
5360.34184948
5360.61868507
5360.88897926
5361.17509708
5361.42190985
5361.50723577
5361.31208297
5361.57566015
5361.73520278
5361.64175142
5361.39929414
5361.11859686
5360.83739645
5360.59876149
5360.41977453
5360.2911356
5360.24061648
5360.24581665
5360.30302178
5360.43484738
5360.61776128
5360.8603459
5361.14464234
5361.42730574
5361.67051138
5361.76371895
5361.6033565
5361.88533673
5362.00551163
5361.90379201
5361.66806402
5361.39575701
5361.11872688
5360.86589946
5360.66675121
5360.53767833
5360.47346044
5360.47680584
5360.54757909
5360.68246589
5360.88661749
5361.14361584
5361.42367226
5361.69788399
5361.93437111
5362.0358129
5361.91491365
5362.18313529
5362.26437176
5362.15578362
5361.93001502
5361.66770631
5361.39891874
5361.14927703
5360.9409104
5360.80470437
5360.73482403
5360.73822396
5360.81507144
5360.95728463
5361.17100922
5361.42488668
5361.69669562
5361.9608844
5362.18739313
5362.29563512
5362.21382783
5362.43824721
5362.48486099
5362.37058503
5362.15524331
5361.90276048
5361.64043458
5361.39407113
5361.18830744
5361.04357323
5360.96967844
5360.97324964
5361.05406445
5361.20502528
5361.41608599
5361.66665285
5361.93199942
5362.18631808
5362.40244252
5362.51654076
5362.46936638
5362.6195242
5362.61867079
5362.484364
5362.26340935
5362.00395155
5361.73320364
5361.47871949
5361.26663432
5361.11562737
5361.0383063
5361.04183078
5361.12594541
5361.28312672
5361.500436
5361.75905518
5362.03272669
5362.29397869
5362.51582862
5362.65002153
5362.65074838
5362.69785921
5362.61916388
5362.43747355
5362.18208805
5361.88401889
5361.57387953
5361.28449399
5361.04507808
5360.87556669
5360.78918666
5360.7926131
5360.88564438
5361.06117478
5361.30569668
5361.59914314
5361.91215386
5362.21204588
5362.46821428
5362.65018125
5362.72882919
5363.129439
5363.03439754
5362.81778322
5362.51212363
5362.15385416
5361.7794924
5361.42767131
5361.13394471
5360.92360049
5360.81383894
5360.81368234
5360.92318375
5361.13316814
5361.4264471
5361.77769782
5362.1514352
5362.50864347
5362.81391575
5363.03045825
5363.12561899
5363.03349887
5363.04565495
5362.90023867
5362.64693098
5362.34431895
5362.02468342
5361.72054342
5361.46358539
5361.2777502
5361.17987501
5361.17970716
5361.27728289
5361.46276155
5361.71923845
5362.02277729
5362.34177183
5362.64386241
5362.89663319
5363.04206847
5363.02991668
5362.81490656
5362.89856646
5362.7882429
5362.54304498
5362.24439343
5361.92858221
5361.62829464
5361.3776271
5361.19951758
5361.1074698
5361.10717236
5361.19884223
5361.37643989
5361.62671956
5361.92653808
5362.24193114
5362.54023328
5362.78492025
5362.89502497
5362.812143
5362.50588645
5362.64187048
5362.53981445
5362.27317792
5361.94660507
5361.60315135
5361.26580062
5360.96278446
5360.77596374
5360.70091796
5360.70172888
5360.77837195
5360.96293918
5361.26693445
5361.60126779
5361.94466155
5362.27120838
5362.5379094
5362.64009461
5362.50462631
5362.14351255
5362.33488404
5362.23651944
5361.94168524
5361.57306575
5361.03779275
5360.41523648
5359.95870961
5359.82088116
5359.77285931
5359.77224957
5359.81995626
5359.96032227
5360.41847456
5361.04158552
5361.57264839
5361.94096006
5362.23621711
5362.33503044
5362.14386836
5361.7641084
5362.0097191
5361.91477306
5361.59219271
5361.02951151
5360.14430715
5359.44566196
5359.33792995
5359.2855804
5359.33988197
5359.34302701
5359.2879115
5359.33984667
5359.45115428
5360.14615957
5361.03224181
5361.59284158
5361.9162625
5362.01183542
5361.76624972
5361.4065099
5361.69922701
5361.60776067
5361.24440597
5360.39686962
5359.42087104
5359.10495896
5358.39806179
5357.8462138
5356.97665533
5356.97187368
5357.86205752
5358.39655642
5359.09745057
5359.42518999
5360.40001556
5361.24825803
5361.61133047
5361.70344536
5361.41064382
5361.10660469
5361.43541017
5361.34935742
5360.93044117
5359.94749663
5359.3055695
5358.03847884
5355.9495323
5354.99170739
5355.11574825
5355.13112446
5355.01786987
5355.91500552
5358.00813732
5359.30590392
5359.95638576
5360.93619975
5361.35519115
5361.4418739
5361.11283548
5360.88995375
5361.24282032
5361.1642553
5360.73974011
5359.80340692
5359.23057355
5357.38293902
5354.90398976
5355.79718677
5356.47255537
5356.42867673
5355.73935318
5354.91604963
5357.3696731
5359.23464763
5359.81210756
5360.74832683
5361.17280103
5361.25171683
5360.89854186
5360.77396638
5361.13837881
5361.06490282
5360.65089703
5359.73363021
5359.28134343
5356.73207249
5355.10211835
5356.47870397
5356.8727084
5356.89796993
5356.46585905
5355.0952998
5356.71662409
5359.29239222
5359.74259694
5360.66304842
5361.07660761
5361.15008189
5360.78518761
5360.76791212
5361.13198247
5361.0577951
5360.64074474
5359.72529783
5359.27362342
5356.72155555
5355.07961846
5356.34701279
5356.80888961
5356.79717236
5356.39427358
5355.1017917
5356.70291043
5359.28695242
5359.73828155
5360.65475046
5361.07285669
5361.14668175
5360.78202647
5360.87184754
5361.22377375
5361.14327575
5360.70897363
5359.77498823
5359.2090016
5357.36417711
5354.93514814
5355.70433327
5356.41237754
5356.38484462
5355.71011554
5354.95169046
5357.35225098
5359.22308415
5359.78950363
5360.72459922
5361.16157301
5361.24165159
5360.88905319
5361.07664168
5361.40410032
5361.31559227
5360.88442508
5359.90134634
5359.26077916
5358.04514231
5355.88373476
5355.01804456
5355.15946966
5355.16400468
5355.03239946
5355.88824223
5358.05050948
5359.2758642
5359.92075367
5360.9033521
5361.33695042
5361.42510861
5361.0969688
5361.36511471
5361.65601789
5361.56180132
5361.18815369
5360.33815748
5359.35436413
5359.07790697
5358.29752362
5357.7134469
5356.92231819
5356.93439057
5357.73194731
5358.31052276
5359.09493416
5359.37764226
5360.36022204
5361.21240648
5361.58655885
5361.68020132
5361.38849148
5361.712001
5361.95545825
5361.85814763
5361.53429062
5360.95957988
5360.07448614
5359.36734432
5359.26915471
5359.21647592
5359.27702492
5359.28232345
5359.22989418
5359.28614936
5359.38656472
5360.09677326
5360.98488838
5361.56160672
5361.88572693
5361.98250578
5361.73809889
5362.08192513
5362.27085636
5362.17062815
5361.87507841
5361.49474985
5360.96207387
5360.34348706
5359.89231669
5359.76200315
5359.71644494
5359.7179645
5359.77214488
5359.90799828
5360.36434786
5360.98790681
5361.52249955
5361.9042966
5362.20043025
5362.3002108
5362.11030396
5362.43585902
5362.56998633
5362.46663035
5362.20022526
5361.87533983
5361.53537832
5361.19464031
5360.89196208
5360.71440967
5360.64138017
5360.64315266
5360.72474952
5360.91004435
5361.21751912
5361.56126969
5361.90408932
5362.23072632
5362.49789374
5362.60087829
5362.46607303
5362.73899496
5362.82160908
5362.71075875
5362.46646386
5362.17051864
5361.85846592
5361.56280771
5361.31687739
5361.14397833
5361.05655015
5361.06024641
5361.1545776
5361.33367353
5361.58483142
5361.88465834
5362.19966542
5362.49750229
5362.74257345
5362.85304428
5362.76992096
5362.95456436
5362.96577139
5362.82137068
5362.56962292
5362.27046453
5361.95531851
5361.65632365
5361.40461035
5361.22387164
5361.13055783
5361.13409121
5361.23420058
5361.42108255
5361.67796302
5361.9810964
5362.29923002
5362.60028839
5362.85278723
5362.99717881
5362.98569137
5363.04919069
5362.95433344
5362.73873916
5362.43602401
5362.0819551
5361.71251991
5361.36619251
5361.07786476
5360.87265519
5360.76737192
5360.77078795
5360.88269188
5361.09395251
5361.38744924
5361.73771048
5362.11007074
5362.46593153
5362.7696381
5362.98542968
5363.08009992
5363.66587427
5363.55074803
5363.29508771
5362.932299
5362.50083397
5362.04325566
5361.60764658
5361.23935506
5360.97322688
5360.83326419
5360.83320575
5360.97301032
5361.23897991
5361.60696389
5362.04217658
5362.49925187
5362.93018412
5363.29248433
5363.548
5363.66289021
5363.54981069
5363.55846997
5363.39163482
5363.09795971
5362.73546582
5362.34181164
5361.95793165
5361.62683666
5361.38440703
5361.25589045
5361.25568894
5361.38395569
5361.62601993
5361.95675006
5362.34011271
5362.73331283
5363.09537691
5363.3891995
5363.55536414
5363.54727263
5363.29218056
5363.38942378
5363.26197789
5362.97370035
5362.60982196
5362.21719935
5361.83651153
5361.47135749
5361.23619992
5361.11341664
5361.11068706
5361.23262631
5361.46908024
5361.83268634
5362.21437989
5362.60707321
5362.97089665
5363.25964118
5363.38747887
5363.28981439
5362.92535046
5363.09220928
5362.97009586
5362.64510355
5362.19257297
5361.42416817
5360.5391876
5359.89348158
5359.64194257
5359.60213573
5359.6004124
5359.63934571
5359.890452
5360.5349787
5361.42126673
5362.18712825
5362.64251012
5362.96803203
5363.08976608
5362.924314
5362.48925753
5362.72497178
5362.60103073
5362.18931139
5361.14892012
5359.42857425
5358.17066043
5357.54244788
5357.29085854
5357.35646044
5357.36180462
5357.3001189
5357.5544305
5358.18087254
5359.42443
5361.14597082
5362.18360097
5362.60002985
5362.72475539
5362.48931448
5362.02608195
5362.32536451
5362.20188696
5361.41609486
5359.42994922
5357.35976226
5353.81252321
5350.87859758
5350.97290949
5350.12532868
5350.10793116
5350.97375042
5350.8782346
5353.81485387
5357.36452349
5359.42888053
5361.41397196
5362.20210459
5362.32658042
5362.02746055
5361.58433372
5361.93492345
5361.81516041
5360.53467686
5358.11225096
5353.83049284
5347.92783876
5347.64880899
5347.66420717
5347.72256488
5347.72294145
5347.66468947
5347.65023399
5347.91384675
5353.83698135
5358.12027499
5360.53364441
5361.81676097
5361.93774769
5361.58713403
5361.20974009
5361.59695945
5361.44515621
5359.85988841
5357.57615258
5351.03734102
5347.65042588
5347.70581735
5347.80437244
5347.87239537
5347.87311126
5347.80662966
5347.71060332
5347.6557383
5351.0962732
5357.58307055
5359.86043983
5361.44432404
5361.60147554
5361.21421752
5360.93753112
5361.34818748
5361.19967847
5359.59470433
5357.31680108
5351.2578004
5347.66057934
5347.79979223
5347.91238973
5347.97858849
5347.98103439
5347.91814997
5347.80697387
5347.66954282
5351.26277414
5357.32375342
5359.60056479
5361.20095661
5361.35481736
5360.94390991
5360.7917131
5361.21351222
5361.05948442
5359.56943603
5357.26138041
5350.20774522
5347.70645319
5347.85666534
5347.9684133
5348.04250782
5348.04426058
5347.97466567
5347.86672316
5347.71981445
5350.1736546
5357.25599304
5359.58139117
5361.06517052
5361.22222991
5360.80047798
5360.78630507
5361.20770744
5361.05159699
5359.55851025
5357.2664047
5350.17773078
5347.69687188
5347.84798676
5347.96299443
5348.03696677
5348.03936677
5347.96882449
5347.85937639
5347.71396839
5350.14838668
5357.25665533
5359.57481876
5361.05840732
5361.21960052
5360.79779563
5360.92120968
5361.33091868
5361.16165044
5359.56710143
5357.28202215
5351.1440341
5347.63281986
5347.77129443
5347.88783157
5347.95529249
5347.95842743
5347.89539936
5347.78426181
5347.65159393
5351.14429609
5357.30269096
5359.58465942
5361.17670192
5361.34605209
5360.93569843
5361.18248052
5361.56834902
5361.39045813
5359.81882123
5357.53697413
5351.00394732
5347.60619326
5347.66235578
5347.76119643
5347.83072581
5347.83352104
5347.76952606
5347.67683565
5347.62610226
5351.0366807
5357.5625893
5359.83716075
5361.40915992
5361.5865062
5361.20012894
5361.54575967
5361.89456682
5361.75325472
5360.47828572
5358.06431426
5353.85846958
5347.92640921
5347.59769139
5347.61567492
5347.67576599
5347.67863626
5347.62493458
5347.61358169
5347.94650258
5353.86095147
5358.06510855
5360.50636994
5361.77808879
5361.91617146
5361.56655293
5361.97638022
5362.27349433
5362.14733441
5361.33552994
5359.36103455
5357.33848279
5353.83778189
5350.8790023
5350.99252905
5350.08326848
5350.08640003
5350.97643715
5350.85354422
5353.85709561
5357.36794559
5359.38251422
5361.36040338
5362.17288985
5362.29840251
5362.00034486
5362.42902134
5362.6624911
5362.53723326
5362.09331
5361.07158922
5359.35832087
5358.06296684
5357.50245809
5357.25815292
5357.2460668
5357.25032687
5357.27642257
5357.52538062
5358.07987667
5359.37875514
5361.10057044
5362.12403047
5362.5653111
5362.69022166
5362.45578143
5362.85534646
5363.02067784
5362.89789945
5362.57320761
5362.0956909
5361.33618004
5360.47874967
5359.82604793
5359.57068639
5359.55729231
5359.56106538
5359.57823738
5359.84005271
5360.50033291
5361.36135663
5362.1270401
5362.60041897
5362.92806161
5363.05058308
5362.88493771
5363.21488768
5363.31304733
5363.18588604
5362.89829993
5362.53849731
5362.15012892
5361.7590083
5361.40097652
5361.16325196
5361.04541214
5361.04984636
5361.16979536
5361.41230352
5361.781742
5362.17530668
5362.56657403
5362.92852563
5363.21704475
5363.34389754
5363.24589945
5363.46903027
5363.47735483
5363.31319233
5363.02129645
5362.66389035
5362.27616344
5361.8988533
5361.57369065
5361.33721168
5361.21351588
5361.21696835
5361.34685202
5361.5897015
5361.91944192
5362.30107469
5362.6918768
5363.05145391
5363.34407133
5363.50872637
5363.49998413
5363.58309275
5363.46903713
5363.21553627
5362.85703937
5362.43118661
5361.97997761
5361.55111965
5361.18948204
5360.92920038
5360.79388073
5360.79716827
5360.9387592
5361.20478906
5361.57167697
5362.00460344
5362.45867614
5362.88666631
5363.24639849
5363.50011901
5363.61422524
5364.42054048
5364.27970773
5363.98106781
5363.5484419
5363.02115915
5362.44598095
5361.88509421
5361.40102573
5361.04554781
5360.85539664
5360.85530796
5361.04519042
5361.40044363
5361.88434378
5362.44496473
5363.01980736
5363.54675412
5363.97918614
5364.27804833
5364.41810966
5364.27895347
5364.25907814
5364.05723228
5363.70500204
5363.25690799
5362.74998732
5362.238943
5361.78722338
5361.45231723
5361.27239141
5361.27231614
5361.45173358
5361.78608729
5362.23757551
5362.74818272
5363.25472785
5363.70258572
5364.05482807
5364.2567651
5364.27703421
5363.97766563
5364.05503898
5363.89637585
5363.54280015
5363.08931709
5362.54565197
5361.71233865
5361.12815645
5360.82935249
5360.72054951
5360.71686127
5360.82751694
5361.13093879
5361.71270883
5362.52681745
5363.08611259
5363.53976491
5363.89333695
5364.0522195
5363.97614946
5363.5414082
5363.69927446
5363.53919685
5363.13950273
5362.09511784
5360.57316404
5359.19704902
5357.97826016
5357.65397966
5357.81738739
5357.82143134
5357.65241708
5357.96888377
5359.19562114
5360.55374485
5362.09025921
5363.1362661
5363.53680059
5363.69778764
5363.54039375
5363.00928151
5363.24623419
5363.08055807
5362.07555173
5359.68714031
5356.79952917
5350.33810934
5346.00069317
5345.8463733
5345.95579641
5345.90829405
5345.84115089
5345.99264117
5350.26570926
5356.79478993
5359.69200871
5362.07560654
5363.078843