/*--------------------------------*- C++ -*----------------------------------*\
| =========                 |                                                 |
| \\      /  F ield         | OpenFOAM: The Open Source CFD Toolbox           |
|  \\    /   O peration     | Version:  3.0.1                                 |
|   \\  /    A nd           | Web:      www.OpenFOAM.org                      |
|    \\/     M anipulation  |                                                 |
\*---------------------------------------------------------------------------*/
FoamFile
{
    version     2.0;
    format      ascii;
    class       volVectorField;
    location    "0.2";
    object      U;
}
// * * * * * * * * * * * * * * * * * * * * * * * * * * * * * * * * * * * * * //

dimensions      [0 1 -1 0 0 0 0];

internalField   nonuniform List<vector> 
400
(
(0.000112221 -0.000111597 0)
(-0.000161321 0.000173 0)
(-0.0012661 0.00044821 0)
(-0.00288926 0.000604521 0)
(-0.00476388 0.000663292 0)
(-0.00668225 0.00065467 0)
(-0.00848852 0.000598691 0)
(-0.0100621 0.000505125 0)
(-0.0112995 0.00037655 0)
(-0.0121038 0.000212984 0)
(-0.012385 1.66671e-05 0)
(-0.0120709 -0.000204024 0)
(-0.0111278 -0.000430592 0)
(-0.00958538 -0.000634153 0)
(-0.00755984 -0.000777258 0)
(-0.00526643 -0.000820047 0)
(-0.00301003 -0.000730332 0)
(-0.00114484 -0.000495494 0)
(-1.06941e-05 -0.000144448 0)
(0.000167157 0.000154909 0)
(-0.000171562 0.000153371 0)
(-0.00152117 0.00149597 0)
(-0.00453692 0.00266159 0)
(-0.00856722 0.00335285 0)
(-0.0130775 0.00361527 0)
(-0.0176454 0.00354298 0)
(-0.0219197 0.00321186 0)
(-0.0256102 0.00266793 0)
(-0.0284681 0.00193379 0)
(-0.0302721 0.00102452 0)
(-0.0308319 -3.36895e-05 0)
(-0.0300095 -0.00118653 0)
(-0.0277573 -0.00233902 0)
(-0.0241656 -0.00335339 0)
(-0.0195014 -0.00406053 0)
(-0.0142268 -0.00428942 0)
(-0.00896945 -0.00391368 0)
(-0.004432 -0.00290655 0)
(-0.00129117 -0.00141467 0)
(-7.52827e-05 1.75823e-05 0)
(-0.000484779 0.00129317 0)
(-0.00290037 0.00456914 0)
(-0.00762489 0.00716019 0)
(-0.013636 0.00869699 0)
(-0.0201998 0.00925765 0)
(-0.0267685 0.00901555 0)
(-0.0328747 0.00812642 0)
(-0.0381223 0.00669659 0)
(-0.0421698 0.00479054 0)
(-0.0447153 0.00246127 0)
(-0.0455017 -0.000211645 0)
(-0.0443437 -0.00308705 0)
(-0.0411763 -0.00593275 0)
(-0.036115 -0.0084252 0)
(-0.0295094 -0.0101756 0)
(-0.0219712 -0.0107983 0)
(-0.0143375 -0.0100174 0)
(-0.00755433 -0.0077931 0)
(-0.00258624 -0.00445151 0)
(-0.00033874 -0.00092447 0)
(-0.000730469 0.00313142 0)
(-0.00406793 0.00905379 0)
(-0.0103154 0.0134092 0)
(-0.018054 0.0159207 0)
(-0.0263603 0.0167694 0)
(-0.0345964 0.0162407 0)
(-0.0422239 0.0145874 0)
(-0.0487855 0.0119867 0)
(-0.0538822 0.00855232 0)
(-0.057154 0.0043819 0)
(-0.0582845 -0.000382334 0)
(-0.057026 -0.00549866 0)
(-0.0532595 -0.010569 0)
(-0.047075 -0.0150416 0)
(-0.0388445 -0.0182481 0)
(-0.0292784 -0.0195169 0)
(-0.0194035 -0.0183567 0)
(-0.0104339 -0.0146718 0)
(-0.00368847 -0.00895498 0)
(-0.000522516 -0.00249579 0)
(-0.00092659 0.0055445 0)
(-0.00506822 0.0147514 0)
(-0.0126961 0.021163 0)
(-0.022009 0.0247352 0)
(-0.031901 0.0258412 0)
(-0.0416613 0.0249262 0)
(-0.050709 0.0223619 0)
(-0.058555 0.0184018 0)
(-0.0647653 0.0132047 0)
(-0.0689307 0.00690167 0)
(-0.0706671 -0.000315401 0)
(-0.0696311 -0.00809829 0)
(-0.0655943 -0.0158897 0)
(-0.0585524 -0.0228756 0)
(-0.0488312 -0.0280402 0)
(-0.0371999 -0.030325 0)
(-0.0248917 -0.0289075 0)
(-0.013477 -0.0235454 0)
(-0.00476404 -0.01487 0)
(-0.000663418 -0.00458612 0)
(-0.00109927 0.0084594 0)
(-0.00598477 0.0215652 0)
(-0.0149207 0.0303349 0)
(-0.025743 0.0350677 0)
(-0.0371725 0.0364213 0)
(-0.0484401 0.0350581 0)
(-0.0589457 0.0314956 0)
(-0.0681923 0.0260675 0)
(-0.075731 0.0189639 0)
(-0.0811088 0.0103239 0)
(-0.0838459 0.000356928 0)
(-0.0834719 -0.0105229 0)
(-0.079588 -0.0216029 0)
(-0.0719896 -0.0317822 0)
(-0.0608606 -0.0396129 0)
(-0.0469654 -0.0434962 0)
(-0.0317574 -0.042084 0)
(-0.0172882 -0.0348213 0)
(-0.00607768 -0.0224375 0)
(-0.000817722 -0.00721967 0)
(-0.00126899 0.0118499 0)
(-0.00689378 0.0294617 0)
(-0.0171374 0.0409012 0)
(-0.0294759 0.0469117 0)
(-0.0424647 0.0485309 0)
(-0.0552943 0.0467039 0)
(-0.0673696 0.0421253 0)
(-0.0782134 0.0352107 0)
(-0.0873825 0.026159 0)
(-0.0943901 0.015075 0)
(-0.0986617 0.00212852 0)
(-0.0995485 -0.0122727 0)
(-0.0963918 -0.027294 0)
(-0.0886786 -0.0415442 0)
(-0.0763067 -0.053049 0)
(-0.0599104 -0.0594574 0)
(-0.0411274 -0.0585859 0)
(-0.0226212 -0.0492673 0)
(-0.00795869 -0.0322227 0)
(-0.00104938 -0.0105769 0)
(-0.00145096 0.0157295 0)
(-0.00785604 0.038469 0)
(-0.0194644 0.0528953 0)
(-0.0333699 0.0603062 0)
(-0.0479656 0.0622282 0)
(-0.0624226 0.0599643 0)
(-0.0761822 0.0544227 0)
(-0.0888213 0.0461022 0)
(-0.0999359 0.0351804 0)
(-0.10903 0.0216683 0)
(-0.115441 0.00561029 0)
(-0.118316 -0.0126802 0)
(-0.116662 -0.0323509 0)
(-0.109522 -0.0517585 0)
(-0.0963123 -0.0683244 0)
(-0.077323 -0.0786859 0)
(-0.0542299 -0.0793688 0)
(-0.030377 -0.0680658 0)
(-0.0108225 -0.0451988 0)
(-0.00144011 -0.0150298 0)
(-0.00165745 0.0201422 0)
(-0.0089197 0.0486645 0)
(-0.021987 0.0663888 0)
(-0.0375191 0.075305 0)
(-0.0537408 0.0775617 0)
(-0.0698293 0.0749105 0)
(-0.0852996 0.0685182 0)
(-0.0998263 0.058971 0)
(-0.113092 0.0463926 0)
(-0.124638 0.0306315 0)
(-0.133747 0.0115001 0)
(-0.139377 -0.0109243 0)
(-0.140163 -0.0359244 0)
(-0.134581 -0.0617222 0)
(-0.121347 -0.0851264 0)
(-0.100091 -0.101507 0)
(-0.0721959 -0.105503 0)
(-0.0415634 -0.0927977 0)
(-0.0152042 -0.0628254 0)
(-0.00210831 -0.0211957 0)
(-0.00190272 0.0251574 0)
(-0.0101332 0.0601615 0)
(-0.0247737 0.0814621 0)
(-0.041959 0.091927 0)
(-0.0597316 0.0944994 0)
(-0.0773037 0.0914925 0)
(-0.0943065 0.0843871 0)
(-0.110562 0.0738674 0)
(-0.125898 0.059976 0)
(-0.139962 0.0423307 0)
(-0.152062 0.020395 0)
(-0.161037 -0.00616308 0)
(-0.165192 -0.0369765 0)
(-0.162396 -0.0703562 0)
(-0.150484 -0.102626 0)
(-0.128043 -0.127747 0)
(-0.09561 -0.137821 0)
(-0.0571313 -0.125257 0)
(-0.0217885 -0.0870808 0)
(-0.00324137 -0.030021 0)
(-0.00221228 0.0308774 0)
(-0.0115706 0.0731054 0)
(-0.0279081 0.0981742 0)
(-0.0466938 0.110097 0)
(-0.0657673 0.112842 0)
(-0.0844126 0.109423 0)
(-0.102424 0.101702 0)
(-0.11982 0.0904796 0)
(-0.136635 0.0757029 0)
(-0.152711 0.0567099 0)
(-0.167502 0.0325142 0)
(-0.179883 0.00220027 0)
(-0.187994 -0.0344774 0)
(-0.189224 -0.0762462 0)
(-0.180487 -0.119281 0)
(-0.159008 -0.156263 0)
(-0.123724 -0.176296 0)
(-0.0775705 -0.166964 0)
(-0.0313986 -0.120368 0)
(-0.00514712 -0.0429006 0)
(-0.00264059 0.0374662 0)
(-0.0133754 0.0876894 0)
(-0.031541 0.116535 0)
(-0.0517351 0.129574 0)
(-0.0715826 0.132117 0)
(-0.0904997 0.128046 0)
(-0.108497 0.119667 0)
(-0.125835 0.107923 0)
(-0.142806 0.0926765 0)
(-0.159535 0.0729736 0)
(-0.175778 0.0473285 0)
(-0.190682 0.014117 0)
(-0.202533 -0.027766 0)
(-0.208586 -0.0778617 0)
(-0.205094 -0.13277 0)
(-0.187827 -0.184469 0)
(-0.153389 -0.219157 0)
(-0.102135 -0.218223 0)
(-0.044836 -0.165125 0)
(-0.00831273 -0.0618283 0)
(-0.0033061 0.0452187 0)
(-0.0158366 0.104193 0)
(-0.0359635 0.136466 0)
(-0.0571385 0.149857 0)
(-0.0768146 0.151457 0)
(-0.0946624 0.14619 0)
(-0.110986 0.136857 0)
(-0.126327 0.124566 0)
(-0.141274 0.10912 0)
(-0.156306 0.0893231 0)
(-0.171625 0.0632292 0)
(-0.18692 0.0284952 0)
(-0.20104 -0.016986 0)
(-0.211689 -0.0739693 0)
(-0.21508 -0.140215 0)
(-0.2059 -0.208101 0)
(-0.178065 -0.261972 0)
(-0.127689 -0.276679 0)
(-0.0623343 -0.222828 0)
(-0.0133975 -0.0894694 0)
(-0.00446171 0.0547075 0)
(-0.0195184 0.123047 0)
(-0.0416875 0.157723 0)
(-0.0629796 0.170028 0)
(-0.0808878 0.169428 0)
(-0.0955971 0.162029 0)
(-0.107843 0.151122 0)
(-0.1185 0.137965 0)
(-0.128471 0.122344 0)
(-0.138613 0.102917 0)
(-0.149656 0.0774264 0)
(-0.162036 0.0429689 0)
(-0.175569 -0.00350739 0)
(-0.189084 -0.0642547 0)
(-0.199672 -0.138861 0)
(-0.201939 -0.221624 0)
(-0.187595 -0.297263 0)
(-0.147552 -0.335784 0)
(-0.0823529 -0.292069 0)
(-0.0209684 -0.128821 0)
(-0.00662936 0.0670742 0)
(-0.0254593 0.144888 0)
(-0.0494514 0.179676 0)
(-0.0690794 0.188456 0)
(-0.0825222 0.183777 0)
(-0.0910032 0.172931 0)
(-0.0959276 0.159564 0)
(-0.0985857 0.144995 0)
(-0.100197 0.129001 0)
(-0.101954 0.110204 0)
(-0.105061 0.0862556 0)
(-0.110714 0.0539917 0)
(-0.119944 0.00973243 0)
(-0.133131 -0.0500655 0)
(-0.149191 -0.127298 0)
(-0.164242 -0.219686 0)
(-0.169455 -0.315483 0)
(-0.151152 -0.384211 0)
(-0.0998268 -0.366114 0)
(-0.0306709 -0.182164 0)
(-0.0108059 0.0846272 0)
(-0.0353453 0.170472 0)
(-0.0597579 0.200773 0)
(-0.0738326 0.202214 0)
(-0.0781077 0.191004 0)
(-0.0757562 0.175258 0)
(-0.0691685 0.158596 0)
(-0.0601279 0.142174 0)
(-0.0501216 0.125668 0)
(-0.0405391 0.107723 0)
(-0.0328612 0.0861111 0)
(-0.028802 0.0577773 0)
(-0.0303463 0.0189536 0)
(-0.0394888 -0.0345394 0)
(-0.0575772 -0.106658 0)
(-0.0837358 -0.199303 0)
(-0.111384 -0.307535 0)
(-0.125158 -0.407246 0)
(-0.104965 -0.43148 0)
(-0.0396585 -0.24977 0)
(-0.0185418 0.112222 0)
(-0.0508843 0.199725 0)
(-0.0701587 0.216719 0)
(-0.0699338 0.205487 0)
(-0.056853 0.185309 0)
(-0.0370812 0.163861 0)
(-0.0140409 0.143927 0)
(0.0101706 0.126036 0)
(0.0340607 0.109555 0)
(0.0563518 0.0931205 0)
(0.0756459 0.0747564 0)
(0.0901455 0.0518545 0)
(0.0974319 0.0211406 0)
(0.0944469 -0.021367 0)
(0.077746 -0.0803861 0)
(0.0445113 -0.161227 0)
(-0.00383632 -0.267515 0)
(-0.0556658 -0.389412 0)
(-0.0840998 -0.467779 0)
(-0.0407198 -0.327094 0)
(-0.0304056 0.15966 0)
(-0.0682581 0.226848 0)
(-0.0629493 0.213754 0)
(-0.0303478 0.184965 0)
(0.0119315 0.156325 0)
(0.05603 0.131354 0)
(0.0989402 0.11067 0)
(0.139262 0.0936871 0)
(0.176244 0.0792789 0)
(0.209291 0.0660596 0)
(0.237569 0.0524111 0)
(0.259678 0.0364022 0)
(0.27331 0.0156894 0)
(0.275181 -0.0126806 0)
(0.260775 -0.0525078 0)
(0.224378 -0.109901 0)
(0.161107 -0.195062 0)
(0.0720166 -0.317696 0)
(-0.0198672 -0.446325 0)
(-0.0190348 -0.390142 0)
(-0.0271396 0.229317 0)
(-0.039666 0.226748 0)
(0.0392676 0.166772 0)
(0.125883 0.125923 0)
(0.201975 0.0974025 0)
(0.267383 0.0761455 0)
(0.323702 0.0603119 0)
(0.37211 0.0484835 0)
(0.413576 0.0392994 0)
(0.448759 0.0315519 0)
(0.477755 0.0241278 0)
(0.499897 0.0158951 0)
(0.513378 0.00560806 0)
(0.515536 -0.00801727 0)
(0.501902 -0.0271441 0)
(0.465699 -0.0555279 0)
(0.39741 -0.102581 0)
(0.283643 -0.191344 0)
(0.125294 -0.331073 0)
(0.0649453 -0.367992 0)
(0.262304 0.138276 0)
(0.326542 0.119576 0)
(0.45895 0.0784023 0)
(0.563841 0.0522804 0)
(0.634647 0.0360837 0)
(0.685156 0.0253173 0)
(0.723523 0.0180522 0)
(0.75346 0.0131481 0)
(0.7771 0.00974546 0)
(0.795778 0.00720211 0)
(0.810101 0.00502562 0)
(0.819977 0.00280826 0)
(0.824628 0.000140109 0)
(0.822451 -0.0031389 0)
(0.810591 -0.00770235 0)
(0.784766 -0.014525 0)
(0.736659 -0.0260648 0)
(0.647991 -0.0511471 0)
(0.474826 -0.111159 0)
(0.341506 -0.155817 0)
)
;

boundaryField
{
    movingWall
    {
        type            fixedValue;
        value           uniform (1 0 0);
    }
    fixedWalls
    {
        type            fixedValue;
        value           uniform (0 0 0);
    }
    frontAndBack
    {
        type            empty;
    }
}


// ************************************************************************* //
