/*--------------------------------*- C++ -*----------------------------------*\
| =========                 |                                                 |
| \\      /  F ield         | OpenFOAM: The Open Source CFD Toolbox           |
|  \\    /   O peration     | Version:  3.0.1                                 |
|   \\  /    A nd           | Web:      www.OpenFOAM.org                      |
|    \\/     M anipulation  |                                                 |
\*---------------------------------------------------------------------------*/
FoamFile
{
    version     2.0;
    format      ascii;
    class       volScalarField;
    location    "9.1";
    object      rAU;
}
// * * * * * * * * * * * * * * * * * * * * * * * * * * * * * * * * * * * * * //

dimensions      [-1 3 1 0 0 0 0];

internalField   nonuniform List<scalar> 
7968
(
1.05285909969e-05
1.05242744659e-05
1.0528149001e-05
1.0533651282e-05
1.05035120723e-05
1.04878187678e-05
1.05098447775e-05
1.05189262303e-05
1.05228879287e-05
1.05243209997e-05
1.05243238401e-05
1.05228990985e-05
1.05189531236e-05
1.05098926698e-05
1.0487869368e-05
1.05035238675e-05
1.05336423894e-05
1.05281512929e-05
1.05242768864e-05
1.05285900868e-05
1.05242818196e-05
1.05135759599e-05
1.05133372845e-05
1.05175208923e-05
1.04970870706e-05
1.04830407826e-05
1.04971384311e-05
1.05066402228e-05
1.05116969696e-05
1.05136134149e-05
1.05136177925e-05
1.05117124905e-05
1.05066735299e-05
1.0497183007e-05
1.04830301809e-05
1.0497042402e-05
1.05175126284e-05
1.05133403476e-05
1.05135768736e-05
1.05242772358e-05
1.05281549906e-05
1.05133359047e-05
1.05110863655e-05
1.05143655788e-05
1.05010560285e-05
1.0488276997e-05
1.04965019591e-05
1.05068735044e-05
1.05137565478e-05
1.0517302379e-05
1.0517311015e-05
1.05137822117e-05
1.05069118786e-05
1.04965437833e-05
1.04882254895e-05
1.05009807858e-05
1.05143634092e-05
1.0511088391e-05
1.05133332076e-05
1.05281460373e-05
1.05336486042e-05
1.05175127521e-05
1.05143615857e-05
1.05156902943e-05
1.05051115812e-05
1.04924085559e-05
1.0497314353e-05
1.0507237364e-05
1.0515135023e-05
1.0518899042e-05
1.05189064073e-05
1.05151581713e-05
1.05072748749e-05
1.04973551548e-05
1.04923468272e-05
1.05050418764e-05
1.05156854245e-05
1.05143618153e-05
1.05175045818e-05
1.05336385794e-05
1.05035196369e-05
1.04970594991e-05
1.05010280258e-05
1.0505092828e-05
1.04931417354e-05
1.04738238956e-05
1.04745648542e-05
1.04831240174e-05
1.04923211087e-05
1.04957223607e-05
1.04957323957e-05
1.04923514917e-05
1.04831787314e-05
1.04746020102e-05
1.04737549311e-05
1.04930411598e-05
1.05050948336e-05
1.05010342851e-05
1.04970727425e-05
1.05035157494e-05
1.04878490062e-05
1.04830354811e-05
1.04882697618e-05
1.04924070204e-05
1.04738358889e-05
1.04538405095e-05
1.04561369147e-05
1.04634035065e-05
1.04719229443e-05
1.04767504818e-05
1.04767677136e-05
1.04719867132e-05
1.04634519433e-05
1.04561881073e-05
1.04538020812e-05
1.04737532345e-05
1.04924046151e-05
1.04882802344e-05
1.04830557722e-05
1.04878453536e-05
1.05098753856e-05
1.04971660012e-05
1.04965374511e-05
1.04973513651e-05
1.04745967751e-05
1.04561492173e-05
1.04589747761e-05
1.04657820231e-05
1.04797766647e-05
1.04841702132e-05
1.04841847211e-05
1.04798308363e-05
1.04658228504e-05
1.04590181643e-05
1.04561291234e-05
1.04745395043e-05
1.04973483496e-05
1.04965445059e-05
1.0497168245e-05
1.05098682273e-05
1.05189418378e-05
1.05066573909e-05
1.05069021754e-05
1.05072732409e-05
1.04831611667e-05
1.04633998757e-05
1.04657785895e-05
1.04816998343e-05
1.0490965836e-05
1.04944883257e-05
1.04944987348e-05
1.04910011219e-05
1.04817799899e-05
1.04658145661e-05
1.04633884077e-05
1.04831336146e-05
1.05072672722e-05
1.05069116932e-05
1.05066606256e-05
1.05189384996e-05
1.05228915031e-05
1.05117030395e-05
1.05137711628e-05
1.05151520758e-05
1.04923156618e-05
1.04718571316e-05
1.04797230551e-05
1.04909426934e-05
1.04984581941e-05
1.05015004848e-05
1.05015073295e-05
1.04984816729e-05
1.04909852661e-05
1.0479777103e-05
1.04718737701e-05
1.04922906126e-05
1.05151493523e-05
1.05137837768e-05
1.0511707815e-05
1.05228921326e-05
1.05243206966e-05
1.05136138232e-05
1.05173080115e-05
1.05189067789e-05
1.04957048291e-05
1.0476688859e-05
1.04841206212e-05
1.04944587846e-05
1.05014889493e-05
1.05044318742e-05
1.05044365245e-05
1.05015044274e-05
1.04944863817e-05
1.04841489872e-05
1.04766801963e-05
1.04956732246e-05
1.05189003067e-05
1.05173190117e-05
1.05136185246e-05
1.05243219668e-05
1.0524319842e-05
1.0513614441e-05
1.05173136681e-05
1.05189109072e-05
1.04957170878e-05
1.04767196133e-05
1.0484148579e-05
1.04944780946e-05
1.05014991294e-05
1.05044370582e-05
1.05044406747e-05
1.0501511017e-05
1.04944985522e-05
1.04841660042e-05
1.0476698047e-05
1.04956788697e-05
1.05188996816e-05
1.05173186655e-05
1.05136155066e-05
1.05243187936e-05
1.05228858479e-05
1.0511701799e-05
1.05137814074e-05
1.05151595537e-05
1.04923451093e-05
1.04719616955e-05
1.04798181834e-05
1.04910018176e-05
1.04984909963e-05
1.05015189846e-05
1.05015228595e-05
1.04985039436e-05
1.0491024319e-05
1.04798393965e-05
1.04719430995e-05
1.04923119284e-05
1.05151522763e-05
1.05137862078e-05
1.05117027757e-05
1.05228856105e-05
1.05189312102e-05
1.05066580683e-05
1.0506911476e-05
1.05072769564e-05
1.04831902431e-05
1.04634549987e-05
1.04658399744e-05
1.04818123246e-05
1.04910180291e-05
1.0494518741e-05
1.04945241486e-05
1.04910373068e-05
1.04818572198e-05
1.0465866556e-05
1.04634374296e-05
1.04831927373e-05
1.05072800056e-05
1.05069237127e-05
1.05066634706e-05
1.05189358386e-05
1.05098667135e-05
1.04971728608e-05
1.04965491773e-05
1.04973624193e-05
1.0474604854e-05
1.0456198956e-05
1.04590422609e-05
1.04658385989e-05
1.04798256976e-05
1.04841930625e-05
1.04842006949e-05
1.04798589227e-05
1.04658688746e-05
1.04590754231e-05
1.04561902537e-05
1.04745737205e-05
1.04973708565e-05
1.04965692157e-05
1.04971862027e-05
1.05098799193e-05
1.04878499772e-05
1.04830457938e-05
1.04882519079e-05
1.04923701692e-05
1.04737682808e-05
1.04538128062e-05
1.04561493843e-05
1.04634163221e-05
1.0471905572e-05
1.04767162946e-05
1.04767260677e-05
1.04719514224e-05
1.04634476655e-05
1.04561982874e-05
1.04538160249e-05
1.04737466862e-05
1.04923966423e-05
1.04882870381e-05
1.04830618497e-05
1.0487876625e-05
1.05035253883e-05
1.04970567375e-05
1.05009977513e-05
1.05050554085e-05
1.04930521704e-05
1.04737569394e-05
1.04745374789e-05
1.04830713607e-05
1.04922681522e-05
1.04956528139e-05
1.04956602972e-05
1.04922962202e-05
1.04831624666e-05
1.04745797466e-05
1.04737432094e-05
1.04930157721e-05
1.05050774857e-05
1.05010198262e-05
1.04970631233e-05
1.05035438728e-05
1.05336494254e-05
1.0517508667e-05
1.05143575746e-05
1.051568424e-05
1.05051009804e-05
1.04924052872e-05
1.04973321174e-05
1.0507234876e-05
1.05151083287e-05
1.05188542963e-05
1.05188591612e-05
1.05151277563e-05
1.05072705697e-05
1.04973652901e-05
1.04923693428e-05
1.05050510299e-05
1.05156786648e-05
1.05143546565e-05
1.05175060413e-05
1.05336489338e-05
1.05281548366e-05
1.05133388836e-05
1.051108574e-05
1.05143600287e-05
1.05010499244e-05
1.04882923461e-05
1.04965334566e-05
1.05068953159e-05
1.05137640409e-05
1.05172937824e-05
1.05172968055e-05
1.05137766608e-05
1.05069226415e-05
1.04965662727e-05
1.0488257556e-05
1.05009933617e-05
1.05143529664e-05
1.05110859165e-05
1.05133387144e-05
1.05281547661e-05
1.05242880599e-05
1.05135767352e-05
1.05133322115e-05
1.05175059589e-05
1.0497098843e-05
1.04830791136e-05
1.04971654015e-05
1.05066552227e-05
1.05117022685e-05
1.05136096452e-05
1.05136109843e-05
1.05117114942e-05
1.05066821259e-05
1.04972046615e-05
1.04830610658e-05
1.04970550732e-05
1.05175033374e-05
1.05133373309e-05
1.05135811234e-05
1.05242916569e-05
1.05286054409e-05
1.05242792003e-05
1.05281414416e-05
1.0533636339e-05
1.05035319395e-05
1.04878581091e-05
1.05098654087e-05
1.05189371519e-05
1.05228931974e-05
1.05243215078e-05
1.05243236231e-05
1.0522904419e-05
1.05189670271e-05
1.05099202005e-05
1.04879239494e-05
1.05035607043e-05
1.0533635093e-05
1.05281469659e-05
1.05242841848e-05
1.0528608554e-05
1.05162455482e-05
1.05110978302e-05
1.05146009039e-05
1.05172098973e-05
1.05140167167e-05
1.05111325821e-05
1.05118393317e-05
1.05147070663e-05
1.05169806464e-05
1.05175954613e-05
1.05175962412e-05
1.05169852591e-05
1.05147156545e-05
1.0511844794e-05
1.05111298128e-05
1.0514001558e-05
1.05171926729e-05
1.05145973548e-05
1.05110930565e-05
1.05162494227e-05
1.05110926678e-05
1.04798910985e-05
1.04622282547e-05
1.0459225052e-05
1.04582508904e-05
1.04592469758e-05
1.04637833858e-05
1.04699008462e-05
1.04748570621e-05
1.04773292085e-05
1.0477333564e-05
1.04748684602e-05
1.04699219619e-05
1.04638075189e-05
1.04592603968e-05
1.04582514191e-05
1.04592245233e-05
1.04622288054e-05
1.04798865408e-05
1.05110942541e-05
1.0514610587e-05
1.04622331529e-05
1.04273867664e-05
1.0415621111e-05
1.04128627482e-05
1.0416213758e-05
1.0423350192e-05
1.04325392562e-05
1.04398869452e-05
1.04445256776e-05
1.04445356546e-05
1.04399119328e-05
1.04325723808e-05
1.04233937747e-05
1.04162512665e-05
1.04128895412e-05
1.041562965e-05
1.04273878639e-05
1.04622273826e-05
1.05145973387e-05
1.05172024508e-05
1.04592342147e-05
1.04156291115e-05
1.03879862169e-05
1.03918413326e-05
1.03902069955e-05
1.03941114625e-05
1.04042124796e-05
1.04137141241e-05
1.04194841062e-05
1.04194986405e-05
1.04137504902e-05
1.04042584018e-05
1.03941531381e-05
1.03902258498e-05
1.03918730797e-05
1.03880093612e-05
1.04156220917e-05
1.04592247076e-05
1.05171956737e-05
1.05140078174e-05
1.04582646195e-05
1.04128798102e-05
1.03918501524e-05
1.03759110494e-05
1.03650597279e-05
1.03644505463e-05
1.0372838869e-05
1.03860760083e-05
1.03929070688e-05
1.03929267193e-05
1.03861264367e-05
1.03729087112e-05
1.03644923808e-05
1.03650794363e-05
1.03759066868e-05
1.03918719216e-05
1.04128788293e-05
1.04582600852e-05
1.05140077249e-05
1.05111337905e-05
1.04592656861e-05
1.0416241702e-05
1.03902345378e-05
1.03650705382e-05
1.03524677865e-05
1.03509368565e-05
1.03560477052e-05
1.03677918538e-05
1.03764789913e-05
1.03765073775e-05
1.03678788376e-05
1.03561065597e-05
1.03509893888e-05
1.03524992083e-05
1.03650733777e-05
1.03902352901e-05
1.04162488553e-05
1.04592685306e-05
1.05111348875e-05
1.05118474828e-05
1.04638013539e-05
1.04233823091e-05
1.03941466777e-05
1.03644604274e-05
1.03509328848e-05
1.0348973537e-05
1.035306762e-05
1.03691857344e-05
1.03769170933e-05
1.03769438658e-05
1.03692690556e-05
1.03531229265e-05
1.03490282672e-05
1.03509690419e-05
1.03644672106e-05
1.0394148811e-05
1.04233903967e-05
1.04638089312e-05
1.05118481045e-05
1.05147169791e-05
1.04699167275e-05
1.04325713474e-05
1.04042386334e-05
1.03728603438e-05
1.03560339078e-05
1.03530555053e-05
1.03678222632e-05
1.03801994494e-05
1.03862520747e-05
1.03862726463e-05
1.03802589835e-05
1.03679250094e-05
1.03531035799e-05
1.03560684314e-05
1.03728873241e-05
1.04042399297e-05
1.04325745955e-05
1.0469926451e-05
1.05147195014e-05
1.05169813564e-05
1.0474866121e-05
1.04399115608e-05
1.04137232416e-05
1.03860549406e-05
1.03677016488e-05
1.03691013869e-05
1.03801625141e-05
1.03899971038e-05
1.03953883415e-05
1.03954036817e-05
1.03900386438e-05
1.03802250782e-05
1.03691734221e-05
1.0367754302e-05
1.0386068916e-05
1.04137244475e-05
1.04399145657e-05
1.0474876784e-05
1.05169850765e-05
1.05175877139e-05
1.04773331498e-05
1.04445416862e-05
1.04194820798e-05
1.03928699097e-05
1.03763853495e-05
1.03768286324e-05
1.03862011622e-05
1.03953682028e-05
1.04006258341e-05
1.04006363408e-05
1.03953956159e-05
1.03862372004e-05
1.03768582747e-05
1.03763956477e-05
1.03928664664e-05
1.04194744739e-05
1.04445401535e-05
1.04773386539e-05
1.05175869502e-05
1.05175940872e-05
1.04773412639e-05
1.04445476097e-05
1.04194922295e-05
1.03928963078e-05
1.03764363151e-05
1.03768755958e-05
1.03862311197e-05
1.03953830999e-05
1.04006300044e-05
1.04006368523e-05
1.03953998231e-05
1.03862493236e-05
1.0376879367e-05
1.0376418345e-05
1.03928752992e-05
1.04194734157e-05
1.04445367986e-05
1.04773372985e-05
1.05175878024e-05
1.0516992214e-05
1.04748785885e-05
1.04399197257e-05
1.04137437242e-05
1.03861137929e-05
1.03678445786e-05
1.03692375465e-05
1.03802438354e-05
1.03900340327e-05
1.03953969611e-05
1.03954024735e-05
1.03900471308e-05
1.03802588e-05
1.03692417719e-05
1.03678302466e-05
1.03860947153e-05
1.04137222716e-05
1.04399061387e-05
1.04748731424e-05
1.05169881486e-05
1.05147221639e-05
1.04699265904e-05
1.04325748351e-05
1.04042542738e-05
1.03729205194e-05
1.03561084654e-05
1.03531286757e-05
1.03679455351e-05
1.03802441549e-05
1.03862514975e-05
1.0386257723e-05
1.03802624099e-05
1.03679803176e-05
1.03531327377e-05
1.03561042734e-05
1.03729453587e-05
1.04042390215e-05
1.04325655246e-05
1.04699234975e-05
1.05147217503e-05
1.05118450324e-05
1.04638085169e-05
1.04233912247e-05
1.03941539634e-05
1.03644928338e-05
1.03509978171e-05
1.03490417136e-05
1.03531167437e-05
1.03692029858e-05
1.0376875519e-05
1.03768849539e-05
1.03692387766e-05
1.03531275779e-05
1.03490511514e-05
1.03509977598e-05
1.03644812489e-05
1.03941503308e-05
1.04233897003e-05
1.04638077099e-05
1.0511843607e-05
1.05111249145e-05
1.04592636906e-05
1.04162495329e-05
1.03902279995e-05
1.0365079506e-05
1.0352504045e-05
1.03509769118e-05
1.03560694795e-05
1.03677437464e-05
1.03763804094e-05
1.03763920457e-05
1.03677925945e-05
1.03560865834e-05
1.03509886436e-05
1.03525068084e-05
1.03650708576e-05
1.03902266988e-05
1.04162539482e-05
1.04592667347e-05
1.05111228205e-05
1.05140008613e-05
1.04582597694e-05
1.04128894033e-05
1.03918706911e-05
1.0375899084e-05
1.03650604279e-05
1.03644511722e-05
1.03728003429e-05
1.03860124536e-05
1.03928063671e-05
1.03928122802e-05
1.03860351474e-05
1.03728753323e-05
1.03644566017e-05
1.03650560788e-05
1.0375882105e-05
1.03918752557e-05
1.04128896481e-05
1.04582632527e-05
1.05140016767e-05
1.05172063336e-05
1.04592395814e-05
1.04156395723e-05
1.03880171573e-05
1.03918681004e-05
1.03902075105e-05
1.03941031293e-05
1.04041803249e-05
1.04136475832e-05
1.04193857697e-05
1.04193864202e-05
1.0413650653e-05
1.04041847524e-05
1.0394106162e-05
1.03901974422e-05
1.03918682994e-05
1.03880193465e-05
1.04156342983e-05
1.04592416006e-05
1.05172087128e-05
1.0514630556e-05
1.04622526862e-05
1.04274083968e-05
1.04156346699e-05
1.04128832388e-05
1.0416233512e-05
1.04233553752e-05
1.04325180091e-05
1.04398406287e-05
1.04444528763e-05
1.04444512854e-05
1.04398369561e-05
1.04325166978e-05
1.04233587338e-05
1.04162346254e-05
1.04128837552e-05
1.04156309583e-05
1.04274068547e-05
1.0462257566e-05
1.05146370289e-05
1.05111424348e-05
1.04799162638e-05
1.04622477961e-05
1.04592305351e-05
1.04582566582e-05
1.04592609336e-05
1.04637956163e-05
1.04699016437e-05
1.04748428696e-05
1.04773008674e-05
1.04773001135e-05
1.04748419486e-05
1.04699045566e-05
1.04637997686e-05
1.04592590829e-05
1.0458252963e-05
1.0459230325e-05
1.04622496424e-05
1.04799251568e-05
1.05111506889e-05
1.05163249333e-05
1.05111565307e-05
1.05146169742e-05
1.05171997718e-05
1.05140104423e-05
1.05111398462e-05
1.05118512169e-05
1.05147175084e-05
1.05169866373e-05
1.05175949231e-05
1.05175953792e-05
1.0516990351e-05
1.05147250513e-05
1.05118558613e-05
1.05111374958e-05
1.0514002485e-05
1.05171930024e-05
1.05146179899e-05
1.05111577109e-05
1.05163274385e-05
1.04860418491e-05
1.04749492535e-05
1.04807555439e-05
1.04855001017e-05
1.04897764988e-05
1.04898916274e-05
1.04816928479e-05
1.04759982744e-05
1.0474007905e-05
1.04730390331e-05
1.04730347443e-05
1.04740037956e-05
1.0476002358e-05
1.04817760482e-05
1.04899576636e-05
1.04898335291e-05
1.04855624538e-05
1.04807639309e-05
1.04749758931e-05
1.04860627308e-05
1.04749670677e-05
1.0419965921e-05
1.0405186057e-05
1.0406497488e-05
1.04140630576e-05
1.04196868724e-05
1.04189243977e-05
1.04205566212e-05
1.0424261921e-05
1.04259294011e-05
1.04259313692e-05
1.04242735718e-05
1.04205898231e-05
1.04190450242e-05
1.04197772162e-05
1.04141408632e-05
1.04065821532e-05
1.04052060958e-05
1.04199902221e-05
1.04749757911e-05
1.04807550484e-05
1.04051787765e-05
1.03777923453e-05
1.03645648847e-05
1.03582606432e-05
1.03721327287e-05
1.03896353011e-05
1.04033288104e-05
1.04125520156e-05
1.04173122846e-05
1.04173241778e-05
1.04125810306e-05
1.0403373831e-05
1.03897372859e-05
1.03722383163e-05
1.035832874e-05
1.03645729538e-05
1.03778149519e-05
1.04052073422e-05
1.04807628474e-05
1.04855711416e-05
1.04065881001e-05
1.03645702659e-05
1.03333920278e-05
1.03407232599e-05
1.03387884946e-05
1.03447508118e-05
1.03547973859e-05
1.03645810204e-05
1.03707580677e-05
1.03707716512e-05
1.03646133655e-05
1.03548400167e-05
1.03447923567e-05
1.03388263646e-05
1.03407730726e-05
1.03341389002e-05
1.03645730302e-05
1.04065338969e-05
1.04855165633e-05
1.04897776659e-05
1.04140866054e-05
1.03582437178e-05
1.03407360478e-05
1.03129883363e-05
1.02997002006e-05
1.02998187026e-05
1.03074273301e-05
1.03171768715e-05
1.03238376749e-05
1.03238569139e-05
1.03172234784e-05
1.03074837108e-05
1.02998709027e-05
1.02997429012e-05
1.03130142163e-05
1.03407791412e-05
1.03582124354e-05
1.04141001117e-05
1.04897918772e-05
1.0489827597e-05
1.04196407978e-05
1.03721700263e-05
1.03388195097e-05
1.02997123271e-05
1.02796796449e-05
1.0275699703e-05
1.0281068419e-05
1.02895361905e-05
1.02959679374e-05
1.02959918399e-05
1.02895952947e-05
1.0281135174e-05
1.02757591437e-05
1.0279726153e-05
1.02997404596e-05
1.03388377316e-05
1.03722165562e-05
1.0419717071e-05
1.04898867063e-05
1.04814686208e-05
1.04187075032e-05
1.03896456861e-05
1.03447834997e-05
1.02998300077e-05
1.02756950581e-05
1.02696073188e-05
1.02737630304e-05
1.02819932651e-05
1.02881816888e-05
1.02882071557e-05
1.02820582216e-05
1.0273832506e-05
1.02696656168e-05
1.02757388392e-05
1.02998574494e-05
1.03447998758e-05
1.03897077872e-05
1.04188664562e-05
1.04815921592e-05
1.04759418895e-05
1.04205030354e-05
1.04033318799e-05
1.03548132087e-05
1.03074262665e-05
1.02810468322e-05
1.02737440706e-05
1.02784031143e-05
1.02867510682e-05
1.0292736962e-05
1.02927604846e-05
1.02868132609e-05
1.02784765837e-05
1.02737963969e-05
1.02810848114e-05
1.03074530079e-05
1.03548329199e-05
1.04033740041e-05
1.04205602762e-05
1.04759594961e-05
1.04739521449e-05
1.04242027162e-05
1.04125374493e-05
1.0364581992e-05
1.03171550884e-05
1.02894881903e-05
1.02819412248e-05
1.028672e-05
1.02949919894e-05
1.03009372258e-05
1.03009566441e-05
1.02950438643e-05
1.02867817155e-05
1.02819879187e-05
1.02895190206e-05
1.03171783996e-05
1.03646003301e-05
1.0412579386e-05
1.04242418771e-05
1.04739572015e-05
1.04729813295e-05
1.04258789203e-05
1.0417277622e-05
1.03707478819e-05
1.03238026403e-05
1.02959055601e-05
1.0288114274e-05
1.02926869974e-05
1.03009132721e-05
1.03068774904e-05
1.03068911881e-05
1.03009497622e-05
1.02927278103e-05
1.02881380743e-05
1.02959170296e-05
1.03238144659e-05
1.03707608485e-05
1.0417312471e-05
1.04258943645e-05
1.04729793718e-05
1.04729947745e-05
1.04259039945e-05
1.04172978098e-05
1.03707549027e-05
1.03238200119e-05
1.02959375567e-05
1.02881505245e-05
1.02927157165e-05
1.03009280965e-05
1.03068798236e-05
1.03068884587e-05
1.03009506208e-05
1.0292735011e-05
1.02881495949e-05
1.02959266527e-05
1.03238174103e-05
1.03707590708e-05
1.04173137897e-05
1.04258955398e-05
1.04729785667e-05
1.0473988267e-05
1.04242707884e-05
1.04125773752e-05
1.03645951311e-05
1.03171935032e-05
1.02895622271e-05
1.02820273857e-05
1.02867885481e-05
1.02950260304e-05
1.03009392937e-05
1.03009451911e-05
1.02950408465e-05
1.02867966831e-05
1.02820142222e-05
1.02895412044e-05
1.03171845527e-05
1.03645946584e-05
1.04125803752e-05
1.0424247857e-05
1.04739593252e-05
1.0475998359e-05
1.04206011386e-05
1.04033729661e-05
1.03548239009e-05
1.03074635655e-05
1.0281122181e-05
1.02738268192e-05
1.02784730301e-05
1.02867761798e-05
1.02927178162e-05
1.02927223996e-05
1.0286788664e-05
1.02784786459e-05
1.02738107608e-05
1.02811021153e-05
1.03074588032e-05
1.03548261914e-05
1.04033779284e-05
1.04205756466e-05
1.04759666748e-05
1.04817367422e-05
1.04190171589e-05
1.03897324517e-05
1.0344781547e-05
1.02998558763e-05
1.0275753656e-05
1.02696682044e-05
1.02737960876e-05
1.02819798301e-05
1.02881189406e-05
1.02881236921e-05
1.02819924549e-05
1.02737988215e-05
1.02696580279e-05
1.0275742729e-05
1.02998562268e-05
1.03447935058e-05
1.03897452241e-05
1.0418917162e-05
1.0481627413e-05
1.04899511183e-05
1.04197859299e-05
1.03722439858e-05
1.03388194221e-05
1.02997273026e-05
1.02797116339e-05
1.02757257193e-05
1.02810635873e-05
1.02894807254e-05
1.02958642551e-05
1.02958677608e-05
1.02894897251e-05
1.02810663615e-05
1.02757222427e-05
1.02797094322e-05
1.02997299763e-05
1.03388338319e-05
1.03722693946e-05
1.04197673751e-05
1.0489918428e-05
1.0489827504e-05
1.04141524904e-05
1.0358319017e-05
1.03407720007e-05
1.03129954752e-05
1.02997074513e-05
1.02998108025e-05
1.03073865415e-05
1.03170913257e-05
1.03237112156e-05
1.03237112034e-05
1.03170909056e-05
1.03073845684e-05
1.02998043446e-05
1.02997024895e-05
1.0312991346e-05
1.03407865523e-05
1.0358283047e-05
1.04141706234e-05
1.04898320572e-05
1.04855754985e-05
1.04066121654e-05
1.03645997444e-05
1.03340922965e-05
1.03407672851e-05
1.033879451e-05
1.03447301885e-05
1.03547410385e-05
1.03644848647e-05
1.03706278582e-05
1.03706242711e-05
1.03644742593e-05
1.03547284606e-05
1.03447166082e-05
1.03387832329e-05
1.03407733665e-05
1.03344219677e-05
1.03645909014e-05
1.0406649807e-05
1.04856063666e-05
1.04807771805e-05
1.04052289402e-05
1.03778374527e-05
1.03645844581e-05
1.03583029044e-05
1.03721982502e-05
1.03896743699e-05
1.04033094996e-05
1.04124968331e-05
1.04172296562e-05
1.04172263842e-05
1.04124880844e-05
1.04033033938e-05
1.03897010901e-05
1.03722324686e-05
1.03583575084e-05
1.0364596225e-05
1.03778418695e-05
1.04052394224e-05
1.04807889428e-05
1.04749758325e-05
1.04199968494e-05
1.04052275858e-05
1.04065100221e-05
1.04140966948e-05
1.04197318359e-05
1.04189505953e-05
1.04205740799e-05
1.04242550241e-05
1.04259078023e-05
1.04259076476e-05
1.04242572784e-05
1.04205872591e-05
1.04190750069e-05
1.04198367632e-05
1.04141928702e-05
1.04066252793e-05
1.04052454183e-05
1.04200180981e-05
1.04749956916e-05
1.04860485554e-05
1.04749570512e-05
1.04807650708e-05
1.04854834077e-05
1.04897897121e-05
1.04899165112e-05
1.04817008953e-05
1.04760070364e-05
1.04740101901e-05
1.04730335445e-05
1.04730338552e-05
1.0474014471e-05
1.04760173718e-05
1.04818103019e-05
1.0490009076e-05
1.04898727572e-05
1.04855937521e-05
1.0480788433e-05
1.04749774819e-05
1.04860716555e-05
1.0475835823e-05
1.04676364846e-05
1.04716126379e-05
1.04697554652e-05
1.04656473064e-05
1.04611721386e-05
1.045777771e-05
1.04541752017e-05
1.04511291422e-05
1.0450731192e-05
1.04507228787e-05
1.04511237715e-05
1.04541873181e-05
1.04577995637e-05
1.04611767748e-05
1.04656469142e-05
1.04697716158e-05
1.04716304528e-05
1.04676767527e-05
1.04758753849e-05
1.04676698588e-05
1.03960153438e-05
1.0378629223e-05
1.03730367196e-05
1.03755016217e-05
1.03825744692e-05
1.03905831815e-05
1.03965185177e-05
1.03999654377e-05
1.0401638978e-05
1.04016342481e-05
1.03999624328e-05
1.03965393501e-05
1.03906323334e-05
1.03826276547e-05
1.03755430268e-05
1.03730662072e-05
1.03786559654e-05
1.03960541107e-05
1.04676874328e-05
1.04716133698e-05
1.03786250183e-05
1.03496727655e-05
1.03378378115e-05
1.03384422956e-05
1.03515243117e-05
1.03701237224e-05
1.0382429454e-05
1.03886501929e-05
1.03921306515e-05
1.03921380746e-05
1.03886694062e-05
1.03824677552e-05
1.03702374236e-05
1.03516329943e-05
1.03385461903e-05
1.033782955e-05
1.03497000924e-05
1.03786698918e-05
1.04716419182e-05
1.04697427545e-05
1.03730372246e-05
1.03378704335e-05
1.03052285307e-05
1.02995741401e-05
1.03021051915e-05
1.03130079767e-05
1.03260160245e-05
1.03365884982e-05
1.03425310545e-05
1.0342551121e-05
1.03366430332e-05
1.03260960796e-05
1.03130988933e-05
1.03021954995e-05
1.02996650509e-05
1.03056562725e-05
1.03378551939e-05
1.0373083642e-05
1.04697783831e-05
1.04656057539e-05
1.03755077502e-05
1.03384204657e-05
1.02995884366e-05
1.02683934654e-05
1.02560320122e-05
1.0257889471e-05
1.02666687815e-05
1.0276167755e-05
1.02824124325e-05
1.02824340233e-05
1.02762245325e-05
1.02667366106e-05
1.02579499561e-05
1.02560930085e-05
1.02684633977e-05
1.02996694122e-05
1.03384695128e-05
1.03755515585e-05
1.0465650902e-05
1.04611385423e-05
1.03825730226e-05
1.03515286087e-05
1.03021134146e-05
1.02560353582e-05
1.02311985478e-05
1.02252287989e-05
1.02295921828e-05
1.02370199498e-05
1.02425181498e-05
1.02425424355e-05
1.02370845496e-05
1.02296585056e-05
1.02252662711e-05
1.02312251957e-05
1.02560788926e-05
1.03021859692e-05
1.03516234071e-05
1.0382621365e-05
1.04611778118e-05
1.0457754162e-05
1.03905551301e-05
1.03701159108e-05
1.03129944433e-05
1.02578812779e-05
1.02252207284e-05
1.02139308361e-05
1.02153743704e-05
1.02213783165e-05
1.02264338401e-05
1.0226459522e-05
1.02214487771e-05
1.02154415114e-05
1.02139546764e-05
1.02252282682e-05
1.02579122508e-05
1.03130758809e-05
1.03702215298e-05
1.03906124376e-05
1.04577786262e-05
1.04541338469e-05
1.03964568383e-05
1.03823886515e-05
1.03259684973e-05
1.02666376319e-05
1.02295661158e-05
1.02153579046e-05
1.02152886971e-05
1.02210412114e-05
1.02261291163e-05
1.02261544619e-05
1.02211122619e-05
1.02153535701e-05
1.02153767952e-05
1.02295682831e-05
1.02666688124e-05
1.03260587593e-05
1.03824745331e-05
1.03965136118e-05
1.04541500762e-05
1.04510861709e-05
1.0399895403e-05
1.03885796639e-05
1.03365143253e-05
1.02761134342e-05
1.02369723767e-05
1.02213397515e-05
1.02210168998e-05
1.02272984277e-05
1.02327637896e-05
1.02327867739e-05
1.0227363199e-05
1.02210737492e-05
1.02213503408e-05
1.02369703943e-05
1.02761439426e-05
1.03366020635e-05
1.03886652225e-05
1.0399932969e-05
1.04510938566e-05
1.04506967473e-05
1.04015856502e-05
1.03920836227e-05
1.03424482407e-05
1.0282344864e-05
1.02424548942e-05
1.02263775884e-05
1.02260832438e-05
1.02327382519e-05
1.02383404565e-05
1.0238359921e-05
1.02327901477e-05
1.02261236413e-05
1.0226371916e-05
1.02424407637e-05
1.02823646054e-05
1.03425210225e-05
1.03921550314e-05
1.04015961923e-05
1.04506945645e-05
1.045070824e-05
1.04016081009e-05
1.03921009901e-05
1.03424731125e-05
1.02823667561e-05
1.02424816627e-05
1.02264059715e-05
1.02261071016e-05
1.02327518042e-05
1.02383439839e-05
1.02383578607e-05
1.02327892581e-05
1.02261272266e-05
1.02263784073e-05
1.02424462818e-05
1.02823673576e-05
1.0342524573e-05
1.03921567963e-05
1.04015957159e-05
1.04506878406e-05
1.0451118498e-05
1.03999623028e-05
1.03886423811e-05
1.03365799665e-05
1.02761685186e-05
1.02370390089e-05
1.02214106392e-05
1.02210744852e-05
1.02273295999e-05
1.023276681e-05
1.02327756172e-05
1.02273568506e-05
1.02210799491e-05
1.02213651438e-05
1.02369839301e-05
1.02761518257e-05
1.0336614228e-05
1.03886695071e-05
1.03999344037e-05
1.04510860049e-05
1.04541846076e-05
1.03965572577e-05
1.03824587549e-05
1.03260522897e-05
1.02666981356e-05
1.02296350499e-05
1.02154271692e-05
1.02153340864e-05
1.02210469574e-05
1.0226096198e-05
1.02261024908e-05
1.02210680232e-05
1.02153301045e-05
1.02153719044e-05
1.02295701498e-05
1.02666734837e-05
1.03260811067e-05
1.03824879506e-05
1.03965288232e-05
1.04541517116e-05
1.04578086367e-05
1.03906584922e-05
1.03702348444e-05
1.03130717717e-05
1.02579258286e-05
1.02252569383e-05
1.02139538567e-05
1.02153657793e-05
1.02213214491e-05
1.02263344831e-05
1.02263400096e-05
1.02213393352e-05
1.02153602786e-05
1.02139018588e-05
1.0225198772e-05
1.02579073659e-05
1.0313106008e-05
1.03702799908e-05
1.03906447156e-05
1.0457787738e-05
1.0461192712e-05
1.03826609673e-05
1.03516397315e-05
1.03021812497e-05
1.0256073277e-05
1.02312108308e-05
1.02252132103e-05
1.02295380272e-05
1.02369176777e-05
1.02423717711e-05
1.02423750581e-05
1.02369286109e-05
1.02295330112e-05
1.02251774498e-05
1.02311752787e-05
1.02560715932e-05
1.03022205187e-05
1.03516905413e-05
1.03826586761e-05
1.04611803123e-05
1.04656587691e-05
1.03755822687e-05
1.03385468137e-05
1.02996688306e-05
1.0268446468e-05
1.02560498063e-05
1.02578689556e-05
1.02666036853e-05
1.02760511074e-05
1.02822511992e-05
1.02822514302e-05
1.02760536251e-05
1.02665989637e-05
1.02578551121e-05
1.02560441947e-05
1.02684631921e-05
1.02997076562e-05
1.03385553267e-05
1.03755847815e-05
1.04656470538e-05
1.0469780792e-05
1.03731075659e-05
1.03378944073e-05
1.03056612604e-05
1.02996618949e-05
1.0302159605e-05
1.03130290487e-05
1.03259902279e-05
1.03365107851e-05
1.03424118864e-05
1.03424109729e-05
1.03365109897e-05
1.03259953515e-05
1.03130396444e-05
1.03021756798e-05
1.02996841059e-05
1.03057336686e-05
1.03378500467e-05
1.03731093195e-05
1.04697775616e-05
1.04716380017e-05
1.03786922326e-05
1.03497417755e-05
1.03378758852e-05
1.03385523641e-05
1.03516212514e-05
1.03701989106e-05
1.03824295758e-05
1.03886109394e-05
1.03920845569e-05
1.03920816093e-05
1.03886008534e-05
1.03824224825e-05
1.0370226595e-05
1.03516561671e-05
1.03386080206e-05
1.03378292858e-05
1.03497312993e-05
1.03786953004e-05
1.04716406616e-05
1.04676820553e-05
1.03960688012e-05
1.03786913626e-05
1.03730999115e-05
1.03755639052e-05
1.03826334797e-05
1.03906278293e-05
1.03965351432e-05
1.03999577994e-05
1.04016211444e-05
1.04016201005e-05
1.03999573456e-05
1.03965460708e-05
1.03906526412e-05
1.03826610009e-05
1.03755861734e-05
1.037311848e-05
1.03787122104e-05
1.03960905711e-05
1.0467696333e-05
1.04758400488e-05
1.04676620982e-05
1.04716358372e-05
1.04697795758e-05
1.04656628023e-05
1.04611870047e-05
1.0457797625e-05
1.04541846116e-05
1.04511302337e-05
1.04507349511e-05
1.04507338247e-05
1.04511339255e-05
1.04541977603e-05
1.04578192014e-05
1.04612128022e-05
1.04656891771e-05
1.04698080112e-05
1.04716659848e-05
1.04676937989e-05
1.04758729111e-05
1.04454979611e-05
1.04522807624e-05
1.04591624157e-05
1.04548805981e-05
1.04488244674e-05
1.04432770789e-05
1.04374182677e-05
1.04324225238e-05
1.04297323655e-05
1.04293655121e-05
1.04293620778e-05
1.04297327485e-05
1.04324345372e-05
1.04374402821e-05
1.04433031308e-05
1.04488392537e-05
1.04548845312e-05
1.04591897089e-05
1.04523589974e-05
1.04455721428e-05
1.04523895788e-05
1.03590217141e-05
1.03486265601e-05
1.03443688729e-05
1.0348164913e-05
1.03551388797e-05
1.0362195497e-05
1.03674108184e-05
1.03708209272e-05