/*--------------------------------*- C++ -*----------------------------------*\
| =========                 |                                                 |
| \\      /  F ield         | OpenFOAM: The Open Source CFD Toolbox           |
|  \\    /   O peration     | Version:  3.0.1                                 |
|   \\  /    A nd           | Web:      www.OpenFOAM.org                      |
|    \\/     M anipulation  |                                                 |
\*---------------------------------------------------------------------------*/
FoamFile
{
    version     2.0;
    format      ascii;
    class       volScalarField;
    location    "9.5";
    object      k;
}
// * * * * * * * * * * * * * * * * * * * * * * * * * * * * * * * * * * * * * //

dimensions      [0 2 -2 0 0 0 0];

internalField   nonuniform List<scalar> 
7968
(
0.000174726813072
0.000208947608626
0.000237799586903
0.00025645090721
0.000267047936139
0.000272618286478
0.000274612158174
0.000274566117427
0.000273840897742
0.000272617800952
0.000271533955727
0.000271043937402
0.000270633276518
0.000269604110325
0.000266863187118
0.000260994580546
0.000250414561882
0.000233141649737
0.000206606376428
0.000174255937265
0.000208693766575
0.000344684314676
0.000441815990469
0.000505552981487
0.000545855997145
0.000568268277799
0.000578238638644
0.000579862276385
0.000576867854421
0.00057216032075
0.000567528505562
0.000563407807374
0.000558696960498
0.000551117005074
0.000537601073906
0.000514684470358
0.000477759441978
0.000420673488946
0.000332617745983
0.000207229585798
0.000237079819289
0.000442091365118
0.000584977962137
0.000679206960205
0.00073966220228
0.000774849850075
0.000791580084505
0.000795571652821
0.000791997488958
0.000784920753625
0.000776863882793
0.000768473359302
0.000758595136405
0.00074445691651
0.000721946848315
0.00068617490432
0.000630912100005
0.000547572798051
0.000420009569328
0.000234439485551
0.000255844364297
0.000506428539034
0.000680046114464
0.000794965019749
0.000869082836011
0.00091239439461
0.000932916149362
0.0009375830889
0.000932693497999
0.000923738095609
0.000912144231629
0.000899430073932
0.000885585559362
0.000867041324339
0.000838838463452
0.000795044913613
0.000728172424989
0.000628013917125
0.000475345784691
0.000251748800161
0.0002673362667
0.000547735116507
0.000742395107179
0.000871269934144
0.000953905159559
0.00100159747075
0.00102548223696
0.00103286108917
0.00102752005593
0.00101538701551
0.00100051091675
0.000984351645273
0.000965945309826
0.000941712399853
0.000908378983001
0.00086030484653
0.000786963384082
0.000676665903823
0.000508701757546
0.000261297577346
0.000273502452005
0.000572101481851
0.000780499481807
0.00091811923267
0.00100543527507
0.00105802998283
0.00108460881535
0.00108922841697
0.00107983031945
0.00106371977351
0.00104585439529
0.00102794795933
0.00100881198666
0.000984110012163
0.000947794944115
0.00089389994664
0.000817579470641
0.000702198332186
0.000526070289157
0.000265577569105
0.000276070429274
0.00058452727049
0.000800975444626
0.000943321323881
0.00103323450699
0.00108969835524
0.00111365666105
0.00111366216428
0.0010993929678
0.00107926449235
0.00105890008613
0.00104020081459
0.00102178094584
0.000998673432952
0.000963782627564
0.000909283844228
0.00082881325775
0.000711746232089
0.00053221955418
0.000267311231813
0.000276295031873
0.000588906828504
0.000809342606285
0.000953578107562
0.0010468835108
0.00110159883583
0.00112150023075
0.00111657202467
0.00109764732755
0.00107403207316
0.00105183946907
0.00103305151476
0.00101604469131
0.00099533554286
0.000963181521701
0.000910862360481
0.000829353962462
0.000711487738329
0.000531732485359
0.000267837038838
0.00027557679818
0.00058884326463
0.000810549952416
0.000954853943724
0.00104914317059
0.0011012818022
0.00111737656482
0.00110833361541
0.00108581292244
0.00105970102
0.00103641337068
0.00101794720013
0.00100241685814
0.000983984684914
0.000954515337545
0.000904877415709
0.000825342576039
0.000706716346459
0.000528228793297
0.000267283780895
0.000274747976507
0.000587125233901
0.000808406371121
0.000951725322012
0.00104532912495
0.00109525236312
0.00110873716978
0.00109717918864
0.00107265189343
0.00104526561467
0.00102153950064
0.001003485993
0.000989058897497
0.000972169455014
0.000944554171976
0.000896963358943
0.000819416178631
0.00070122994316
0.00052444268896
0.000266308278371
0.000274367967197
0.000585378676376
0.000805033686824
0.000946757951229
0.00103866377826
0.00108731708484
0.00109986601665
0.00108774875011
0.00106302805944
0.00103571214874
0.00101217571548
0.000994389046791
0.000980338828805
0.000963944480442
0.000937017830005
0.000890406658985
0.000814146396879
0.000697102656624
0.000521876716541
0.000265474892549
0.00027482231884
0.000583785229825
0.000800755889133
0.000940459739623
0.00102985497165
0.00107827494143
0.00109158970015
0.00108082700561
0.0010576310358
0.0010316390675
0.0010089194772
0.000991276573208
0.00097677045209
0.000959752044392
0.000932325554287
0.000885604778104
0.000809874541481
0.000694579761806
0.00052086430233
0.00026527017445
0.000275301902812
0.00058091943716
0.000793952338009
0.000931031458338
0.00101679824554
0.00106558862564
0.00108094115306
0.00107303220681
0.00105270751149
0.00102899702829
0.00100757910818
0.00099011700848
0.000974788475489
0.000956466103901
0.000927770448848
0.000880267220145
0.000804726668631
0.000691959054594
0.000520136151625
0.000265239359856
0.000274783513773
0.00057427144592
0.000781381789402
0.000914712861294
0.000995639017141
0.00104415216166
0.00106204669041
0.00105785115348
0.00104130388525
0.00102059422171
0.00100093010198
0.000983893133701
0.000967784152387
0.00094805512429
0.000917969598794
0.000869765315663
0.000795130683306
0.000686027682076
0.000517107826031
0.00026419271814
0.000271985277037
0.000560575205233
0.000758660691476
0.000886333825187
0.000964212578782
0.00100772840177
0.00102727689017
0.00102680610703
0.00101436667493
0.000997124625594
0.000979715582978
0.000963610656143
0.000947243316329
0.000926667039745
0.000895908442425
0.000848216647405
0.000777810783928
0.000672494548684
0.000508553651993
0.000261290766598
0.000265741944772
0.000536194651884
0.000720684241316
0.000839712768239
0.000912976349424
0.000952122079069
0.00096881463792
0.000970853960653
0.000962164399342
0.000948544299598
0.000933866426612
0.000919413162806
0.000903802078597
0.000883705343532
0.000854090033939
0.0008109107113
0.00074582181379
0.000646000882183
0.000490429160421
0.000256426240996
0.000254423489887
0.000496323035798
0.000661013680229
0.000767242271458
0.000833040612269
0.00086872981238
0.000882758035734
0.000882547413845
0.000875233238205
0.000864916040435
0.000853334880849
0.000841427830724
0.000828192520068
0.000812049174408
0.000787866182962
0.000749854274104
0.000690672656525
0.000599997071586
0.000458441990858
0.000247156077329
0.000236066302275
0.000434741069926
0.000570924312073
0.000658572859548
0.000712716317266
0.000742125058094
0.000753897971206
0.000754085794022
0.000747925151149
0.000739443608502
0.000730975337578
0.000723000585331
0.000714237731328
0.000701998859349
0.00068255204314
0.00065114841992
0.000601710557109
0.000525605671613
0.000406515578126
0.000230740438337
0.000208214008266
0.000340918145964
0.000434306472478
0.000494343389641
0.000531153862908
0.000550526401419
0.000557832858485
0.000557509684235
0.00055324187559
0.00054787428389
0.000542980623511
0.000538805741913
0.000534322550977
0.000527408283562
0.000515255636962
0.000494430495092
0.00046037870578
0.000407222055017
0.00032411453751
0.000204935117747
0.00017462111957
0.000208594135871
0.000237007278576
0.000255249768241
0.00026539811934
0.000270441320731
0.000272174866929
0.000272154345307
0.00027145698842
0.000270289412117
0.000269146317985
0.000268251553707
0.00026735360943
0.000265749274595
0.000262613582664
0.000256628432445
0.000246506547964
0.000229904396342
0.000204272159322
0.000173488616353
0.000206555695768
0.00032925926955
0.000423156887467
0.000487904044296
0.000530700344561
0.000556757785712
0.00057029015064
0.000574801048278
0.000573507899149
0.000569573149759
0.000564751445114
0.000559543990705
0.000553032607567
0.000542906978646
0.000526415088922
0.000500615621393
0.000461577472536
0.000403901318949
0.000319296996107
0.000204598001867
0.000329417205044
0.000744714118838
0.00099137486082
0.00116207971637
0.00127760607588
0.00135004538231
0.00138936584324
0.00140452816005
0.00140363205099
0.00139325374878
0.00137771033575
0.00135839865063
0.0013337104236
0.00129966460782
0.00125002163945
0.0011770725487
0.00107138299273
0.000920377757696
0.000701771414522
0.000318944239709
0.000423411034776
0.00099109465254
0.00132585390304
0.00156007775327
0.00172054761794
0.00182211743187
0.0018773645628
0.00189824132822
0.00189594205694
0.00187948124966
0.00185520055799
0.0018253578317
0.00178797913615
0.00173800145973
0.00166697285699
0.00156451658009
0.00141841446845
0.00121289167124
0.000919281646684
0.000403195656424
0.000488666530161
0.00116300285851
0.0015617352077
0.00184172919917
0.00203374979984
0.00215447628186
0.00221848979443
0.00224020044557
0.00223407407259
0.00221017422841
0.00217726120257
0.00213839450908
0.00209116957168
0.00203062451225
0.00194581677539
0.00182412683032
0.00165112309611
0.00140861240268
0.00106352511818
0.000459189983393
0.000532527767146
0.00128128341035
0.0017260586284
0.00203824146321
0.00225089349214
0.00238204851517
0.00244841901766
0.00246488444015
0.00244894289116
0.00241510836422
0.00237360115493
0.00232852453503
0.0022774323128
0.00221258803112
0.00212084168333
0.00198875843739
0.0017999873851
0.0015342854487
0.00115564649273
0.000494575717343
0.000560178608577
0.00135803597421
0.00183380293238
0.00216662138085
0.002390587837
0.00252476723406
0.00258503853462
0.00259090471888
0.00256250359514
0.00251736404969
0.00246761112984
0.0024181481323
0.00236619953473
0.00230251725938
0.00221246922466
0.00207898518155
0.00188333294445
0.00160584566939
0.00120840902603
0.000514757381601
0.000575787549722
0.00140312047572
0.00189752611257
0.00224154688652
0.00246989928919
0.00259934902409
0.00264915519762
0.00264127395465
0.00259892140678
0.00254235881133
0.00248540730496
0.00243349989601
0.00238342240916
0.00232460621411
0.00224054704425
0.00211214081575
0.00191838040714
0.00163763013351
0.00123269592091
0.000524022611519
0.000582947214675
0.00142533970354
0.00192892585557
0.00227690059311
0.00250369360921
0.00262542213484
0.00266306214546
0.00264107230912
0.00258553474961
0.00251902182198
0.00245659778611
0.0024038800077
0.00235714253166
0.00230474040119
0.00222864984513
0.00210824959532
0.00192157287131
0.00164339261702
0.00123846522674
0.000525823739072
0.00058480840979
0.00143255622319
0.00193877608976
0.00228615427432
0.00250856678798
0.00262203892529
0.00264874372024
0.00261509333002
0.00254938666322
0.00247578795453
0.00241001095083
0.00235755230225
0.00231415946383
0.00226755284907
0.0021987841645
0.00208626990228
0.00190718453425
0.00163559740803
0.00123441706698
0.000524079818707
0.000583951921623
0.00143088838836
0.00193557324136
0.00228000169363
0.00249760173003
0.00260459817414
0.00262388370442
0.00258301745696
0.00251153908709
0.00243427000965
0.00236718758633
0.00231549838654
0.00227453191537
0.00223167791958
0.00216779701186
0.00206098354594
0.00188809735182
0.00162323560032
0.00122703631453
0.000521353210911
0.000582186097044
0.00142390606826
0.00192430088263
0.00226469316125
0.00247855052407
0.00258223720088
0.00259881624132
0.00255605178771
0.00248359681263
0.00240617758032
0.00233952299732
0.00228857765826
0.00224855851047
0.00220690082236
0.0021447839555
0.00204056300052
0.00187127647983
0.00161112462034
0.0012198122343
0.000519081957099
0.00057963229568
0.00141229229758
0.00190604003028
0.00224169031169
0.00245311792988
0.00255684453328
0.00257550052618
0.00253607417181
0.00246720311369
0.00239283139013
0.00232804264294
0.00227763144114
0.00223701978114
0.00219408567196
0.0021307362708
0.00202607302424
0.00185771936799
0.0015999858383
0.00121314126777
0.000517442022122
0.000574790261106
0.00139365677539
0.00187769905813
0.0022072585391
0.00241662931941
0.00252281057286
0.00254738280785
0.00251566780498
0.00245429355498
0.00238568282022
0.00232413788986
0.00227432655376
0.00223215496529
0.00218612109069
0.00211934059649
0.00201207526012
0.00184290424826
0.00158634602147
0.00120449507738
0.000515466341339
0.00056545146589
0.00136305189552
0.00183258024737
0.00215304387418
0.00235884774651
0.00246827436871
0.00250081315305
0.0024795987872
0.0024285838813
0.00236806335238
0.00231122050507
0.00226262353476
0.0022186976371
0.00216891576313
0.00209795579688
0.0019875790606
0.00181761294953
0.00156339488191
0.00118883866286
0.000510762647257
0.000548765853805
0.00131365298637
0.00176150456547
0.00206777445922
0.0022665540049
0.00237751522277
0.00241771859332
0.00240767901269
0.00236834017418
0.00231748771206
0.0022668699371
0.00222075791828
0.00217611853333
0.00212357855373
0.00204961175596
0.00193762681163
0.00176860184361
0.00152165873715
0.00115906812254
0.000500330653395
0.000521399620381
0.00123735555649
0.00165384470393
0.00193892365869
0.00212580302345
0.00223313282556
0.00227861161772
0.00227832578667
0.00225039809482
0.00220984598241
0.00216677989947
0.00212495136575
0.0020817652163
0.00202904944244
0.00195515663696
0.00184495317111
0.00168303305131
0.0014494032855
0.0011065641632
0.000480504170957
0.000479269625618
0.00112447192488
0.00149732930448
0.00175224699813
0.00192034618584
0.00201896668368
0.00206363944618
0.00206995997932
0.00205225347568
0.00202175739694
0.00198721467106
0.00195169825525
0.0019128806451
0.00186331388043
0.00179392950038
0.00169299831008
0.00154575193137
0.00133331018936
0.00102104321474
0.000447171035909
0.000416968195215
0.000962331131439
0.00127625533526
0.00148992782419
0.00163071018226
0.00171411470699
0.00175350529817
0.00176165916328
0.00175018016272
0.00172855876855
0.00170307518374
0.00167582896383
0.0016448475958
0.00160454511353
0.00154698380682
0.00146210694662
0.00133747706409
0.00115652148989
0.000888999239613
0.000394848679773
0.00032649255992
0.000728667709778
0.000961807240828
0.00111878373098
0.00122108446285
0.00128139072063
0.00131025538606
0.00131719929375
0.00131064693732
0.00129732076012
0.00128142653975
0.00126423066965
0.00124411695709
0.00121691163604
0.0011766390495
0.00111566109274
0.00102429391
0.000889285780318
0.000686972828614
0.000314856004491
0.000206085655199
0.000326040440691
0.000416159162562
0.000476982099754
0.00051600226525
0.000538648488877
0.00054933749639
0.000551683211984
0.00054905563566
0.000544537263869
0.000539690595358
0.000534848020573
0.000529156211371
0.000520665521173
0.000506583944338
0.000483871459244
0.000448677582339
0.000395400982069
0.000315134405398
0.000202657586431
0.000237833440707
0.000433931782959
0.000582615081744
0.000686618874749
0.000756920161232
0.000800855963426
0.000824410475595
0.000833080989778
0.000831899435046
0.000825018040634
0.000815155583566
0.000803211274921
0.000788160363885
0.000767427671386
0.000737180660023
0.000692772827781
0.000628634230252
0.000537333531758
0.000407152868966
0.000231859488766
0.000434412216211
0.00102641479272
0.00138118923245
0.00163289569472
0.00180788769343
0.00192062002972
0.00198350997027
0.00200870151341
0.00200767738122
0.00199013877424
0.00196269503316
0.00192789152625
0.00188391961968
0.00182517058234
0.00174330924935
0.00162785854624
0.00146688248889
0.00124532992808
0.000935939682262
0.000406427488837
0.000583410288002
0.00138086989247
0.00185076636136
0.00218654561236
0.00242220149305
0.00257462693154
0.00265905174566
0.00269135938442
0.00268698948033
0.00265959313804
0.00261872391745
0.0025683147517
0.00250620839704
0.00242475973805
0.00231297903433
0.002156930204
0.00194139827663
0.00164807528449
0.00124168202779
0.00053511389939
0.000688333733209
0.00163444154073
0.00218911172885
0.00258508698211
0.00286219694459
0.00303912024184
0.00313331692568
0.00316443086038
0.00315072634994
0.00311017587646
0.00305547617047
0.00299208477423
0.00291750405864
0.00282179313218
0.00269244207573
0.00251178642763
0.00226175996837
0.00192112053549
0.00144830304921
0.000621645079084
0.000760379690619
0.00181358385287
0.00243067667574
0.00286921235815
0.00317264315021
0.00336118912145
0.00345411482177
0.00347253446454
0.00344124839338
0.00338297531011
0.00331355172409
0.00324002146092
0.00315949388934
0.00306052079739
0.0029257846539
0.00273385237163
0.00246560352459
0.00209669822025
0.00158109997014
0.000676607158159
0.00080692211765
0.00193284758079
0.0025927558775
0.00305840044247
0.00337485171325
0.00356375781104
0.00364351705197
0.00363966376359
0.00358387197228
0.00350435908211
0.00341997701277
0.00333912683974
0.00325813205195
0.00316350463575
0.00303501086997
0.00284710360987
0.0025744677983
0.00219354182993
0.00165554355703
0.000707481680452
0.00083393854185
0.0020046944646
0.00269075865705
0.00317054327786
0.00349000439351
0.00366901615739
0.00372688612873
0.0036942931773
0.00361061165557
0.00350916215683
0.00341129715635
0.00332620286151
0.00324916158453
0.00316455103991
0.00304951040175
0.0028751453738
0.0026113733199
0.00223079116957
0.00168639220369
0.000720823602536
0.00084688823805
0.00204113415642
0.00274025251335
0.00322426898079
0.00353884117275
0.00370254324493
0.00373530914977
0.00367394929341
0.0035642257688
0.00344363314791
0.0033353273445
0.0032485906063
0.00317768045273
0.00310521253299
0.00300583812182
0.00284853028583
0.00259942449681
0.00222891697123
0.00168855667522
0.000722792652716
0.0008506918253
0.00205328451823
0.00275624120792
0.0032385115278
0.00354435216975
0.00369208790432
0.00370313587167
0.00361870248354
0.00348913547306
0.00335475261706
0.00323971505229
0.00315288102082
0.00308764832266
0.00302557813237
0.00293979055631
0.0027977071138
0.00256356534648
0.00220622418644
0.00167559106998
0.000718857186973
0.000849255007035
0.00205007223061
0.00275090294494
0.00322856738776
0.00352590218289
0.00366174132483
0.00365851367781
0.00355995594827
0.00341894058915
0.00327714337979
0.00315896930785
0.00307270812973
0.00301112919791
0.00295537974237
0.00287814944587
0.00274633154104
0.00252346742577
0.00217763630215
0.00165810776442
0.000713090847038
0.000844867486841
0.00203685970828
0.00273158802624
0.00320342553976
0.00349530074412
0.0036257587605
0.00361755178933
0.00351499551432
0.00337138176033
0.00322838797856
0.00311011989848
0.00302446095001
0.0029639405993
0.00290980759357
0.00283519131271
0.00270744887881
0.00249044919875
0.00215227207949
0.00164203169723
0.000707796775914
0.000837927980357
0.00201479985886
0.00269994577938
0.00316541647761
0.00345501479006
0.00358688421912
0.00358314493272
0.00348663098166
0.00334891776417
0.00321043290179
0.00309462513619
0.00300930878046
0.00294726710118
0.00289031270843
0.00281270854479
0.00268308058663
0.00246650975131
0.00213179825298
0.00162812279959
0.000703487695322
0.000826821313894
0.0019806510835
0.00265164690565
0.00310935197871
0.00339777844468
0.00353604874295
0.00354489892239
0.00346352697636
0.00333958962971
0.00321099473968
0.00310020493671
0.00301524824007
0.00294967932275
0.00288637135557
0.0028013671044
0.00266515902397
0.00244492851463
0.00211097103334
0.0016127824731
0.000698545146758
0.000808388762278
0.00192752627858
0.00257729777388
0.00302310830217
0.00330869687455
0.00345463553461
0.00348111647666
0.0034215978374
0.00331781663421
0.00320394561847
0.00310106495758
0.00301739157085
0.00294764327959
0.00287642387188
0.00278192306499
0.00263679616628
0.00241175484782
0.00207877791048
0.00158863934596
0.000689698039159
0.000778424826618
0.00184610345631
0.00246444385827
0.00289113245688
0.00316907348638
0.0033200155813
0.00336384904222
0.00332845154865
0.00324814151861
0.00315245720903
0.00306054608503
0.0029804059158
0.00290805930801
0.00283025655695
0.0027272519594
0.00257480750255
0.00234802268794
0.00202030567905
0.00154503301885
0.000672506116219
0.000732016648356
0.00172571469013
0.00229937816972
0.00269713616525
0.00296050068477
0.00310955032809
0.00316565341255
0.00315133330072
0.00309382673158
0.00301758119792
0.00293920473037
0.00286584682057
0.00279460954503
0.00271430888275
0.00260768669438
0.00245430500528
0.00223273056735
0.00192006631865
0.00146982080949
0.00064179130046
0.000663387587256
0.00155445408594
0.00206755858835
0.00242430924791
0.00266313973871
0.00280286224876
0.00286217052411
0.00286251187016
0.00282409714906
0.00276648291908
0.00270324129156
0.00264016954983
0.00257502984599
0.00249851420497
0.00239624115274
0.00225151379309
0.00204704519494
0.00176062608136
0.00134940676952
0.000591472824108
0.000564867653719
0.00131732544311
0.00175139654602
0.00205298127653
0.00225544869719
0.00237599665176
0.00243086169241
0.00243740786375
0.00241266394609
0.00237164071744
0.00232437219894
0.00227473877468
0.00222096602212
0.0021560097991
0.00206842165095
0.0019444695514
0.00176887150225
0.00152215210385
0.0011672255087
0.000513562891712
0.000424360843224
0.000986453981572
0.00131523639802
0.0015416174354
0.00169211144323
0.00178166437294
0.00182352834486
0.00183089381767
0.00181626169029
0.00179005583378
0.00175913578488
0.00172612338968
0.00168938833512
0.00164349666747
0.00157997760404
0.00148847666884
0.00135667853976
0.00116840382362
0.000894339776063
0.000395477601243
0.000235928821925
0.000423388053681
0.000562653238176
0.000657464266736
0.000719004503342
0.000754875136938
0.000771402914701
0.000774428955436
0.000769240567726
0.000760064867574
0.000749540563814
0.000738517600516
0.000726061436271
0.000709619367942
0.000685512977782
0.000649191162993
0.000594970010351
0.000514952150268
0.000396154073654
0.000228117798482
0.000272491624373
0.000548223575789
0.000753537834737
0.000898390817632
0.000997932212161
0.00106120109489
0.00109565752533
0.00110855709757
0.00110676940152
0.00109598202688
0.00107995622854
0.00106008124071
0.00103526065773
0.0010020655219
0.000955557011759
0.000889658023368
0.00079749282565
0.000670215067027
0.000493301410048
0.000257143934329
0.00054926838664
0.00133711497789
0.00181376365781
0.00215874587481
0.00240346708587
0.0025640650613
0.00265522707137
0.00269250060168
0.00269139327088
0.00266533394681
0.00262362509773
0.00257011553271
0.00250273463294
0.00241401325525
0.00229260779983
0.00212499098784
0.00189710769737
0.00159221556257
0.00117956908432
0.000491921941992
0.000755149869024
0.00181367511243
0.00243969329948
0.00289471591792
0.00321985471488
0.00343335225587
0.00355278528283
0.00359818858826
0.00359071375465
0.00354950766933
0.00348820813086
0.00341281372248
0.00332079203661
0.00320188483121
0.00304069066344
0.00281930774154
0.00251941574201
0.0021209340416
0.00158318243136
0.000665025015804
0.000901453867961
0.00216189297288
0.00289907246297
0.00343250252216
0.00381114032856
0.0040554323705
0.00418507186488
0.00422250346164
0.00419581953698
0.00413166613904
0.00404832276995
0.00395432973638
0.00384635186382
0.00371146909058
0.00353059464163
0.00328080545278
0.00293872700458
0.00248096919701
0.00185847845698
0.000781696226759
0.00100365143973
0.00241320028122
0.0032336848693
0.00382247381072
0.00423512926976
0.00449277232404
0.00461086315217
0.00461864298
0.00455625601138
0.00445898621996
0.00435011094304
0.00424072743679
0.00412647295409
0.00399101461324
0.00381096967046
0.00355656235937
0.00319801152162
0.00270822944899
0.00203320009846
0.000854713860986
0.00107082185063
0.00258400761846
0.00346263982472
0.00408695327992
0.00451759456189
0.0047660662423
0.00484876898702
0.0048069838843
0.00469480452033
0.00455687641895
0.00442159911734
0.00430180381863
0.00419174803882
0.00407032835682
0.00390805444885
0.00367083571453
0.0033212772605
0.00282369513392
0.0021248273851
0.000893141159955
0.00111045402959
0.00268919206772
0.00360393040796
0.00424749186646
0.00467874962048
0.00489811809501
0.00492863994135
0.00482501050471
0.00465652242502
0.00447696712646
0.00431864365662
0.00419458413846
0.0040971699214
0.00400021229947
0.00386768730349
0.0036599885749
0.00333668866173
0.00285258557666
0.00215273554839
0.000905850912399
0.00112976052426
0.00274409497063
0.00367726768269
0.00432643379995
0.00474433778004
0.0049260264816
0.00490059066562
0.00473593190655
0.00451574239817
0.00430089001787
0.00412555054777
0.00400148180683
0.00391905119777
0.00384830158675
0.00374817810151
0.00357434179086
0.00328304805997
0.00282460593089
0.00213868074889
0.000902056199135
0.00113542976471
0.00276354975255
0.00370262043158
0.00434815342104
0.00474766459099
0.00489505799841
0.00482335929054
0.00461122799681
0.00435281190772
0.00411328143534
0.00392708366091
0.00380394591566
0.00373264466494
0.00368177765866
0.00360760497173
0.00346288882908
0.00320067757726
0.00276856634824
0.00210384819549
0.000890250472869
0.00113279585368
0.00275968925219
0.00369664186405
0.00433471130466
0.0047192236689
0.00484323162792
0.00474247792722
0.00450217657753
0.00422216265753
0.00396933399887
0.0037776358025
0.00365517484679
0.00358946761713
0.0035489433302
0.00348945561896
0.00336290644463
0.0031207827028
0.00270936755063
0.00206552839138
0.000876988029171
0.0011250175903
0.00273988913419
0.00366956215247
0.00430033071573
0.00467693686577
0.00479193626217
0.0046819391057
0.00443374373466
0.00414823365097
0.0038922933305
0.00369931703491
0.00357670263305
0.00351140636455
0.00347215871118
0.00341566472635
0.00329466318726
0.00306108497667
0.00266149614336
0.00203288491887
0.000865847425275
0.00111268283473
0.00270554200848
0.00362325163115
0.00424733274475
0.00462371831066
0.00474456460619
0.00464538474408
0.00440936742818
0.00413372599176
0.00388385237098
0.00369294631211
0.003568919832
0.00349915709704
0.0034530030579
0.00338881405809
0.00326146126318
0.00302510193882
0.00262808286949
0.00200822351546
0.000857513761405
0.00109374455003
0.00265204216195
0.00355124837154
0.00416681889306
0.00454714932266
0.0046865270358
0.00461696150037
0.00441283367583
0.00416262949598
0.00392818688757
0.00374275693147
0.00361598677322
0.00353684454009
0.00347612242737
0.0033949802807
0.00325151807226
0.00300326476221
0.0026015208348
0.00198621221242
0.000849812413527
0.00106403669065
0.00256994937243
0.00344030332435
0.00404018671927
0.00442254642988
0.00458761665516
0.00456116411496
0.00440493359477
0.00419423325708
0.00398497874606
0.00380978288611
0.00368044644949
0.00358837069303
0.003507750202
0.00340393113844
0.00323920266539
0.00297428775862
0.00256506669586
0.00195530975833
0.000838173595793
0.00101805559714
0.00244702786115
0.00327384848634
0.00384784150429
0.00422254303774
0.0044102354254
0.00442898909148
0.00432663074766
0.00416357466032
0.00398774682863
0.00382929065233
0.00370130241429
0.00359786009209
0.00349784186269
0.00337210955713
0.00318746306311
0.0029075142717
0.00249607408765
0.00190046438398
0.000816281595302
0.000949587171527
0.00227013977016
0.00303498852217
0.00357055836177
0.00392633259603
0.00412154708148
0.0041748996632
0.00412058958505
0.004004461292
0.00386563332971
0.00373010586373
0.00361043924248
0.0035028839795
0.00339114606061
0.00325156139922
0.00305494101134
0.00277058530272
0.00237027332472
0.00180404856915
0.000776853191579
0.00085174675279
0.0020259630257
0.00270762435666
0.00318849183037
0.00351263549664
0.00369918443249
0.00376888786886
0.00374881201388
0.00367150118843
0.00356754257765
0.00345810675822
0.00335372994815
0.00325213188951
0.00314076817528
0.00300045516377
0.00280680890978
0.00253642594431
0.0021665616254
0.00164885116543
0.000712001925455
0.000715466148678
0.00169880529686
0.00227379628721
0.00268081916052
0.00295732881685
0.00312068014645
0.00318952641091
0.00318664771986
0.00313682786896
0.00306297695798
0.0029803718976
0.0028970058124
0.00281130412671
0.00271330582602
0.00258815070773
0.00241781541404
0.00218312639506
0.00186298299496
0.00141632787536
0.000612114860227
0.000524819615319
0.00125748717325
0.00169314230256
0.00199950171071
0.00220601293497
0.00232837933812
0.00238213004247
0.00238467644985
0.00235391804737
0.00230547726922
0.00225019367511
0.00219306456551
0.00213268260636
0.00206191791865
0.0019696451615
0.00184237840794
0.00166505323534
0.00141992988607
0.0010746938661
0.000461977506319
0.000266558859734
0.000522934491959
0.000710680035863
0.000839227955302
0.000923097674035
0.000971328071743
0.000991796381081
0.00099243510772
0.000980850233736
0.000963282765427
0.000943818920832
0.000924033630125
0.000902951059483
0.000877357730588
0.000842406239406
0.000792045258123
0.000719412278105
0.000615106739026
0.0004633095238
0.000248944095555
0.000320024861442
0.000695627770091
0.000970920335284
0.00116770762479
0.00130591325765
0.00139597032325
0.00144676102545
0.00146754762812
0.00146732505281
0.00145351717715
0.00143106819372
0.00140185166186
0.00136450015383
0.00131459470377
0.00124553544604
0.00114970209345
0.00101896564621
0.00084290640097
0.000604640166027
0.000287536589239
0.000697510512527
0.00173891163883
0.00237651707274
0.0028486347794
0.00319165544051
0.00342272568937
0.00355876668771
0.00361930418542
0.00362475642649
0.00359300073643
0.00353653100576
0.00346058785187
0.0033623832026
0.00323168808162
0.00305323298618
0.00280994145079
0.0024851504776
0.00206130403555
0.00150464343652
0.000601994936736
0.000973418106739
0.00237738822576
0.00321669526694
0.00384023940212
0.00429601127005
0.00460336821238
0.00478149183047
0.00485263989482
0.00484713149116
0.00479254881645
0.00470741540964
0.00460039393744
0.00446752350339
0.00429516094598
0.00406331739717
0.00374644238371
0.00332180485559
0.00276872098801
0.0020422551755
0.000832331378032
0.00117250073917
0.00285556402693
0.00384768598576
0.00458057356804
0.00511581077637
0.00546895761435
0.00565566643432
0.00570461998099
0.00566081294516
0.00556487024545
0.0054429251305
0.00530777101831
0.00515413766205
0.00496375036079
0.00471024095768
0.00436230619844
0.00388670723738
0.00325426027224
0.00241269645255
0.000987506924056
0.00131498048675
0.00320915811331
0.00431823997442
0.00513390573962
0.00572190755328
0.0060850996558
0.00623525858524
0.00621881197284
0.00610295974187
0.00594423925869
0.00577796691687
0.00562040227685
0.00546437915329