/*--------------------------------*- C++ -*----------------------------------*\
| =========                 |                                                 |
| \\      /  F ield         | OpenFOAM: The Open Source CFD Toolbox           |
|  \\    /   O peration     | Version:  3.0.1                                 |
|   \\  /    A nd           | Web:      www.OpenFOAM.org                      |
|    \\/     M anipulation  |                                                 |
\*---------------------------------------------------------------------------*/
FoamFile
{
    version     2.0;
    format      ascii;
    class       volScalarField;
    location    "9.5";
    object      nut;
}
// * * * * * * * * * * * * * * * * * * * * * * * * * * * * * * * * * * * * * //

dimensions      [0 2 -1 0 0 0 0];

internalField   nonuniform List<scalar> 
7968
(
7.38972930939e-05
8.08338166832e-05
8.62518244068e-05
8.95806799866e-05
9.14174097871e-05
9.23683607544e-05
9.27067135468e-05
9.26986963106e-05
9.25748838392e-05
9.23656718505e-05
9.21787821702e-05
9.20919908182e-05
9.20196075231e-05
9.18416864238e-05
9.13709041611e-05
9.03571774995e-05
8.85020887838e-05
8.53883834387e-05
8.03713182222e-05
7.37962639415e-05
8.07833206686e-05
0.000103876865625
0.000117630214361
0.000125843888199
0.000130774416748
0.000133438887001
0.00013460760715
0.000134796563612
0.000134445295819
0.000133890522711
0.000133340760713
0.000132848173083
0.000132283981254
0.000131376084682
0.000129747416561
0.000126943570282
0.000122295781678
0.000114745917848
0.000102016295721
8.04945634973e-05
8.61185287547e-05
0.000117667010827
0.000135377592826
0.000145890050394
0.000152256431774
0.000155844283358
0.000157522193122
0.000157919327867
0.000157560998334
0.000156849312669
0.000156034021463
0.000155179769198
0.000154169471053
0.000152716384834
0.000150379885096
0.000146596258902
0.000140557347849
0.000130932163898
0.000114654516497
8.56290827609e-05
8.94717442578e-05
0.000125952742854
0.000145979922941
0.000157850573408
0.000165058537592
0.000169130474979
0.000171026141627
0.000171452754113
0.000170999856526
0.000170169455289
0.000169088362366
0.000167894850601
0.000166586926582
0.000164823004681
0.000162109486478
0.000157809556321
0.000151014133752
0.000140229826918
0.000121982558238
8.87405978157e-05
9.14654741106e-05
0.000130999034415
0.000152537603998
0.000165266644005
0.000172940405469
0.00017721935914
0.000179322954938
0.00017996334926
0.000179489468561
0.000178415824402
0.000177092153715
0.000175644566582
0.000173983907207
0.000171777859441
0.000168698344962
0.000164162056927
0.000156995863183
0.000145564011985
0.000126193532821
9.04102887064e-05
9.25181975274e-05
0.000133888456738
0.000156412783612
0.000169662471794
0.000177560516325
0.000182152241524
0.00018442504131
0.000184810371006
0.000183999717375
0.000182607750202
0.000181053249727
0.000179483425991
0.000177794026517
0.000175594950912
0.000172316183523
0.000167332848406
0.000160017813374
0.000148283029773
0.000128328900715
9.11473326172e-05
9.29536913782e-05
0.000135339431003
0.000158457778338
0.000171982360411
0.000180004077086
0.000184860718648
0.000186877689236
0.000186867080321
0.000185650076613
0.000183924507536
0.000182163476131
0.000180533051752
0.000178916412583
0.00017687409759
0.000173750643058
0.000168759171188
0.000161105643648
0.000149281424676
0.000129072363041
9.14434386374e-05
9.29921906059e-05
0.00013584779596
0.000159286734522
0.000172918193485
0.000181190044845
0.000185865934051
0.000187529730204
0.000187101924514
0.00018548905277
0.000183460554953
0.00018153467509
0.000179889709891
0.000178391816951
0.000176558147318
0.000173678799481
0.000168891167873
0.000161149369216
0.000149245201086
0.000129006768745
9.1532318049e-05
9.28706256206e-05
0.000135840578683
0.000159406016888
0.000173033752241
0.000181383277988
0.000185834819113
0.000187177172729
0.000186399116621
0.000184471141349
0.000182213717557
0.000180177291477
0.000178547268011
0.000177169161587
0.000175527684667
0.000172877068715
0.000168319462367
0.000160746492626
0.00014873393997
0.000128573842005
9.14360167412e-05
9.27302273135e-05
0.000135640698666
0.000159193105768
0.00017274716622
0.000181048833861
0.000185319393526
0.000186443890786
0.000185447761739
0.000183335970822
0.00018095215701
0.000178861752533
0.000177255658151
0.000175966121484
0.000174453056164
0.000171956568913
0.000167567626841
0.000160156431988
0.000148145913448
0.000128105386334
9.12671058683e-05
9.2665486899e-05
0.000135435763585
0.000158856560444
0.000172290990526
0.000180464779926
0.000184640123462
0.000185688786939
0.000184640154381
0.000182501598328
0.000180112322348
0.000178028494324
0.00017643845734
0.000175176763941
0.000173701905138
0.000171258176585
0.000166943894983
0.00015963165102
0.000147701761649
0.00012778630315
9.11224733849e-05
9.27418818572e-05
0.000135247140136
0.000158428247044
0.000171710838984
0.000179691249263
0.000183864230419
0.000184982662483
0.000184046140961
0.000182032711237
0.00017975343507
0.000177738012627
0.000176158534527
0.000174853810699
0.000173319372732
0.000170823928892
0.000166487904386
0.000159207092782
0.0001474295382
0.000127659032219
9.10861933176e-05
9.28222879469e-05
0.000134909638072
0.000157746594819
0.000170840186761
0.000178540920567
0.000182772676298
0.000184073078971
0.000183378252218
0.000181607693612
0.00017952421425
0.000177622410404
0.000176058654979
0.000174679170393
0.000173024200355
0.000170406557237
0.00016598460885
0.000158698422363
0.000147149054536
0.000127568580292
9.10807193389e-05
9.27332492982e-05
0.000134129416046
0.000156484207964
0.000169326767565
0.000176666185693
0.000180917334444
0.000182451938475
0.00018207422261
0.000180622406404
0.000178793606249
0.00017704124642
0.000175511210318
0.000174056911527
0.000172266914628
0.000169507494115
0.000164992985006
0.000157748067243
0.000146516236571
0.000127196635763
9.09005917503e-05
9.22571779597e-05
0.000132513298898
0.000154182383154
0.0001666680598
0.000173845606656
0.000177724486885
0.000179433414501
0.000179378896639
0.000178270736444
0.000176728969922
0.000175160393555
0.000173699236911
0.000172206175213
0.000170317797915
0.000167461557373
0.000162937356623
0.000156018340804
0.00014506386539
0.000126140581598
9.03990880036e-05
9.11882235204e-05
0.000129591745505
0.000150262916532
0.000162212522321
0.000169150249832
0.000172740989978
0.000174242864012
0.00017441590315
0.000173619034362
0.000172369179003
0.000171014073538
0.000169671599652
0.000168213787192
0.000166324628455
0.000163506500545
0.000159310014885
0.00015277521976
0.000142177146514
0.000123872266562
8.95533040269e-05
8.92193600032e-05
0.000124671366087
0.000143896138238
0.000155040819621
0.000161560415588
0.000164987817072
0.000166311770646
0.000166283868779
0.00016558115153
0.000164588835259
0.000163469579346
0.00016231282689
0.000161019897531
0.000159433314697
0.000157033550085
0.000153191697379
0.000147015713256
0.000137019345728
0.000119762832033
8.79180795863e-05
8.59317826419e-05
0.000116669858499
0.000133718841693
0.000143627607865
0.000149421636015
0.000152475556302
0.000153678109545
0.000153691148495
0.000153052729319
0.000152171270666
0.000151285813326
0.000150447452945
0.000149523623807
0.000148229250701
0.000146155264494
0.000142747836531
0.000137216611635
0.000128240359151
0.000112772661045
8.4943688376e-05
8.06895365909e-05
0.00010329924473
0.000116611459604
0.000124420433703
0.000128974961519
0.000131307316057
0.000132173731322
0.000132130631069
0.000131616832186
0.000130968445919
0.000130373609825
0.000129863301963
0.000129314951905
0.000128469974679
0.000126976879744
0.000124380609803
0.000120017688514
0.000112871464653
0.000100688165061
8.00437026116e-05
7.38750381487e-05
8.0764426082e-05
8.61052877891e-05
8.93662613005e-05
9.11290914862e-05
9.19918455191e-05
9.22857677119e-05
9.22797301518e-05
9.21592561899e-05
9.19581390153e-05
9.17604184999e-05
9.1604426483e-05
9.14476913863e-05
9.11704863321e-05
9.06295426411e-05
8.95885433254e-05
8.78002290623e-05
8.47872956083e-05
7.99121326121e-05
7.36329866964e-05
8.03677876951e-05
0.000101519934994
0.000115115832277
0.000123626448628
0.000128946063823
0.000132081392399
0.000133680968698
0.000134209152981
0.000134055782652
0.000133590376689
0.000133017173054
0.000132394834825
0.000131614272478
0.000130396064198
0.000128391795004
0.000125196510694
0.000120204896428
0.000112430881542
9.99468046254e-05
7.99787809653e-05
0.000101544466794
0.000388810628475
0.00052334718438
0.000600783552607
0.000648306792402
0.000676655469972
0.000691699809078
0.000697485535805
0.000697128036921
0.000692935766711
0.000686472541189
0.000678326033946
0.000668069265542
0.000654391213948
0.000634789312422
0.000605580450575
0.000561172730801
0.000491303658687
0.000369885378483
9.98917118557e-05
0.000115150219182
0.000522159876996
0.000727331111201
0.000847047969571
0.00092096361624
0.000965129747552
0.000988417246905
0.000997087866103
0.000996119603872
0.00098915247764
0.000978879873127
0.000966259700922
0.000950500543113
0.000929527642754
0.000899354834444
0.000854222642322
0.000785514448876
0.000677637112362
0.000492478519741
0.000112332177268
0.000123722659789
0.000599345301583
0.000846861394572
0.000991989001311
0.0010813068939
0.00113387133932
0.00116035944195
0.00116865117485
0.00116567162156
0.00115524316225
0.00114182734457
0.00112645275079
0.00110755203628
0.00108325475585
0.00104796380809
0.000994386818796
0.000912046638804
0.000782249718374
0.000560312281771
0.000119889915278
0.000129167728618
0.00064746040812
0.000921763794954
0.0010825661759
0.00118042723252
0.00123600515586
0.00126095231017
0.00126395209983
0.00125486458643
0.00123994406945
0.00122338277138
0.00120673738562
0.00118881774507
0.00116592879946
0.00113028617046
0.00107356579334
0.000984424935179
0.000842442878756
0.000599255433093
0.000124428837588
0.000132487011892
0.000677117476108
0.000968074931034
0.00113797143877
0.00123935107835
0.001292773713
0.00131144319126
0.00130844184445
0.0012934951977
0.00127377676684
0.00125399806507
0.00123604095567
0.00121874834567
0.00119796350569
0.00116616537835
0.00111259950645
0.00102157583503
0.000874060760279
0.000619886880006
0.000126942507182
0.000134325343141
0.000694129543222
0.000994633593476
0.00116895732211
0.0012703850988
0.00131786841661
0.00133042818765
0.00132103245933
0.00130005535304
0.00127552896906
0.00125274431326
0.00123380441869
0.00121749129586
0.00119929356517
0.0011712615187
0.00112216924075
0.00103509689513
0.000886677146403
0.000628511179578
0.000128076638316
0.00013516033909
0.000702462271548
0.00100753877886
0.00118295651971
0.00128104847159
0.00132374167884
0.00133057651164
0.00131507259349
0.00128850233838
0.00125970997022
0.00123445324925
0.00121493296642
0.00119980494888
0.00118425064837
0.00115987229604
0.0011151312243
0.00103352155227
0.000887511231969
0.000629774737715
0.000128290662491
0.000135376170498
0.000705143109484
0.0010115450186
0.00118632978717
0.00128088270593
0.00131950086391
0.00132160289676
0.00130118320154
0.00127029433007
0.00123838126301
0.00121145371784
0.00119169055441
0.00117756522687
0.00116412250794
0.00114265247869
0.00110138526081
0.00102381641666
0.000882520840449
0.000627281525726
0.000128070974326
0.000135275217052
0.000704318083644
0.00101007908619
0.00118356910901
0.00127553700465
0.00131135174036
0.00131039362268
0.00128695960677
0.00125357772167
0.00121991487251
0.00119218554428
0.00117244682303
0.00115898353145
0.0011467329832
0.00112697032184
0.0010878808028
0.00101308963005
0.000875881238583
0.000623640572251
0.000127730997904
0.000135067366968
0.000701186555238
0.00100510017749
0.0011771952506
0.00126803527715
0.00130272704173
0.00130075904314
0.00127652224942
0.00124262188567
0.00120872665438
0.00118098818526
0.00116135651206
0.00114804429217
0.00113598623306
0.00111659413878
0.00107820518891
0.00100467537264
0.000869736890237
0.000620224799771
0.00012744713651
0.000134766091425
0.000696070495268
0.000997097030324
0.0011678058013
0.00125900432202
0.00129430427628
0.00129340218921
0.00127055561303
0.00123803985218
0.00120531581278
0.00117824153045
0.00115872404626
0.00114503279145
0.00113222623051
0.00111194173822
0.00107284032051
0.000999072481094
0.000864479656258
0.000617225625083
0.000127242361415
0.000134196197586
0.000688330578786
0.000984967340842
0.00115392095129
0.00124655195001
0.00128393762821
0.00128590006947
0.00126635261594
0.00123690163961
0.00120649256603
0.00118070982247
0.0011613715044
0.00114693962411
0.00113258038135
0.00111036653309
0.00106941073318
0.000994238670999
0.000858666512299
0.000613755805641
0.000126997526702
0.000133094920777
0.000676301011907
0.000966022712889
0.00113193404433
0.00122585007865
0.00126661321845
0.00127273713058
0.00125784648978
0.00123274559855
0.00120565674698
0.00118174941292
0.0011627997113
0.00114739977808
0.00113101547552
0.00110626522751
0.00106280941594
0.000985627901765
0.000849255506247
0.000607921549549
0.000126416170033
0.000131108771691
0.000657326698854
0.00093610741884
0.00109632143641
0.00118894171021
0.00123434669703
0.00124543675564
0.00123586395158
0.00121578934406
0.00119266889468
0.00117118529197
0.00115299142726
0.00113681311912
0.00111847171824
0.00109121264566
0.00104516919279
0.000965480902536
0.000831631280488
0.000596755100338
0.000125118171297
0.000127788878665
0.000627674024533
0.000889523839645
0.00104018043393
0.00112873111047
0.001175527209
0.00119237265589
0.00118830640642
0.00117349702848
0.00115465301275
0.00113603087223
0.00111911185583
0.00110269582519
0.00108291786877
0.0010537611901
0.00100539109432
0.000926852555668
0.000799411533717
0.000576215825082
0.000122612669217
0.000122506791132
0.000581630466162
0.000817631169444
0.00095305932075
0.00103335689502
0.00107739152362
0.00109604066047
0.0010976312964
0.00108867868661
0.00107427482565
0.00105890368535
0.00104390344502
0.0010280583677
0.00100718054474
0.000977125014463
0.000931337884552
0.000859508886719
0.000743711475124
0.000540345554465
0.00011828052754
0.000114254068832
0.000508576685765
0.000704456079301
0.000815958368806
0.000882103312531
0.000918911651158
0.000935474104697
0.000938385146039
0.000932806371425
0.000922810942193
0.000911198345542
0.000898956753323
0.000885321722447
0.000867816880133
0.000842740468148
0.000804626666039
0.000745107300803
0.000648971685534
0.000478571428464
0.000111140207563
0.00010108243672
0.000381357377052
0.000510285455592
0.000582403132465
0.000624793265458
0.000648293223405
0.00065898092078
0.000661141152264
0.000658063814076
0.000652242480492
0.000645304482508
0.000637839725873
0.000629397127331
0.000618496488963
0.000602730330205
0.000578488308736
0.000540203090654
0.000477613892236
0.000364499582196
9.92361390971e-05
8.02750080536e-05
0.000101012369122
0.000114142954138
0.000122211874258
0.000127119313589
0.000129881586782
0.000131163136071
0.000131439654542
0.000131119923807
0.000130571594818
0.000129981070267
0.000129388695465
0.000128691387404
0.000127648845735
0.000125905477461
0.000123045921275
0.000118481523778
0.00011121862999
9.92805010001e-05
7.95945814091e-05
8.62654092589e-05
0.000116586147281
0.000135119317264
0.000146704208465
0.000154046812568
0.000158465826317
0.000160786385291
0.000161632675362
0.000161517246677
0.000160843884279
0.00015987325046
0.000158689710555
0.000157186712578
0.00015509547573
0.000151996934542
0.000147334191437
0.000140332106882
0.00012972237298
0.000112895879685
8.51575489141e-05
0.000116651008359
0.000526593833237
0.000732113788987
0.000852510430487
0.000927574095655
0.000973082344438
0.000997651652523
0.00100734805446
0.00100696398533
0.00100024615725
0.000989745990418
0.000976513801425
0.000959938578117
0.000937763082289
0.000906185236328
0.000859545606644
0.000789373989574
0.000680262236048
0.000494147165642
0.000112795075904
0.000135211213129
0.000729901988732
0.00106573588265
0.00126717469226
0.0013929339924
0.00146842680547
0.00150824273531
0.00152293678845
0.00152089650816
0.00150883561156
0.00149130420643
0.00147013384159
0.00144419117822
0.00140938175672
0.00135904695848
0.00128328648291
0.00116754315367
0.00098640110759
0.000682472396608
0.000129452265107
0.000146886690341
0.000849582519107
0.00126648558877
0.00151861455747
0.00167515647465
0.00176731210273
0.00181354971284
0.00182781871125
0.00182104731937
0.00180267278219
0.00177900861968
0.00175254644369
0.00172170127317
0.00168064419093
0.00162086804326
0.00152916733658
0.001386960068
0.00116266398527
0.000788273104746
0.000139542204998
0.000154398145658
0.000925329576205
0.00139376398082
0.00167730519648
0.00185127307653
0.00195039739523
0.00199564301348
0.0020035798229
0.0019887259288
0.0019625982116
0.00193275673067
0.00190236786841
0.0018696790585
0.00182818020862
0.00176661216921
0.00166843731725
0.00151284003329
0.00126434363627
0.000849083478013
0.000145587300811
0.000159065603551
0.000972776335265
0.00147306775071
0.00177482169119
0.0019566545257
0.00205546095234
0.00209449607984
0.00209273712831
0.00206756682697
0.00203264762777
0.00199660650315
0.00196317196296
0.00193028549836
0.00189072707651
0.00183221347268
0.00173600002292
0.00157654651846
0.00131700138597
0.000880793395912
0.000148871582324
0.000161715490359
0.00100045877667
0.00151890175905
0.00182966871125
0.00201294770039
0.00210708236233
0.00213685988619
0.00212337387651
0.00208700147803
0.00204323879272
0.00200155211914
0.00196602310153
0.00193419487331
0.00189812962518
0.00184487870327
0.00175442295758
0.00159839504171
0.0013367279582
0.000893013345045
0.000150262504418
0.000162971862276
0.00101431138564
0.00154148305122
0.00185514686565
0.00203581855376
0.00212352690433
0.00214327213036
0.00211854636192
0.0020719506024
0.00202046358854
0.00197422210383
0.00193744987831
0.00190732858312
0.00187531652833
0.00182771314058
0.00174396569684
0.00159388039912
0.00133604748425
0.000893095600801
0.000150457446149
0.000163339828474
0.00101890024001
0.00154877734593
0.00186196095542
0.00203855639759
0.00211982429795
0.0021312485583
0.00209778016194
0.00204345196655
0.00198625611618
0.00193682775661
0.00189940256337
0.00187088586489
0.00184230879515
0.00179945073037
0.00172130712562
0.00157704379755
0.00132485847445
0.000886956587482
0.000150035443744
0.000163201219689
0.00101758600649
0.00154660106006
0.00185785479223
0.00203081573327
0.00210745816043
0.00211360151909
0.00207495336435
0.00201624805496
0.0019559216158
0.00190482455069
0.00186715123009
0.00183960787732
0.0018130044919
0.00177295545216
0.0016983314207
0.00155820588068
0.00131092299596
0.000879082787967
0.000149421380738
0.000162775602769
0.00101233767701
0.00153832744059
0.00184722540257
0.00201815388089
0.00209285986079
0.00209730483027
0.00205737036783
0.00199784974452
0.00193709800204
0.00188585177865
0.00184821328427
0.00182080738702
0.00179445850062
0.00175495230746
0.00168138610989
0.00154310342266
0.00129887743744
0.000872032823697
0.000148856887024
0.000162099689742
0.00100364285769
0.0015247306934
0.00183111177982
0.00200168850979
0.00207724204503
0.0020835897638
0.0020461849056
0.00198926968378
0.00193066184412
0.00188069332763
0.00184332644961
0.00181523937239
0.00178750891542
0.00174639158604
0.00167150994814
0.00153278193086
0.00128962779291
0.000866230611968
0.000148396573446
0.000161013377467
0.000990421803935
0.00150383292578
0.00180686324121
0.00197789010944
0.00205640338367
0.00206782384302
0.00203642747907
0.00198522018288
0.00193104648864
0.00188365328819
0.00184685249543
0.00181751653144
0.00178716885543
0.00174277157807
0.00166466394149
0.0015237662069
0.00128057138699
0.000860265549348
0.000147870706219
0.000159197791571
0.000970070816196
0.00147098496499
0.00176814061961
0.00193893989936
0.00202107879537
0.0020397601574
0.00201706779331
0.00197399277413
0.00192603309834
0.00188232401446
0.00184652720698
0.00181586537885
0.00178248916631
0.00173409876156
0.00165170140649
0.00150829381146
0.00126576999168
0.000850962053932
0.000146929487727
0.000156206511556
0.000938585178681
0.00141916423502
0.00170549196912
0.00187304142846
0.00195816665042
0.00198433157697
0.00197148444685
0.00193782498722
0.00189722606011
0.00185816502465
0.00182407461701
0.00179264981152
0.00175678026415
0.00170469568398
0.00161868397686
0.00147470881579
0.00123643538805
0.000833389957298
0.000145084843079
0.000151463567006
0.0008904451939
0.00133879174296
0.00160645184751
0.00176557972003
0.00185032677936
0.00188226606174
0.00187835486242
0.00185397314113
0.00182113321229
0.00178748293438
0.00175607303841
0.00172503530875
0.00168798820165
0.00163408257978
0.00154779350824
0.00140792932365
0.00118197995213
0.000801170396165
0.000141729712677
0.000144172149265
0.00081736968281
0.00121571265009
0.00145289730095
0.00159534714582
0.00167383725975
0.00170718099893
0.00170992082102
0.00169364028247
0.00166840154222
0.00164076657884
0.00161327580442
0.00158439654532
0.00154859001229
0.00149671897405
0.0014161482778
0.00128959128004
0.00108728647352
0.000745283053973
0.000136054700379
0.000133018818307
0.000703935543315
0.00102468739744
0.00121353434963
0.00132726931844
0.00139106520029
0.00141981798887
0.0014246208849
0.00141443712791
0.0013965394735
0.0013757396909
0.00135383272476
0.00132977646014
0.00129965821864
0.00125669929238
0.00119132144924
0.00108970028533
0.000927620718219
0.0006501457266
0.000126769463843
0.000115273545382
0.000510901389433
0.000707123523217
0.000819244387601
0.000886280112898
0.000923990130403
0.000941238657931
0.000944464995821
0.000938868237909
0.000928552722644
0.000916243534066
0.00090305256292
0.000888424012704
0.00087014042181
0.00084431993935
0.00080542475137
0.000745175790181
0.000648531999569
0.000478124815715
0.000111232807355
8.59136123736e-05
0.000115140885901
0.000132756726413
0.000143522568157
0.000150100311108
0.000153804759774
0.000155479936026
0.000155780283513
0.000155249376046
0.000154310028282
0.000153226287744
0.000152083852058
0.000150785246979
0.000149058629699
0.000146495893247
0.000142552952207
0.000136460468725
0.000126942548856
0.000111328948554
8.44579006455e-05
9.23720616312e-05
0.000131085557868
0.000153715071697
0.000167865398431
0.000176941796377
0.000182481010537
0.000185431306774
0.000186526414462
0.000186378477144
0.000185467010851
0.000184102389818
0.000182394770247
0.000180239452181
0.000177316909958
0.00017314107006
0.000167048588736
0.000158139440835
0.000144946989564
0.000124321374665
8.97045504495e-05
0.000131210600998
0.000641520826451
0.000901687908789
0.00105539525595
0.00115179650678
0.00121029261787
0.00124159661299
0.0012534491655
0.00125213744779
0.00124267803169
0.00122850914859
0.00121109689816
0.00118970104889
0.00116132545771
0.00112086581232
0.00106103471747
0.000971229444215
0.000832289625014
0.000596961198488
0.00012414661471
0.000153878924008
0.000898883830581
0.00133107196421
0.00159148216714
0.00175381712693
0.00185038668877
0.00189999677883
0.00191643132832
0.00191103449652
0.00189291279868
0.00186833148096
0.00183998490195
0.00180657315522
0.00176270278567
0.00169923436167
0.00160318083691
0.00145564223132
0.00122398958058
0.000835134700163
0.000144381076744
0.000168151583055
0.00105216018855
0.00159123905513
0.00191767765263
0.00211910436046
0.00223608224993
0.00229251690721
0.00230564702256
0.00229158744299
0.00226327514595
0.00222918476653
0.00219306720897
0.00215308967177
0.00210220795876
0.00202844131446
0.00191406600498
0.00173432584921
0.0014483388432
0.000968569575001
0.000156554107064
0.000177450802913
0.00115017286194
0.00175668674043
0.00212320841107
0.00234675063367
0.00247220135558
0.00252498339769
0.00252726478456
0.00249999578495
0.00245938060046
0.00241567495234
0.00237347769832
0.00233054490169
0.00227850638225
0.00220347401186
0.0020842929135
0.00189042851042
0.00157527666472
0.00104400865543
0.000163711289809
0.000183313153313
0.00121210515593
0.0018597902736
0.00224925731424
0.00248370369596
0.00260711725886
0.0026479423048
0.00263353302807
0.00258974906365
0.00253566081947
0.00248293042751
0.00243653972802
0.00239377189653
0.00234484748165
0.00227404499754
0.00215856649819
0.00196416285109
0.00163759622258
0.00108131205765
0.000167349911572
0.000186691775072
0.00124853548263
0.00191916242972
0.00232030934446
0.00255651686964
0.00267058395342
0.00269458456063
0.00266089216424
0.00259999212873
0.00253335402078
0.00247339618409
0.00242485242802
0.00238439957044
0.00234105568435
0.00227756731106
0.00216965063667
0.00198186467392
0.0016563191502
0.00109273813871
0.000168527324269
0.00018832115433
0.00126696979683
0.00194810692497
0.00235294584038
0.00258477380146
0.0026867643383
0.00269379298447
0.00264251796007
0.00256718223187
0.00249083717008
0.00242601449216
0.00237677136186
0.00233918227393
0.0023014576867
0.00224550917212
0.00214607467507
0.00196687201723
0.00164826499195
0.00108803293748
0.00016815927462
0.000188802574988
0.00127330038437
0.001957080098
0.00236037917628
0.00258571639989
0.00267698421938
0.00267084426336
0.0026070826996
0.00252197724693
0.00243936518521
0.00237167458367
0.00232233512385
0.00228701104868
0.00225338045524
0.00220304180022
0.00211043733842
0.00193870204546
0.00162768838849
0.00107549937119
0.000167038290025
0.000188588687142
0.00127188448658
0.00195384665356
0.00235359281351
0.00257335388817
0.00265734403709
0.00264339345075
0.0025730897429
0.00248348335445
0.00239824102296
0.00232946180303
0.00228029963956
0.00224610732626
0.00221430028474
0.00216664026534
0.00207776701184
0.00191074346841
0.00160551781138
0.00106157695347
0.000165773442386
0.000187940917569
0.00126529603878
0.00194300414752
0.00233923213095
0.0025557265839
0.00263670934962
0.00262046528142
0.00254905637431
0.00245946095425
0.00237477161895
0.00230656427292
0.00225775783905
0.00222358515691
0.00219157603644
0.00214389682709
0.00205561048514
0.0018901342793
0.00158791616888
0.00104990932512
0.000164704047982
0.000186903825014
0.00125406964527
0.00192551470013
0.00231855809508
0.00253438655625
0.00261674294708
0.00260357392446
0.00253602358263
0.00245028452729
0.00236882041411
0.00230265150915
0.00225439784575
0.00221931684321
0.00218542988786
0.00213546253808
0.00204499843014
0.00187813344168
0.00157614561221
0.00104145374476
0.000163900638696
0.00018529741178
0.00123664927477
0.00189860920452
0.00228734699608
0.00250413966916
0.00259179539659
0.00258696875171
0.00252828917514
0.00245018263304
0.00237421775421
0.00231111791818
0.00226355262664
0.0022269011845
0.0021898421869
0.0021357761638
0.0020409420212
0.0018703859931
0.0015666613514
0.00103421294281
0.000163157959066
0.000182749291467
0.00120951336581
0.0018559995843
0.00223671065335
0.00245368448559
0.00254913672822
0.00255700194542
0.00251186141602
0.00244485156507
0.00237631917465
0.00231705895834
0.00227031949231
0.00223189755716
0.00219114966286
0.00213210868811
0.00203194922242
0.00185670775869
0.00155130502649
0.00102349472907
0.000162033918588
0.000178737287396
0.00116741859242
0.00178838379512
0.00215526575385
0.00236811094383
0.00247059363048
0.00249244991338
0.00246325357993
0.00240987144778
0.00235084833341
0.00229680888746
0.00225162472204
0.00221178060374
0.00216750365854
0.00210385153599
0.0019991309266
0.00182057550678
0.00151794430282
0.00100259309707
0.000159900553089
0.000172597436095
0.00110334761172
0.00168322905067
0.00202734413614
0.00222936589404
0.00233373546943
0.00236669547835
0.00235243862516
0.00231309682297
0.00226490536993
0.00221771708745
0.00217555004422
0.00213561314718
0.00208937290939
0.00202326566241
0.00191696244489
0.00174092042377
0.00145095895244
0.000962661387879
0.000155984313288
0.000163435272069
0.00100715844917
0.00152229034483
0.00182867730979
0.00201065665849
0.00210851628866
0.002146604658
0.00214345562537
0.00211643048937
0.0020790200986
0.00203980070893
0.0020023962419
0.00196471881215
0.00191961031372
0.00185533494384
0.00175415320035
0.0015918411586
0.00133062810062
0.000892248681298
0.000149320265559
0.000149760523904
0.000860368125594
0.00127354453979
0.00151814667021
0.00166485600173
0.00174573396719
0.00178008271688
0.00178254806208
0.00176530620529
0.00173825387579
0.00170805146712
0.00167763893085
0.00164564900381
0.00160652325791
0.00155119713878
0.00146685691156
0.0013351620285
0.00112574648748
0.000772535600886
0.000138434572111
0.000128235069053
0.000615882765912
0.000864216390431
0.00100797272112
0.00109445133052
0.00114277477394
0.00116391442282
0.0011661599506
0.00115644280159
0.0011403953592
0.00112187954551
0.00110264603922
0.00108206462143
0.00105713025637
0.00102276051782
0.000971791175153
0.000893813884184
0.000770851551378
0.000558992606321
0.000120244964128
9.13490705678e-05
0.000128003426865
0.000149256175568
0.000162221695495
0.000170155947689
0.000174558054093
0.000176392811999
0.000176446978556
0.000175405074044
0.00017381380413
0.000172033141255
0.000170204186151
0.000168235506196
0.000165818831811
0.000162466913704
0.000157518636612
0.00015010362031
0.000138775958262
0.000120419930348
8.82406234511e-05
0.000100139348431
0.000147705340316
0.000174545034832
0.000191453517324
0.000202496546762
0.000209386140994
0.000213178851148
0.000214716732238
0.000214707527299
0.000213698161536
0.000212041750514
0.00020986381421
0.000207044336944
0.000203215195165
0.000197794190595
0.000190016748282
0.000178866109528
0.000162652843007
0.000137720521848
9.48951321496e-05
0.00014790445207
0.000766904964588
0.00108182956064
0.00126790289486
0.00138465848766
0.00145524380166
0.00149252538898
0.00150596663728
0.00150332294104
0.00149084872733
0.00147295892395
0.00145157854021
0.001425813805
0.00139178740816
0.00134303139717
0.00127075776409
0.00116235776826
0.000995234306175
0.000711905456239
0.00013741802113
0.000174768743006
0.00107933992482
0.00160187271884
0.00191384140091
0.00210652917826
0.0022196411194
0.00227571861458
0.00229045309206
0.00227861938089
0.00225224453846
0.00221932984335
0.0021835749855
0.00214331249669
0.00209202338012
0.00201883418122
0.00190713842447
0.00173422120206
0.00146128404604
0.000997592921828
0.000161624882524
0.000191849974628
0.00126629673077
0.00191515451861
0.0023025485793
0.00253984735246
0.00267453710274
0.00273303607654
0.00273733255353
0.00270929869401
0.00266615945835
0.00261883557113