/*--------------------------------*- C++ -*----------------------------------*\
| =========                 |                                                 |
| \\      /  F ield         | OpenFOAM: The Open Source CFD Toolbox           |
|  \\    /   O peration     | Version:  3.0.1                                 |
|   \\  /    A nd           | Web:      www.OpenFOAM.org                      |
|    \\/     M anipulation  |                                                 |
\*---------------------------------------------------------------------------*/
FoamFile
{
    version     2.0;
    format      ascii;
    class       volScalarField;
    location    "3.2";
    object      ddt0(epsilon);
}
// * * * * * * * * * * * * * * * * * * * * * * * * * * * * * * * * * * * * * //

dimensions      [0 2 -4 0 0 0 0];

internalField   nonuniform List<scalar> 
15984
(
-0.000631763117663
-0.000698124642364
-0.000721092323729
-0.000725652589675
-0.000725713303611
-0.000724932344978
-0.000723865045001
-0.000722051857794
-0.000719591520302
-0.00071712754211
-0.000714324616487
-0.000713639796641
-0.000713462117485
-0.000713508139548
-0.000713607674757
-0.000713701365622
-0.000713777643908
-0.000713878528789
-0.00071395505508
-0.000713996860086
-0.000714028813962
-0.000714081554452
-0.000714181997481
-0.000714324161843
-0.000714488151596
-0.000714632337824
-0.000714755900199
-0.000714856126593
-0.000714928400087
-0.00071496399743
-0.000714979932995
-0.000715014319692
-0.000715013056427
-0.000714981809194
-0.000715058555228
-0.000715313517459
-0.000715448596056
-0.000711982855031
-0.000691502191284
-0.000628835146433
-0.000885211298877
-0.00125133589847
-0.00140047081542
-0.00143961248915
-0.00144561021358
-0.00144230474276
-0.00143560252215
-0.0014282033582
-0.00141776494522
-0.00140518178958
-0.00139781312909
-0.00139383130227
-0.00139318302273
-0.00139317859523
-0.00139327809291
-0.00139331963215
-0.00139328184643
-0.00139318371924
-0.00139318988453
-0.00139313896991
-0.00139303282128
-0.00139300632598
-0.00139314601233
-0.00139345728456
-0.00139384346737
-0.00139418408844
-0.00139447196033
-0.00139473152915
-0.00139494598806
-0.00139503445867
-0.00139505428893
-0.00139516307983
-0.00139540249951
-0.00139589503885
-0.00139734315658
-0.00139912060031
-0.0013961648258
-0.00136201913117
-0.00122418368703
-0.000872144306688
-0.000989922169993
-0.00165844664392
-0.00193568890715
-0.0020125989256
-0.00202561356305
-0.00202147123675
-0.00201368327608
-0.0020073708727
-0.00199402104796
-0.00197195354737
-0.00195531623885
-0.00194959450931
-0.00194799263698
-0.00194833830715
-0.00194879387577
-0.00194904048213
-0.00194906408514
-0.0019488922219
-0.00194866024505
-0.00194845435071
-0.00194821928356
-0.00194809253389
-0.00194824570595
-0.00194867466986
-0.00194920310501
-0.00194969350097
-0.00195013691556
-0.00195062825695
-0.00195097294269
-0.00195110123229
-0.00195114914656
-0.00195137115566
-0.00195184294672
-0.00195300174248
-0.00195589514036
-0.00195885130118
-0.00194862181334
-0.00187525312532
-0.00161472896725
-0.000971347477136
-0.00103338837351
-0.00190768470411
-0.00227611522524
-0.00237556153787
-0.00239097597218
-0.00238734774228
-0.00238519680648
-0.0023922223869
-0.00238886063875
-0.00236224198114
-0.00233634551663
-0.00232507202269
-0.00232317416453
-0.00232401934029
-0.00232508926206
-0.00232572037813
-0.00232592511122
-0.00232577273851
-0.00232535223253
-0.00232494211702
-0.00232455625326
-0.00232433369769
-0.00232443634745
-0.00232491697355
-0.00232554416842
-0.00232616204123
-0.00232685151053
-0.0023275447349
-0.00232799484034
-0.00232818709833
-0.0023283146876
-0.00232862503369
-0.00232936701144
-0.0023312585498
-0.00233547000485
-0.00233911243777
-0.00232088873962
-0.0022114398004
-0.001853154849
-0.00101122571706
-0.0010517060268
-0.00204699277403
-0.00246738598556
-0.00258141746403
-0.00260559491565
-0.00260348577222
-0.00260301825926
-0.00262067755133
-0.00263921739137
-0.00261448088728
-0.00257982493276
-0.00256283374535
-0.0025594985091
-0.00256080067945
-0.00256264990415
-0.00256379973564
-0.0025642579672
-0.00256416987863
-0.0025636824651
-0.00256307739358
-0.00256255825655
-0.00256225622681
-0.00256232789099
-0.00256280723197
-0.00256350647255
-0.00256424396311
-0.00256514831421
-0.00256595071487
-0.00256647887845
-0.00256673200782
-0.00256688830779
-0.00256730394772
-0.00256834173908
-0.00257099181007
-0.00257647348449
-0.00258040626868
-0.00255557751287
-0.00241727462973
-0.00198889039063
-0.00102689275443
-0.00105950139682
-0.00211483685436
-0.00255964458779
-0.00270327908603
-0.00272696572895
-0.00272449309946
-0.00272966712516
-0.00274932577414
-0.00278292886962
-0.00276545750282
-0.00272345266451
-0.00270078670575
-0.00269578172989
-0.00269750360751
-0.00270016023067
-0.00270191459434
-0.00270265443433
-0.00270264788168
-0.00270212548717
-0.0027013877672
-0.00270076946154
-0.00270040703357
-0.00270045541896
-0.00270095010813
-0.00270168956121
-0.00270252250744
-0.00270352936547
-0.00270439379582
-0.00270497503263
-0.00270524498477
-0.00270543031952
-0.00270596987912
-0.00270730232514
-0.0027106957904
-0.00271742637031
-0.00272188032974
-0.00269205509334
-0.00253360855489
-0.00205958866336
-0.00103250946922
-0.00106289399331
-0.00214154763385
-0.00260991612562
-0.00275441504285
-0.00277428200493
-0.00277093724481
-0.0027826943511
-0.00281565463729
-0.00285125266412
-0.0028467023872
-0.00279900174085
-0.00277122681656
-0.00276447468125
-0.00276671470982
-0.00277014513955
-0.00277247583127
-0.00277350081843
-0.00277357600609
-0.00277302603644
-0.00277220992143
-0.00277152231691
-0.00277111798579
-0.00277115712379
-0.00277165649336
-0.00277242611463
-0.0027732959669
-0.00277434102117
-0.00277523882481
-0.00277584042612
-0.00277611665952
-0.002776332543
-0.00277699995776
-0.00277860250564
-0.00278268236761
-0.00279061013939
-0.00279590490755
-0.00276322843162
-0.00259226192316
-0.00209169222075
-0.00103401229833
-0.00106468282446
-0.00214923731974
-0.00262821068079
-0.00276838706004
-0.00278389201747
-0.00277934816772
-0.00279626923401
-0.00283945824921
-0.00286648874932
-0.00288465876241
-0.00283251192957
-0.00280056311608
-0.00279250943716
-0.00279501629562
-0.00279911314532
-0.00280191883427
-0.00280320475667
-0.00280334551247
-0.00280277555753
-0.00280190715406
-0.00280117565418
-0.00280075204677
-0.00280077934856
-0.00280129438276
-0.00280208244966
-0.0028029375053
-0.0028039918061
-0.0028049013528
-0.0028055055067
-0.0028057838677
-0.00280602693533
-0.00280680972419
-0.00280863684416
-0.00281329866254
-0.00282228482591
-0.00282860437154
-0.00279483695532
-0.00261718662166
-0.0021032284421
-0.00103401725517
-0.00106580694946
-0.00215092327972
-0.00263342856507
-0.0027695168559
-0.00278152257152
-0.0027758225336
-0.00279592128916
-0.0028453794047
-0.00287721050344
-0.00289929768516
-0.00284380284072
-0.00280891198902
-0.00279994553349
-0.00280264570419
-0.00280721808007
-0.00281036878255
-0.00281183731234
-0.00281202978175
-0.0028114460291
-0.00281054894694
-0.00280979290741
-0.00280935401683
-0.00280939280485
-0.00280990398703
-0.00281070905149
-0.00281154582181
-0.00281258277116
-0.00281349283063
-0.00281409126721
-0.00281436976213
-0.0028146333789
-0.00281550349254
-0.00281749175312
-0.0028225807919
-0.00283236890456
-0.00283962036132
-0.00280577136598
-0.00262520372578
-0.00210565849038
-0.00103366717019
-0.00106638195338
-0.00215134211645
-0.00263468334849
-0.00276871806155
-0.00277893963299
-0.00277252704811
-0.00279385449962
-0.00284568341876
-0.0028798681919
-0.00290335418678
-0.00284608730574
-0.00280972043549
-0.002800303999
-0.00280310446211
-0.0028079219254
-0.00281125434909
-0.0028128130039
-0.00281303547753
-0.00281244574673
-0.00281153400464
-0.0028107739719
-0.00281032916483
-0.00281037167001
-0.00281088320345
-0.00281169591618
-0.0028125209084
-0.00281354235579
-0.00281444808473
-0.0028150414792
-0.002815320045
-0.00281559494349
-0.00281651233455
-0.00281858520335
-0.00282390161853
-0.0028341240359
-0.00284192993162
-0.00280826495036
-0.00262675082515
-0.00210545536163
-0.00103341885351
-0.00106635449602
-0.00215133776437
-0.00263466845723
-0.00276875900718
-0.00277902085315
-0.00277261500558
-0.00279393492919
-0.00284570835863
-0.00287983869423
-0.00290326427065
-0.00284606090711
-0.00280973594757
-0.00280032509778
-0.0028031174773
-0.00280792806374
-0.00281125608696
-0.00281281243629
-0.00281303370622
-0.00281244389434
-0.00281153295552
-0.0028107741924
-0.00281033101304
-0.00281037423733
-0.00281088715528
-0.00281170199351
-0.00281252639394
-0.00281354580118
-0.00281445075588
-0.0028150435947
-0.00281532288795
-0.00281559900933
-0.00281651678762
-0.00281859122418
-0.00282390859725
-0.0028341303667
-0.00284193538422
-0.00280826737581
-0.00262674285674
-0.00210544994363
-0.00103341987166
-0.00106573038767
-0.00215090007562
-0.00263339444053
-0.00276962661855
-0.0027817479251
-0.00277608858637
-0.00279610824437
-0.0028454223762
-0.00287712102891
-0.00289902548516
-0.00284371873684
-0.00280894946033
-0.00280000225657
-0.00280268160506
-0.00280723453052
-0.0028103717738
-0.00281183343841
-0.0028120233739
-0.00281143992979
-0.00281054544032
-0.00280979310776
-0.00280935729846
-0.00280940031963
-0.00280991354211
-0.00281072280873
-0.00281155877047
-0.00281259135156
-0.00281349896504
-0.00281409558994
-0.00281437605018
-0.0028146432494
-0.00281551487445
-0.00281750730316
-0.00282259929762
-0.00283238558707
-0.00283963464066
-0.00280577723728
-0.00262517641374
-0.00210564091606
-0.00103366948826
-0.00106456817239
-0.00214913965288
-0.0026281129214
-0.00276850918062
-0.00278416314329
-0.00277966740369
-0.00279647375286
-0.00283946245334
-0.00286639925752
-0.00288424110345
-0.00283239068807
-0.00280062227382
-0.00279259438269
-0.0027950711348
-0.00279913659602
-0.00280191864198
-0.00280319411889
-0.00280333054379
-0.0028027618389
-0.00280189801067
-0.00280117034333
-0.00280075296466
-0.00280078489952
-0.00280130431231
-0.00280209985556
-0.00280295061201
-0.00280399806467
-0.00280490391627
-0.00280550634584
-0.00280578759268
-0.00280603644496
-0.00280682209951
-0.00280865494205
-0.00281332073095
-0.0028223041669
-0.00282862074231
-0.0027948407151
-0.00261713976619
-0.00210319776353
-0.00103401977524
-0.00106275723188
-0.00214129757887
-0.00260969759443
-0.00275444956239
-0.00277445707189
-0.00277115387935
-0.00278279545311
-0.00281555615038
-0.0028520271999
-0.00284620454538
-0.00279887816956
-0.00277130891233
-0.00276457880597
-0.00276677775763
-0.00277016800677
-0.00277246903944
-0.00277348162609
-0.00277354959093
-0.00277300083891
-0.00277219036747
-0.0027715074788
-0.00277110991857
-0.00277115124105
-0.00277165616031
-0.00277243256649
-0.00277329706873
-0.0027743371817
-0.00277523086462
-0.00277583102009
-0.00277611102159
-0.00277633409996
-0.0027770056235
-0.00277861397012
-0.00278269779348
-0.00279062213912
-0.00279591493384
-0.00276322353778
-0.00259219884978
-0.00209165187873
-0.00103401364961
-0.00105936322227
-0.00211441863697
-0.00255925383853
-0.00270313285811
-0.00272696147798
-0.00272453016117
-0.00272961778333
-0.00274905824958
-0.00278242461599
-0.00276494706659
-0.00272336245815
-0.00270089161592
-0.00269587988126
-0.00269756693254
-0.00270017447041
-0.00270190138464
-0.00270262333247
-0.00270260813088
-0.00270208572117
-0.00270135546752
-0.0027007431912
-0.00270038324403
-0.00270043222423
-0.00270093305839
-0.00270167689173
-0.00270250633386
-0.00270350780761
-0.00270437016386
-0.00270495015324
-0.00270522459269
-0.00270541774589
-0.00270596239636
-0.00270730005455
-0.00271069685736
-0.00271742436222
-0.0027218764859
-0.00269203598857
-0.00253354097463
-0.00205954348834
-0.00103250900724
-0.00105158411489
-0.0020464575049
-0.00246708381489
-0.00258103385006
-0.0026053473165
-0.00260328351829
-0.00260277730549
-0.00262024124151
-0.00263861121004
-0.00261404769573
-0.00257978834645
-0.00256295837396
-0.00255961868338
-0.00256085539026
-0.0025626533634
-0.0025637781367
-0.00256421673564
-0.00256411888859
-0.00256363115386
-0.00256303178254
-0.00256251927504
-0.00256221730056
-0.00256228837611
-0.00256276853665
-0.00256347078413
-0.00256421085823
-0.00256510967436
-0.00256591029178
-0.00256643957347
-0.00256669700361
-0.00256686041505
-0.00256728094626
-0.00256832188994
-0.00257097549367
-0.00257645455151
-0.00258038683844
-0.00255550280838
-0.0024172170294
-0.00198885181195
-0.00102689108676
-0.00103328922874
-0.00190710594673
-0.0022755804129
-0.00237530352505
-0.00239084806121
-0.00238717599434
-0.00238504980378
-0.00239180520982
-0.00238827699346
-0.00236193888618
-0.00233637421312
-0.00232519833863
-0.00232326966551
-0.00232405807199
-0.00232509284587
-0.0023256916021
-0.00232587948807
-0.00232571793526
-0.00232529843474
-0.0023248945398
-0.00232451242718
-0.00232428460234
-0.00232438293176
-0.00232485922123
-0.00232548841487
-0.00232611005857
-0.00232680063995
-0.00232749344415
-0.00232794665649
-0.0023281424693
-0.0023282756858
-0.0023285891523
-0.00232933345103
-0.00233122778156
-0.00233543666872
-0.0023390818175
-0.00232083904683
-0.00221140165881
-0.00185312997323
-0.0010112257939
-0.000989846205704
-0.00165795108396
-0.00193504442982
-0.00201211650334
-0.00202520906715
-0.00202111532705
-0.00201332842672
-0.0020068948231
-0.00199357006576
-0.00197179333607
-0.00195538184261
-0.00194968898626
-0.00194806364009
-0.00194837173906
-0.00194879207947
-0.00194901365429
-0.0019490237668
-0.00194884399121
-0.00194861677135
-0.00194841797034
-0.00194817793287
-0.00194804724751
-0.00194819207331
-0.00194861021093
-0.00194913955232
-0.00194963129042
-0.0019500797421
-0.00195057691395
-0.00195092393989
-0.00195105644239
-0.00195110786318
-0.00195133156268
-0.00195180461815
-0.00195296587059
-0.00195585798431
-0.00195883768755
-0.0019486001844
-0.00187523883049
-0.00161472573593
-0.000971353106303
-0.00088516330233
-0.00125103357518
-0.00139999881812
-0.001439163398
-0.00144517779165
-0.00144194201954
-0.00143527631627
-0.00142786437158
-0.00141751284886
-0.00140512316461
-0.00139785503353
-0.00139390067331
-0.00139322945099
-0.00139320130603
-0.00139328134672
-0.00139330837359
-0.00139326061704
-0.00139316332265
-0.00139317765158
-0.00139312978844
-0.00139302368779
-0.00139299086292
-0.00139312490727
-0.00139342916067
-0.0013938076453
-0.00139414939589
-0.001394436269
-0.00139470053494
-0.00139491824685
-0.00139500699532
-0.00139502753241
-0.0013951345994
-0.00139537468312
-0.00139586869175
-0.00139734103249
-0.00139911392844
-0.0013961576531
-0.00136201334264
-0.00122418698104
-0.000872145433248
-0.00063175352684
-0.000698053647858
-0.00072094451793
-0.000725475765944
-0.00072552475353
-0.000724777742439
-0.000723733254348
-0.000721948363633
-0.000719536108128
-0.000717119164278
-0.000714359824172
-0.000713675361223
-0.000713488793703
-0.000713525897944
-0.000713617597249
-0.000713706135167
-0.000713782312797
-0.000713887274333
-0.000713967572012
-0.000714011733935
-0.000714043159204
-0.000714095120347
-0.000714194847881
-0.000714336217325
-0.000714500306662
-0.00071464621211
-0.000714770934932
-0.000714868374536
-0.000714939252055
-0.000714974812087
-0.000714990440592
-0.000715021981271
-0.000715017372327
-0.000714986134888
-0.000715046166672
-0.000715302921005
-0.000715441183232
-0.000711977837436
-0.000691493549862
-0.000628831808563
-0.000873870849259
-0.00123317764303
-0.00137785214764
-0.00141493197973
-0.00141927231977
-0.00141657910488
-0.00141264560219
-0.0014088026907
-0.00140357993295
-0.00139722531325
-0.00139298908514
-0.00139168786051
-0.00139110580537
-0.00139177514531
-0.00139252089023
-0.00139307630606
-0.00139342771369
-0.00139358964419
-0.00139365677066
-0.00139365887986
-0.00139365750297
-0.00139371131521
-0.00139387683433
-0.00139416109594
-0.00139448310371
-0.00139479039312
-0.00139506943245
-0.00139527539322
-0.00139539945126
-0.00139545073631
-0.0013954653165
-0.00139553160689
-0.0013955677618
-0.00139585368585
-0.00139703865626
-0.00139898165878
-0.00139608730706
-0.00136202211027
-0.00122427390039
-0.000872253824612
-0.00109802757884
-0.0013788450552
-0.00151510602553
-0.00155258020896
-0.00155759179333
-0.00155515307685
-0.00155132343809
-0.00154807479013
-0.00154415133429
-0.00153916689836
-0.00153609497525
-0.00153544597828
-0.00153588152665
-0.00153658920927
-0.00153720063033
-0.00153761281084
-0.00153785700664
-0.00153797120318
-0.00153802412592
-0.00153801675983
-0.00153796486039
-0.00153791595928
-0.00153790480531
-0.00153793937083
-0.00153798411365
-0.00153801655464
-0.00153803655543
-0.00153805264247
-0.00153804490727
-0.00153800963006
-0.0015379783041
-0.0015380296477
-0.00153827937341
-0.00153889885787
-0.00154035400648
-0.00154223103738
-0.00153858065892
-0.00150340412525
-0.00137219455109
-0.00109672627945
-0.00133886482757
-0.00161477053256
-0.00178141761763
-0.00183103536377
-0.00183865846565
-0.00183627528646
-0.00183287839473
-0.00183096429314
-0.00182746530812
-0.00182067686883
-0.00181545289185
-0.00181398832692
-0.00181448817017
-0.00181539098019
-0.00181616764378
-0.00181668169243
-0.00181697651768
-0.00181711460174
-0.00181716726322
-0.00181718006024
-0.00181715284122
-0.00181712403341
-0.00181713024274
-0.0018171708243
-0.00181720514031
-0.00181720664096
-0.00181718092249
-0.00181715255082
-0.00181709516931
-0.00181701516807
-0.0018169605224
-0.00181702474867
-0.00181735592184
-0.00181823476382
-0.00182015409566
-0.00182215815823
-0.00181529362999
-0.00176669408028
-0.00160461618036
-0.0013316031955
-0.00145216163506
-0.00177621699933
-0.00197467500317
-0.00203635001463
-0.00204653738644
-0.00204421675182
-0.00204145780234
-0.00204146032492
-0.00203952928901
-0.00203083323603
-0.00202257868253
-0.00201943761553
-0.00201976184571
-0.00202079901353
-0.00202179052261
-0.00202243945833
-0.00202280141271
-0.00202296598753
-0.00202301066952
-0.00202302419573
-0.00202301370416
-0.00202300413876
-0.00202302297039
-0.00202307345164
-0.00202310916311
-0.00202309878168
-0.00202306513824
-0.00202301767652
-0.00202293443643
-0.0020228361623
-0.00202278304618
-0.00202287646204
-0.00202332539516
-0.00202452083189
-0.00202697985763
-0.00202909938082
-0.00201876964649
-0.00195629725481
-0.00176153229905
-0.00144003359161
-0.00150599497017
-0.00187174414107
-0.00209462844248
-0.00216682860724
-0.00218051732559
-0.00217811969573
-0.00217491839852
-0.00217555530111
-0.00217742130876
-0.00216813239385
-0.00215684738082
-0.00215176543195
-0.00215149424995
-0.00215280813591
-0.0021540476294
-0.0021548560114
-0.00215529465849
-0.00215548737307
-0.00215553425792
-0.00215553519988
-0.00215553211671
-0.00215553655536
-0.00215556643569
-0.00215562023089
-0.00215565680832
-0.00215564313449
-0.00215561500222
-0.00215555357454
-0.00215545628466
-0.00215535163404
-0.00215529958605
-0.00215543109712
-0.00215601612119
-0.00215755327929
-0.0021605818183
-0.00216283396421
-0.00214958452794
-0.00207541212954
-0.00185390531199
-0.00149036284852
-0.00153068860803
-0.0019215461776
-0.00216037588556
-0.00224341853992
-0.00225835146302
-0.00225528595304
-0.00225231548156
-0.00225307401281
-0.00225706456503
-0.00224890281981
-0.00223515438736
-0.00222818553544
-0.00222734685732
-0.00222881934584
-0.00223031639211
-0.00223130085537
-0.00223182178173
-0.00223204356496
-0.00223209593286
-0.00223208748586
-0.00223208905958
-0.00223210440881
-0.00223214460426
-0.00223220171112
-0.00223223773142
-0.00223222396486
-0.0022321953538
-0.00223212244662
-0.00223201642683
-0.00223190395592
-0.00223185549789
-0.00223203015741
-0.00223275605524
-0.00223463671103
-0.00223824685954
-0.0022407834723
-0.00222547607672
-0.00214280700362
-0.00190261855624
-0.00151267220303
-0.00154098693393
-0.00194374150089
-0.00219372677436
-0.00228083025299
-0.002295083297
-0.00229095004936
-0.00228873672971
-0.00229148907704
-0.00229536719088
-0.00229068133521
-0.00227525421733
-0.00226666537907
-0.00226532471778
-0.0022669204419
-0.00226866511111
-0.00226982185148
-0.00227042575536
-0.00227067591085
-0.00227073360015
-0.00227072209592
-0.00227072793947
-0.00227075240165
-0.00227080101652
-0.00227086197508
-0.00227089835456
-0.00227088048732
-0.00227084538235
-0.00227076263994
-0.00227064804624
-0.00227052894909
-0.00227048650056
-0.00227070434819
-0.00227156352078
-0.00227376585662
-0.0022779409428
-0.00228091950154
-0.00226448540834
-0.00217649921447
-0.00192496017914
-0.00152131950028
-0.00154482918424
-0.0019517124838
-0.00220731177886
-0.00229509737285
-0.00230794292478
-0.0023025491346
-0.0023007499928
-0.00230560067049
-0.00230868312009
-0.00230864750346
-0.00229219253215
-0.00228235476227
-0.00228063051138
-0.00228232299061
-0.00228428244812
-0.00228558794737
-0.00228626725055
-0.00228654235382
-0.00228660487536
-0.00228659335961
-0.00228660412398
-0.00228663641036
-0.00228669175928
-0.00228675586198
-0.00228679390538
-0.0022867676473
-0.00228672387704
-0.00228663233492
-0.00228650955409
-0.00228638590562
-0.002286350171
-0.00228660610882
-0.00228757895448
-0.00229005545206
-0.00229473172882
-0.00229822874573
-0.00228142304059
-0.0021906320354
-0.00193316818813
-0.0015237290198
-0.00154612666295
-0.00195384209138
-0.00221151123628
-0.00229869603347
-0.00230984459606
-0.00230331018315
-0.00230194365606
-0.0023083582867
-0.00231255889575
-0.00231443687066
-0.00229730468699
-0.00228663078918
-0.00228465458386
-0.00228642332319
-0.0022885398312
-0.00228995532537
-0.00229069067581
-0.00229098521183
-0.00229105165924
-0.00229104182977
-0.00229105696818
-0.00229109535269
-0.00229115551936
-0.00229122277037
-0.00229126272649
-0.00229122916636
-0.00229117550064
-0.00229107691001
-0.00229094735114
-0.00229082096921
-0.00229079098212
-0.0022910753799
-0.00229213130117
-0.00229480887458
-0.00229986480175
-0.00230382289822
-0.00228706087961
-0.00219508713437
-0.00193505819471
-0.00152379671153
-0.00154650547963
-0.00195418882803
-0.00221238316928
-0.0022989353712
-0.00230910080123
-0.00230188412601
-0.0023006593118
-0.00230779850895
-0.00231277233361
-0.00231547627094
-0.00229801670079
-0.00228693953242
-0.00228484632399
-0.00228665804958
-0.0022888562014
-0.00229032996384
-0.00229109479437
-0.00229140036941
-0.00229146935224
-0.00229146093978
-0.0022914792071
-0.00229152117638
-0.00229158420254
-0.00229165347025
-0.0022916948464
-0.00229165728521
-0.00229159703427
-0.00229149407636
-0.00229136055351
-0.00229123294031
-0.00229120641281
-0.00229150625188
-0.00229260623641
-0.00229539044614
-0.00230065173111
-0.00230488080861
-0.00228824180813
-0.00219590774967
-0.00193503851095
-0.00152344677686
-0.00154647307016
-0.00195416718501
-0.00221235020999
-0.00229890704168
-0.00230907228838
-0.00230186898863
-0.00230066197658
-0.00230780389329
-0.00231277781119
-0.00231546254225
-0.00229801588237
-0.0022869490491
-0.00228485599525
-0.00228666384551
-0.00228885951166
-0.00229033182643
-0.00229109594535
-0.00229140126313
-0.00229147030623
-0.00229146218258
-0.00229148084358
-0.00229152340275
-0.00229158689925
-0.00229165673288
-0.0022916987928
-0.00229166127389
-0.00229160052913
-0.00229149721093
-0.00229136340226
-0.00229123598442
-0.00229120997419
-0.0022915103896
-0.00229261079066
-0.00229539506975
-0.00230065595014
-0.00230488425649
-0.002288243491
-0.00219590723114
-0.00193503766342
-0.00152344757355
-0.00154603547424
-0.00195377662718
-0.00221142096502
-0.00229861706432
-0.00230976746011
-0.00230326974227
-0.00230194329633
-0.00230836518422
-0.00231256871266
-0.00231438986489
-0.00229729802723
-0.00228665544061
-0.00228468088696
-0.00228643998344
-0.00228854916254
-0.00228996025054
-0.00229069353478
-0.00229098738235
-0.00229105408014
-0.00229104512149
-0.00229106141463
-0.00229110134525
-0.0022911629688
-0.00229123183589
-0.00229127359193
-0.00229124003616
-0.00229118505261
-0.0022910854095
-0.00229095503421
-0.00229082919532
-0.00229080069165
-0.0022910867442
-0.00229214385386
-0.00229482165815
-0.00229987644388
-0.00230383236074
-0.00228706529184
-0.00219508492549
-0.0019350554598
-0.00152379865787
-0.00154469022954
-0.0019515956846
-0.00220717699117
-0.00229498693852
-0.00230784003046
-0.00230249495923
-0.00230074520515
-0.00230560553195
-0.00230871084311
-0.00230857016472
-0.00229218175214
-0.00228239180094
-0.00228066957972
-0.0022823479183
-0.00228429569068
-0.00228559389415
-0.00228626995483
-0.00228654389746
-0.00228660686108
-0.00228659673378
-0.0022866092682
-0.00228664358673
-0.00228670097794
-0.00228676730658
-0.00228680794184
-0.00228678158609
-0.00228673603259
-0.00228664294768
-0.00228651911707
-0.00228639631963
-0.00228636286525
-0.00228662130759
-0.00228759595258
-0.00229007276215
-0.00229474733701
-0.00229824116724
-0.00228142779023
-0.00219062703318
-0.00193316288724
-0.00152373162551
-0.00154081622582
-0.00194356332578
-0.00219355709177
-0.00228069464998
-0.00229498880295
-0.00229090270392
-0.00228871055994
-0.00229147689396
-0.00229559206721
-0.00229058256112
-0.00227524449644
-0.00226671203214
-0.00226537156272
-0.00226694932056
-0.00226867884782
-0.00226982634721
-0.00227042608227
-0.00227067448844
-0.00227073258489
-0.00227072278494
-0.00227073067976
-0.00227075716807
-0.00227080789903
-0.00227087125981
-0.00227091045982
-0.00227089226957
-0.00227085564581
-0.00227077121047
-0.0022706555453
-0.00227053755892
-0.00227049790655
-0.00227071876588
-0.00227158001428
-0.00227378263399
-0.00227795566675
-0.00228093066962
-0.00226448738946
-0.00217649032268
-0.00192495198917
-0.00152132232615
-0.00153050937377
-0.00192131028815
-0.0021601643183
-0.00224324976386
-0.00225823544497
-0.00225521551445
-0.00225225793806
-0.00225301152726
-0.00225696873935
-0.00224878601531
-0.00223515126139
-0.00222823871894
-0.00222739499367
-0.00222884763019
-0.002230327072
-0.00223130169952
-0.00223181743309
-0.00223203702128
-0.00223208954435
-0.00223208315416
-0.00223208640469
-0.00223210329976
-0.00223214521664
-0.00223220438147
-0.00223224296113
-0.00223222934791
-0.00223219928158
-0.00223212506205
-0.00223201811673
-0.00223190693806
-0.0022318614741
-0.00223203928695
-0.00223276720362
-0.00223464807488
-0.00223825612178
-0.00224078910107
-0.00222547240358
-0.00214279414511
-0.00190260742908
-0.00151267223844
-0.00150583102867
-0.00187147120636
-0.00209440537315
-0.00216662207385
-0.00218037492302
-0.00217801711876
-0.00217483276333
-0.00217545019741
-0.00217725811545
-0.00216802066026
-0.00215685603496
-0.00215182168929
-0.00215154100697
-0.00215283186396
-0.0021540531447
-0.00215485152051
-0.00215528452378
-0.00215547475964
-0.0021555216668
-0.0021555243988
-0.00215552249674
-0.00215552763411
-0.00215555840877
-0.00215561354536
-0.00215565194383
-0.00215563928181
-0.00215560998822
-0.00215554766736
-0.00215545004962
-0.00215534667266
-0.00215529742037
-0.00215543179242
-0.00215601832801
-0.00215755568779
-0.00216058224456
-0.00216283118938
-0.00214957010716
-0.00207539576372
-0.00185389197951
-0.00149035995464
-0.00145203180409
-0.00177593210116
-0.00197439094826
-0.00203614002812
-0.00204639024716
-0.00204408558554
-0.00204138852221
-0.0020413109876
-0.00203934895351
-0.00203074660328
-0.00202260162018
-0.00201949201018
-0.00201979909891
-0.00202081600775
-0.0020217914012
-0.00202242956142
-0.00202278606495
-0.00202294805934
-0.00202299301797
-0.00202300784119
-0.00202299755341
-0.00202298771911
-0.00202300626519
-0.00202305682888
-0.00202309369618
-0.00202308444178
-0.00202305071561
-0.00202300287632
-0.00202291994984
-0.00202282293464
-0.00202277212155
-0.00202286768988
-0.00202331761882
-0.00202451297221
-0.00202697019556
-0.00202908735685
-0.00201875190704
-0.00195627834376
-0.0017615172622
-0.00144002596978
-0.00133878271378
-0.00161450614778
-0.00178107980118
-0.00183074039054
-0.0018384057052
-0.0018360600797
-0.0018326967195
-0.00183076957825
-0.00182729905589
-0.00182062292081
-0.00181548552253
-0.00181403520532
-0.00181451936238
-0.00181540296835
-0.00181616459384
-0.00181666888741
-0.00181695848551
-0.00181709376896
-0.00181714735792
-0.00181716063343
-0.00181713297987
-0.00181710302133
-0.00181710796825
-0.00181714741635
-0.00181718217148
-0.0018171841561
-0.00181715919282
-0.00181713100302
-0.00181707422077
-0.0018169954937
-0.00181694244851
-0.00181700801405
-0.00181733951793
-0.00181821799866
-0.00182013594956
-0.0018221411434
-0.00181527325491
-0.00176667292127
-0.00160460012345
-0.00133159136377
-0.00109800189095
-0.00137861889561
-0.00151473588441
-0.00155219003495
-0.00155721100975
-0.00155482994146
-0.00155105714595
-0.00154784917032
-0.0015440065051
-0.00153913783471
-0.00153612862438
-0.00153548544863
-0.00153590745978
-0.0015365994789
-0.00153719871732
-0.00153760278014
-0.00153784066979
-0.00153795211843
-0.00153800570337
-0.00153799779277
-0.00153794515168
-0.00153789501011
-0.00153788266607
-0.0015379162839
-0.00153796078348
-0.00153799340894
-0.00153801341475
-0.00153802966411
-0.0015380226775
-0.00153798795229
-0.00153795722995
-0.00153800890878
-0.00153825810385
-0.00153887674637
-0.00154032939394
-0.00154220889401
-0.0015385568874
-0.00150337841697
-0.0013721745446
-0.0010967160426
-0.000873861666674
-0.00123294016881
-0.00137743015534
-0.00141447241623
-0.00141880710757
-0.00141618432977
-0.00141231024418
-0.00140851676714
-0.00140340470535
-0.00139718729787
-0.00139302836324
-0.00139173596942
-0.00139114626158
-0.00139179977853
-0.00139253140811
-0.00139307698803
-0.00139341452827
-0.00139357213983
-0.0013936393885
-0.00139364043319
-0.00139363846292
-0.00139369168429
-0.0013938555176
-0.00139413742809
-0.00139445962108
-0.0013947696065
-0.00139504731674
-0.00139525436138
-0.00139538040105
-0.00139543338686
-0.00139544823413
-0.00139551501527
-0.00139554313604
-0.00139582723804
-0.00139701421427
-0.001398950805
-0.00139606256697
-0.00136198847042
-0.00122424416146
-0.000872243679997
-0.000971641832277
-0.00161839380983
-0.00188605446986
-0.00196205960933
-0.00197354200347
-0.00197063780642
-0.00196666639618
-0.00196384067985
-0.00195888963201
-0.00195099919911
-0.00194546443974
-0.00194416903094
-0.001945024506
-0.00194573717471
-0.00194720670726
-0.00194830402849
-0.0019490206652
-0.001949397504
-0.00194953677985
-0.00194954869144
-0.00194954612627
-0.00194963110891
-0.00194987278972