/*--------------------------------*- C++ -*----------------------------------*\
| =========                 |                                                 |
| \\      /  F ield         | OpenFOAM: The Open Source CFD Toolbox           |
|  \\    /   O peration     | Version:  3.0.1                                 |
|   \\  /    A nd           | Web:      www.OpenFOAM.org                      |
|    \\/     M anipulation  |                                                 |
\*---------------------------------------------------------------------------*/
FoamFile
{
    version     2.0;
    format      ascii;
    class       volScalarField;
    location    "6.9";
    object      p;
}
// * * * * * * * * * * * * * * * * * * * * * * * * * * * * * * * * * * * * * //

dimensions      [1 -1 -2 0 0 0 0];

internalField   nonuniform List<scalar> 
7968
(
5116.66681365
5116.62771019
5116.49936706
5116.35086397
5116.22069431
5116.14170558
5116.10897872
5116.11497295
5116.13615661
5116.15102099
5116.15083356
5116.13561246
5116.1141004
5116.10783895
5116.14040221
5116.21935632
5116.34960501
5116.49818166
5116.62660339
5116.66570378
5116.62763724
5116.6337626
5116.53078411
5116.38684245
5116.25331731
5116.16177979
5116.1170881
5116.11480712
5116.13067117
5116.14280887
5116.14263369
5116.13015815
5116.11397475
5116.115987
5116.16050799
5116.25199229
5116.38559525
5116.52961436
5116.63267938
5116.62655851
5116.49923432
5116.53072233
5116.44036798
5116.29635175
5116.15582325
5116.05172882
5115.99581401
5115.98421361
5115.99342382
5116.00192471
5116.0017617
5115.99294311
5115.98342096
5115.99474904
5116.05048674
5116.15451626
5116.29508857
5116.43917068
5116.5296091
5116.49813109
5116.35072747
5116.38675477
5116.29631078
5116.14843261
5116.00546399
5115.90238765
5115.85243615
5115.85062592
5115.86944142
5115.88359936
5115.88347283
5115.86906295
5115.84998462
5115.85153224
5115.90128527
5116.00425438
5116.14721162
5116.29511585
5116.38562448
5116.34960325
5116.22053771
5116.25319543
5116.15573226
5116.00539984
5115.87071705
5115.78644002
5115.76065521
5115.78484858
5115.824242
5115.8493742
5115.84928875
5115.82397992
5115.78438499
5115.75995165
5115.78552349
5115.86965002
5116.00425635
5116.15455636
5116.25205187
5116.21938614
5116.14157042
5116.16164854
5116.05158503
5115.9022358
5115.78633093
5115.73330932
5115.74315914
5115.80287863
5115.86991861
5115.90968516
5115.90963893
5115.86976617
5115.80258595
5115.74265845
5115.73259283
5115.78543654
5115.90121188
5116.0504717
5116.16054013
5116.14043099
5116.10887872
5116.1169505
5115.995617
5115.85217985
5115.76040455
5115.74300498
5115.79342229
5115.89295756
5115.99145415
5116.05068107
5116.05068167
5115.99142715
5115.89281983
5115.79310668
5115.74247558
5115.75968101
5115.85128919
5115.99459192
5116.11591068
5116.1077947
5116.1148736
5116.114643
5115.9839601
5115.85025566
5115.78444056
5115.80254435
5115.89276757
5116.03416833
5116.17227811
5116.25148798
5116.25152083
5116.17234956
5116.03417151
5115.89257168
5115.80214321
5115.78384515
5115.84948112
5115.98303132
5116.11369214
5116.11387947
5116.13604886
5116.13049242
5115.99316351
5115.86902218
5115.82376987
5115.86951229
5115.99110682
5116.17209576
5116.33998369
5116.43177153
5116.43180944
5116.34006891
5116.17213284
5115.99095135
5115.86913555
5115.82320705
5115.86829568
5115.99229812
5116.12961462
5116.13514677
5116.15090937
5116.1426291
5116.00165838
5115.88323477
5115.84899859
5115.90937664
5116.05039533
5116.25134747
5116.43177341
5116.52909837
5116.52913259
5116.43183941
5116.25134453
5116.05020167
5115.90897167
5115.84841316
5115.88251613
5116.00084882
5116.14181197
5116.15008626
5116.15071796
5116.14247721
5116.00154158
5115.88325012
5115.84912919
5115.90957606
5116.05064329
5116.25156407
5116.43190123
5116.52916377
5116.52919806
5116.43195983
5116.25153573
5116.050423
5115.90915563
5115.84853318
5115.88254771
5116.00079375
5116.14171626
5116.14995574
5116.13546577
5116.13001254
5115.99277195
5115.86899035
5115.8240497
5115.86997836
5115.99169266
5116.17261954
5116.34027795
5116.43190124
5116.43194714
5116.34036866
5116.17264173
5115.99154392
5115.86963398
5115.82352604
5115.86836526
5115.99211989
5116.12932042
5116.13475853
5116.1139003
5116.11381834
5115.98329015
5115.85001491
5115.78461052
5115.80299013
5115.89332964
5116.03467243
5116.17251974
5116.25153891
5116.25160865
5116.17268772
5116.03482515
5115.89335254
5115.80282002
5115.78424916
5115.84951451
5115.98270298
5116.1131793
5116.11323416
5116.10753771
5116.11574623
5115.99456992
5115.85153248
5115.76016267
5115.74306826
5115.79364415
5115.89313089
5115.99142845
5116.05051842
5116.05061252
5115.99167176
5115.89342102
5115.79386379
5115.74311671
5115.75999952
5115.85117436
5115.99405662
5116.11514778
5116.10689025
5116.13993683
5116.16009216
5116.05014414
5115.90110504
5115.78552949
5115.73278292
5115.7427993
5115.80252604
5115.86947805
5115.90921912
5115.90932528
5115.86976843
5115.80292273
5115.74316861
5115.732996
5115.78550983
5115.90084104
5116.04966711
5116.15948697
5116.139259
5116.21863496
5116.25132171
5116.15392092
5116.00379052
5115.86932841
5115.78526213
5115.75963062
5115.78388444
5115.82327248
5115.84846298
5115.84857918
5115.8235973
5115.78434431
5115.76008808
5115.78556741
5115.86938152
5116.00356077
5116.15343202
5116.25066479
5116.21788127
5116.34858893
5116.38461309
5116.29421028
5116.14644611
5116.00358445
5115.90063001
5115.85078876
5115.8490632
5115.8679469
5115.88222813
5115.88234889
5115.8682863
5115.84954801
5115.85127576
5115.90096125
5116.00364724
5116.14619771
5116.29366461
5116.38386181
5116.34772565
5116.4968749
5116.52835148
5116.43804273
5116.29409037
5116.15358366
5116.0495201
5115.99365466
5115.98213504
5115.99147305
5116.00014428
5116.0002657
5115.99181347
5115.98261583
5115.99413108
5116.04983163
5116.15361457
5116.29379487
5116.43742261
5116.52749639
5116.49589501
5116.62501807
5116.631201
5116.52832131
5116.3844417
5116.25090382
5116.15934471
5116.11465991
5116.11243173
5116.1284072
5116.14073318
5116.14085314
5116.12874087
5116.11290067
5116.1151225
5116.15963451
5116.25090047
5116.38411172
5116.52764681
5116.63027018
5116.62394979
5116.66397526
5116.62497831
5116.49678808
5116.3483421
5116.21813466
5116.13908424
5116.10632945
5116.1123592
5116.13365009
5116.14871394
5116.1488272
5116.13396529
5116.11280219
5116.10676759
5116.13935788
5116.21812832
5116.34800925
5116.49610963
5116.62403245
5116.66289483
4626.95455591
4626.88505571
4626.74736773
4626.60309707
4626.49944137
4626.44021981
4626.42938771
4626.45495106
4626.4884495
4626.50782748
4626.5076447
4626.48793297
4626.4540983
4626.42824977
4626.43891629
4626.49811186
4626.60181856
4626.74615843
4626.8838989
4626.9533912
4626.88501523
4626.84682178
4626.72354887
4626.58110622
4626.47621804
4626.41373654
4626.39758765
4626.41696016
4626.44645294
4626.46489531
4626.46474524
4626.44602112
4626.41622325
4626.39658637
4626.41256705
4626.47502081
4626.57993411
4626.72242363
4626.84574157
4626.88391766
4626.74730002
4626.72352946
4626.5921249
4626.43935253
4626.32697237
4626.26034554
4626.23973817
4626.25459149
4626.27992572
4626.29451635
4626.29439805
4626.27960057
4626.25396665
4626.23885965
4626.25929315
4626.32587543
4626.4382495
4626.5910342
4626.72247024
4626.74621008
4626.60306532
4626.58109476
4626.43934272
4626.28159853
4626.17317002
4626.11909424
4626.115639
4626.14892017
4626.18841462
4626.21190727
4626.21182491
4626.18816891
4626.14847037
4626.11497736
4626.11823421
4626.17222834
4626.28060203
4626.4383069
4626.58005327
4626.6019654
4626.49943937
4626.47619686
4626.32691318
4626.17309783
4626.08227638
4626.06128229
4626.09461218
4626.1628052
4626.22994264
4626.26857017
4626.26853275
4626.22982174
4626.16255599
4626.09417749
4626.06065194
4626.08149785
4626.1722144
4626.32593997
4626.47518449
4626.49834102
4626.44024162
4626.41366909
4626.2601816
4626.11887476
4626.06110715
4626.08270429
4626.16280969
4626.2754121
4626.3762036
4626.43191501
4626.43191471
4626.37619188
4626.27533457
4626.1625748
4626.08227046
4626.06050668
4626.1180939
4626.25927072
4626.41269757
4626.43916538
4626.42943729
4626.39748227
4626.23946739
4626.11524153
4626.0942151
4626.16256057
4626.29428459
4626.45431193
4626.58793214
4626.65482096
4626.65482969
4626.58795991
4626.45436474
4626.29421657
4626.16229516
4626.09376139
4626.11458447
4626.23864024
4626.3965809
4626.42842422
4626.45499175
4626.41682103
4626.25426364
4626.14838706
4626.16219558
4626.27490353
4626.4540585
4626.64810011
4626.79569387
4626.87268194
4626.87270507
4626.79574518
4626.64814284
4626.45405296
4626.27470641
4626.16180073
4626.14777605
4626.25348772
4626.41599032
4626.45408023
4626.4884565
4626.4463348
4626.27973849
4626.18789116
4626.22928393
4626.37561711
4626.58774027
4626.79572522
4626.95771059
4627.04491489
4627.04495021
4626.95778447
4626.79575696
4626.58764919
4626.3753486
4626.22882255
4626.18723429
4626.27892945
4626.44553333
4626.48763361
4626.50780845
4626.46476536
4626.29424554
4626.21147602
4626.26808594
4626.43152713
4626.65487337
4626.87291149
4627.04507845
4627.13808537
4627.13812233
4627.04515397
4626.87292695
4626.65470882
4626.43111743
4626.26749071
4626.21074093
4626.29344112
4626.46398514
4626.50704144
4626.5076353
4626.46464846
4626.29416992
4626.21159053
4626.26836
4626.43187524
4626.65516288
4626.8731479
4627.04526755
4627.13823904
4627.13827588
4627.04534159
4626.87315355
4626.65495735
4626.4313651
4626.26766492
4626.21080712
4626.29340495
4626.46389594
4626.50689887
4626.4878907
4626.44593907
4626.27940256
4626.18812871
4626.22996283
4626.37650717
4626.58851934
4626.79634545
4626.95819287
4627.04530839
4627.0453531
4626.95828995
4626.79638329
4626.58834604
4626.37603243
4626.2292988
4626.18740231
4626.27880323
4626.44525395
4626.48720055
4626.45401118
4626.41617155
4626.25391441
4626.14859912
4626.16293252
4626.27592499
4626.45509705
4626.64886234
4626.79624798
4626.87314564
4626.87320684
4626.79639822
4626.64900174
4626.45507406
4626.27565427
4626.16244463
4626.14797095
4626.25325932
4626.41550509
4626.45336201
4626.42805511
4626.39647084
4626.23880487
4626.1151183
4626.09459281
4626.16322948
4626.29501979
4626.45485015
4626.58823761
4626.65505684
4626.6551399
4626.58846481
4626.45515648
4626.2952448
4626.16325308
4626.09437464
4626.11467851
4626.23823312
4626.39585104
4626.4274336
4626.43854578
4626.41228091
4626.25908773
4626.11820837
4626.06087071
4626.08271588
4626.16289982
4626.27536999
4626.37593101
4626.4315329
4626.43164446
4626.37624503
4626.27581235
4626.16333315
4626.08298715
4626.060887
4626.11794341
4626.2586097
4626.41168624
4626.4379059
4626.4975108
4626.47447696
4626.32542363
4626.17192694
4626.08136587
4626.06055744
4626.09396347
4626.16210124
4626.22912628
4626.26773093
4626.26785496
4626.22948227
4626.16262496
4626.09452166
4626.06097889
4626.08152291
4626.1717705
4626.32499057
4626.47385911
4626.49680629
4626.60097342
4626.57910878
4626.43752297
4626.27997834
4626.17167856
4626.11765501
4626.11425296
4626.14753962
4626.18705151
4626.21060202
4626.21073288
4626.18742862
4626.14809623
4626.11485396
4626.11811936
4626.17188752
4626.27985243
4626.43707412
4626.57842629
4626.60017151
4626.74508525
4626.72134425
4626.59006328
4626.43738657
4626.32502965
4626.25837705
4626.23777568
4626.25268067
4626.27818201
4626.29283113
4626.29296509
4626.27856456
4626.25323687
4626.23836532
4626.25882553
4626.32521195
4626.43721824
4626.58954269
4626.72056043
4626.74415764
4626.88261786
4626.84447402
4626.72133614
4626.57893318
4626.4740033
4626.41144757
4626.39526673
4626.41466984
4626.44427196
4626.46286509
4626.46299447
4626.44463685
4626.415192
4626.39580278
4626.41182865
4626.47410943
4626.57868736
4626.72073226
4626.84360162
4626.88160187
4626.95198331
4626.88257872
4626.74502798
4626.60074387
4626.49699468
4626.43766689
4626.42678508
4626.45237475
4626.48597058
4626.50552958
4626.50564331
4626.48629537
4626.45284308
4626.42726053
4626.4379915
4626.49704782
4626.60046202
4626.74439108
4626.88166928
4626.95094103
4137.0980905
4137.0123927
4136.877695
4136.75910479
4136.69200432
4136.67642218
4136.70433387
4136.75611731
4136.80146979
4136.82367405
4136.82350267
4136.80106334
4136.7553835
4136.70331065
4136.67523312
4136.69076917
4136.7579064
4136.87654766
4137.01127811
4137.09698353
4137.01238303
4136.98779308
4136.87796011
4136.77584101
4136.71477522
4136.69414002
4136.70917442
4136.74694632
4136.78548546
4136.80701469
4136.80688145
4136.78513785
4136.74628375
4136.70826815
4136.69309553
4136.71371388
4136.77481487
4136.87695472
4136.98683077
4137.01140121
4136.87771901
4136.87801107
4136.72721533
4136.58516087
4136.49309077
4136.44924292
4136.44399964
4136.46140799
4136.48303626
4136.493057
4136.4929936
4136.48305285
4136.46090277
4136.44326018
4136.44837008
4136.49218124
4136.58424249
4136.72626336
4136.87710014
4136.87678765
4136.75923338
4136.77594428
4136.58521516
4136.41522551
4136.31297438
4136.27447167
4136.28332746
4136.31733517
4136.35431907
4136.37593905
4136.37587997
4136.35415406
4136.31696932
4136.28278394
4136.27380048
4136.31226484
4136.41446535
4136.5843676
4136.77508628
4136.75831454
4136.69220671
4136.71486686
4136.49310222
4136.3129166
4136.22096387
4136.20671278
4136.0668851
4135.81124845
4135.7337898
4135.7723706
4135.77228537
4135.73352649
4135.81151636
4136.06730805
4136.20625935
4136.22043829
4136.31227951
4136.49233889
4136.71405489
4136.69131279
4136.67662895
4136.6941535
4136.44910597
4136.27424437
4136.20653498
4135.71589136
4134.26144504
4132.82936482
4132.40838488
4132.46473322
4132.4644657
4132.40757256
4132.83048537
4134.26490904
4135.71754748
4136.20611114
4136.27369774
4136.44842692
4136.69341122
4136.67580722
4136.70448418
4136.70910422
4136.443684
4136.28289796
4136.06653679
4134.26056017
4130.58139757
4127.71743925
4126.94835693
4127.02404902
4127.02372011
4126.94736586
4127.71985076
4130.58906622
4134.26691497
4136.0668224
4136.28239296
4136.44306195
4136.70842128
4136.70376253
4136.75614867
4136.74679928
4136.46096472
4136.3167533
4135.81035503
4132.82693317
4127.71549231
4124.10311513
4123.16175624
4123.25265108
4123.25239711
4123.1609831
4124.10663042
4127.72572162
4132.83698441
4135.81197993
4136.3162351
4136.46034012
4136.74615186
4136.75552691
4136.80142773
4136.78536215
4136.48291468
4136.35378777
4135.7326539
4132.40544622
4126.94557756
4123.16074654
4122.18825439
4122.28994914
4122.28976659
4122.18768019
4123.16460959
4126.95635755
4132.41624921
4135.7347718
4136.35314632
4136.48213966
4136.78468423
4136.80082859
4136.82362808
4136.80689129
4136.49264676
4136.37553933
4135.77156957
4132.46250243
4127.0220208
4123.25209661
4122.29019468
4122.39736798
4122.39718177
4122.28960132
4123.25572546
4127.03224852
4132.47272605
4135.77341184
4136.37473896
4136.49180206
4136.80616002
4136.82298463
4136.82359966
4136.8068686
4136.49273129
4136.37574443
4135.77193779
4132.46305904
4127.02251717
4123.25234622
4122.29027005
4122.39740264
4122.39721604
4122.28967435
4123.25578106
4127.03225222
4132.47275811
4135.77355391
4136.37482306
4136.49178794
4136.80608273
4136.82286857
4136.80119211
4136.7851663
4136.48265142
4136.35424215
4135.73360851
4132.40696758
4126.94694774
4123.16139371
4122.18838671
4122.28996489
4122.28979117
4122.18783118
4123.16471103
4126.95630591
4132.41628403
4135.73514877
4136.35336105
4136.48204602
4136.78442943
4136.80045666
4136.75556511
4136.74641516
4136.4609981
4136.31727899
4135.81174192
4132.82991527
4127.71908574
4124.10626339
4123.16442005
4123.25534379
4123.25530491
4123.164272
4124.10987692
4127.72825525
4132.83862726
4135.81299602
4136.3164919
4136.46015844
4136.74569216
4136.75488452
4136.70343726
4136.70835657
4136.44339605
4136.28311168
4136.06760935
4134.26416578
4130.58732979
4127.72388578
4126.95471997
4127.0307197
4127.03090079
4126.95523814
4127.72769738
4130.59531001
4134.27033395
4136.06805519
4136.28255332
4136.44270793
4136.70772414
4136.70285074
4136.67518369
4136.69302355
4136.44835794
4136.27395917
4136.20663251
4135.71746975
4134.26572334
4132.83520364
4132.41454483
4132.47124235
4132.4715183
4132.41535249
4132.83809637
4134.27020602
4135.71970903
4136.20661297
4136.27364061
4136.4478527
4136.69246884
4136.67465272
4136.6905063
4136.7134113
4136.49192744
4136.31212115
4136.22044781
4136.20627838
4136.0669883
4135.81197023
4135.73470604
4135.77337956
4135.77355292
4135.73520986
4135.81313879
4136.06823725
4136.20674738
4136.22062839
4136.31198554
4136.49154462
4136.71287905
4136.689954
4136.75744728
4136.77428636
4136.58374812
4136.41398478
4136.31184366
4136.27332982
4136.28218296
4136.31618874
4136.35320319
4136.3748607
4136.37500362
4136.35361656
4136.31680684
4136.28286887
4136.27390486
4136.31214217
4136.41394484
4136.5834017
4136.77371619
4136.75680633
4136.8759574
4136.87624974
4136.72558718
4136.58357601
4136.49147559
4136.44755505
4136.44226347
4136.45967952
4136.48160503
4136.49146082
4136.49160917
4136.48204114
4136.46032946
4136.44298579
4136.44816202
4136.49180267
4136.58354061
4136.72519729
4136.87559468
4136.87518707
4137.01053294
4136.98594355
4136.87629578
4136.77411071
4136.71290779
4136.692125
4136.70706621
4136.74482796
4136.78346799
4136.805122
4136.80527064
4136.78389249
4136.74544317
4136.70772193
4136.69263826
4136.71312448
4136.77395365
4136.87577623
4136.98518052
4137.00967383
4137.09627582
4137.01050922
4136.87593328
4136.7572038
4136.68993313
4136.67420963
4136.70204444
4136.75381048
4136.79921924
4136.8215576
4136.8216772
4136.79958297
4136.7543592
4136.70264287
4136.67467968
4136.69012268
4136.75702949
4136.87539008
4137.00971411
4137.09536936
3647.07740063
3646.99057363
3646.86318162
3646.76659196
3646.7209202
3646.7196511
3646.74925986
3646.78415349
3646.80320436
3646.80548088
3646.80520443
3646.80311776
3646.78369159
3646.74852407
3646.71874438
3646.71997325
3646.76565073
3646.86226744
3646.98964567
3647.07654714
3646.99052397
3646.98409236
3646.900162
3646.83465398
3646.80627991
3646.80331029
3646.80809893
3646.80027629
3646.77435425
3646.74951017
3646.74936795
3646.77404923
3646.79982263
3646.80749822
3646.8025966
3646.80554709
3646.83391795
3646.89941968
3646.98330556
3646.98984194
3646.86325783
3646.90036637
3646.73316775
3646.58654307
3646.48427056
3646.42253986
3646.38866087
3646.36732856
3646.34719084
3646.33512328
3646.33497519
3646.34657934
3646.36685425
3646.3881055
3646.42192107
3646.48364648
3646.58592042
3646.73250414
3646.89963202
3646.8626633
3646.76677554
3646.8349209
3646.58659935
3646.3929014
3646.2693997
3645.88391034
3644.83815125
3643.81595368
3643.50343867
3643.51375232
3643.51343566
3643.50248013
3643.81620633
3644.84037316
3645.88482763
3646.26895663
3646.39241395
3646.58603691
3646.83427123
3646.7662351
3646.72113317
3646.80644235
3646.48423452
3646.26930975
3645.40171385
3642.38491104
3637.53412314
3633.78035939
3632.66991497
3632.70408779
3632.70336128
3632.66773427
3633.78111294
3637.54108607
3642.39266863
3645.40420446
3646.26892161
3646.48376068
3646.80593692
3646.72068265
3646.71970855
3646.80309674
3646.4222048
3645.88367278
3642.38387082
3633.68842893
3622.78079287
3615.32310504
3613.22389475
3613.28157747
3613.28066964
3613.22117282
3615.324153
3622.79098473
3633.70467611
3642.39524043
3645.88446034
3646.4218626
3646.80285524
3646.71943009
3646.74902296
3646.80741483
3646.38797963
3644.83708029
3637.53052682
3622.77845725
3606.13544346
3595.39263198
3592.47487398
3592.55575695
3592.5547109
3592.47173857
3595.3932526
3606.14577344
3622.79782085
3637.55136676
3644.84181761
3646.38768801
3646.80736645
3646.74891222
3646.7836828
3646.79919302
3646.36635358
3643.81319787
3633.77423386
3615.31837184
3595.39021155
3582.92977323
3579.59718535
3579.69765851
3579.69659662
3579.59400419
3582.93030053
3595.40056871
3615.33831394
3633.79932661
3643.82218705
3646.36598074
3646.79916941
3646.78359814
3646.8027821
3646.77315237
3646.34583051
3643.50021363
3632.66338499
3613.21863019
3592.47177673
3579.59637259
3576.17637569
3576.29123625
3576.29021593
3576.17329515
3579.5968755
3592.48188799
3613.23825595
3632.68873023
3643.51022409
3646.34528504
3646.77293328
3646.80253501
3646.80499781
3646.74863624
3646.33448918
3643.51131592
3632.69896473
3613.27765116
3592.55375234
3579.697576
3576.29176051
3576.41401575
3576.41300107
3576.28868044
3579.69782777
3592.56316081
3613.29618698
3632.723025
3643.52060908
3646.33353674
3646.7480541
3646.80455256
3646.80521614
3646.74895265
3646.33482531
3643.51184384
3632.69973846
3613.27817441
3592.55386222
3579.69726516
3576.29123932
3576.41346032
3576.4124556
3576.28818858
3579.69735011
3592.56267494
3613.29572525
3632.72259338
3643.52047378
3646.33353933
3646.74801447
3646.80447007
3646.80306024
3646.77391692
3646.34705642
3643.50166617
3632.66555019
3613.2200653
3592.47200572
3579.59537526
3576.17475069
3576.28951677
3576.28853609
3576.17177769
3579.59538629
3592.48036799
3613.23680917
3632.68738191
3643.50977734
3646.34528118
3646.77277404
3646.80221638
3646.78387302
3646.79982889
3646.36711138
3643.81544419
3633.77884163
3615.3225945
3595.39288803
3582.93080424
3579.59744141
3579.69797382
3579.6971912
3579.59506306
3582.93155558
3595.40181242
3615.33958334
3633.80003321
3643.82261567
3646.36583953
3646.7988182
3646.78304279
3646.74877784
3646.80753869
3646.38829741
3644.83939711
3637.5376008
3622.78715614
3606.14300779
3595.39866253
3592.48032291
3592.56165342
3592.56129284
3592.47921831
3595.40116658
3606.15360485
3622.80529107
3637.5563254
3644.84364927
3646.38734833
3646.80675675
3646.74809354
3646.71884741
3646.80252126
3646.42193158
3645.88442557
3642.38967421
3633.69928609
3622.79266286
3615.334032
3613.23463279
3613.29313626
3613.29325187
3613.23495574
3615.3383946
3622.80471587
3633.71603414
3642.40077667
3645.88529423
3646.42128083
3646.8019584
3646.71831303
3646.71985907
3646.80527035
3646.48340618
3646.26879504
3645.40318861
3642.39160803
3637.54566962
3633.79361209
3632.68374603
3632.71897491
3632.71944766
3632.68514791
3633.7986101
3637.55555452
3642.40066071
3645.40615603
3646.2686037
3646.48297646
3646.80483096
3646.71938713
3646.7653624
3646.83349662
3646.58546611
3646.39196862
3646.26855996
3645.8839359
3644.84048614
3643.82020715
3643.50841812
3643.51930417
3643.51963414
3643.50939372
3643.82262871
3644.84395272
3645.88575223
3646.26891629
3646.39196242
3646.58516298
3646.83306421
3646.76485831
3646.8618824
3646.89894696
3646.73191476
3646.58534875
3646.4830491
3646.42125314
3646.38733243
3646.36598857
3646.3456599
3646.33410766
3646.33428863
3646.34618771
3646.36679592
3646.38825265
3646.42204605
3646.48351292
3646.58541716
3646.7316158
3646.89843269
3646.86128951
3646.98921431
3646.98282893
3646.89897426
3646.83338328
3646.80488556
3646.80178888
3646.80651997
3646.79869498
3646.77285226
3646.74827321
3646.74845775
3646.7734111
3646.79954057
3646.80746455
3646.80258236
3646.80531532
3646.83337094
3646.8985598
3646.98218534
3646.98853837
3647.07626049
3646.989343
3646.86198118
3646.76526337
3646.7194632
3646.71811268
3646.74773528
3646.78266508
3646.80186767
3646.80422531
3646.80436331
3646.80235441
3646.78338473
3646.74854196
3646.71878002
3646.71980207
3646.76519307
3646.86152827
3646.98866457
3647.07554669
3157.022494
3156.92014103
3156.81164061
3156.69704333
3156.61494736
3156.55417601
3156.50291809
3156.4441423
3156.38813723
3156.34987902
3156.34973829
3156.38784964
3156.44364752
3156.5022584
3156.55341346
3156.61418409
3156.69627845
3156.81090759
3156.91940372
3157.02190094
3156.92012359
3156.89371295
3156.81127842
3156.70096555
3156.5915116
3156.46870223
3156.32412309
3156.16260603
3156.00687789
3155.91015763
3155.90999248
3156.006524
3156.1621178
3156.32357637
3156.4681588
3156.59109062
3156.7005171
3156.81078833
3156.89313907
3156.91971171
3156.81184127
3156.81153661
3156.62754711
3156.42476401
3156.25144196
3155.77985661
3154.6242274
3153.47963629
3153.05879669
3153.00729169
3153.0069191
3153.05769682
3153.47976874
3154.62645242
3155.78074999
3156.25104465
3156.42433044
3156.62706284
3156.81097837
3156.8114861
3156.6973536
3156.70126851
3156.42484719
3156.15242618
3154.60214759
3150.0584775
3143.40137481
3138.38685455
3136.89742556
3136.88925765
3136.88835224
3136.89471795
3138.3866698
3143.4068187
3150.06637129
3154.60716028
3156.15221211
3156.4244413
3156.70082333
3156.69709122
3156.61519745
3156.59156291
3156.25138363
3154.6022081
3147.17308407
3132.24839564
3115.39243296
3104.49189756
3101.47224051
3101.50319044
3101.50189773
3101.46837552
3104.49083658
3115.39962369
3132.26316666
3147.18875724
3154.60700724
3156.25109185
3156.59134536
3156.61510331
3156.55394531
3156.46789027
3155.77945609
3150.05608937
3132.2465435
3104.42757667
3077.23648146
3060.92987365
3056.5745465
3056.64226469
3056.64044312
3056.56912755
3060.92660219
3077.24170535
3104.44187389
3132.26846375
3150.07287893
3155.78037613
3156.46822468
3156.55423625
3156.50221561
3156.32271439
3154.62292739
3143.39603205
3115.3884678
3077.23437885
3042.60326297
3022.49487411
3017.22369391
3017.32587452
3017.32359182
3017.21688759
3022.48929753
3042.60581121
3077.24680894
3115.41041996
3143.42176194
3154.62762307
3156.32314792
3156.50265184
3156.44323944
3156.16088438
3153.4766057
3138.37946512
3104.48586063
3060.92579145
3022.49299283
3000.48449992
2994.77818385
2994.90931397
2994.90681488
2994.77071727
3000.47755122
3022.49363965
3060.93671115
3104.50735754
3138.40770054
3153.48536355
3156.16107747
3156.44350352
3156.38738706
3156.00531065
3153.05530718
3136.88987233
3101.46599091
3056.57030904
3017.22169768
2994.77806853
2988.99740411
2989.15078548
2989.14832766
2988.98991487
2994.77069453
3017.221464
3056.58026007
3101.48667476
3136.91770936
3153.06492614
3156.00497738
3156.38723887
3156.34946812
3155.90915539
3153.00473159
3136.88332446
3101.49850117
3056.63953685
3017.32523951
2994.91020197
2989.15167661
2989.31506249
2989.31266065
2989.14428131
2994.90270758
3017.32439492
3056.64839785
3101.51776177
3136.90954727
3153.01342139
3155.90818056
3156.34882648
3156.34976268
3155.90959282
3153.00528116
3136.88411242
3101.49891303
3056.63933333
3017.32430964
2994.90870279
2989.14998755
2989.31338529
2989.31101471
2989.14271114
2994.90125872
3017.32312312
3056.6473488
3101.51690183
3136.90883634
3153.01314786
3155.90808777
3156.34868517
3156.38809302
3156.00641691
3153.05681876
3136.89203923
3101.46706724
3056.5696522
3017.21903459
2994.77370228
2988.99235828
2989.14573049
2989.14339299
2988.98526527
2994.76637746
3017.21764436
3056.57705075
3101.48404472
3136.91553389
3153.06407049
3156.00467767
3156.38678953
3156.44400674
3156.16212896
3153.47878865
3138.38386882
3104.48918988
3060.92674711
3022.49106251
3000.48003267
2994.77265479
2994.90387513
2994.90179701
2994.76637117
3000.47382253
3022.49074629
3060.93493068
3104.50653052
3138.40701766
3153.48518672
3156.16052687
3156.44274277
3156.50258688
3156.32353647
3154.6251325
3143.40283674
3115.39570823
3077.23941119
3042.60522801
3022.49401112
3017.22174372
3017.32436082
3017.3228707
3017.21726536
3022.49053492
3042.60801454
3077.25038515
3115.41491842
3143.42470039
3154.6287551
3156.32229688
3156.5015574
3156.55355576
3156.46791462
3155.78003208
3150.06244392
3132.25714413
3104.43689272
3077.243458
3060.93448341
3056.57854551
3056.6470549
3056.64631261
3056.57628216
3060.9344737
3077.25015524
3104.45102678
3132.27759277
3150.0773854
3155.78037029
3156.46706739
3156.55279778
3156.61405224
3156.59057427
3156.25060099
3154.60482844
3147.18299457
3132.26138508
3115.40449351
3104.50251284
3101.48274355
3101.51479082
3101.51478003
3101.48268589
3104.50575643
3115.41444159
3132.27730307
3147.19850336
3154.60969087
3156.24996401
3156.59001917
3156.61346927
3156.69593366
3156.69986564
3156.42369728
3156.15158917
3154.60493886
3150.06758228
3143.41484654
3138.40121593
3136.91233291
3136.90550412
3136.90602975
3136.91388921
3138.40621261
3143.42446857
3150.07768961
3154.61005954
3156.15156007
3156.42329729
3156.69942044
3156.69541256
3156.81042873
3156.81013711
3156.62635195
3156.42372288
3156.25050866
3155.7798278
3154.62663911
3153.48398286
3153.06403061
3153.01331152
3153.01369035
3153.06514877
3153.48656628
3154.63023697
3155.78182816
3156.25103496
3156.42378785
3156.626026
3156.80964099
3156.80987438
3156.91890408
3156.89261567
3156.81031093
3156.70008374
3156.59070403
3156.46788777
3156.32344158
3156.16214951
3156.00678039
3155.91047631
3155.91070244
3156.00745903
3156.16319853
3156.32465589
3156.46895836
3156.59130916
3156.70014861
3156.80990519
3156.89198002
3156.91829059
3157.02142436
3156.91920027
3156.81074506
3156.69617137
3156.61411959
3156.55344426
3156.50237757
3156.44381198
3156.3880699
3156.35010832
3156.35028054
3156.3886152
3156.44466428
3156.50335149
3156.55425681
3156.61451121
3156.6960954
3156.81025593
3156.91850801
3157.02077772
2667.07322132
2666.94325963
2666.8101264
2666.58774361
2666.37100534
2666.15460549
2665.94770768
2665.75556103
2665.60109112
2665.51236131
2665.51213041
2665.60045728
2665.75460907
2665.94655201
2666.15335801
2666.36997954
2666.58678909
2666.80926049
2666.94243559
2667.07262835
2666.94329263
2666.84974281
2666.68305786
2666.39764344
2666.07291541
2665.70438684
2665.128535
2664.41823065
2663.96458529
2663.7932787
2663.79287002
2663.96366475
2664.4176855
2665.12816802
2665.70316067
2666.07238624
2666.39702804
2666.68242476
2666.84909946
2666.94288227
2666.81048019
2666.68333982
2666.43870445
2666.09657496
2665.0184664
2661.72798955
2656.56737184
2652.51624177
2651.19049754
2651.11398004
2651.11315127
2651.18804049
2652.51512097
2656.56952165
2661.73273
2665.02107244
2666.09603291
2666.4380538
2666.68267991
2666.81007529
2666.58822407
2666.39808458
2666.0967933
2664.3373623
2656.78074205
2641.67945528
2624.64661732
2613.59985015
2610.48395728
2610.46717627
2610.46590125
2610.48012968
2613.59803932
2624.65145438
2641.69041311
2656.7920709
2664.34209495
2666.09617184
2666.39742407
2666.5879195
2666.37141695
2666.07346298
2665.01893631
2656.77953846
2634.01426601
2600.91633605
2569.84789362
2551.50214434
2546.59981194
2546.64519662
2546.6431471
2546.59368553
2551.49695934
2569.84946606
2600.925654
2634.03109033
2656.79583282
2665.02080917
2666.07260837