/*--------------------------------*- C++ -*----------------------------------*\
| =========                 |                                                 |
| \\      /  F ield         | OpenFOAM: The Open Source CFD Toolbox           |
|  \\    /   O peration     | Version:  3.0.1                                 |
|   \\  /    A nd           | Web:      www.OpenFOAM.org                      |
|    \\/     M anipulation  |                                                 |
\*---------------------------------------------------------------------------*/
FoamFile
{
    version     2.0;
    format      ascii;
    class       surfaceScalarField;
    location    "6.9";
    object      phi;
}
// * * * * * * * * * * * * * * * * * * * * * * * * * * * * * * * * * * * * * //

dimensions      [0 3 -1 0 0 0 0];

internalField   nonuniform List<scalar> 
22672
(
1.24881546064e-05
1.24971104458e-05
-2.4985286282e-05
2.65574307937e-05
1.08323071317e-05
-2.49016084601e-05
3.84869521383e-05
9.91598105673e-06
-2.18455317949e-05
4.58966089599e-05
9.84886482158e-06
-1.72585554562e-05
4.71745126021e-05
1.08680415143e-05
-1.21459833007e-05
4.35451512923e-05
1.22182219782e-05
-8.58890253669e-06
3.59020890788e-05
1.38185259209e-05
-6.1755082841e-06
2.52966780382e-05
1.55242983562e-05
-4.91893327491e-06
1.29865219253e-05
1.70225635345e-05
-4.71245347329e-06
3.095660155e-08
1.7897096732e-05
-4.94157653413e-06
-1.29270022972e-05
1.78972577297e-05
-4.9393423965e-06
-2.52435650967e-05
1.70229871961e-05
-4.70646607519e-06
-3.58586592955e-05
1.55245573595e-05
-4.90950268557e-06
-4.35131593112e-05
1.38181609815e-05
-6.16369775112e-06
-4.71526584451e-05
1.22173149914e-05
-8.57784875276e-06
-4.58857757168e-05
1.0869418992e-05
-1.21363291363e-05
-3.84824791118e-05
9.85004910705e-06
-1.7253366053e-05
-2.65560260071e-05
9.91826999368e-06
-2.1844735792e-05
-1.24876316503e-05
1.08357599668e-05
-2.4904161117e-05
1.25015209034e-05
-2.49891555213e-05
1.08271677302e-05
2.65651044046e-05
-2.48951849001e-05
2.67140147307e-05
2.67142172644e-05
-3.17687841983e-05
4.06315416752e-05
2.72595085549e-05
-3.12610855385e-05
4.92520285307e-05
2.87818770554e-05
-2.75535340984e-05
5.12540123441e-05
3.14728179468e-05
-2.26067986282e-05
4.74519127803e-05
3.43380246701e-05
-1.83177437865e-05
3.9156382192e-05
3.70287938281e-05
-1.4914778867e-05
2.7573092851e-05
3.95727206023e-05
-1.24651739112e-05
1.41444401731e-05
4.16006799133e-05
-1.11495030214e-05
3.81091382457e-08
4.27237276457e-05
-1.07203368965e-05
-1.40703542798e-05
4.27225809277e-05
-1.07168943961e-05
-2.75054638213e-05
4.15975204965e-05
-1.11394562184e-05
-3.90996456201e-05
3.95681404781e-05
-1.24494318783e-05
-4.74087447181e-05
3.70233671849e-05
-1.48961355804e-05
-5.12234952727e-05
3.43321275345e-05
-1.83000874922e-05
-4.92347129357e-05
3.14711458363e-05
-2.25905302297e-05
-4.06231250397e-05
2.87812578528e-05
-2.75428117451e-05
-2.67109211914e-05
2.72616352559e-05
-3.1255577857e-05
-1.08264498618e-05
2.67193682922e-05
-3.1768083761e-05
2.65742053325e-05
-2.48991357358e-05
9.91323172966e-06
3.84884954056e-05
-2.18366449028e-05
2.72636748719e-05
4.06218735661e-05
-3.12581246022e-05
4.26566650885e-05
4.26410658702e-05
-3.07745755168e-05
5.21888991633e-05
4.55746098626e-05
-2.6324997042e-05
5.46892947932e-05
4.9535892683e-05
-2.05635016028e-05
5.08545557865e-05
5.34468393539e-05
-1.52741064508e-05
4.2160857246e-05
5.6769221754e-05
-1.10467581035e-05
2.98595770317e-05
5.97628820124e-05
-7.88890656066e-06
1.53980249113e-05
6.20346991003e-05
-5.97248843102e-06
4.46133962394e-08
6.32548170071e-05
-5.17769532488e-06
-1.53114739558e-05
6.32527960619e-05
-5.17414216417e-06
-2.97809764989e-05
6.20289147119e-05
-5.96190411224e-06
-4.20949110951e-05
5.97540908175e-05
-7.87202738608e-06
-5.08036565738e-05
5.67585917737e-05
-1.1026490605e-05
-5.46533083921e-05
5.3435663852e-05
-1.5253895566e-05
-5.2167157604e-05
4.95297249523e-05
-2.05447393994e-05
-4.26451532491e-05
4.55705808086e-05
-2.6311333796e-05
-2.72589929183e-05
4.26414738522e-05
-3.07660017319e-05
-9.91219396125e-06
4.0627339675e-05
-3.12547704591e-05
3.85016485996e-05
-2.18396364872e-05
9.84785073512e-06
4.58879519827e-05
-1.7247326416e-05
2.87893262154e-05
4.92295532591e-05
-2.75491761557e-05
4.55946196817e-05
5.21603222776e-05
-2.63245720301e-05
5.59877906552e-05
5.59546483151e-05
-2.0773231479e-05
5.87966590091e-05
6.06294727156e-05
-1.390246869e-05
5.47251370769e-05
6.51430620083e-05
-7.62471739508e-06
4.53672975301e-05
6.87877918007e-05
-2.66074186901e-06
3.21506804178e-05
7.19546597324e-05
1.02483428189e-06
1.65982479107e-05
7.43148193489e-05
3.27231339152e-06
4.90022182707e-08
7.55699254168e-05
4.23414353879e-06
-1.65029931472e-05
7.55669266257e-05
4.2378744615e-06
-3.20638091194e-05
7.43060879585e-05
3.28365367633e-06
-4.529379672e-05
7.19411776379e-05
1.04291090479e-06
-5.46676137801e-05
6.87713817532e-05
-2.63896510646e-06
-5.87554680765e-05
6.51261567903e-05
-7.60263354307e-06
-5.59619071161e-05
6.06178718371e-05
-1.38817045834e-05
-4.55801620371e-05
5.59458985276e-05
-2.07570599444e-05
-2.87829465936e-05
5.21575996088e-05
-2.63133376352e-05
-9.84628419387e-06
4.92337027874e-05
-2.75430212764e-05
4.59036389571e-05
-1.72482714678e-05
1.08698999987e-05
4.71531728657e-05
-1.21351361736e-05
3.14839368192e-05
5.12195878699e-05
-2.26040875849e-05
4.95602792324e-05
5.46499026645e-05
-2.05659386145e-05
6.06673203304e-05
5.87534051547e-05
-1.39058116651e-05
6.36435891441e-05
6.35954281567e-05
-5.94223389879e-06
5.92377138091e-05
6.81916423352e-05
1.35729152827e-06
4.90784629482e-05
7.17870360489e-05
7.16001082389e-06
3.47635631766e-05
7.47839520069e-05
1.14856199919e-05
1.79428263747e-05
7.6982806483e-05
1.41527694924e-05
5.21070015259e-08
7.81593970689e-05
1.53012731195e-05
-1.78417323448e-05
7.81552059126e-05
1.5305588611e-05
-3.46718832913e-05
7.69704745451e-05
1.41657933146e-05
-4.90014311138e-05
7.47645767034e-05
1.15061754256e-05
-5.91775040965e-05
7.17631980658e-05
7.18427896573e-06
-6.36003456763e-05
6.81672401853e-05
1.38177548679e-06
-6.0639756088e-05
6.35762990494e-05
-5.91900392131e-06
-4.95444076061e-05
5.87375763723e-05
-1.38870163706e-05
-3.14767164381e-05
5.46413061576e-05
-2.05513892955e-05
-1.08685371994e-05
5.12192867946e-05
-2.25937556381e-05
4.71670442031e-05
-1.21319376571e-05
1.22209080823e-05
4.35177151363e-05
-8.58546199257e-06
3.43505783232e-05
4.74124019705e-05
-1.83224961858e-05
5.34732321924e-05
5.08110458768e-05
-1.52838076815e-05
6.51828523593e-05
5.46792534695e-05
-7.63547596366e-06
6.82414114055e-05
5.91872946721e-05
1.34957213295e-06
6.34122656535e-05
6.33602847897e-05
9.66050806657e-06
5.2454615399e-05
6.6546577232e-05
1.61981222505e-05
3.70882435853e-05
6.9142375767e-05
2.1007969387e-05
1.91152061633e-05
7.10332827617e-05
2.39225894972e-05
5.24889191826e-08
7.2042082165e-05
2.51800654696e-05
-1.90131364913e-05
7.20366699314e-05
2.51841972209e-05
-3.69951905792e-05
7.10175864953e-05
2.39349777057e-05
-5.23756073172e-05
6.91173553294e-05
2.10276706715e-05
-6.33496147604e-05
6.65153129736e-05
1.6221920242e-05
-6.81953533296e-05
6.33276293006e-05
9.68537140603e-06
-6.51522777823e-05
5.91593184024e-05
1.37392192928e-06
-5.34541464289e-05
5.46549156981e-05
-7.61545768976e-06
-3.43403988569e-05
5.07950801465e-05
-1.526751099e-05
-1.22177953107e-05
4.74064311064e-05
-1.83097387465e-05
4.35284373202e-05
-8.5791830838e-06
1.38256921131e-05
3.5871096333e-05
-6.17908208523e-06
3.70470166354e-05
3.91182050853e-05
-1.49271364357e-05
5.68007862086e-05
4.21213374544e-05
-1.10640685911e-05
6.88318947102e-05
4.53279091638e-05
-2.67976862206e-06
7.1840414272e-05
4.90361084021e-05
7.14266694823e-06
6.66013666796e-05
5.24111197149e-05
1.61882191292e-05
5.49748144774e-05
5.49297427656e-05
2.32433998268e-05
3.87594735126e-05
5.69113021943e-05
2.84464342001e-05
1.98741403972e-05
5.81722524319e-05
3.174638841e-05
5.01592590417e-08
5.89214929358e-05
3.29445990903e-05
-1.97763421522e-05
5.89154214e-05
3.29477804529e-05
-3.86700005793e-05
5.81537102458e-05
3.17575647348e-05
-5.48990449606e-05
5.68815569614e-05
2.84648703753e-05
-6.65411716791e-05
5.4892094488e-05
2.32653687313e-05
-7.17959188157e-05
5.23705549803e-05
1.62118404624e-05
-6.88021680677e-05
4.89988223722e-05
7.16676017857e-06
-5.67818300514e-05
4.52945013621e-05
-2.65991186283e-06
-3.70363159326e-05
4.20965777975e-05
-1.1047002015e-05
-1.38223422386e-05
3.91044536732e-05
-1.49119878388e-05
3.58753533144e-05
-6.16925368344e-06
1.55358130091e-05
2.52634893066e-05
-4.92821296316e-06
3.95968762053e-05
2.75417753683e-05
-1.24846407179e-05
5.97997787485e-05
2.98314546363e-05
-7.91302610376e-06
7.20030868197e-05
3.21262206648e-05
9.98376035653e-07
7.48414712616e-05
3.47395858548e-05
1.14581367584e-05
6.92015921374e-05
3.70642293208e-05
2.09867718594e-05
5.69606218612e-05
3.87357777185e-05
2.84349417429e-05
3.99690019813e-05
3.99426904209e-05
3.39602417882e-05
2.04695224319e-05
4.07824662153e-05
3.6889279099e-05
4.44060337722e-08
4.12786155252e-05
3.80680095058e-05
-2.03832647095e-05
4.12725361971e-05
3.8070572877e-05
-3.98908021031e-05
4.07636525638e-05
3.68976119609e-05
-5.6893993501e-05
3.99117543918e-05
3.3973009458e-05
-6.91492769564e-05
3.86941578782e-05
2.8453233425e-05
-7.48027511312e-05
3.70181580674e-05
2.10058820727e-05
-7.19769087441e-05
3.46948326095e-05
1.14781563658e-05
-5.97827391194e-05
3.20855255765e-05
1.0148136797e-06
-3.95868813023e-05
2.97988740507e-05
-7.89814754421e-06
-1.55329092034e-05
2.75205864824e-05
-1.24700992386e-05
2.52595989036e-05
-4.91715234327e-06
1.70357523131e-05
1.29486415441e-05
-4.72091087853e-06
4.162807169e-05
1.41199301641e-05
-1.11704812175e-05
6.20741538398e-05
1.53835721685e-05
-5.99820659833e-06
7.43647625653e-05
1.65919282092e-05
3.24367754124e-06
7.70414568303e-05
1.79419396713e-05
1.41209467365e-05
7.1094121865e-05
1.91167383682e-05
2.38948219902e-05
5.82256842248e-05
1.98772268984e-05
3.17269857207e-05
4.0815379249e-05
2.04697888633e-05
3.68832050491e-05
2.08807847791e-05
2.08737937511e-05
3.98432667185e-05
3.66289204231e-08
2.11068267294e-05
4.10159456198e-05
-2.08100356023e-05
2.11012793546e-05
4.10179232103e-05
-4.07520951668e-05
2.08564316326e-05
3.98492827292e-05
-5.8172903918e-05
2.04402899438e-05
3.68922754565e-05
-7.10534491095e-05
1.9836981757e-05
3.17377233325e-05
-7.70116164763e-05
1.90708654867e-05
2.39054617778e-05
-7.43446258847e-05
1.78956398662e-05
1.41322039574e-05
-6.20613564003e-05
1.6549306122e-05
3.25295180108e-06
-4.16208616737e-05
1.53477815504e-05
-5.98940044737e-06
-1.70339832565e-05
1.40946040484e-05
-1.11608946963e-05
1.29377950235e-05
-4.71218008363e-06
1.79091750812e-05
-1.64700927013e-08
-4.94407028462e-06
4.27491790483e-05
1.64377056793e-08
-1.07365195246e-05
6.3291468397e-05
4.09822094147e-08
-5.19970775422e-06
7.56156514963e-05
5.7794196926e-08
4.20994248016e-06
7.82123337318e-05
7.12683893455e-08
1.52739804496e-05
7.209874164e-05
7.65622015193e-08
2.51537592391e-05
5.896840113e-05
7.50086512896e-08
3.29325492782e-05
4.13091698168e-05
6.57323027361e-08
3.80632781348e-05
2.11167747777e-05
5.15470282604e-08
4.10146321251e-05
2.92511116842e-08
3.90609551267e-08
4.21552802976e-05
-2.10607054754e-05
3.47043303152e-08
4.21565231759e-05
-4.12601373532e-05
3.77177237906e-08
4.1018138168e-05
-5.89291383514e-05
4.16890592532e-08
3.80675951226e-05
-7.20696138257e-05
4.21121651942e-08
3.29353392151e-05
-7.81914798941e-05
3.87919581018e-08
2.51539347014e-05
-7.56021571424e-05
3.21219168142e-08
1.52741910657e-05
-6.32840243072e-05
2.12699708115e-08
4.20989965891e-06
-4.27461520414e-05
9.38854748812e-09
-5.19948279097e-06
-1.79088292187e-05
-7.27062441882e-09
-1.07354522904e-05
-2.95871199703e-08
-4.9414516076e-06
1.79068971272e-05
-1.29836218995e-05
-4.93975389909e-06
4.27414765879e-05
-1.40904451871e-05
-1.07277065909e-05
6.32807433627e-05
-1.53078037253e-05
-5.19049110509e-06
7.56020263879e-05
-1.64838817857e-05
4.22038283246e-06
7.81955404649e-05
-1.78086332672e-05
1.52863773732e-05
7.20795987145e-05
-1.89723220379e-05
2.51648153782e-05
5.89505201366e-05
-1.97345399131e-05
3.29386160088e-05
4.12948003073e-05
-2.0344121303e-05
3.80655619344e-05
2.1107370049e-05
-2.07746360574e-05
4.10136019926e-05
2.42890862415e-08
-2.10298832574e-05
4.21520143951e-05
-2.1061191537e-05
-2.10324278263e-05
4.21526028531e-05
-4.12554557514e-05
-2.07829744247e-05
4.10149473781e-05
-5.89205228238e-05
-2.03592283652e-05
3.80659763896e-05
-7.20588208804e-05
-1.97550772366e-05
3.29354800984e-05
-7.81812100602e-05
-1.89951091192e-05
2.51562831724e-05
-7.55936185775e-05
-1.78326356023e-05
1.5277158791e-05
-6.32776716876e-05
-1.65066155991e-05
4.2119308625e-06
-4.27419925328e-05
-1.53278096581e-05
-5.19848953363e-06
-1.79078246605e-05
-1.41060639171e-05
-1.07353845024e-05
-1.2993331455e-05
-4.94408885462e-06
1.70292792378e-05
-2.53030247169e-05
-4.70988790231e-06
4.16074108371e-05
-2.75213164682e-05
-1.11472732291e-05
6.20449374621e-05
-2.97718517037e-05
-5.97349103981e-06
7.43268113822e-05
-3.20379567781e-05
3.2721900617e-06
7.69935649726e-05
-3.46303297851e-05
1.41549333702e-05
7.10395027385e-05
-3.69427958953e-05
2.39245278028e-05
5.8171268381e-05
-3.86136058698e-05
3.17472930843e-05
4.07701327085e-05
-3.98335517856e-05
3.68905601946e-05
2.08503999958e-05
-4.06949204987e-05
3.9840012576e-05
2.08404368134e-08
-4.12065879474e-05
4.1006261135e-05
-2.08110442792e-05
-4.12070137645e-05
4.10064687753e-05
-4.07373411084e-05
-4.06966660572e-05
3.98399872706e-05
-5.8146976741e-05
-3.9837575216e-05
3.68879812559e-05
-7.10225116526e-05
-3.86187154812e-05
3.17391708056e-05
-7.69822529269e-05
-3.69474440618e-05
2.39120718327e-05
-7.43205327547e-05
-3.46353704824e-05
1.41410074581e-05
-6.20434494507e-05
-3.2042881071e-05
3.25917194908e-06
-4.16091282358e-05
-2.97760731521e-05
-5.98607055217e-06
-1.70306773316e-05
-2.7524192097e-05
-1.11603380535e-05
-2.53045635376e-05
-4.71945739298e-06
1.5526062932e-05
-3.59133293741e-05
-4.91577352327e-06
3.95690243823e-05
-3.91095233503e-05
-1.24547709666e-05
5.97586668115e-05
-4.2082336009e-05
-7.87917281609e-06
7.19481692259e-05
-4.52649592936e-05
1.03748867975e-06
7.47704880225e-05
-4.89571076572e-05
1.15044515627e-05
6.91191394873e-05
-5.23186377646e-05
2.10271868869e-05
5.68769570192e-05
-5.48347048812e-05
2.84632820863e-05
3.98981542927e-05
-5.6824389707e-05
3.39696451699e-05
2.04201881781e-05
-5.8100505406e-05
3.6883559236e-05
1.84002303174e-08
-5.88593346308e-05
3.80545458052e-05
-2.03850164627e-05
-5.88580173925e-05
3.80544332223e-05
-3.98677887925e-05
-5.80968528235e-05
3.68829720601e-05
-5.68533328464e-05
-5.68188946524e-05
3.39668744459e-05
-6.91018874856e-05
-5.48267510987e-05
2.84565973001e-05
-7.4758414034e-05
-5.2307862897e-05
2.10169466537e-05
-7.19410697459e-05
-4.8945579212e-05
1.14928591912e-05
-5.97561523841e-05
-4.52536596367e-05
1.02584990624e-06
-3.95694854949e-05
-4.20713624968e-05
-7.8913935876e-06
-1.5526966093e-05
-3.90990697968e-05
-1.24676614341e-05
-3.5905359295e-05
-4.92618524009e-06
1.38148436775e-05
-4.35590180324e-05
-6.1691743357e-06
3.70174848567e-05
-4.74139235665e-05
-1.48982610636e-05
5.67545944695e-05
-5.07903541167e-05
-1.10291087812e-05
6.8768483914e-05
-5.46399922149e-05
-2.63886874286e-06
7.1757239677e-05
-5.91363232098e-05
7.19045384653e-06
6.65038980997e-05
-6.32959742545e-05
1.62306791856e-05
5.48744001832e-05
-6.64781703618e-05
2.32729717292e-05
3.86707845869e-05
-6.90781272144e-05
2.84573685641e-05
1.98109411138e-05
-7.09775832129e-05
3.17369429683e-05
1.72612892213e-08
-7.1995260412e-05
3.29296318493e-05
-1.9777142789e-05
-7.1992842279e-05
3.29292572922e-05
-3.86395313286e-05
-7.09708863178e-05
3.17364493625e-05
-5.48475641344e-05
-6.90673125533e-05
2.84564738843e-05
-6.64824739761e-05
-6.64628691369e-05
2.3271043684e-05
-7.17413995079e-05
-6.32763267977e-05
1.62273957906e-05
-6.8758526976e-05
-5.91151601509e-05
7.18670485176e-06
-5.67495845593e-05
-5.46185284725e-05
-2.64408565576e-06
-3.70155690166e-05
-5.07693881536e-05
-1.10360082968e-05
-1.38144865504e-05
-4.7394118684e-05
-1.49060563357e-05
-4.35438048622e-05
-6.17605750985e-06
1.2209978005e-05
-4.71886357052e-05
-8.58038339076e-06
3.43209593733e-05
-5.12258181231e-05
-1.8299110487e-05
5.34246545757e-05
-5.46409928349e-05
-1.5253076871e-05
6.51157148803e-05
-5.87321121592e-05
-7.59895490734e-06
6.81543572847e-05
-6.35664819727e-05
1.39150945918e-06
6.33105383188e-05
-6.81512733368e-05
9.699120004e-06
5.23491540975e-05
-7.17421819726e-05
1.62254074443e-05
3.69937525736e-05
-7.47399785827e-05
2.1017273954e-05
1.90461327557e-05
-7.69431600401e-05
2.39132258354e-05
1.75645429716e-08
-7.81234451338e-05
2.51567876777e-05
-1.90109725829e-05
-7.81209120653e-05
2.51566436835e-05
-3.69592825573e-05
-7.69357366066e-05
2.39131950284e-05
-5.23172224257e-05
-7.47278260268e-05
2.10184818335e-05
-6.32833129806e-05
-7.17250595154e-05
1.622829968e-05
-6.81334099796e-05
-6.81294981515e-05
9.70327538187e-06
-6.51019221578e-05
-6.35429203124e-05
1.39626791935e-06
-5.34165386138e-05
-5.87073117391e-05
-7.59661403714e-06
-3.43164670196e-05
-5.46164177984e-05
-1.52530622193e-05
-1.22081114581e-05
-5.1202533428e-05
-1.82999651756e-05
-4.71704758566e-05
-8.58145748442e-06
1.08570730792e-05
-4.59108552201e-05
-1.21348795895e-05
3.14532228266e-05
-4.9235001503e-05
-2.25869932807e-05
4.95117145842e-05
-5.21579411182e-05
-2.054156771e-05
6.06014501087e-05
-5.59455628792e-05
-1.38763039425e-05
6.35601131466e-05
-6.06160626979e-05
-5.90909438537e-06
5.91417961007e-05
-6.51212739171e-05
1.38831442525e-06
4.8979255614e-05
-6.87626571172e-05
7.18302243265e-06
3.46740650934e-05
-7.19287920983e-05
1.14940208671e-05
1.7876353596e-05
-7.42907765368e-05
1.41453533057e-05
1.81731187454e-08
-7.55479809525e-05
1.52827471644e-05
-1.78393042433e-05
-7.55459409938e-05
1.52825388026e-05
-3.46361034228e-05
-7.42846215914e-05
1.41457139254e-05
-4.89424679977e-05
-7.19184555317e-05
1.14970169397e-05
-5.9109277194e-05
-6.87478919908e-05
7.18965447471e-06
-6.35344434004e-05
-6.51023405868e-05
1.39801016189e-06
-6.05837717078e-05
-6.05955905299e-05
-5.89801037338e-06
-4.95003703919e-05
-5.59231982775e-05
-1.38675315787e-05
-3.14463217148e-05
-5.21354428536e-05
-2.05350455223e-05
-1.08538321109e-05
-4.92137093471e-05
-2.25813384257e-05
-4.58941595786e-05
-1.21301649943e-05
9.8306460013e-06
-3.84957941868e-05
-1.72457349878e-05
2.87541318544e-05
-4.06224787577e-05
-2.75360382724e-05
4.55428189675e-05
-4.26399497343e-05
-2.63067071974e-05
5.59205306709e-05
-4.55713204708e-05
-2.07519799925e-05
5.87147682318e-05
-4.95304757222e-05
-1.38798456977e-05
5.46339445061e-05
-5.34352633982e-05
-7.60520124433e-06
4.52748764424e-05
-5.67555859258e-05
-2.64800935515e-06
3.20683074034e-05
-5.97491609395e-05
1.02694015074e-06
1.65376053991e-05
-6.20228634044e-05
3.2627984146e-06
1.8847270853e-08
-6.32451194417e-05
4.21591083395e-06
-1.64988132994e-05
-6.32438617479e-05
4.21559680325e-06
-3.20277071004e-05
-6.20188171246e-05
3.2631024013e-06
-4.52345544387e-05
-5.97418757393e-05
1.03027489265e-06
-5.45972816073e-05
-5.67447286356e-05
-2.64043670527e-06
-5.86846527885e-05
-5.342093332e-05
-7.59404495684e-06
-5.58986334314e-05
-4.95151989599e-05
-1.38664269252e-05
-4.55281045585e-05
-4.55544371024e-05
-2.07393108384e-05
-2.87449454834e-05
-4.2623153017e-05
-2.6295472111e-05
-9.82630399259e-06
-4.0606983175e-05
-2.75253917877e-05
-3.84839098645e-05
-1.7236569278e-05
9.89267436472e-06
-2.65610405216e-05
-2.18274574956e-05
2.72254569301e-05
-2.67101750505e-05
-3.12451186225e-05
4.26044595593e-05
-2.72580332165e-05
-3.07609528728e-05
5.21246238012e-05
-2.87813765381e-05
-2.63101421942e-05
5.46142002633e-05
-3.14720994025e-05
-2.05479855054e-05
5.07733534214e-05
-3.43332560872e-05
-1.52611898702e-05
4.2079391755e-05
-3.70225759376e-05
-1.10390726656e-05
2.97873139514e-05
-3.95668172236e-05
-7.89028441487e-06
1.5345227266e-05
-4.15963898904e-05
-5.98440002318e-06
1.96148872061e-08
-4.27209913175e-05
-5.19852525297e-06
-1.53045888742e-05
-4.27203688628e-05
-5.19929723242e-06
-2.97441063342e-05
-4.15942239085e-05
-5.98508491462e-06
-4.20356642746e-05
-3.95625481047e-05
-7.88778197641e-06
-5.07327150907e-05
-3.70158621467e-05
-1.10318322476e-05
-5.45797602344e-05
-3.43240027427e-05
-1.52499062269e-05
-5.20986221313e-05
-3.14627835519e-05
-2.05335773e-05
-4.2586470475e-05
-2.87711247648e-05
-2.62954887887e-05
-2.72141559257e-05
-2.72482698393e-05
-3.07472218542e-05
-9.88731952972e-06
-2.67016493946e-05
-3.12321932429e-05
-2.65547726992e-05
-2.18164714332e-05
1.08034885581e-05
-1.24893091812e-05
-2.48752522665e-05
2.66737536612e-05
-1.08272854495e-05
-3.17531906469e-05
4.05806098496e-05
-9.91475860282e-06
-3.12501702275e-05
4.91926211347e-05
-9.84981356635e-06
-2.75436166869e-05
5.11876438852e-05
-1.08704187788e-05
-2.25967474069e-05
4.73826846088e-05
-1.221915257e-05
-1.83091878258e-05
3.90887546604e-05
-1.38192259066e-05
-1.49094612405e-05
2.75150613957e-05
-1.55253637159e-05
-1.24677976655e-05
1.4103865319e-05
-1.70233395498e-05
-1.11618877045e-05
2.11341677063e-08
-1.78969805624e-05
-1.07413097459e-05
-1.40600768916e-05
-1.78967061828e-05
-1.07424797228e-05
-2.74683826184e-05
-1.70224818224e-05
-1.11634638591e-05
-3.90412559764e-05
-1.55237168802e-05
-1.2465985947e-05
-4.73380648068e-05
-1.38167362498e-05
-1.49023462553e-05
-5.11485867378e-05
-1.22157495743e-05
-1.82977611845e-05
-4.91625696972e-05
-1.08673088743e-05
-2.25815212843e-05
-4.05594226919e-05
-9.84660410639e-06
-2.75276952636e-05
-2.66602848679e-05
-9.91203363928e-06
-3.12353986839e-05
-1.07968745351e-05
-1.08252347727e-05
-3.17398477537e-05
-1.24879185889e-05
-2.4863742916e-05
1.24662238853e-05
-2.4955556573e-05
2.6521145508e-05
-2.48822331252e-05
3.84444424731e-05
-2.18380845021e-05
4.58511878309e-05
-1.72565903282e-05
4.71269690065e-05
-1.21462327201e-05
4.34982046855e-05
-8.59042091577e-06
3.58576790515e-05
-6.1787314795e-06
2.52592900524e-05
-4.9270035729e-06
1.29612512778e-05
-4.72532706155e-06
2.31401116429e-08
-4.95889345058e-06
-1.29134548191e-05
-4.96013374055e-06
-2.52079852424e-05
-4.72797306705e-06
-3.58048810236e-05
-4.92684250813e-06
-4.34478832169e-05
-6.17375535847e-06
-4.70820356001e-05
-8.58161806041e-06
-4.58150696916e-05
-1.21342945034e-05
-3.8418485676e-05
-1.72432058582e-05
-2.6504471522e-05
-2.18260635837e-05
-1.24577561413e-05
-2.48719646528e-05
-2.49456812779e-05
1.8289087256e-05
1.82958577857e-05
-6.15702545927e-05
3.43807696081e-05
2.10252305011e-05
-6.20185483648e-05
4.54048560711e-05
2.35489708974e-05
-5.64186200684e-05
5.07685350939e-05
2.62806256055e-05
-4.89028945465e-05
5.0805213037e-05
2.89251991254e-05
-4.11078976964e-05
4.57753780553e-05
3.11262094633e-05
-3.46853159736e-05
3.69715038344e-05
3.29848300262e-05
-3.0356503166e-05
2.56341958999e-05
3.46574770755e-05
-2.82391401634e-05
1.30284811246e-05
3.60254743253e-05
-2.81322483609e-05
3.56689984189e-08
3.67945215733e-05
-2.87433184461e-05
-1.29592655369e-05
3.67923899343e-05
-2.87368275894e-05
-2.55710970854e-05
3.60192924317e-05
-2.81139547527e-05
-3.69185597162e-05
3.46477701078e-05
-2.82098366559e-05
-4.57347218388e-05
3.29727363122e-05
-3.03202973209e-05
-5.07769429213e-05
3.11136203472e-05
-3.46492716073e-05
-5.07493251138e-05
2.89139028773e-05
-4.10778701844e-05
-4.53925568039e-05
2.62716856842e-05
-4.88818356894e-05
-3.43735802572e-05
2.35426421355e-05
-5.64063648823e-05
-1.82858323141e-05
2.10210458802e-05
-6.20129617408e-05
1.8293796815e-05
-6.15687887928e-05
2.1028598233e-05
3.43798592175e-05
-6.20078088687e-05
3.70982162922e-05
3.70849782143e-05
-6.38981776077e-05
4.71687124845e-05
4.05818431133e-05
-5.83644845611e-05
5.17693939023e-05
4.4765014819e-05
-5.06386375114e-05
5.14850690992e-05
4.90347990679e-05
-4.24321074729e-05
4.65306378896e-05
5.28237127865e-05
-3.50608488663e-05
3.778613222e-05
5.60325287815e-05
-2.9218002497e-05
2.64066515365e-05
5.87270019282e-05
-2.51552448942e-05
1.35301947726e-05
6.07588056001e-05
-2.30064000144e-05
4.34939260056e-08
6.18525014446e-05
-2.22916343222e-05
-1.34453903207e-05
6.18490979742e-05
-2.22847335706e-05
-2.6328046268e-05
6.07488864149e-05
-2.29864080674e-05
-3.77177927902e-05
5.87118625746e-05
-2.51237914288e-05
-4.64751684968e-05
5.60139683889e-05
-2.9180006028e-05
-5.14434517444e-05
5.28044580364e-05
-3.50226560474e-05
-5.1739060041e-05
4.90177618744e-05
-4.23987937706e-05
-4.71484753476e-05
4.47515837425e-05
-5.06133045704e-05
-3.7086236067e-05
4.05723274269e-05
-5.83475091457e-05
-2.10232461043e-05
3.70790741794e-05
-6.38891066255e-05
3.43791274773e-05
-6.20077154266e-05
2.35568124255e-05
4.53919384026e-05
-5.6405559246e-05
4.0600489306e-05
4.71448034737e-05
-5.83616518076e-05
5.07988197286e-05
5.0770526686e-05
-5.11616159446e-05
5.5197200414e-05
5.54287496836e-05
-4.13871389145e-05
5.46026661984e-05
6.02332028736e-05
-3.11673956091e-05
4.93817978054e-05
6.45814782128e-05
-2.18110240483e-05
4.02706079797e-05
6.81770937778e-05
-1.40801483411e-05
2.83573065375e-05
7.10010455826e-05
-8.24965747379e-06
1.46445635244e-05
7.30183880691e-05
-4.51933029225e-06
4.88175726534e-08
7.40725967485e-05
-2.80204199852e-06
-1.45494914941e-05
7.4068355702e-05
-2.79508492934e-06
-2.82689044802e-05
7.30062227168e-05
-4.49982059254e-06
-4.01932410702e-05
7.09821415528e-05
-8.21796415621e-06
-4.93178355762e-05
6.81539943208e-05
-1.40419189334e-05
-5.45532872689e-05
6.45578410406e-05
-2.17718264693e-05
-5.5160366376e-05
6.02118943553e-05
-3.11317940348e-05
-5.07734592969e-05
5.54116664762e-05
-4.13583251123e-05
-4.05848899113e-05
5.07582842378e-05
-5.114052877e-05
-2.35492988077e-05
4.71378068069e-05
-5.83490948761e-05
4.53933280364e-05
-5.64031366598e-05
2.62914433511e-05
5.07408303781e-05
-4.88876812613e-05
4.47872997233e-05
5.17353325721e-05
-5.06355823736e-05
5.54597601104e-05
5.51616568797e-05
-4.13881828721e-05
5.97437175876e-05
5.97075730649e-05
-2.93360299965e-05
5.86999399957e-05
6.43733670709e-05
-1.6998868165e-05
5.28807247441e-05
6.85580264249e-05
-5.78205635425e-06
4.30213918925e-05
7.19686360112e-05
3.4070509297e-06
3.02981015588e-05
7.45827399291e-05
1.01664410352e-05
1.56605622273e-05
7.63644684627e-05
1.4563790591e-05
5.20624376046e-08
7.72745011668e-05
1.66407627663e-05
-1.55590312777e-05
7.72695498081e-05
1.66478008817e-05
-3.02037711185e-05
7.63501608174e-05
1.45844822603e-05
-4.29381798597e-05
7.45608175111e-05
1.01986678745e-05
-5.28107268738e-05
7.19421224762e-05
3.44547327674e-06
-5.86452136603e-05
6.85301936694e-05
-5.74048503193e-06
-5.97022788828e-05
6.4347869112e-05
-1.69606042769e-05
-5.54305282802e-05
5.96862650089e-05
-2.93034022694e-05
-4.4768563029e-05
5.51460383607e-05
-4.13630520743e-05
-2.62818082591e-05
5.17264574139e-05
-5.06184232774e-05
5.0743358317e-05
-4.88801086509e-05
2.89393693841e-05
5.07636574587e-05
-4.10973485852e-05
4.90610664363e-05
5.14434674374e-05
-4.24339358099e-05
6.02673737723e-05
5.45630351755e-05
-3.11736386295e-05
6.44110422383e-05
5.8662320275e-05
-1.70042373668e-05
6.28189734967e-05
6.27817148652e-05
-2.7585162809e-06
5.63402879766e-05
6.65673173527e-05
9.82669125131e-06
4.5737475493e-05
6.9632383268e-05
2.00990907753e-05
3.21483245159e-05
7.19101710051e-05
2.77473636444e-05
1.66000094272e-05
7.34419183276e-05
3.26236660037e-05
5.3288123406e-08
7.42207298236e-05
3.49018021279e-05
-1.64961685492e-05
7.42153928631e-05
3.49092408268e-05
-3.20520620712e-05
7.34263645313e-05
3.26455209001e-05
-4.56523562999e-05
7.1886052594e-05
2.77812685706e-05
-5.6268667328e-05
6.96026687158e-05
2.01400721124e-05
-6.27617551001e-05
6.65357221232e-05
9.86935669857e-06
-6.43673268743e-05
6.27513566343e-05
-2.71690354112e-06
-6.02357149447e-05
5.86361005313e-05
-1.69684521988e-05
-4.90400334691e-05
5.45431959174e-05
-3.1144219864e-05
-2.89279847743e-05
5.14316498079e-05
-4.24109907465e-05
5.07653914545e-05
-4.10819529545e-05
3.11448357331e-05
4.57246855551e-05
-3.46913387314e-05
5.28553280247e-05
4.64852747375e-05
-3.50748086929e-05
6.46200814511e-05
4.93420027823e-05
-2.18275391937e-05
6.85985920083e-05
5.28457777455e-05
-5.79744970183e-06
6.66057004487e-05
5.63070728945e-05
9.81710659735e-06
5.95429018364e-05
5.95101790712e-05
2.3780454157e-05
4.82127156911e-05
6.20602336918e-05
3.5100475559e-05
3.38214196393e-05
6.39390472867e-05
4.33704144125e-05
1.74483158408e-05
6.52163125562e-05
4.85213301785e-05
5.26416605591e-08
6.5915882788e-05
5.0880621547e-05
-1.73458831236e-05
6.59102527928e-05
5.08878982422e-05
-3.37267145827e-05
6.5199434988e-05
4.8542773526e-05
-4.81290945722e-05
6.39123570931e-05
4.34037774602e-05
-5.9472519474e-05
6.20267642178e-05
3.51412757167e-05
-6.65494632459e-05
5.94738023883e-05
2.38242554234e-05
-6.85547515957e-05
5.62713146067e-05
9.85926775664e-06
-6.45879605371e-05
5.28129447432e-05
-5.75908140429e-06
-5.28332097297e-05
4.93158193281e-05
-2.17948766054e-05
-3.11321917345e-05
4.64676238464e-05
-3.50467245045e-05
4.57214430946e-05
-3.4667423973e-05
3.30098051699e-05
3.69218921219e-05
-3.03861047472e-05
5.60715215622e-05
3.77448998548e-05
-2.92484890748e-05
6.8222040897e-05
4.02370870706e-05
-1.4109681389e-05
7.20138678995e-05
4.29941714121e-05
3.3800051422e-06
6.96740384841e-05
4.57137034171e-05
2.00758653099e-05
6.20946022145e-05
4.81909382877e-05
3.50869012062e-05
5.01738535978e-05
5.01517050955e-05
4.70726876157e-05
3.51674690845e-05
5.1688382615e-05
5.57034984633e-05
1.8201656938e-05
5.28877674903e-05
6.10407640285e-05
5.02083252465e-08
5.34493836082e-05
6.35625672953e-05
-1.81043821814e-05
5.34432858343e-05
6.35693588139e-05
-3.5078565365e-05
5.28699296017e-05
6.10612731775e-05
-5.00957270275e-05
5.16607415587e-05
5.57336649817e-05
-6.20290806757e-05
5.01155612869e-05
4.71099396445e-05
-6.96218774824e-05
4.81505320779e-05
3.51279188003e-05
-7.19732271279e-05
4.56727900847e-05
2.01166431043e-05
-6.81917466946e-05
4.29556533236e-05
3.41590605186e-06
-5.60502942723e-05
4.02041673645e-05
-1.40767968942e-05
-3.29969829121e-05
3.77199590315e-05
-2.92176302088e-05
3.69099058531e-05
-3.03546984249e-05
3.46882984556e-05
2.55947586345e-05
-2.828938799e-05
5.8772643339e-05
2.63762236513e-05
-2.52003201961e-05
7.10515625817e-05
2.83354215309e-05
-8.29028982957e-06
7.46332806443e-05
3.02830533429e-05
1.01277677121e-05
7.19563603505e-05
3.21379090175e-05