/*--------------------------------*- C++ -*----------------------------------*\
| =========                 |                                                 |
| \\      /  F ield         | OpenFOAM: The Open Source CFD Toolbox           |
|  \\    /   O peration     | Version:  3.0.1                                 |
|   \\  /    A nd           | Web:      www.OpenFOAM.org                      |
|    \\/     M anipulation  |                                                 |
\*---------------------------------------------------------------------------*/
FoamFile
{
    version     2.0;
    format      ascii;
    class       volVectorField;
    location    "6.9";
    object      U;
}
// * * * * * * * * * * * * * * * * * * * * * * * * * * * * * * * * * * * * * //

dimensions      [0 1 -1 0 0 0 0];

internalField   nonuniform List<vector> 
7968
(
(0.0025462864543 0.00254937168299 -0.00390049166416)
(0.00766122695803 0.00169379133945 -0.00383131597467)
(0.0132329134419 0.001119702799 -0.00323416017655)
(0.0172430420161 0.000796960080218 -0.00223360579018)
(0.0191741884692 0.000866617293009 -0.000899576537995)
(0.0185122700921 0.00108840367101 -0.000271268554014)
(0.0163206940554 0.00150932034042 0.000250136559446)
(0.012582205923 0.00204788750219 0.000507099925742)
(0.00781811430016 0.00256993964515 0.000528873038112)
(0.00264670100179 0.00288598159812 0.000471182064317)
(-0.00262187134156 0.00288648232524 0.000471453708803)
(-0.00779514064213 0.00257126715516 0.000529486781561)
(-0.0125626292691 0.00204947414249 0.000508075300476)
(-0.0163057370066 0.00151060053638 0.000251451916796)
(-0.0185020863359 0.00108934259932 -0.000270224117264)
(-0.0191674879485 0.00086775370521 -0.00089835933371)
(-0.0172407361421 0.000797841820081 -0.00223368344932)
(-0.0132318458609 0.00112069885512 -0.0032349790952)
(-0.00766096356116 0.00169490995319 -0.00383287387289)
(-0.00254611595775 0.0025504488214 -0.00390233416593)
(0.00169152128891 0.007665177865 -0.00383026968879)
(0.00727909030054 0.00728087083767 -0.00719084146822)
(0.0137541046764 0.00715604854056 -0.00791007984937)
(0.0184060355635 0.00743669950169 -0.00727960583154)
(0.0207196118599 0.00819483735231 -0.00593822386078)
(0.0201529610102 0.00905449182652 -0.00485967233487)
(0.0177909658028 0.00992550201901 -0.00395049645069)
(0.0137059783838 0.010768072997 -0.00325091729923)
(0.0085069941704 0.0114596021787 -0.00286308777948)
(0.00287750399679 0.0118515504935 -0.00273771125473)
(-0.00284692473364 0.0118512068978 -0.00273684616564)
(-0.00847809393018 0.011458687669 -0.00286057930573)
(-0.0136806893403 0.0107667897828 -0.0032470570652)
(-0.0177711220038 0.00992401624452 -0.00394615467402)
(-0.0201387233943 0.00905286430654 -0.00485605740197)
(-0.0207099862373 0.00819483175852 -0.00593420920409)
(-0.0184015728192 0.00743683359501 -0.00727785673998)
(-0.0137519811646 0.00715699350699 -0.00790970337677)
(-0.00727853807315 0.00728266947399 -0.00719172817425)
(-0.00169147393301 0.00766785675122 -0.00383202893168)
(0.00111802694159 0.0132349078683 -0.0032326150902)
(0.00715558912188 0.0137524126182 -0.00790911537263)
(0.0143190504068 0.0143152527028 -0.00879568559718)
(0.019443058103 0.0152400453485 -0.00795405829532)
(0.0220162736554 0.0166025922693 -0.00640295778042)
(0.0215619187615 0.0179928533146 -0.00499707296236)
(0.0190953789959 0.019209418087 -0.0039021094175)
(0.0147951819866 0.0203234042689 -0.00306467549292)
(0.00924406106433 0.0211898013699 -0.00256480868926)
(0.00314095502605 0.0216616664747 -0.00236958942173)
(-0.00310516059603 0.0216610295818 -0.0023686673527)
(-0.00921037700174 0.0211880061022 -0.00256206600535)
(-0.0147658796163 0.020320730735 -0.00306034062122)
(-0.0190722440966 0.0192062258299 -0.00389703390053)
(-0.0215448256971 0.0179895324092 -0.00499231813738)
(-0.0220049481103 0.0166011169919 -0.00639815724705)
(-0.0194369653867 0.0152391890806 -0.0079512935085)
(-0.01431603149 0.0143158105479 -0.00879438017313)
(-0.00715464386816 0.0137545521643 -0.00790923266386)
(-0.0011181063048 0.0132393077853 -0.00323417962302)
(0.000795662685682 0.0172426122859 -0.00223172081414)
(0.00743724503968 0.0184002048126 -0.00727798367126)
(0.0152454248428 0.0194345744278 -0.00795369533675)
(0.0208352774188 0.0208248823542 -0.00677535906124)
(0.0236357139141 0.0225977605546 -0.00490926763891)
(0.0232096885582 0.0243141954347 -0.0032144877145)
(0.0205516375547 0.0257328194099 -0.00195442396304)
(0.0159325418914 0.0269942424246 -0.00103753542499)
(0.00996637046041 0.0279413919938 -0.000528130922555)
(0.00338908006959 0.02844750833 -0.000347805209823)
(-0.00334971733482 0.0284466346771 -0.000346924411287)
(-0.00992917663352 0.0279388389301 -0.000525333608593)
(-0.0159000116842 0.0269902473528 -0.00103284347533)
(-0.020525737408 0.0257278614665 -0.00194883059147)
(-0.0231902082477 0.0243089128659 -0.00320897924869)
(-0.0236226473172 0.0225945269945 -0.00490382731835)
(-0.0208277525397 0.0208226290284 -0.00677182495321)
(-0.0152415024025 0.0194344122835 -0.00795164448876)
(-0.00743581942781 0.0184024929658 -0.00727741968545)
(-0.000795787382991 0.0172488066545 -0.00223317221069)
(0.000866385976165 0.0191674033709 -0.00089682667936)
(0.00819664991784 0.0207074883222 -0.00593633107205)
(0.0166096260113 0.0220020625703 -0.00640317060154)
(0.0226099384279 0.023619824849 -0.00491021037007)
(0.0255936756074 0.0255758746404 -0.00269979050942)
(0.0251619122399 0.0274995331909 -0.000681310865457)
(0.022257327689 0.0290293028977 0.000892282155025)
(0.0172345949121 0.0303257641734 0.00211099895224)
(0.0107724744 0.031282286952 0.00285047769428)
(0.00366190278528 0.0317887982306 0.00314257962911)
(-0.00362004338248 0.0317873568508 0.00314390393105)
(-0.0107330493449 0.0312781018219 0.00285455246017)
(-0.0172003472717 0.0303193214443 0.00211743433699)
(-0.0222302409374 0.0290215112202 0.000899502860066)
(-0.0251415506139 0.0274917074659 -0.000674530883268)
(-0.0255799690931 0.0255701141854 -0.00269327627899)
(-0.0226018189273 0.0236152327009 -0.00490554253465)
(-0.0166052695336 0.0220000704703 -0.00639978408975)
(-0.00819498541157 0.0207084210574 -0.0059340805093)
(-0.000866920279971 0.0191735273684 -0.000896978318309)
(0.00108853005992 0.0185027468288 -0.000269746174907)
(0.00905660208845 0.0201379376517 -0.00486010795443)
(0.0180006616098 0.0215448225568 -0.00499975760861)
(0.0243271437842 0.0231911527224 -0.00321804683516)
(0.0275180052137 0.025141318447 -0.000684194938294)
(0.0269865304739 0.0269653091399 0.00173906068826)
(0.0238219488627 0.0283719732241 0.00361937208837)
(0.0184044753282 0.0295251428558 0.0050707079377)
(0.0114799276595 0.0303655587504 0.00594722459322)
(0.00389538990879 0.030799043088 0.00630856293708)
(-0.0038532299448 0.0307970898924 0.006309865037)
(-0.0114400471214 0.0303598995803 0.00595113469351)
(-0.0183695474005 0.0295163116049 0.00507692227682)
(-0.0237938724492 0.028361080715 0.00362654299087)
(-0.0269650223583 0.0269541168764 0.00174600992212)
(-0.0275032179217 0.0251322436491 -0.000677218023122)
(-0.024317812284 0.0231833985085 -0.00321315962204)
(-0.0179950581568 0.0215401789664 -0.00499605693434)
(-0.00905376496115 0.0201370418426 -0.00485754024507)
(-0.00108885157076 0.0185080522469 -0.000269688634044)
(0.00151087592576 0.0163086527662 0.000251142293645)
(0.0099297802698 0.0177746333783 -0.00395239447906)
(0.0192195097936 0.0190777653396 -0.00390674345655)
(0.0257474832875 0.0205333282111 -0.00196033420595)
(0.0290493659741 0.0222372770036 0.000886194559182)
(0.0283944859266 0.0238013047384 0.00361589904152)
(0.0250105969554 0.0249890286503 0.00574372047111)
(0.0192743713634 0.0259376344126 0.00741098734329)
(0.011967115096 0.0265688232023 0.00850694293342)
(0.00405022142958 0.0269554558247 0.00865802389829)
(-0.00400984985668 0.026953181103 0.00865845394205)
(-0.0119288664707 0.0265620000945 0.00850935650758)
(-0.0192408032425 0.0259265002788 0.00741721103345)
(-0.0249836653726 0.0249753059569 0.00575071837105)
(-0.0283737791008 0.0237868000577 0.00362295306992)
(-0.0290349268487 0.0222245410111 0.00089356696933)
(-0.0257384736996 0.0205220968929 -0.00195534393772)
(-0.019213757321 0.0190699290489 -0.00390256299811)
(-0.00992661034647 0.0177709836134 -0.00394883780991)
(-0.00151138132283 0.0163120357938 0.000251969093951)
(0.00205057455307 0.012569111354 0.000508117595827)
(0.0107746828073 0.0136913751381 -0.00325444722362)
(0.0203358797948 0.0147806380369 -0.00307125807408)
(0.0270106684642 0.0159185334034 -0.00104570197645)
(0.0303474040034 0.0172198452504 0.00210108095679)
(0.0295493316486 0.0183893818384 0.00506265218527)
(0.0259610380506 0.019259104671 0.00740633444221)
(0.019946559508 0.0199298546692 0.00907084873511)
(0.012356600529 0.0204048644112 0.00952920404774)
(0.00415432556742 0.0206658936036 0.00962743417785)
(-0.00411857027077 0.0206633669068 0.00962770232115)
(-0.0123228381098 0.0203971292715 0.00953037712552)
(-0.0199174515862 0.0199175764181 0.00907264025466)
(-0.0259373785225 0.0192427289212 0.00741241960792)
(-0.0295313732473 0.0183715423092 0.00506856957045)
(-0.0303346755735 0.0172029779155 0.0021075653714)
(-0.0270027389169 0.0159033687712 -0.00104145092722)
(-0.0203306235039 0.0147689474425 -0.00306735848264)
(-0.0107715966261 0.013684263994 -0.00325063939052)
(-0.0020513713883 0.0125693367514 0.000509485911634)
(0.00257264054435 0.00780433308683 0.000531239189715)
(0.0114674992682 0.00849611867306 -0.00286680728611)
(0.0212035402646 0.00923559480344 -0.00257185654326)
(0.0279585761922 0.00996019813656 -0.00053667536124)
(0.0313043454873 0.0107674195655 0.00283882240991)
(0.0303903421056 0.0114752358988 0.00593625484878)
(0.0265927283297 0.0119627628057 0.0085025752938)
(0.0204240655051 0.0123514147137 0.00952916850621)
(0.0126047023985 0.0125967409379 0.0099236220491)
(0.00422016876741 0.0127395718235 0.0100237925483)
(-0.00419064480427 0.0127371530115 0.0100240780581)
(-0.0125771663742 0.0125891817112 0.0099245504765)
(-0.0204006438921 0.0123386960689 0.00953062098559)
(-0.0265743921166 0.0119456002444 0.008504939374)
(-0.0303764959325 0.0114558103663 0.00593940092217)
(-0.0312944462992 0.0107480987828 0.00284256238102)
(-0.0279525040721 0.00994255665065 -0.000534293796419)
(-0.0211997006757 0.00922113226778 -0.00256938352932)
(-0.0114653024546 0.00848624354149 -0.0028639928442)
(-0.00257343904393 0.00780104978718 0.000532745281809)
(0.00288843542236 0.00263015522605 0.000474994371603)
(0.0118588071262 0.00286884182528 -0.00273986555877)
(0.0216744929048 0.00313801668598 -0.00237530490613)
(0.0284634293337 0.00339039308268 -0.000354634063811)
(0.0318088758645 0.0036664991376 0.00313280255668)
(0.0308218408872 0.00390146850229 0.00629787379869)
(0.0269766069695 0.00405665534554 0.0086592829274)
(0.0206828464601 0.00415978469398 0.00962956152377)
(0.0127477427978 0.00422296321364 0.0100247316975)
(0.00426087398271 0.00426182723859 0.0101172842151)
(-0.00423725946265 0.00425971845457 0.0101175034929)
(-0.0127261079377 0.00421635192885 0.0100253807291)
(-0.020665089537 0.00414845638549 0.00963037887535)
(-0.0269632879494 0.00404115842018 0.00865982266005)
(-0.0308122029899 0.00388366303338 0.00629731278436)
(-0.0318020074874 0.00364818862409 0.00313280596698)
(-0.0284594726326 0.00337342221381 -0.000354787423228)
(-0.0216726224419 0.00312352749804 -0.00237518424956)
(-0.0118580548717 0.00285823716014 -0.00273918132615)
(-0.0028888863263 0.00262464025345 0.000476022317439)
(0.00288924092553 -0.00264316094299 0.000474553205594)
(0.011856246444 -0.00285548177655 -0.00273766657752)
(0.0216707867233 -0.0031048840529 -0.00237272482872)
(0.0284589238168 -0.0033436125847 -0.0003516629932)
(0.0318027415969 -0.00360887029379 0.00313726234345)
(0.0308144060713 -0.00383963460735 0.00630206488825)
(0.0269690896356 -0.00399598886833 0.00866005338203)
(0.0206759602597 -0.00410670659611 0.00962960847031)
(0.0127427738951 -0.00418148632842 0.010024442429)
(0.00425806522093 -0.00423051403413 0.0101167189736)
(-0.00423843009753 -0.00423198373976 0.0101168227511)
(-0.0127251419797 -0.00418622491131 0.0100247404336)
(-0.0206620970459 -0.00411504017076 0.00962983787773)
(-0.0269592481376 -0.00400728029412 0.00865947701539)
(-0.03080782533 -0.00385248818663 0.00629844063339)
(-0.0317981554904 -0.00362235006148 0.00313408925772)
(-0.028456644582 -0.00335631611019 -0.000354159659179)
(-0.0216705494166 -0.00311600661828 -0.00237497035504)
(-0.0118567428723 -0.00286406368207 -0.00273929468523)
(-0.00288942567086 -0.0026484253852 0.000474730255464)
(0.00257437704271 -0.00781927800967 0.000530076979757)
(0.0114607301776 -0.00848560163264 -0.00286116586755)
(0.0211935181927 -0.00920762180196 -0.00256508506107)
(0.027946139086 -0.00991970595466 -0.000528603392422)
(0.0312871564495 -0.0107174013725 0.00285096189064)
(0.0303692894783 -0.0114206456305 0.00594716239597)
(0.026570411358 -0.0119086460028 0.00850741837221)
(0.0204027792008 -0.0123033566119 0.00953015715004)
(0.0125888085535 -0.0125587100178 0.00992281487947)
(0.00421097230562 -0.0127095020676 0.0100221361805)
(-0.00419412143451 -0.0127100853135 0.0100221524114)
(-0.0125739335834 -0.0125606933118 0.00992274806451)
(-0.0203914659952 -0.0123071643056 0.00952933380646)
(-0.0265625049446 -0.0119137879165 0.00850469531727)
(-0.0303639873891 -0.0114261661095 0.00594236447087)
(-0.0312835527501 -0.0107232910673 0.00284626152774)
(-0.0279445252029 -0.00992535363237 -0.000532379730134)
(-0.0211938456992 -0.00921266115093 -0.00256863762392)
(-0.0114616134988 -0.00848961125973 -0.00286421758992)
(-0.00257454672134 -0.0078218696301 0.00052925290584)
(0.00205177287702 -0.0125861833771 0.000506340537352)
(0.0107658007054 -0.0136857880595 -0.00324760985354)
(0.0203220757418 -0.01476116286 -0.00306241371785)
(0.0269927383549 -0.0158884519962 -0.00103471465831)
(0.0303223676506 -0.017182247099 0.00211706039991)
(0.0295180749332 -0.0183464822389 0.00507676618582)
(0.0259264810867 -0.019215395256 0.00741672791447)
(0.0199139791938 -0.0198904960962 0.00907224596021)
(0.0123312673104 -0.0203728097793 0.00952795258258)
(0.00413906713543 -0.020638431521 0.00962604555096)
(-0.00412421076006 -0.0206381559006 0.00962588326664)
(-0.0123178070173 -0.0203721045046 0.00952750222547)
(-0.0199031925849 -0.0198897121179 0.00907096029051)
(-0.0259186265526 -0.0192141390593 0.00741406444059)
(-0.0295124241 -0.0183444388238 0.0050730381489)
(-0.0303184242139 -0.0171800752184 0.00211338162188)
(-0.0269908287388 -0.0158863984474 -0.0010380078702)
(-0.020321916697 -0.0147592112773 -0.00306569622885)
(-0.0107661757932 -0.013683866947 -0.00325051437105)
(-0.00205207434169 -0.0125846806195 0.000505017805359)
(0.00151112615602 -0.0163259384592 0.000249031464226)
(0.00992086901022 -0.0177738458574 -0.00394629880873)
(0.0192043884291 -0.0190667434526 -0.00389797431189)
(0.0257267063728 -0.0205140539198 -0.0019492286101)
(0.0290203248387 -0.0222126268496 0.000901616393818)
(0.0283577183859 -0.0237709568228 0.00362958197429)
(0.0249696611516 -0.0249571421281 0.00575372811514)
(0.019234354481 -0.02590790005 0.00741466180554)
(0.0119351208888 -0.0265433254663 0.00850468279891)
(0.00403025779686 -0.0269329775038 0.0086578916627)
(-0.00401635378723 -0.0269321658835 0.00865752816495)
(-0.0119219088736 -0.0265410304709 0.00850405680936)
(-0.01922259329 -0.0259040781052 0.00741441205944)
(-0.0249601169634 -0.0249516710841 0.00575312436649)
(-0.0283503531279 -0.0237638582716 0.0036285742854)
(-0.0290150949272 -0.0222049778889 0.000900868097712)
(-0.0257238857556 -0.020506504779 -0.00195041009903)
(-0.0192032086863 -0.0190595082457 -0.00389960025949)
(-0.00992035705846 -0.0177670732463 -0.00394774791365)
(-0.00151132113329 -0.0163208011119 0.000248073673631)
(0.00108807535811 -0.0185180843545 -0.000272324762328)
(0.00904818850789 -0.0201400622429 -0.00485567769436)
(0.0179851314818 -0.0215396640331 -0.0049923675735)
(0.0243047068681 -0.0231799770731 -0.00320835381804)
(0.0274875535371 -0.0251265171902 -0.000671556643017)
(0.0269481797944 -0.026945260096 0.00175040744413)
(0.0237791675189 -0.0283499982653 0.00362773049927)
(0.0183622278672 -0.0295039663271 0.00507339703806)
(0.0114454129288 -0.0303468128519 0.00594348849638)
(0.0038737912978 -0.0307828555737 0.00629962604594)
(-0.00385973817451 -0.0307817923713 0.00629963466394)
(-0.0114313128064 -0.0303437836957 0.00594361201637)
(-0.0183486804314 -0.0294990689375 0.00507401340788)
(-0.0237672556081 -0.0283430526591 0.00362892652984)
(-0.0269385192318 -0.0269363859396 0.00175195977078)
(-0.0274805883049 -0.0251169402205 -0.000669542125388)
(-0.0243006480818 -0.0231701843948 -0.00320731200217)
(-0.0179827688519 -0.0215300611548 -0.00499202557444)
(-0.00904680671716 -0.0201309800163 -0.00485536283875)
(-0.00108792305863 -0.0185110600036 -0.000272492174708)
(0.000864815205544 -0.0191803990822 -0.000900536830671)
(0.00818772744997 -0.0207105113533 -0.00593369623688)
(0.0165938748229 -0.0220004483562 -0.00639742871501)
(0.0225875859763 -0.0236145232408 -0.00490230369755)
(0.0255638922134 -0.0255683997838 -0.00269008253568)
(0.0251256594445 -0.0274882783548 -0.000672275739079)
(0.0222172453048 -0.0290162060709 0.000899492555179)
(0.0171947999911 -0.030312212664 0.00211407613499)
(0.0107395505722 -0.0312695033326 0.00284855807106)
(0.00364090394984 -0.031776964226 0.00313719205608)
(-0.00362641231681 -0.0317759706018 0.00313714347838)
(-0.0107244058699 -0.0312665694665 0.00284878538122)
(-0.0171794631355 -0.030307394556 0.00211535499524)
(-0.0222031510208 -0.0290094534035 0.000902093693667)
(-0.025113930719 -0.0274797669854 -0.000668761191156)
(-0.025555304209 -0.0255592552344 -0.002685969135)
(-0.0225821316585 -0.0236046435347 -0.00489919662001)
(-0.0165903738311 -0.0219905411491 -0.00639517385755)
(-0.00818559079349 -0.0207011076516 -0.00593186852185)
(-0.000864291761196 -0.0191730207759 -0.000900108893124)
(0.00079218848416 -0.017247881797 -0.00223435341596)
(0.00742658694728 -0.0184014845585 -0.00727635679246)
(0.0152280483012 -0.0194342342975 -0.0079499204765)
(0.0208117988053 -0.0208229593144 -0.00677021934285)
(0.0236057129161 -0.0225946688815 -0.0049033500982)
(0.0231746733305 -0.0243082969639 -0.00320990274462)
(0.0205140117504 -0.025726039218 -0.00195168184628)
(0.0158958651954 -0.0269872934385 -0.00103753633213)
(0.00993623761065 -0.0279350324871 -0.000531072735536)
(0.00337006958762 -0.0284418169567 -0.000352772737025)
(-0.00335505585129 -0.0284411801597 -0.000352855334937)
(-0.00992022822868 -0.0279330508044 -0.000530883237455)
(-0.0158792477428 -0.0269838739701 -0.001036247919)
(-0.0204983492034 -0.0257210774089 -0.00194899298072)
(-0.0231612402197 -0.0243018426174 -0.00320619010395)
(-0.023595296275 -0.0225876623683 -0.00489867665586)
(-0.0208048209955 -0.02081516943 -0.00676598463435)
(-0.0152234173718 -0.0194263734143 -0.00794630055911)
(-0.00742380994933 -0.0183941022348 -0.00727323928892)
(-0.000791381944578 -0.0172421241125 -0.00223288603841)
(0.00111322615776 -0.0132351800596 -0.00323358427021)
(0.00714350963023 -0.013751574501 -0.00790737326801)
(0.0143008867496 -0.0143147216524 -0.00879291419592)
(0.0194199910171 -0.0152393711367 -0.00795055491753)
(0.0219880683817 -0.0166014822795 -0.00639900245555)
(0.0215303675433 -0.0179897181439 -0.00499422760058)
(0.019062067239 -0.0192055860993 -0.00390051846534)
(0.0147629971991 -0.0203197287525 -0.00306553847567)
(0.00921777504446 -0.0211869636282 -0.00256866767772)
(0.00312461700479 -0.0216596982647 -0.00237595737845)
(-0.00310898177023 -0.0216593372616 -0.00237625983497)
(-0.00920090169276 -0.0211857462081 -0.00256898681696)
(-0.0147451662255 -0.0203174119094 -0.00306480892444)
(-0.0190449082643 -0.0192020225065 -0.00389830442393)
(-0.0215152815282 -0.0179849588456 -0.00499090690099)
(-0.0219758519202 -0.0165965299031 -0.00639446454763)
(-0.019411502731 -0.015233916878 -0.0079461302731)
(-0.0142951785846 -0.0143093941798 -0.0087890252693)
(-0.00714016639847 -0.0137467966463 -0.00790412841608)
(-0.00111214676773 -0.0132316288067 -0.00323189608027)
(0.00168559740995 -0.00766183340882 -0.00382952687713)
(0.00726576145445 -0.00727837255053 -0.00718875098755)
(0.0137356833926 -0.00715514705516 -0.00790818127621)
(0.0183841890266 -0.00743655938667 -0.00727747999104)
(0.0206939769299 -0.00819485625063 -0.00593575504783)
(0.0201256870298 -0.00905323057826 -0.00485785803796)
(0.0177628895064 -0.00992372903656 -0.00394924974102)
(0.0136796475444 -0.0107664772608 -0.00325170179611)
(0.00848634085 -0.0114586000143 -0.00286652082331)
(0.00286540732415 -0.0118510692303 -0.00274354330249)
(-0.00284855899684 -0.0118509384749 -0.00274400236696)
(-0.00846815291025 -0.0114581054823 -0.00286720619023)
(-0.0136603560216 -0.0107654074271 -0.00325142732511)
(-0.0177441385176 -0.00992196026979 -0.00394747043945)
(-0.0201089905091 -0.00905070762797 -0.0048550705795)
(-0.020679822292 -0.00819255751639 -0.00593157359048)
(-0.0183742730328 -0.00743394810816 -0.00727335793332)
(-0.0137289061551 -0.00715281615285 -0.00790467514106)
(-0.00726178200592 -0.00727647374485 -0.0071859845579)
(-0.00168413911842 -0.00766051597639 -0.00382773113762)
(0.00254087837703 -0.00254676087335 -0.00389851305755)
(0.0076490378412 -0.00169237784017 -0.00382977910787)
(0.0132167204162 -0.0011196889462 -0.00323439991566)
(0.0172255851126 -0.000797970830855 -0.00223487469016)
(0.0191552436816 -0.000868670814113 -0.00090145049277)
(0.0184932248865 -0.00109062166612 -0.000273385272204)
(0.0163020030651 -0.00151193072298 0.000247859122942)
(0.0125650966993 -0.00205063593403 0.000504370621168)
(0.00780487262413 -0.00257184541574 0.000526016868935)
(0.00263950594535 -0.002886623347 0.000467964323863)
(-0.00262109759796 -0.00288654160439 0.00046765102232)
(-0.00778498986388 -0.00257166681301 0.00052519755877)
(-0.0125437965464 -0.00205039998011 0.000504066532545)
(-0.0162810021762 -0.001511699653 0.000248593739084)
(-0.0184742617325 -0.0010903599861 -0.000272030382482)
(-0.0191385425595 -0.000868372572989 -0.000899671940534)
(-0.0172134079506 -0.000797911184338 -0.0022324494314)
(-0.013208384257 -0.00111973244225 -0.00323245464428)
(-0.00764411220327 -0.00169254800036 -0.00382823480025)
(-0.00253888154278 -0.00254687854808 -0.00389658986572)
(0.00386296273161 0.00386659194556 -0.0158803942131)
(0.0108388894941 0.00492874464482 -0.0161853124408)
(0.0162987654058 0.00576753439879 -0.0144340412273)
(0.0196647034679 0.00654157867668 -0.0118001164276)
(0.0208116487819 0.00722513263067 -0.00896840569843)
(0.0197155593873 0.007726537535 -0.00673387825341)
(0.0169596369954 0.00814014812985 -0.00529673633947)
(0.0128207238216 0.0085481556458 -0.00451267165432)
(0.00785147862632 0.0089265736734 -0.0043365246071)
(0.00263433917456 0.00916284682181 -0.00444155888041)
(-0.00260571953696 0.00916246440743 -0.00444008100556)
(-0.00782449219544 0.00892542525244 -0.00433245837256)
(-0.0127971492012 0.00854625822657 -0.00450621198436)
(-0.0169411241007 0.00813765270036 -0.00528874044706)
(-0.0197022286541 0.00772383266055 -0.00672627014258)
(-0.0208023727435 0.00722263995462 -0.00896205909969)
(-0.0196586891183 0.00653956703024 -0.0117961947035)
(-0.0162949733638 0.00576617871572 -0.0144329586534)
(-0.0108368349794 0.00492795368064 -0.0161864229342)
(-0.00386228721075 0.00386624874358 -0.0158822838368)
(0.00492850078829 0.0108402957773 -0.0161811121249)
(0.0121443495696 0.0121411613072 -0.0186712805634)
(0.0172053781394 0.0134177803865 -0.0176521304345)
(0.0202289196793 0.0148763817813 -0.0153507903876)
(0.0211224082851 0.016338053089 -0.0126596909827)
(0.0200209301577 0.0176093050723 -0.0102326636263)
(0.0172455418665 0.0186873122402 -0.0083476111531)
(0.0131134711606 0.0196189896062 -0.00702687542067)
(0.00811936075794 0.0203396587891 -0.00632185696151)
(0.00275005159047 0.0207273483858 -0.00608499371614)
(-0.00271518461919 0.0207261032284 -0.00608302223471)
(-0.00808617959229 0.0203360580874 -0.00631609607357)
(-0.0130837149416 0.0196134263555 -0.00701782660144)
(-0.0172208255935 0.0186804662172 -0.00833672339552)
(-0.0200017686139 0.0176022191687 -0.0102218650659)
(-0.0211082040998 0.0163317783181 -0.0126503450458)
(-0.0202190613071 0.0148714611996 -0.0153438859116)
(-0.0171991120227 0.013414287443 -0.0176481520871)
(-0.0121408868072 0.0121388765602 -0.0186700844805)
(-0.00492764062721 0.0108395254233 -0.0161830985543)
(0.00576885540494 0.0162964431559 -0.0144283156877)
(0.0134230311734 0.0171980056372 -0.0176506719502)
(0.0186990011814 0.018689469104 -0.016466150234)
(0.0216716736387 0.0205356615344 -0.0137403732153)
(0.0224397335523 0.0224380160245 -0.0105657878639)
(0.0212290348648 0.0241419024607 -0.00760767685888)
(0.0183104750141 0.0255635310022 -0.00520109288071)
(0.0140083368973 0.0267154295507 -0.00340895155739)
(0.00875664435675 0.0275576101954 -0.00229465178279)
(0.00298838863658 0.0280055004273 -0.00181106388572)
(-0.00294928590071 0.0280039854067 -0.00180899405536)
(-0.00871944859075 0.027553220734 -0.00228852797482)
(-0.0139748371602 0.0267086626297 -0.00339929673319)
(-0.0182821993366 0.0255552612885 -0.00518945047069)
(-0.0212065403292 0.0241333791587 -0.00759580042878)
(-0.0224226838289 0.0224304763604 -0.0105550711303)
(-0.0216594619161 0.020529683986 -0.0137319006584)
(-0.0186910345922 0.0186852101047 -0.0164604331724)
(-0.0134183259494 0.0171954620526 -0.0176479240382)
(-0.00576754934427 0.0162965323163 -0.0144295056831)
(0.00654374277388 0.019656994658 -0.011792812556)
(0.01488310813 0.0202173473312 -0.0153488178096)
(0.0205465852614 0.0216587516841 -0.0137403990694)
(0.0235618830606 0.0235482102783 -0.0104149311715)
(0.0241939294053 0.0254838873286 -0.00661974121222)
(0.0227724111749 0.027240954756 -0.00311239468726)
(0.0195724570682 0.0286876935906 -0.000244467632863)
(0.0149559998124 0.0298039644757 0.00190860598971)
(0.00935999924122 0.0305821644182 0.00327948589912)
(0.00319864379785 0.0309836765171 0.00390525361178)
(-0.00315691530228 0.030981844751 0.00390749068762)
(-0.00932031815996 0.0305768991044 0.00328615510093)
(-0.0149201307637 0.0297958647528 0.00191902678204)
(-0.0195417723871 0.0286778497206 -0.000231951895981)
(-0.0227476180293 0.0272307912108 -0.00309967465669)
(-0.0241749206036 0.0254746000315 -0.00660796017253)
(-0.0235479607165 0.0235406840134 -0.0104050764539)
(-0.020537268554 0.0216533360365 -0.0137331727272)
(-0.0148772233154 0.0202143450064 -0.0153443973982)
(-0.00654198157649 0.0196579976302 -0.011792387181)
(0.00722830124064 0.0207973867146 -0.008962126941)
(0.0163463953978 0.0211069517957 -0.012659236261)
(0.022450442572 0.0224243641766 -0.0105675732703)
(0.0254985369243 0.0241788192906 -0.00662156114897)
(0.0259887804838 0.0259734550939 -0.00225094187778)
(0.024312188731 0.0276013288753 0.00180168519872)
(0.0208254756504 0.0289253699556 0.00506865557207)
(0.0158834979009 0.0299241832521 0.0074633468159)
(0.0099259252302 0.0305990309035 0.0089563084934)
(0.0033886389706 0.0309441795333 0.00962924569425)
(-0.00334591773201 0.0309421459028 0.00963152946809)
(-0.0098853619709 0.0305931229969 0.00896311278217)
(-0.015846889634 0.0299150695894 0.00747404709453)
(-0.020794104379 0.0289142470362 0.00508164055155)
(-0.0242865677875 0.0275895961854 0.00181526828918)
(-0.0259688439091 0.0259624796878 -0.0022381811642)
(-0.0254836421002 0.0241695136158 -0.00661061949972)
(-0.0224402186215 0.0224174781383 -0.0105588789463)
(-0.0163395480394 0.0211030454739 -0.0126529784753)
(-0.007226188421 0.0207985198555 -0.00895954650846)
(0.00773090438725 0.0196966245625 -0.00673235980265)
(0.0176198554111 0.0200029477289 -0.0102360248223)
(0.0241563719252 0.0212125673136 -0.00761298965492)
(0.0272570645492 0.0227573117521 -0.0031177523215)
(0.0276174283534 0.0242975471952 0.00179811372376)
(0.0257369551244 0.025722203748 0.00629270345567)
(0.0219843863332 0.0268696572494 0.00987153728187)
(0.0167298940609 0.0277194169508 0.0124469965719)
(0.0104357072533 0.0282960030268 0.0140179567476)
(0.00355825615838 0.0286023888618 0.0147149998112)
(-0.00351606265186 0.0286002079886 0.01471716628)
(-0.0103957248869 0.0282895875329 0.0140244465753)
(-0.0166939084831 0.027709299801 0.0124572789331)
(-0.0219535882648 0.0268571011223 0.00988423184568)
(-0.0257117806704 0.0257087418592 0.00630644242817)
(-0.0275976636136 0.0242845034147 0.00181144687793)
(-0.0272421345584 0.0227456974441 -0.0031060704607)
(-0.0241458164894 0.0212036035626 -0.00760320901433)
(-0.0176124297631 0.0199973832489 -0.0102281335835)
(-0.0077284429981 0.0196968048377 -0.00672753076292)
(0.00814640965078 0.0169386686473 -0.00530025714387)
(0.0187009083387 0.0172273586325 -0.00835574055945)
(0.0255807986717 0.0182950350046 -0.00521072235625)
(0.0287059917324 0.0195592875581 -0.000254384128401)
(0.0289430238391 0.0208133059085 0.00506028184099)
(0.0268854035988 0.0219727049466 0.0098667217132)
(0.0229086134629 0.0228965280559 0.0136445427638)
(0.017408662237 0.0236065274492 0.0163436085669)
(0.0108586897502 0.0241179475476 0.0180130722959)
(0.00370263976439 0.0243671415119 0.0188555056925)
(-0.00366247911769 0.02436474921 0.018857702845)
(-0.0108208313074 0.0241108377333 0.0180199661575)
(-0.0173749959223 0.0235956197312 0.0163528728319)
(-0.0228799128066 0.0228825623 0.0136559746565)
(-0.0268620311791 0.0219573391688 0.00987938040405)
(-0.0289247452977 0.0207979780487 0.00507298982121)
(-0.0286920603123 0.019545030287 -0.000242835622071)
(-0.0255707925821 0.0182833107079 -0.00520076788656)
(-0.0186936076413 0.0172190574517 -0.00834687984589)
(-0.00814374757518 0.0169360668216 -0.00529335626763)
(0.00855635106002 0.0128017310719 -0.0045206033884)
(0.0196352334731 0.0130983415707 -0.00703916460585)
(0.0267352248868 0.0139966213623 -0.00342220390534)
(0.0298243691267 0.014946992954 0.00189467521794)
(0.0299437330092 0.0158760328566 0.00745035381933)
(0.0277367558932 0.0167234314708 0.0124372904507)
(0.0236198402829 0.0174020381809 0.0163386723227)
(0.0179598079404 0.0179524943428 0.0192874169222)
(0.0111963368768 0.0183447351818 0.0212331398196)
(0.00381365712664 0.0185402357207 0.0220831704173)
(-0.00377722464767 0.018537745337 0.0220849917812)
(-0.0111622663065 0.018337404327 0.0212387756869)
(-0.0179299160304 0.0179408549803 0.0192962314722)