/*--------------------------------*- C++ -*----------------------------------*\
| =========                 |                                                 |
| \\      /  F ield         | OpenFOAM: The Open Source CFD Toolbox           |
|  \\    /   O peration     | Version:  3.0.1                                 |
|   \\  /    A nd           | Web:      www.OpenFOAM.org                      |
|    \\/     M anipulation  |                                                 |
\*---------------------------------------------------------------------------*/
FoamFile
{
    version     2.0;
    format      ascii;
    class       surfaceVectorField;
    location    "4.9";
    object      ddt0(Uf);
}
// * * * * * * * * * * * * * * * * * * * * * * * * * * * * * * * * * * * * * //

dimensions      [0 1 -2 0 0 0 0];

internalField   nonuniform List<vector> 
22672
(
(0.000155932049893 4.46305463103e-05 -0.000119233031841)
(4.93929183872e-05 0.000144892797396 -0.000118503289385)
(8.38880247125e-05 7.98221861017e-05 -0.0003072323055)
(0.00034708620362 2.74645234824e-05 -0.000119911132217)
(0.000234768998524 0.000128414840382 -0.000166552605777)
(0.000278480940034 7.51152112585e-05 -0.00032667970142)
(0.00054250748204 1.86112830018e-05 -0.000109856337759)
(0.000455588350306 0.000118829908855 -0.000174062337425)
(0.000483990837401 7.69089459061e-05 -0.000321366379702)
(0.00071555544742 1.49089742492e-05 -9.49028303406e-05)
(0.000641062343499 0.000117031626149 -0.000159971060498)
(0.000656224921172 7.60420019879e-05 -0.000296825368719)
(0.000849420944082 1.75798586877e-05 -7.99181643335e-05)
(0.000793986016632 0.000125800849114 -0.000140764240599)
(0.000797832120348 7.59832521021e-05 -0.000265790929204)
(0.000938265391028 2.34479003459e-05 -6.69439674244e-05)
(0.000901147646622 0.000137753151941 -0.000121876195055)
(0.000899186447481 7.83011762888e-05 -0.000231912915847)
(0.000978685505824 3.17273910651e-05 -5.25662219592e-05)
(0.000964695139119 0.000147858636963 -0.000106697136948)
(0.000963725329273 8.10113642009e-05 -0.000192670646875)
(0.000991012236713 4.08339149825e-05 -3.77296401891e-05)
(0.000988943760562 0.000163072556265 -8.87906269933e-05)
(0.000990806484245 8.54079188907e-05 -0.000178840119353)
(0.000962875648336 4.641683457e-05 -2.54674161001e-05)
(0.00097759832001 0.000173141976596 -7.48419895277e-05)
(0.000982872481881 8.96423970646e-05 -0.000147557120103)
(0.000903153955267 4.82857666412e-05 -1.35765247318e-05)
(0.000932292711517 0.000178499841315 -6.23894055613e-05)
(0.000942821935889 9.25219873004e-05 -0.000120585818979)
(0.000820250724648 4.65099899042e-05 -2.91928301256e-06)
(0.000859985323721 0.000179256042661 -5.16111444877e-05)
(0.000875070246644 9.42790750433e-05 -9.76252497139e-05)
(0.000723085082938 4.06500899456e-05 4.8194095082e-06)
(0.00076791942192 0.000174905633169 -4.3125924575e-05)
(0.000785326734285 9.43911866471e-05 -7.87222196851e-05)
(0.000604478508237 3.39847598911e-05 1.22977340859e-05)
(0.000659841550302 0.000164530471496 -3.82599366336e-05)
(0.00067941765489 9.26842297533e-05 -4.68631354083e-05)
(0.000497195711283 2.8777079179e-05 1.96359406803e-05)
(0.000547105357939 0.00015667290719 -3.24208693726e-05)
(0.000566233667705 8.99155881656e-05 -5.04987141362e-05)
(0.000396701581816 2.38180649243e-05 2.15534601714e-05)
(0.000439697838955 0.000147094193085 -2.99410601863e-05)
(0.000453294155461 8.70271956764e-05 -4.80216908129e-05)
(0.000311290398259 2.15146706434e-05 1.82001636686e-05)
(0.000344369145279 0.000134550209862 -3.35350991183e-05)
(0.000348373878549 8.33774000495e-05 -5.09263402267e-05)
(0.000241559266193 2.47003042546e-05 1.1685837269e-05)
(0.000266889553072 0.000125219736232 -3.97549744315e-05)
(0.000257899617904 8.13471521062e-05 -5.76015075197e-05)
(0.000178516568307 3.26163333322e-05 6.42418442885e-06)
(0.000201960879204 0.000126405900486 -4.51186383896e-05)
(0.000178978745464 8.01439865035e-05 -6.57411457392e-05)
(0.000105957840606 4.94091636898e-05 7.59239340679e-06)
(0.000159043875699 0.000133464699553 -3.50144726995e-05)
(0.000118661618223 7.73416162553e-05 -6.35337089714e-05)
(7.87799043602e-05 0.000151657228248 6.61140797035e-06)
(4.59525816854e-05 8.12056364389e-05 -4.74427657504e-05)
(0.00014095645194 0.000216303534694 -0.000165822863321)
(3.29275248292e-05 0.000321210142871 -0.000117366791717)
(8.0429042124e-05 0.000261680319789 -0.000324403174964)
(0.000351225558036 0.00021302330444 -0.000220703810985)
(0.000232568260906 0.000324093596285 -0.000219544639241)
(0.000280741233766 0.000263314645931 -0.000413625536615)
(0.000559248028836 0.00021428023919 -0.000224177060165)
(0.000466299254451 0.000324801838952 -0.000235789581043)
(0.000487496536815 0.000266567120885 -0.00042157178019)
(0.000731857705853 0.000218864546768 -0.000205832470756)
(0.000652134461682 0.000328178567773 -0.000216603238989)
(0.000647536915136 0.000263880231193 -0.000390867161346)
(0.000860886867843 0.00022850691764 -0.00018272227132)
(0.000800247496144 0.000338624137944 -0.00019045169551)
(0.000777362211522 0.000262001040059 -0.000348240715325)
(0.000944741582434 0.000240534145347 -0.000161629364579)
(0.000903297331432 0.000354269109153 -0.000166557931064)
(0.000872876929188 0.000263999161139 -0.000305850704532)
(0.000986051760556 0.000254452225319 -0.000142921541983)
(0.00096518472411 0.000370438047658 -0.000147980516891)
(0.0009361851586 0.000269028421596 -0.000268357220024)
(0.000991112179918 0.000267894588675 -0.000125902976332)
(0.000989367417932 0.00038777665068 -0.000131300761048)
(0.000967949309991 0.000277463422924 -0.000233209425788)
(0.000961230760658 0.000277121389124 -0.000111763978989)
(0.000977744710219 0.000403567236413 -0.000117497837904)
(0.000968731299997 0.000286702510721 -0.000203051231652)
(0.00090126223956 0.000281915008332 -0.000100424025317)
(0.000933528955477 0.000414604869934 -0.000105607178238)
(0.000939604604076 0.000295051676447 -0.000177877863465)
(0.000817401164647 0.000281563182957 -9.18177860502e-05)
(0.000862314200911 0.000419296558168 -9.5463798479e-05)
(0.000883148560053 0.000300385021462 -0.000157390592682)
(0.000716241220876 0.000275310562763 -8.62052707169e-05)
(0.000769995259307 0.000417467256771 -8.72856000438e-05)
(0.000803144408221 0.000302244890487 -0.000142350778617)
(0.000603888276427 0.000265948283459 -8.29785400922e-05)
(0.000662703611794 0.000409028965479 -8.15719841247e-05)
(0.000704004082044 0.000300618468148 -0.000133093376827)
(0.000491814079636 0.000255457226249 -8.19978702392e-05)
(0.000549454767364 0.00039597134269 -7.85141882029e-05)
(0.000593098884966 0.000296362889199 -0.000128382506125)
(0.000387735068508 0.000242698272579 -8.50296194761e-05)
(0.000437919372788 0.000379785798391 -7.91462259789e-05)
(0.000477695836512 0.000290824708446 -0.000130109595022)
(0.000299177002428 0.000230881854691 -9.14902372185e-05)
(0.000338134601347 0.000361182675599 -8.58192467992e-05)
(0.000366573353395 0.000284447207152 -0.000139937868991)
(0.000229341893544 0.000223565839381 -9.65594500901e-05)
(0.000257209578791 0.000346260543157 -9.57382003744e-05)
(0.000266613555935 0.000279570988407 -0.0001533696641)
(0.00017704577849 0.000220126998058 -8.65572955179e-05)
(0.000193622997403 0.000338098646751 -0.000102916270821)
(0.00017921454964 0.000275524536763 -0.000161765431122)
(0.000117178920081 0.000224449717253 -3.59954581359e-05)
(0.00016524746813 0.000333661877915 -8.28890839423e-05)
(0.000123158422276 0.00026840459119 -0.000142812125374)
(9.66155529126e-05 0.000333251459523 6.47971469254e-06)
(5.30158405084e-05 0.000266584288375 -6.59539007304e-05)
(0.000132402438914 0.000419966309952 -0.000171088567638)
(2.47247064397e-05 0.00049693604441 -0.00010500739692)
(8.29775358483e-05 0.000451056245325 -0.000315326458012)
(0.000352410539491 0.000430411427324 -0.000234630409299)
(0.00023459300939 0.000513615159766 -0.00022055872918)
(0.000283729346552 0.000455534934296 -0.000417189048322)
(0.000563500470854 0.000435230444504 -0.000228215759867)
(0.000470952638507 0.000518114012168 -0.000226562483965)
(0.000482485074542 0.000451460441285 -0.000411913065464)
(0.000733068262913 0.000441997030653 -0.000201222463743)
(0.000654318870667 0.000521303973792 -0.000199040016062)
(0.000631959270363 0.00044233823922 -0.00036970522439)
(0.000857744702239 0.000454092369223 -0.000174287355254)
(0.000799063093811 0.000529592942436 -0.00017023431108)
(0.000755525739575 0.000436482076401 -0.000321911822185)
(0.000939932227571 0.000470115010503 -0.000152909083376)
(0.000901031540089 0.000545260020693 -0.000147236821217)
(0.000850430901526 0.000438142303819 -0.000278523261178)
(0.000983138904551 0.000488153476698 -0.000136359735956)
(0.000963903543056 0.000565063362898 -0.000130752751268)
(0.000917876998719 0.000446781583339 -0.000242160043103)
(0.000991390578751 0.000507899134354 -0.00012289562262)
(0.000992367408492 0.000586366583954 -0.000115929410311)
(0.000957136705081 0.000461979210668 -0.000210150040135)
(0.000964155113861 0.000525212681808 -0.000111341037154)
(0.000984723224924 0.000612372282384 -0.000106313970024)
(0.000966604243168 0.000479446251485 -0.000183949350776)
(0.000907149884923 0.000535618229116 -0.0001006469514)
(0.000941870210872 0.000630192864461 -9.51246461663e-05)
(0.000945942510472 0.000494877446502 -0.000160209496974)
(0.000824918593576 0.000538385704614 -9.09316124726e-05)
(0.000871605294246 0.000638836573829 -8.39003448572e-05)
(0.000896826643557 0.000505244324393 -0.000138420627623)
(0.000723960366167 0.000533325372829 -8.26523134516e-05)
(0.000778985458142 0.000637926908366 -7.30478466678e-05)
(0.00082218359806 0.000509372703772 -0.000120364960155)
(0.00061199372553 0.000521852922643 -7.71076322353e-05)
(0.000670453927009 0.000628226648551 -6.34443984964e-05)
(0.000726086089227 0.000507578518384 -0.000108097713174)
(0.000497225057359 0.000506170950914 -7.56625439427e-05)
(0.000554521233083 0.000612490349083 -5.88838605813e-05)
(0.000615514507934 0.00050122626745 -0.000102813415246)
(0.000388642236386 0.000487652968629 -7.9935853302e-05)
(0.000438923445275 0.000593104900564 -5.90465908535e-05)
(0.000497638082811 0.000493312512326 -0.000106099668691)
(0.00029542211915 0.000469624500897 -9.00672099551e-05)
(0.000334435640599 0.000571861570664 -6.6556712707e-05)
(0.000381453209212 0.000485025308739 -0.000119127167515)
(0.000224056006804 0.000455671825796 -0.000102095021105)
(0.000250077265087 0.000554338244195 -8.02501400403e-05)
(0.000274899074911 0.000479170136697 -0.000138605343581)
(0.000175182778145 0.000444868903174 -9.92480592449e-05)
(0.000185990204376 0.000541416890783 -9.50004072632e-05)
(0.000180323627963 0.000475443713068 -0.000156462044076)
(0.000122073289365 0.000432698688199 -4.04139111138e-05)
(0.000163603095453 0.000530366935833 -8.28616393291e-05)
(0.000122281643066 0.000469938961487 -0.000145631148156)
(0.000104881478133 0.000511599565663 1.82724073369e-05)
(5.32319710416e-05 0.00046176253897 -5.74525974063e-05)
(0.000131195976882 0.000583052853094 -0.000154477558463)
(2.15241043916e-05 0.000644916282986 -8.76745074382e-05)
(8.27210441817e-05 0.000601485512564 -0.000286135308485)
(0.000356035915494 0.00059475104823 -0.000212490803846)
(0.000239743824691 0.000662211150501 -0.000199637865491)
(0.000280892669315 0.000594826017235 -0.00038079023983)
(0.000566445490318 0.000597375397746 -0.00019738674016)
(0.000477259754909 0.000663709965509 -0.000196206010072)
(0.000472642279423 0.000579824858397 -0.000363186015741)
(0.000733941914075 0.000601829221525 -0.0001680518634)
(0.000658352244253 0.000664294380318 -0.000166250616435)
(0.000615486822212 0.000563240113495 -0.000317163023513)
(0.000857889905094 0.000613455014938 -0.000143183777042)
(0.00080272895909 0.000671483988278 -0.000139395927823)
(0.000738354581819 0.000553598484736 -0.00027177932908)
(0.000941727996593 0.000633203815753 -0.000125080489109)
(0.000907720642432 0.000689273956669 -0.000120124675293)
(0.000837861220479 0.000556446689978 -0.000232893968848)
(0.000986592277332 0.000658750141206 -0.000110322425623)
(0.000974685128773 0.000716612588509 -0.000107019816138)
(0.00091300303063 0.000570348645377 -0.000200472029412)
(0.00100399103738 0.000685934269754 -9.93477577145e-05)
(0.00100653239778 0.00075046490663 -9.34104202295e-05)
(0.000960751583006 0.000593144497374 -0.000184574285457)
(0.000976181505246 0.000709482454706 -9.0097579036e-05)
(0.00100073359533 0.000777635886229 -8.34249478215e-05)
(0.000977141083045 0.000618867069637 -0.00013964088271)
(0.000919153643294 0.000725055317269 -7.83780396233e-05)
(0.000957282776017 0.000800158464712 -7.06295459208e-05)
(0.000960882602429 0.000641239603343 -0.000114405760477)
(0.000835335093416 0.000730251785396 -6.60165790524e-05)
(0.000884218516884 0.000812216473756 -5.71047990293e-05)
(0.000913932332732 0.000655790242325 -9.05408382231e-05)
(0.000731737852068 0.000724800052131 -5.38399317126e-05)
(0.000787281111226 0.000811682618559 -4.37018632741e-05)
(0.000839778116777 0.000660809631124 -7.09017750771e-05)
(0.000616782969412 0.000710662157766 -4.52206268423e-05)
(0.000673614502553 0.000799678770373 -3.17981924983e-05)
(0.000742549251729 0.000657344210897 -5.72328820848e-05)
(0.000497693793445 0.000691356173832 -4.22679074921e-05)
(0.00055252719664 0.000779506747966 -2.55623010757e-05)
(0.000629795894442 0.000648475253602 -4.88174814402e-05)
(0.000384633571887 0.00066974737407 -4.56674502586e-05)
(0.000432479614294 0.000756518150333 -2.45364572887e-05)
(0.000509370249429 0.000638082134048 -5.14690747667e-05)
(0.000287564834191 0.000649411848165 -5.67396427923e-05)
(0.000324114509519 0.000732513141382 -3.17111451758e-05)
(0.000389765257157 0.000628621035823 -6.49046427773e-05)
(0.000214522171292 0.000633285703832 -7.31555261987e-05)
(0.000237114833401 0.000713234585744 -4.70541218561e-05)
(0.000279098606821 0.000623430250906 -8.72925411149e-05)
(0.00016761406504 0.000620229489609 -7.86139873474e-05)
(0.000172812970314 0.000698858970888 -6.66045567546e-05)
(0.000179940594764 0.000622172715397 -0.00011199223549)
(0.000121773879121 0.000601751552455 -2.41753208784e-05)
(0.000154659669808 0.000686914665119 -6.32263630904e-05)
(0.000120565225143 0.000622071431019 -0.000112091051922)
(0.000105938490889 0.000661212510182 3.6080051507e-05)
(5.27053724451e-05 0.000618172820548 -2.85442798654e-05)
(0.000140273698296 0.000708150290319 -0.000132834814467)
(2.44489610517e-05 0.000748720192392 -7.04752588883e-05)
(8.30300108779e-05 0.000715477792297 -0.000250634083968)
(0.000366372529316 0.000715143358348 -0.000183353071718)
(0.000249576801526 0.000761455268677 -0.000174239931833)
(0.000278717262834 0.000696340726695 -0.000332234604864)
(0.000574306001334 0.00071362813706 -0.000165069886347)
(0.000488493118823 0.000757698600195 -0.00016626623305)
(0.000465825678101 0.000673413651008 -0.000308625230484)
(0.00074137016572 0.000716467668545 -0.000137594680858)
(0.000669141189324 0.000756030556508 -0.000138299308672)
(0.000605620908112 0.000654112996064 -0.000265008045364)
(0.000868037027922 0.000730211462353 -0.000116336826073)
(0.000816870291193 0.000764236233106 -0.00011517790849)
(0.000732119422049 0.000646109619513 -0.000224918159877)
(0.000958255677354 0.00075507880485 -0.000102064002322)
(0.000927281623892 0.000787387376008 -9.94985363086e-05)
(0.000839802333602 0.000653809391964 -0.000192975403666)
(0.00100832389745 0.000787964159696 -9.01078107442e-05)
(0.000999954030587 0.000818491709295 -8.72635198407e-05)
(0.000924254316283 0.000675384253144 -0.000155660794523)
(0.00102203178754 0.000822428508335 -7.74876103364e-05)
(0.00103342373829 0.000856900995162 -7.30994419729e-05)
(0.000979363319729 0.000706720152193 -0.000122933596767)
(0.000995826996057 0.000851463040874 -6.39569147062e-05)
(0.00102551245453 0.000893197024865 -5.77593942911e-05)
(0.000999361822219 0.000740331832891 -9.13101076646e-05)
(0.000935043600508 0.000871000149922 -4.93563053268e-05)
(0.00097780772972 0.000920291826052 -4.12215510977e-05)
(0.00098249334385 0.000768258076382 -6.06311494107e-05)
(0.000845357880247 0.000877262902245 -3.47900832511e-05)
(0.000896945301551 0.00093398165356 -2.52739552262e-05)
(0.000931523449221 0.00078519539359 -3.29050313334e-05)
(0.000734905935559 0.000870096188222 -2.16601240599e-05)
(0.000790863597358 0.000931872518088 -1.07712262345e-05)
(0.000851794359657 0.000788872718004 -1.03397701854e-05)
(0.000612651040749 0.000852395978868 -1.21398667317e-05)
(0.00066840605149 0.000916429999486 8.06179110782e-07)
(0.000749483666588 0.000781324228844 4.9268152758e-06)
(0.00048871873774 0.00082867290462 -7.83085087229e-06)
(0.000540197904162 0.000892169102405 7.39137354052e-06)
(0.000632934996816 0.000767268889583 1.05925413945e-05)
(0.000371491480709 0.000803185227778 -1.0580152206e-05)
(0.000415533842782 0.000864336993405 8.40334556206e-06)
(0.00050981872509 0.000751542768617 8.59542886869e-06)
(0.000271599437527 0.000780516302373 -2.20256242396e-05)
(0.000304241566833 0.000837478900153 9.01755765989e-07)
(0.000387974842781 0.000738074736834 -5.97534035084e-06)
(0.00019738234697 0.000763475289131 -4.0503152412e-05)
(0.000216165853157 0.000816673166331 -1.52696616665e-05)
(0.000275271499534 0.000730927001325 -3.01160529373e-05)
(0.000151791157406 0.000750816761703 -5.12169324976e-05)
(0.000152720544981 0.000802337686641 -3.68780136564e-05)
(0.000173877476177 0.000730255775164 -5.86853010881e-05)
(0.000113136393302 0.00073221858591 -2.97099070497e-06)
(0.000138633599921 0.000792129237744 -3.91726504546e-05)
(0.000114618390048 0.000734380722515 -6.71888711987e-05)
(9.99966371019e-05 0.000766933066001 5.46200315074e-05)
(4.96984987452e-05 0.000737181138599 7.23033036907e-06)
(0.000152444398742 0.000783392809963 -0.000111880376255)
(3.04243239189e-05 0.000803619425321 -5.56367102378e-05)
(8.54560963106e-05 0.000784218755041 -0.000213400221341)
(0.000381454018114 0.000785385154033 -0.000157153093166)
(0.000261378912473 0.000811175754601 -0.000151656762593)
(0.000280029138432 0.000757222261599 -0.000285067239967)
(0.000588966826266 0.000781062253898 -0.000139495655375)
(0.000503113551817 0.000804207558024 -0.000143085321016)
(0.000465811967572 0.000731191180996 -0.000260164409834)
(0.000758604891108 0.000784733541106 -0.000115882536303)
(0.000687132451724 0.000802319524008 -0.0001187321555)
(0.000607128923299 0.00071378988176 -0.000221594172494)
(0.000892151963458 0.000801643745658 -9.83396187251e-05)
(0.000840864200532 0.000813989837914 -9.97400631412e-05)
(0.000740029592654 0.000711037026659 -0.000188298296637)
(0.00098640600991 0.000830633086514 -8.46980538277e-05)
(0.000957372625984 0.000838767741559 -8.46879854735e-05)
(0.000857294070817 0.000725825104913 -0.00014983161809)
(0.00104131735141 0.000868277750279 -7.02551510694e-05)
(0.00103576094187 0.000874828472247 -6.96576054505e-05)
(0.000951239728609 0.000755309607435 -0.000114580678639)
(0.00105370109167 0.000908629601602 -5.33712259276e-05)
(0.0010707194316 0.000917543403565 -5.05644565939e-05)
(0.00101155954424 0.000794078347473 -7.55010393675e-05)
(0.00102210273346 0.000942798235466 -3.50240306826e-05)
(0.00105809446278 0.000958524969553 -2.81526699767e-05)
(0.00103080775796 0.000833798736468 -3.54277559334e-05)
(0.000952021956122 0.000964247751981 -1.7139200997e-05)
(0.00100092898103 0.000987487882544 -4.67620034018e-06)
(0.00100762334526 0.000864959948403 1.81185377915e-06)
(0.000851105809373 0.000969682027267 -1.25509820968e-06)
(0.000907575084926 0.00100111592346 1.13446541059e-05)
(0.000946734486174 0.000882029544333 3.31329907099e-05)
(0.000729774721065 0.000959595493567 1.16950769361e-05)
(0.000788249086662 0.000996644804517 2.36724583929e-05)
(0.000856257405034 0.000882751263764 5.61231926004e-05)
(0.000598510561294 0.000937934829414 2.0337419383e-05)
(0.000654711146477 0.000977706101299 3.31679878046e-05)
(0.000745044644418 0.000870157888523 6.95956028389e-05)
(0.000467995987485 0.000910165109963 2.36255699748e-05)
(0.000518463882661 0.000949466577854 3.74932678659e-05)
(0.000622510400104 0.000849524531737 7.27764752318e-05)
(0.000347705413209 0.000881288704215 1.9885253534e-05)
(0.00038950164004 0.000918443354372 3.66505106647e-05)
(0.000496699299361 0.000827197815447 6.56957661101e-05)
(0.000246412117085 0.000856387656718 7.65771833913e-06)
(0.000276592396415 0.000888439151025 2.76981683341e-05)
(0.000374185729408 0.000808086578732 4.98692954292e-05)
(0.000172768808977 0.000838771796211 -1.16445229109e-05)
(0.000189770499007 0.000866749653822 1.06597436178e-05)
(0.000261843343262 0.000797212630223 2.32328141292e-05)
(0.000129858323464 0.000827367151932 -2.48337316134e-05)
(0.000129119096362 0.000852817677765 -1.17401721812e-05)
(0.000161104945598 0.000795126806821 -7.69348402097e-06)
(9.94861631816e-05 0.000811020756967 1.84183717578e-05)
(0.000120064065288 0.000844409987546 -1.69488549348e-05)
(0.000104305051901 0.000801084498033 -2.17777746996e-05)
(9.11268208341e-05 0.0008225656556 7.05077840223e-05)
(4.42112226145e-05 0.000808559662713 4.41720837007e-05)
(0.000162506160635 0.000812192908551 -9.54130965762e-05)
(3.81784878218e-05 0.00081135342883 -4.10549572207e-05)
(8.78613129077e-05 0.000812440334578 -0.0001757473138)
(0.000396471298039 0.00081094818163 -0.000137588990444)
(0.00027394537389 0.000816743638553 -0.000132961371511)
(0.000283777032228 0.000781857447116 -0.000245271167913)
(0.000607160792111 0.000806073066981 -0.000122321821141)
(0.000519305489035 0.000809721567211 -0.000126581847988)
(0.000471756126232 0.000757475129161 -0.000221747839529)
(0.000783610297442 0.00081145752867 -0.000102589682338)
(0.000709640882444 0.000808843882266 -0.000105512756031)
(0.000617840811972 0.000745090717124 -0.000188070500671)
(0.00092269473952 0.000830979671017 -8.60884298895e-05)
(0.000870763472885 0.000822007816623 -8.91593824746e-05)
(0.000759422957217 0.000748729681912 -0.000151577403302)
(0.00102387075109 0.000863167306572 -6.96475370962e-05)
(0.000994084307907 0.000848957346246 -7.18093229058e-05)
(0.000886804396207 0.000770070786112 -0.00011510316811)
(0.00108218264313 0.000904205284918 -4.9966910975e-05)
(0.00107811246477 0.000886237731658 -5.1596858361e-05)
(0.000988989004767 0.000805061602458 -7.26632737887e-05)
(0.00109222025395 0.00094680654808 -2.5345900643e-05)
(0.00111216398393 0.000928662407855 -2.12101123626e-05)
(0.00105232112801 0.000848031134339 -2.33058836873e-05)
(0.00105176883902 0.000981367456703 2.19516036574e-06)
(0.00109375965274 0.000969185989872 4.06199608047e-06)
(0.00106725872589 0.000890243642592 2.83646385578e-05)
(0.000968541347774 0.00100249386849 2.38076547628e-05)
(0.00102365787821 0.000996419266954 3.10749928493e-05)
(0.00103348341758 0.00092209127993 7.34563895934e-05)
(0.000852721802182 0.00100741734595 3.62722107084e-05)
(0.000914600334332 0.00100889043329 4.88891838193e-05)
(0.000958478064936 0.000937559387391 0.000107604163566)
(0.000718162456639 0.000995210244868 4.51453692614e-05)
(0.000780885783809 0.00100340765988 6.20179811696e-05)
(0.000853474883989 0.000935195856519 0.000127559788367)
(0.000576766511001 0.000970299636425 5.03238362875e-05)
(0.000634867946596 0.000982984519797 6.57401445643e-05)
(0.000730928731512 0.000917913294872 0.000135935629452)
(0.000440226262497 0.000939401883077 5.05182085557e-05)
(0.000490507330922 0.00095349935726 6.52538964005e-05)
(0.000601328514031 0.000891746889232 0.00013231620527)
(0.000317209781642 0.000908189471591 4.44634254648e-05)
(0.00035827962865 0.000921729810715 6.07558650619e-05)
(0.000473109590856 0.000863858380659 0.000119558774967)
(0.000217774349133 0.000881795885151 3.07001936128e-05)
(0.000245214554549 0.000892136625347 4.91014449032e-05)
(0.000351378820381 0.000839585250828 9.56858353784e-05)
(0.000146604178982 0.00086379749956 1.05640943476e-05)
(0.000161451578153 0.000869421471329 3.06444332428e-05)
(0.000241847304246 0.000824188903651 6.86790524469e-05)
(0.000108183089847 0.000853332477437 -3.85529550257e-06)
(0.000105724638574 0.000856265087003 7.96373844573e-06)
(0.000144669503222 0.000819887573648 3.54620969659e-05)
(8.69974594519e-05 0.000840278777534 3.51405573297e-05)
(0.000102813339079 0.000848840595961 1.77000260657e-06)
(9.26636787982e-05 0.000825131446357 1.75671063196e-05)
(8.21890016245e-05 0.000832500996591 8.23460168703e-05)
(3.9014705065e-05 0.000834538016512 7.78164827068e-05)
(0.000175407866271 0.000802059058151 -7.86032321552e-05)
(4.62734309336e-05 0.000788913929385 -2.82535229859e-05)
(9.15289007854e-05 0.000803084869887 -0.000157910665371)
(0.00041189584214 0.000798791851865 -0.000121954229055)
(0.000285251051923 0.00078663716907 -0.000117637866752)
(0.000290230224854 0.000774906535831 -0.000211510340159)
(0.00062715440218 0.000795504241904 -0.000109772782878)
(0.000535727736317 0.000781114585308 -0.000114979296271)
(0.000483033601551 0.000756079483496 -0.000191592207696)
(0.000812107963066 0.000802163630373 -9.20824561679e-05)
(0.000732731384914 0.000783807294679 -9.74398883378e-05)
(0.000635636608045 0.000749838457113 -0.000164443500308)
(0.000958324899831 0.000821885380831 -7.48802754909e-05)
(0.000901422545795 0.000795435630211 -8.03921889968e-05)
(0.000786138245702 0.000758899483332 -0.000123603312273)
(0.00106571946456 0.000853544198111 -5.37586441706e-05)
(0.00103165565868 0.000820050614083 -5.95647437926e-05)
(0.000922579540991 0.000782968092561 -8.17752130476e-05)
(0.00112591747565 0.000891458451369 -2.28400597487e-05)
(0.001119625669 0.00085318760647 -3.16297626887e-05)
(0.00103145308161 0.000818321694436 -2.97071602085e-05)
(0.00113062149927 0.000931695752837 8.19778436079e-06)
(0.00115325247188 0.000888465613853 4.70459673883e-06)
(0.00109553151404 0.000859032552285 3.36688849876e-05)
(0.0010806318098 0.000965937649607 3.2941828564e-05)
(0.00112725993642 0.000923932224813 3.57496020008e-05)
(0.00110496238987 0.000899782526163 9.41007236822e-05)
(0.000982012378949 0.000984661987448 5.61565219058e-05)
(0.00104337239378 0.00094796195567 6.45466843329e-05)
(0.00105734737641 0.000929026701674 0.000146491140481)
(0.000850898064787 0.000985932946875 7.46349542806e-05)
(0.000918222146028 0.000956720649853 8.49878131006e-05)
(0.000965150071714 0.000941442616783 0.000183077810919)
(0.000701823027287 0.000972263953777 8.26127564725e-05)
(0.000769968458452 0.00095018090065 9.7667909426e-05)
(0.000844925868717 0.000935959758125 0.000202288162745)
(0.000550101213844 0.000947956356968 8.06702046772e-05)
(0.000613447300454 0.000932311766243 9.96871467965e-05)
(0.000710086225257 0.000917030523218 0.000202435683881)
(0.000408283297245 0.00091804656712 7.54915529066e-05)
(0.000461097481177 0.000905948946257 9.11698937435e-05)
(0.000573203507312 0.000889408640895 0.000189417444086)
(0.000284349697201 0.000888293357787 6.53938845003e-05)
(0.00032669203611 0.000877749615138 8.17580839944e-05)
(0.000443076377034 0.000860102677901 0.000168024841904)
(0.000186450044435 0.000862936119949 4.90456845332e-05)
(0.000214245298923 0.000851495048162 6.65989196971e-05)
(0.000322867043035 0.000834316949921 0.000138835235316)
(0.000120933775175 0.000845811577685 2.8044077341e-05)
(0.000134601577314 0.000830599133663 4.68895306768e-05)
(0.00021797181938 0.00081683764704 0.000104940882881)
(8.78210057705e-05 0.000836170009737 1.35890365548e-05)
(8.48723041829e-05 0.000819249149831 2.3671754702e-05)
(0.000126567981381 0.000809778146527 7.11108336053e-05)
(7.54692843238e-05 0.000824682456281 4.89754621471e-05)
(8.73710779634e-05 0.000811354855608 1.79241486566e-05)
(8.05299103594e-05 0.000812050947396 5.1190285573e-05)
(7.27805495795e-05 0.000794917429664 9.29360237654e-05)
(3.35142315815e-05 0.000819168136021 0.000114138080982)
(0.000184298506285 0.000758918142359 -6.72881575831e-05)
(5.11125908026e-05 0.000731310951091 -1.92947980197e-05)
(9.479664148e-05 0.000761511814176 -0.000131081314946)
(0.000424644648992 0.000754421998656 -0.000110662933969)
(0.000292625742868 0.000727060509686 -0.000106436264814)
(0.000296880915859 0.000740912011734 -0.000185304054352)
(0.000647081436316 0.000753404201218 -0.000102646401731)
(0.000548884895696 0.000723749079086 -0.000106887773863)
(0.000495646270094 0.000729861361589 -0.000169427821036)
(0.000837016310742 0.000760673854827 -8.57496211666e-05)
(0.000751710942486 0.00072712952194 -9.21296915143e-05)
(0.000655091925277 0.000729697560972 -0.000137237747568)
(0.000991013623119 0.000777619351635 -6.50766572985e-05)
(0.000926423134714 0.000738151006027 -7.29369223511e-05)
(0.000813447041893 0.000741299742927 -0.000100183166873)
(0.00110374628781 0.000803192224604 -3.74358623106e-05)
(0.00106177472299 0.000756524262204 -4.83080933465e-05)
(0.000956760857736 0.000763196198534 -5.20730800512e-05)
(0.00116485218169 0.000833886510058 -4.08510620121e-06)
(0.00115162619426 0.000779248504427 -1.21785648932e-05)
(0.00106978415873 0.000792174630441 1.06303232727e-05)
(0.00116622115106 0.0008649748671 3.22564143788e-05)
(0.00118601380411 0.000804148189891 2.16508777425e-05)
(0.00113485193104 0.000825023586284 8.14302547641e-05)
(0.00110514973318 0.000889891382816 6.73544577698e-05)
(0.00115247154273 0.000827029483891 6.33950315599e-05)
(0.00113704280371 0.00085564488695 0.000157102160554)
(0.000992285486377 0.00090351839341 9.33779755277e-05)
(0.00105759438034 0.000842424738488 9.6568152622e-05)
(0.00107669833995 0.000877407599479 0.000218062579995)
(0.000845955809102 0.000904129114665 0.000108020768246)
(0.000919848417269 0.000847703978852 0.000116733300988)
(0.000968901975705 0.000885998437807 0.000255367528576)
(0.000685638407335 0.000892771224391 0.00011474229975)
(0.000759470184848 0.000842854246628 0.000124093676078)
(0.000833513854778 0.000880574993142 0.000267840625315)
(0.00052468442669 0.000873076227221 0.000110186835863)
(0.000595211450486 0.000830134353112 0.000126434995354)
(0.000688594868392 0.000864171470934 0.000263369847646)
(0.000378782065063 0.000849429253236 9.74364248313e-05)
(0.000437340680954 0.000812683368244 0.000112328528126)
(0.000544839493648 0.000840951047021 0.000239413090023)
(0.000254589647934 0.000825638645213 8.29631191912e-05)
(0.000301527863217 0.000792897248127 9.86092582161e-05)
(0.000413520708022 0.000815818365461 0.000209368408361)