/*--------------------------------*- C++ -*----------------------------------*\
| =========                 |                                                 |
| \\      /  F ield         | OpenFOAM: The Open Source CFD Toolbox           |
|  \\    /   O peration     | Version:  3.0.1                                 |
|   \\  /    A nd           | Web:      www.OpenFOAM.org                      |
|    \\/     M anipulation  |                                                 |
\*---------------------------------------------------------------------------*/
FoamFile
{
    version     2.0;
    format      ascii;
    class       volScalarField;
    location    "9.8";
    object      epsilon_0;
}
// * * * * * * * * * * * * * * * * * * * * * * * * * * * * * * * * * * * * * //

dimensions      [0 2 -3 0 0 0 0];

internalField   nonuniform List<scalar> 
7968
(
3.42419991241e-05
4.50240254534e-05
5.48734924809e-05
6.15859223994e-05
6.55056550882e-05
6.76045209421e-05
6.83639331298e-05
6.83353453498e-05
6.80470011012e-05
6.7560778267e-05
6.71153707606e-05
6.68813029757e-05
6.66914612265e-05
6.62750573682e-05
6.52297525858e-05
6.30443204452e-05
5.91908818719e-05
5.30939690889e-05
4.41791489181e-05
3.40905503789e-05
4.49295775964e-05
9.63672068843e-05
0.000140390559041
0.000172218885089
0.000193513136846
0.000205746262599
0.00021128300033
0.000212178842204
0.000210456862548
0.000207736691948
0.000205021372867
0.000202568442106
0.000199808936182
0.00019554345635
0.000188181661137
0.000176058472152
0.000157226739627
0.000129667661372
9.08965143727e-05
4.44028613879e-05
5.45961425399e-05
0.000140518841453
0.000214606843086
0.000269058279478
0.000306233794209
0.000328682313515
0.000339569458666
0.000342162633953
0.000339728788804
0.000334934339282
0.000329459170633
0.000323766235688
0.000317160942867
0.000307965121452
0.000293735046666
0.000271799917338
0.000239254002084
0.000193079159922
0.000129341506081
5.35794470682e-05
6.13336706109e-05
0.000172655967264
0.000269549332607
0.000341412459105
0.000390865984991
0.00042087758062
0.000435361903822
0.00043860114796
0.000434925184111
0.000428277950512
0.000419782729221
0.000410552533805
0.00040061669694
0.000387629048458
0.000368410825887
0.000339469490795
0.000297072553055
0.000237472011987
0.000155941140688
5.97054432795e-05
6.55981386067e-05
0.000194496781728
0.000307940857591
0.000392371346662
0.000450195528663
0.000484822583838
0.000502361932244
0.000507605687664
0.00050325299329
0.000493802713867
0.000482379797809
0.000470159066861
0.000456502873352
0.000438965019806
0.000415310364047
0.000382269527153
0.00033392364841
0.00026572774601
0.000172735403903
6.31655038596e-05
6.7934683928e-05
0.000207838295191
0.000332346893086
0.00042496426814
0.00048772506576
0.000526797679252
0.000546726103205
0.00054983003612
0.000542079877252
0.000529212716221
0.000515152327343
0.00050128848571
0.000486788545283
0.000468579167505
0.000442479595177
0.000404704063522
0.000353482914729
0.000280845136126
0.000181639090185
6.47143804674e-05
6.89240101156e-05
0.000214794800569
0.000345794034162
0.000442942789976
0.000508343986422
0.000550795000287
0.000568823292132
0.000568189471634
0.000556392908807
0.000540165126025
0.000523988232927
0.000509380887062
0.000495328043575
0.000478233825275
0.000453091035691
0.000414867807114
0.000360463395452
0.000286362273939
0.000184713475872
6.53376416113e-05
6.90176355309e-05
0.000217287299357
0.000351381973061
0.000450369574544
0.000518526884717
0.000559785987319
0.000574585296857
0.000569915380602
0.00055432023227
0.000535286809565
0.000517661540001
0.000502985339851
0.00049003637538
0.000474812668705
0.000451795950575
0.000415275795276
0.000360462493631
0.000285871756553
0.000184280919004
6.55160439444e-05
6.87370381308e-05
0.0002172581257
0.000352199093516
0.000451285389446
0.000520112309956
0.000559322397571
0.000571013751141
0.000562998125379
0.000544546165435
0.000523603572805
0.000505194542324
0.000490825726671
0.00047906885303
0.00046566332267
0.000444800389261
0.000410449975347
0.000357311845333
0.00028263541281
0.000182265216833
6.5289439613e-05
6.84130343171e-05
0.000216260178158
0.000350725849548
0.000448940989851
0.000517062023966
0.000554420195986
0.000563955746627
0.000553920206741
0.000533933442697
0.000512083922264
0.000493426717497
0.000479440322658
0.000468581828132
0.000456423264985
0.000437076934457
0.000404425129494
0.000352968745907
0.000278999641578
0.000180121519838
6.49061788617e-05
6.82610504675e-05
0.000215201611137
0.00034836561552
0.00044520603016
0.000511829112024
0.000548053431953
0.000556787124895
0.000546316865697
0.000526230945562
0.00050450655542
0.000486062412134
0.000472330522942
0.000461799658979
0.000450070664541
0.000431328119208
0.000399535434747
0.000349193786718
0.000276295780157
0.00017865450878
6.45780495373e-05
6.84297555866e-05
0.000214194634033
0.000345357271896
0.000440474788559
0.000504993014696
0.000540884125269
0.00055018578912
0.000540815631261
0.000521970274204
0.000501311867554
0.000483523982699
0.000469937434302
0.000459092713582
0.000446925757309
0.000427860250957
0.000396071339169
0.000346232638447
0.00027459360559
0.000178041427419
6.44855807354e-05
6.86008182348e-05
0.000212461615619
0.000340667729983
0.000433493062321
0.000495031175959
0.000531010508387
0.000541886457212
0.000534825728948
0.000518302244086
0.000499461240455
0.000482704717275
0.000469290012139
0.000457853416733
0.000444732230298
0.000424758312377
0.000392464190704
0.000342861111132
0.000272964999159
0.000177632758202
6.44711599953e-05
6.8383915177e-05
0.000208640914742
0.000332254927848
0.000421686318403
0.000479309542548
0.00051466692876
0.000527461779707
0.000523408490467
0.000509973454868
0.000493575889201
0.000478253250787
0.000465232335435
0.000453265142003
0.000439144945441
0.000418216748279
0.00038553507715
0.000336704863593
0.000269433151334
0.000176080669931
6.40869440649e-05
6.73044900039e-05
0.000201014152668
0.000317470160277
0.000401684672748
0.000456274568609
0.00048748545864
0.0005013992799
0.000500344387544
0.000490314967052
0.000476818179247
0.000463413028711
0.000451254003555
0.00043923458089
0.000424624736905
0.000403392320989
0.000371348731469
0.000325627736059
0.000261497109694
0.000171738341413
6.3023151505e-05
6.49475601299e-05
0.000187820900066
0.000293512375347
0.000369832218082
0.000419742407542
0.000447166336002
0.000458703138301
0.000459642046809
0.000452758770803
0.000442358188923
0.000431337511697
0.000420692757522
0.000409502020442
0.000395525794796
0.000375483360637
0.000346913400386
0.000305698107494
0.000246176091235
0.00016263086749
6.12654848011e-05
6.07690149308e-05
0.000167030680373
0.000257410911687
0.000322427872803
0.000365160686231
0.000389024719306
0.000398365562072
0.000397856555219
0.000392385798327
0.000384862765142
0.000376553803837
0.00036816222799
0.000359033701481
0.000348130798939
0.000332371017428
0.000308337950683
0.000272325460279
0.00022029082104
0.000146942614355
5.79550324505e-05
5.42106538935e-05
0.00013668291957
0.000206245518401
0.000255900856615
0.000288357331373
0.000306489419282
0.00031373748387
0.000313619776048
0.000309422807203
0.000303743662807
0.000298097341685
0.000292821336339
0.000287166775799
0.000279530037755
0.000267763492042
0.000249304681696
0.000221289561916
0.000180513644512
0.000122620098154
5.22273510359e-05
4.47617405399e-05
9.46259765535e-05
0.000136474887926
0.000165979875136
0.000185009111627
0.0001952724843
0.000199117886829
0.000198809061932
0.000196328963144
0.000193241796615
0.000190415487787
0.000187994990827
0.000185459011339
0.000181715225218
0.000175352165555
0.000164731273184
0.000147925997976
0.000122958202933
8.71611225752e-05
4.36230978105e-05
3.42112193774e-05
4.48988954375e-05
5.45655477504e-05
6.10951217217e-05
6.48228988536e-05
6.66885891548e-05
6.73240252598e-05
6.72821736197e-05
6.69936244456e-05
6.65245176034e-05
6.60608817994e-05
6.56861787422e-05
6.53112112157e-05
6.46886856062e-05
6.35229612362e-05
6.13348764848e-05
5.76980957824e-05
5.19158910318e-05
4.33905465066e-05
3.38604833738e-05
4.42339054574e-05
8.98683600274e-05
0.00013150984853
0.000163243500317
0.000185504543053
0.000199554245556
0.000206995444493
0.000209486814804
0.000208711886205
0.000206428529849
0.000203621457131
0.000200589665016
0.000196867541255
0.000191265663992
0.000182389343113
0.000168903175453
0.00014927497777
0.000121912856858
8.54045816114e-05
4.35272483567e-05
8.99363470817e-05
0.000120482278845
0.000159056423075
0.000190773017183
0.000214019711916
0.00022921530535
0.000237632926501
0.000240881117971
0.000240647771082
0.00023840814775
0.00023512891284
0.000231113542098
0.000225973233707
0.000218821792307
0.000208411428139
0.000193420674812
0.000172614346935
0.000145179714609
0.000111809330766
8.52618798187e-05
0.000131624267898
0.000159335417045
0.000205177351868
0.000244395737171
0.0002738182404
0.000293364494699
0.000304273834622
0.000308423915814
0.000307902780732
0.000304541343404
0.000299605868494
0.000293569487178
0.000286058053638
0.000276087373599
0.000262181036388
0.000242786580251
0.000216620780658
0.000183202420798
0.000144434861694
0.000121578933073
0.000163616637399
0.000191550093573
0.000244980036018
0.000291406153276
0.00032647324576
0.000349750150693
0.000362555654602
0.000367061382566
0.000365840544956
0.000361035985525
0.000354176652345
0.000345989236794
0.0003362031199
0.000323790793583
0.000306969831779
0.000283913704491
0.00025316953746
0.000214366691018
0.000170168897168
0.000148026001784
0.000186458427961
0.000215563118304
0.000275370129767
0.000327568442936
0.00036688582774
0.000392747883891
0.000406828602877
0.000411230371624
0.00040858809063
0.000401778820614
0.000392933813789
0.000382984392111
0.000371544953155
0.000357247153369
0.000338235765679
0.000312724518472
0.000278913154181
0.000236305059161
0.000188001869922
0.00016559473072
0.0002014099537
0.000231832751217
0.000296317239366
0.000352535303873
0.000394587389182
0.00042219113531
0.000436270344995
0.00043897771627
0.000433903318017
0.000424684816906
0.00041396358501
0.000402852615276
0.000390848580598
0.000376222454774
0.00035656042016
0.000329633940447
0.00029416633084
0.000249471722415
0.000198719657291
0.000175842440541
0.000210044981554
0.000241610735135
0.000309060923481
0.000367632690514
0.000411158774208
0.000439140804058
0.000451641471003
0.000451664189909
0.00044367085193
0.000431993519788
0.000419688912061
0.000407986261138
0.000396249769426
0.00038241092737
0.000363560319055
0.000336962432677
0.000300976543334
0.000255571170048
0.00020383347639
0.000180521683924
0.000214052721373
0.000246473719781
0.000315436178131
0.000374991270958
0.000419074185072
0.000445997840215
0.000456163052952
0.000453252733615
0.00044245528508
0.000428661184631
0.000415213577157
0.000403373401524
0.000392366176919
0.000379851905534
0.000362540915363
0.000337290464633
0.000302047599091
0.000256844759204
0.000205137885023
0.000181292530472
0.000215093406627
0.00024805522284
0.000317450928694
0.000377006356652
0.000420742258546
0.000446155563657
0.000454057614585
0.000448663968884
0.000435699844061
0.000420424454163
0.000406325347065
0.000394625818199
0.00038442734597
0.000373215035538
0.000357478266832
0.000333818714504
0.000299905804865
0.000255538210253
0.000204383707354
0.000180206852196
0.000214575229266
0.000247721977993
0.00031681836348
0.000375792244789
0.000418716247233
0.000442797613412
0.000449098559324
0.000442146812272
0.00042795671365
0.000411951241636
0.000397639381133
0.000386182134952
0.00037659863349
0.00036629429438
0.000351692874125
0.000329296162809
0.00029662713763
0.000253289315105
0.000202912789769
0.000178629051241
0.000213503144637
0.000246298740259
0.000314571309475
0.000372638154423
0.000414635904505
0.000437919323474
0.000443585501945
0.000436209651771
0.000421824446748
0.000405822277147
0.000391648235171
0.000380408027345
0.000371105532961
0.000361159746953
0.00034705645852
0.000325332833566
0.000293494685344
0.000251045128303
0.000201464877778
0.000177325222693
0.000211948966007
0.000243922619766
0.000310926657339
0.000367855664705
0.000408891055741
0.000431962448928
0.000437981049817
0.000431297505763
0.000417694315931
0.000402357098449
0.00038860881315
0.000377520556132
0.000368147756824
0.000358018009799
0.000343792378678
0.00032215314975
0.000290701924316
0.000248934159125
0.000200117859496
0.000176385160338
0.000209124797802
0.000240002014648
0.000305224484558
0.00036067962744
0.00040053935726
0.000423742646281
0.000430860701722
0.00042578055751
0.000413791307448
0.000399709379041
0.000386676214306
0.000375752990246
0.000366100365566
0.00035542177614
0.000340651429513
0.00031871747233
0.000287410397166
0.000246283481135
0.00019832507968
0.000175326089835
0.000203852135385
0.00023342542764
0.000296129391032
0.00034950955139
0.00038775154301
0.000410917999912
0.000419413773718
0.000416470722922
0.00040669105749
0.000394369876099
0.00038238939059
0.000371790799543
0.000361874194169
0.000350582652957
0.000335205587943
0.000312999772384
0.000282006260071
0.000241807591692
0.000195023384394
0.000172914487138
0.000194673273824
0.000222800853806
0.000281982702072
0.000332425111342
0.000368717183237
0.000390863062551
0.000400355552626
0.000399562743745
0.000392238673421
0.000382032765765
0.000371473296442
0.000361534343198
0.000351658412451
0.00034008171886
0.000324485495102
0.000302528058091
0.000272541025396
0.000233881890911
0.000188818518816
0.00016763340209
0.000180048840754
0.000206713212245
0.000261172462836
0.000307563062792
0.000341123506282
0.00036160770828
0.00037103136899
0.000371827378646
0.000366781733276
0.000358809182824
0.000349990654609
0.000341166163263
0.000331900027533
0.000320745025627
0.000305761838901
0.00028505877212
0.000257000218214
0.000220677733829
0.000178184984199
0.000157739654406
0.000158409742519
0.000183921881843
0.00023247096982
0.000273613797536
0.000303464516648
0.00032189870462
0.000330525352519
0.000331810456691
0.000328435653889
0.000322537976467
0.00031564438893
0.000308395665447
0.000300441302908
0.000290665589619
0.000277407642455
0.000258938679766
0.000233616527843
0.000200609500354
0.000161696141742
0.000141548757616
0.000128267404379
0.00015375079189
0.000195616486688
0.000230545247207
0.000255752147368
0.000271411736112
0.000278983885426
0.000280538988862
0.000278260784994
0.000274010964675
0.000269009469556
0.000263670262817
0.000257620171526
0.000249838401345
0.000238905279427
0.000223292826865
0.000201553384868
0.000172817343874
0.000138289625456
0.000117341793879
8.85631106502e-05
0.000117277004965
0.000153032142927
0.000181702248001
0.000201968126551
0.000214447728716
0.000220567532703
0.00022206508773
0.000220687410731
0.000217901548527
0.00021461596363
0.000211088038598
0.000206946934797
0.000201299522854
0.000192949411321
0.000180581799
0.000162849838822
0.000138683264734
0.000108298167519
8.34052459723e-05
4.40663138087e-05
8.83744226981e-05
0.000127883326465
0.000157216268958
0.00017708350317
0.000188949265184
0.000194582797746
0.00019573829499
0.000194162546541
0.00019155403681
0.000188774594615
0.000186019898192
0.000182865099512
0.000178319880097
0.000170998966023
0.000159509828408
0.000142309129843
0.00011760296223
8.35241457993e-05
4.28652856875e-05
5.49784976388e-05
0.000136869975834
0.000213779602934
0.000274211325988
0.000317989917362
0.000346543797149
0.000362247295939
0.000368104964254
0.0003672874915
0.000362569949194
0.00035581898711
0.000347699507776
0.000337602873433
0.000323973975872
0.000304582592345
0.000277003073563
0.000238919263879
0.000188272321498
0.000123673155777
5.27087553543e-05
0.000137105226949
0.000169846856138
0.000221742339547
0.00026674461297
0.000301083143042
0.000324382921396
0.00033779064292
0.000343276257868
0.000343099208234
0.000339317895704
0.000333358959653
0.000325771752641
0.000316180748242
0.0003034605275
0.00028611603699
0.000262563741439
0.000231646657446
0.000193199132861
0.000149723450105
0.000123332002923
0.000214210338768
0.000222324276977
0.000274128792675
0.000322535479968
0.000360784627664
0.00038725183214
0.000402562207628
0.000408625443026
0.000407867735868
0.000402674732221
0.000394783816751
0.000384948109481
0.000372850449656
0.000357295337977
0.000336733879986
0.000309611121137
0.000275089486443
0.000233988821822
0.000191336522105
0.000187043362095
0.000275223661248
0.000268204411673
0.000323503222819
0.000377143898192
0.000419989461313
0.000449489726677
0.000465998477756
0.000471691947777
0.000469253771107
0.000461670123246
0.000451194092394
0.000438882296513
0.000424435054487
0.000406399988039
0.000383213115769
0.000352981463304
0.000314888049734
0.000270248977914
0.000225793719035
0.00023469122316
0.000320176030448
0.000303794010813
0.000363209366276
0.000421610156669
0.000468004536891
0.000499215194998
0.000515533088543
0.000518891688881
0.000513035944514
0.000501928273561
0.000488486247786
0.000474089403577
0.000458361289623
0.000439560368145
0.000415344586868
0.000383472632926
0.000343325655963
0.000296267765398
0.00025004511507
0.000266738732908
0.000350550682659
0.00032878437032
0.00039173947875
0.000453576335742
0.000501921598769
0.000533301597986
0.000547083705555
0.000545954387622
0.000535069530755
0.000519577111143
0.000503070387904
0.000487199025244
0.000471414663623
0.000453514191655
0.000430520002002
0.000399488692379
0.000359078960697
0.000311264360483
0.000264266080823
0.000285191726872
0.000368708965321
0.000344350037456
0.000409784574339
0.000473517112478
0.000522368006318
0.000551881651706
0.000561188544355
0.000554060417674
0.000537320588157
0.000517260839209
0.000498029425587
0.000481402382831
0.000466600455748
0.000450919188985
0.000430762637959
0.000402468678394
0.000363971540288
0.000316882214461
0.000270239722514
0.000293066515573
0.000377595553163
0.000352441365184
0.000419226084435
0.000483466052545
0.000531468730741
0.000557857203085
0.000561879816685
0.000548634654449
0.000526411684351
0.000502423944955
0.000481169826751
0.000464381743351
0.000451044231918
0.000438064291518
0.00042128474407
0.000396517286284
0.000361009953107
0.000316063906379
0.000270553731406
0.000293892006237
0.000380265531899
0.000355249790096
0.000422438697345
0.000486265429174
0.000532652398901
0.000555726953699
0.00055510056693
0.000536915284831
0.000510554513348
0.00048382526947
0.000461359133033
0.000444723300982
0.000432702433199
0.000422006520697
0.00040815238899
0.000386589111462
0.000354138127214
0.000311721039857
0.000267842282083
0.00029105849178
0.000379291182959
0.00035467486991
0.000421559053754
0.000484520034094
0.000529270209889
0.000549851102143
0.000546144773167
0.000524924198284
0.00049618624147
0.000468016660711
0.000445035998805
0.000428633871438
0.00041745447285
0.00040814981297
0.000396154183049
0.00037678333966
0.000346657413826
0.000306419807221
0.000264262984032
0.000287158207409
0.000376215266597
0.000351885061738
0.000417922817623
0.000479826471424
0.000523462006142
0.000542904639581
0.000538115923771
0.000516014197377
0.000486701682784
0.000458273782698
0.00043528760381
0.000419038538327
0.00040812292205
0.000399219042949
0.000387846810809
0.000369397978
0.000340511962863
0.000301719656078
0.000260946636243
0.000283635845731
0.000371336534827
0.000347117947995
0.00041183008959
0.000472613865089
0.000515683273963
0.000535398097779
0.000531557574668
0.000510712017006
0.000482552263566
0.000454931943909
0.000432335363299
0.000416090927762
0.000404864879819
0.000395434802606
0.000383529141626
0.000364783857784
0.000336049312414
0.00029790652439
0.000258048816612
0.000280821298874
0.000363622045713
0.000339638431192
0.000402487541584
0.000461947023006
0.000504633747188
0.000525643935849
0.0005244791632
0.000506833986448
0.000481473234
0.000455733298954
0.000433979602167
0.000417670468652
0.000405662150705
0.000394939572568
0.00038156622912
0.000361564843383
0.00033215672756
0.000294092724679
0.000254827145308
0.000277734830432
0.000351079789766
0.000327999527813
0.00038828896943
0.000445839007126
0.000487829124231
0.000510365611562
0.000512891750857
0.000499860434589
0.00047868419688
0.00045589188441
0.000435607153893
0.000419412654585
0.000406433484709
0.000394026418236
0.000378709872631
0.000356988325403
0.000326622092112
0.000288509819128
0.000249876088721
0.000272411108801
0.000331208057707
0.000310443882496
0.000367376741747
0.000422102065511
0.000462718187839
0.000486096981939
0.000492159386526
0.00048416090913
0.000467897374518
0.000448867128977
0.000430776483729
0.000415216509909
0.000401601432012
0.000387756702411
0.000370717683048
0.000347573379441
0.000316683034709
0.000278902567314
0.000241251094494
0.000262225503652
0.000301447290602
0.000285336799187
0.000338240363716
0.000389132074252
0.000427526881498
0.000450507136697
0.000458936687888
0.000455236673451
0.000443709990614
0.00042873585521
0.000413444223328
0.00039926879481
0.000385851034269
0.000371471699917
0.000353702052596
0.000330233486954
0.000299798808868
0.000263341950192
0.000226984089056
0.000244357583558
0.000259471238954
0.00025158151262
0.000300300829836
0.000346567004583
0.000381738086615
0.000403510885019
0.000412629190976
0.000411784287411
0.000404099077062
0.000392926904102
0.00038073254386
0.000368663616998
0.000356481412366
0.000342835222055
0.000325763934169
0.000303373903447
0.000274752924093
0.000240414990657
0.000205464521577
0.000216014732317
0.000203331806268
0.000209211291109
0.000254802329891
0.000296448988198
0.000327832312511
0.000347561135831
0.00035655807371
0.000357110727764
0.000352022595503
0.000343994072862
0.000334843000476
0.000325325705429
0.000315213101969
0.000303442414624
0.000288375557287
0.000268350075784
0.000242274122522
0.000210255589315
0.000175986404341
0.000174547078723
0.000131937312052
0.00016117669618
0.000207532657377
0.000246652463229
0.000275151930372
0.000292897271739
0.000301289437776
0.000302571863819
0.000299242515395
0.000293505610346
0.000286824783036
0.000279761279446
0.000271991237122
0.000262457711393
0.000249637982606
0.000231908094404
0.000207886699306
0.000176839853892
0.000140263705878
0.000117710362059
5.42457058414e-05
0.000131465773625
0.00020208983568
0.000255830551811
0.00029301039054
0.000315455066111
0.000325904653186
0.000327656224864
0.00032404229365
0.000317839593143
0.000310802843008
0.000303523930165
0.000295471662783
0.000285139472816
0.000270403218805
0.00024888675273
0.000218062608267
0.000175302632154
0.000118034164601
5.13201077898e-05
6.79010565292e-05
0.000195567709231
0.000316399215005
0.000413076894555
0.000484698996968
0.000532424066535
0.00055921255257
0.000569492178024
0.000568241632633
0.000559878751622
0.000547418446739
0.000532046230708
0.000513060889255
0.00048810604652
0.000453916768401
0.000407067081163
0.000344667661573
0.000264685337053
0.000166321788835
6.18746378984e-05
0.000196133234827
0.000237904090736
0.000312382584267
0.000379214087923
0.000431870000885
0.000468761177964
0.000490786623486
0.000500405266428
0.000500791043854
0.000494952877904
0.000485034678473
0.000471945562306
0.000455272949399
0.000433509594383
0.000404585790465
0.000366518696707
0.000318312373439
0.00026077059414
0.000198693723283
0.000165592534772
0.000317405178139
0.000313358802486
0.000384205201425
0.000453993132488
0.000511303351542
0.000552369738255
0.000577018890272
0.000587376404434
0.000586827529404
0.000578900467452
0.000566235043303
0.000550068726914
0.000530054539035
0.000504561389882
0.00047141066194
0.000428753931142
0.000376080978157
0.000315824177194
0.000256773819189
0.000261472426802
0.000415229279723
0.00038160397816
0.000455524406026
0.000532021316233
0.000595564655
0.00064072681261
0.000666560772847
0.000675140136387
0.000670683106545
0.000658121636088
0.000641019041979
0.000621171077443
0.000598138845525
0.000569896106685
0.000533799059011
0.000487634576056
0.000430648367384
0.000366181375253
0.000305833040875
0.000333997470503
0.000489061548429
0.000436256581216
0.000515141193529
0.000598144189218
0.000666671964539
0.000713873863541
0.00073704795747
0.000738862013176
0.000726266743742
0.000706185430703
0.00068337829773
0.000660251971496
0.000636126255774
0.000608190165128
0.00057292989484
0.000526812530466
0.00046846225379
0.000401707906624
0.000340001586422
0.000382245221363
0.000540140360462
0.00047589202101
0.000559571410702
0.000647428615724
0.000718773668484
0.000763723832179
0.000778593799892
0.000768629743209
0.000744126003799
0.000714400020772
0.00068552190705
0.000660300571905
0.00063767058597
0.000613592650967
0.000583037201668
0.000541469365537
0.000486236842197
0.000420093988581
0.000358552360873
0.000408258970571
0.000571418823604
0.000501499216183
0.00058882003834
0.000679446133927
0.000750545520503
0.000788512385755
0.00079077300673
0.00076567584878
0.000727431378093
0.000687754618552
0.000653676225827
0.000627956942542
0.000608996375891
0.000591421998846
0.000568508657857
0.000534345403176
0.000485627793935
0.000423494025103
0.000363858689875
0.00041658119226
0.00058719865366
0.000515515348567
0.000605039731158
0.000696293428223
0.000764217493317
0.000793068365639
0.000781500240739
0.000741255796684
0.000690425807191
0.000642510633834
0.000604825447819
0.000579656065342
0.000564851361036
0.000554113667534
0.000539422493927
0.00051364143931
0.000472605414792
0.000416479187837
0.000360091874231
0.000413289277623
0.000592206553949
0.000520968280547
0.000611444281012
0.000701824085557
0.000765535406547
0.000786008057654
0.000762875066814
0.000710821151457
0.000650890465407
0.0005975206087
0.000557767546217
0.000533228113807
0.000521320938922
0.000515565221703
0.000507322957321
0.00048866729637
0.000454535187716
0.000404309865077
0.000351877573457
0.00040443677094
0.000590479272234
0.000520583329353
0.000611078560529
0.000700061586593
0.000760371485456
0.00077516003628
0.000744780196806
0.000685756621625
0.000620744078013
0.000564515855322
0.000523788355686
0.000499595612377
0.00048905977853
0.000485810626568
0.000481160557285
0.000466911283536
0.000437497763737
0.000391789443557
0.000342974436173
0.000394721413159
0.000584480439232
0.000516061439646
0.000605878929881
0.00069358900041
0.000752238058146
0.000764952360124
0.000732357557803
0.000671409691186
0.000605027235263
0.000547995250922
0.000506919110878
0.000482643745757
0.000472179192125
0.000469243222644
0.000465341021436
0.000452435828297
0.00042498282234
0.000381744953645
0.00033541184057
0.000386653926397
0.000574693516975
0.000507693543855
0.000596158050093
0.000682872235984
0.000741639025015
0.000755979989897
0.000726244291816
0.000668349040945
0.000604132717211
0.000548109002889
0.000507085290222
0.000482190304925
0.000470580780192
0.000466000571041
0.000460271203262
0.000445847568202
0.000417672808064
0.000374796007143
0.000329670048309
0.000380707565647
0.000559598754805
0.000494378275578
0.00058062712888
0.000666131429962
0.000726029926398
0.000745091447567
0.000722880031911
0.000672924280581
0.000614603416403
0.000561683297962
0.000521307625412
0.000495272401244
0.000481189407375
0.00047300498008
0.000463135846811
0.000444814294399
0.000413754412338
0.000369535202596
0.000324603227378
0.000375388953711
0.000536184237698
0.000474040731433
0.000556876745289
0.000639992467049
0.000700676783102
0.000726103604159
0.000714604396341
0.000676487884179
0.000627619392746
0.000580331308141
0.00054180930576
0.000514596714684
0.000496938467668
0.000483594722416
0.000468026745322
0.00044447234192
0.000409346862103
0.000362954916487
0.000317782336675
0.000367593214434
0.000500770791878
0.000444343256303
0.000522409079685
0.000601541501333
0.0006611280035
0.000692046601098
0.000691530762679
0.000666574063336
0.000629231216776
0.000589797433545
0.000554899929345
0.000527499849816
0.000506574892151
0.000488081046907
0.000466882665702
0.000438305824936
0.000399287438386
0.000351263158487
0.000306303669048
0.000353158886131
0.00044987949602
0.000403437367316
0.000475664152424
0.000549262608384
0.000605901530695
0.000638801031024
0.000646526828404
0.000633087938226
0.000607017699445
0.000576378045432
0.000546751721367
0.000520998274167
0.00049866192626
0.000476911416869
0.000451966232507
0.000420041458143
0.000378990460356
0.000331023327119
0.000287155589351
0.000327620143693
0.000380872639986
0.000350656575964
0.000416943763132
0.000483718280112
0.000535782947421
0.000567777036088
0.000579350225158
0.000573901702385
0.000556893522904
0.000534365974233
0.000510716087151
0.000488316363298
0.000467041623982
0.00044491937595
0.000419126123221
0.000386752622124
0.000346562718925
0.000300860027784
0.000258302565767
0.000287035757549
0.000292052243759
0.000287288491546
0.000349642852764
0.000409656933899
0.000456190426907
0.000485536429401
0.000497942001482
0.000496381722833
0.00048527566111
0.000469234951433
0.000451302740333
0.000433261565612
0.000415060570578
0.000395146565164
0.000371340176077
0.000341604084938
0.00030477091116
0.000261959931493
0.000219507307151
0.00022828304121
0.000182619269813
0.000218815147819
0.000283982054693
0.000340938624139
0.000383409955334
0.00040992073626
0.000421709480779
0.000421824486913
0.000414142464505
0.000402300380995
0.000388857808381
0.000375045125892
0.000360657276763
0.000344307425732
0.000323954367868
0.000297485204936
0.000263331807985
0.000221228596815
0.000174090901769
0.000149187513238
6.55291389214e-05
0.000181591395808
0.000288999824892
0.000372111252488
0.000430318259879
0.000465180642579
0.000480236857761
0.00048056914249
0.000471717585757
0.000458427287058
0.000443826642485
0.000429153984154
0.00041379632883
0.000395615863068
0.000371517505807
0.000337997858561
0.000291852189369
0.000230072888087
0.000149875288074
5.86499506223e-05
8.69760600244e-05
0.000281251226233
0.000466040028724
0.00061692109591
0.000731745495952
0.000810534664826
0.000856542302336
0.000875977242436
0.000876270387599
0.000864089431687
0.000844057348007
0.000818061354091
0.000785143063308
0.000741858331008
0.000683381759503
0.000605058613396
0.0005037097606
0.000377757901758
0.000228279591268
7.37141785173e-05
0.000282370234032
0.000338940899972
0.000450975671113
0.00055549078497
0.000641168489443
0.000703967726956
0.000743923717317
0.000763906517166
0.000768332779986
0.000761551144584