/*--------------------------------*- C++ -*----------------------------------*\
| =========                 |                                                 |
| \\      /  F ield         | OpenFOAM: The Open Source CFD Toolbox           |
|  \\    /   O peration     | Version:  3.0.1                                 |
|   \\  /    A nd           | Web:      www.OpenFOAM.org                      |
|    \\/     M anipulation  |                                                 |
\*---------------------------------------------------------------------------*/
FoamFile
{
    version     2.0;
    format      ascii;
    class       volScalarField;
    location    "9.8";
    object      k_0;
}
// * * * * * * * * * * * * * * * * * * * * * * * * * * * * * * * * * * * * * //

dimensions      [0 2 -2 0 0 0 0];

internalField   nonuniform List<scalar> 
7968
(
0.000165449656423
0.000198608971855
0.00022663698666
0.000244778439106
0.000255065500933
0.000260490613682
0.00026243976076
0.000262364167975
0.000261623391499
0.000260371834974
0.000259220843452
0.000258610833527
0.000258116050945
0.000257036165167
0.000254321609301
0.000248603174897
0.000238359300525
0.000221686066316
0.000196103020098
0.000164959292108
0.000198329652935
0.000329961877251
0.000424088245464
0.000486014179342
0.000525319516754
0.000547248074765
0.000557030994465
0.00055860503223
0.000555571853145
0.000550761430805
0.000545934296153
0.000541551327933
0.000536601782355
0.000528918597453
0.000515539819303
0.000493133377879
0.000457288481878
0.000402131443385
0.000317300029819
0.000196768222583
0.000225869347698
0.000424345685747
0.00056282423475
0.000654441712759
0.00071345040633
0.000747929465624
0.000764369378797
0.000768257562817
0.00076460050006
0.00075737123938
0.000749070079899
0.000740388449609
0.000730255018625
0.000716042446381
0.000693783494428
0.000658769621431
0.000605040499302
0.000524414719901
0.000401454588573
0.000223041327257
0.000244105748942
0.000486834448464
0.000655237119375
0.000767107603918
0.000839545538761
0.00088201809903
0.000902153841713
0.000906620914718
0.00090153154409
0.000892292045153
0.000880422369003
0.000867437546072
0.000853350809247
0.000834773520242
0.000806916409136
0.000764049302738
0.000698993622612
0.000602021720295
0.000454783134829
0.000239744479646
0.00025530424552
0.000527096025483
0.000716100088635
0.000841702042467
0.000922535675443
0.000969283273901
0.000992522868819
0.000999405938763
0.000993657872451
0.000981143048322
0.000965913824915
0.000949493043584
0.000930982060076
0.000906951740522
0.00087403208066
0.000827001977064
0.000755677359471
0.000648886908153
0.000486884510754
0.000248923636117
0.0002613379892
0.000550951873567
0.000753483626019
0.000887727415295
0.000973156027207
0.00102447443889
0.0010501484774
0.00105409528331
0.00104412612917
0.00102748834256
0.00100915790843
0.000990926405016
0.000971687821944
0.000947273802491
0.000911737582607
0.000859038082739
0.000784897069587
0.000673264790224
0.000503474072269
0.000252974483255
0.000263872853078
0.000563191199716
0.0007736948602
0.000912616689313
0.0010004063036
0.00105536687812
0.00107825807023
0.00107741797221
0.00106239692928
0.00104157433862
0.00102061302725
0.00100150604359
0.00098296291006
0.000960190695977
0.000926215170361
0.000873340320926
0.000795173143802
0.000682035802179
0.000509128575228
0.0002545949804
0.000264112926465
0.000567546370917
0.000782019670423
0.000922802744506
0.00101372757067
0.00106681896285
0.00108551329901
0.00107956945855
0.0010597120594
0.00103523533842
0.00101231288979
0.000993032541797
0.000975877529025
0.00095553945694
0.000924391905108
0.000873867185561
0.000795148464263
0.000681230706564
0.000508317248144
0.000255056316485
0.000263395074725
0.000567496365091
0.000783234416477
0.000924055106446
0.0010157884557
0.00106621782139
0.00108098716211
0.00107077965078
0.0010471678435
0.0010200544834
0.000995923262119
0.00097688844736
0.00096118811121
0.000943155903956
0.000914764375846
0.000867033453741
0.000790469663079
0.00067605086305
0.000504585734118
0.00025446482383
0.000262564095424
0.000565753148482
0.000781043616565
0.000920844422708
0.00101180080365
0.00105996081367
0.00107203503103
0.00105920253269
0.00103347254396
0.0010049844821
0.000980337760971
0.000961660455746
0.00094704759553
0.000930579718286
0.000904092037568
0.00085848308193
0.000784014991083
0.000670213885132
0.000500604157332
0.000253464655097
0.000262173850401
0.000563897276526
0.000777523812696
0.000915715686984
0.00100494531678
0.0010518100938
0.00106290705286
0.00104945932917
0.00102347696549
0.000995010286293
0.000970521174174
0.000952090295723
0.000937847712663
0.000921886870244
0.000896111395644
0.000851517360242
0.000778387732895
0.00066586017181
0.00049786854227
0.00025260661387
0.000262605568486
0.00056212552576
0.000773024036918
0.00090919689379
0.000995956476569
0.00104259670127
0.00105446984708
0.00104238499202
0.00101792964193
0.000990791831605
0.000967126980498
0.000948860343547
0.000934167041998
0.00091757342879
0.000891286232666
0.000846571929666
0.000773965278024
0.000663102697207
0.000496719644508
0.00025236278894
0.000263041840609
0.000559075540318
0.000765988421978
0.000899538710586
0.000982790925106
0.0010298482932
0.00104382317979
0.00103466564778
0.00101315448898
0.000988357637681
0.000966044471038
0.000948001264918
0.000932496581996
0.000914576188028
0.000886975854911
0.000841422243692
0.000768927236856
0.000660471077731
0.000495955619029
0.000252324618463
0.000262484095972
0.000552336475159
0.00075329872906
0.000883098793688
0.000961850647892
0.00100858229911
0.00102519923758
0.00101988170718
0.00100227673968
0.000980593304647
0.000960117936101
0.000942553693946
0.000926279936188
0.000906918986758
0.000877858156519
0.000831494826571
0.000759692855931
0.000654759089982
0.000493061946143
0.000251320794027
0.000259709878983
0.000538774322645
0.000730752174305
0.000854910932953
0.000930746110103
0.000972719348647
0.000991120328129
0.000989684391017
0.000976351774094
0.000958282354977
0.000940171638496
0.000923600687457
0.000907088015931
0.00088683415294
0.000857000655478
0.00081097437907
0.000742924041174
0.000641837502095
0.000484922618836
0.000248530639768
0.000253604116727
0.000514913853548
0.000693476304295
0.000809054643254
0.000880332222034
0.000918281324966
0.00093399077423
0.000935231559088
0.000925822988579
0.000911534423666
0.000896277079926
0.000881423577799
0.000865686485691
0.000845847390476
0.00081700266964
0.00077497789257
0.000712288675323
0.000616514053511
0.000467621840157
0.000243887001829
0.000242597183465
0.000476156051075
0.000635343476506
0.000738307137032
0.000802207959781
0.000836800133289
0.00085013423174
0.000849384600436
0.000841543837193
0.000830710175726
0.000818667225528
0.000806420006126
0.00079300038553
0.000776826064375
0.000753176132346
0.000716395566873
0.000659448329067
0.000572495819395
0.000437039572096
0.000235018129953
0.00022479927548
0.000416552050754
0.000548050300553
0.000632849723888
0.000685309824184
0.000713754043019
0.000724958070444
0.000724759248385
0.00071825127741
0.000709402462883
0.000700548978705
0.000692226017036
0.000683258108077
0.000671067110807
0.000652081361092
0.000621741339628
0.000574229526768
0.000501309727765
0.00038736571706
0.000219260096594
0.000197833030559
0.000325954790651
0.000416128804529
0.000474152063213
0.000509746844675
0.000528434258773
0.000535344727277
0.000534779361914
0.000530304822384
0.000524709834111
0.000519559158975
0.00051512591918
0.000510464837919
0.00050355729653
0.000491720885468
0.000471650039861
0.000438992450556
0.000388079504281
0.000308513368
0.000194450890353
0.000165350449364
0.000198239217625
0.000225783634614
0.000243468504733
0.000253280165228
0.000258117526091
0.000259753651019
0.000259641805869
0.000258895172455
0.00025768050853
0.000256476561529
0.000255500061262
0.000254520962681
0.000252896061384
0.000249844656016
0.000244070200065
0.00023431907166
0.000218383607701
0.000193756020506
0.000164215513407
0.00019627605434
0.000314943277989
0.000406001281987
0.000468974039186
0.000510723080232
0.000536214868194
0.000549474065797
0.000553878156571
0.000552505547987
0.000548456477541
0.000543456413946
0.000538028958595
0.000531331742822
0.000521184146332
0.000504911595124
0.000479682742665
0.00044173555583
0.00038592741202
0.000304378097525
0.000194167921545
0.000315102543306
0.000715494936769
0.000954577552003
0.00112075941613
0.00123367581853
0.00130471942172
0.00134335911019
0.00135819981097
0.00135710056014
0.00134650584666
0.00133070130502
0.00131114719662
0.00128632805967
0.00125244199058
0.00120346408128
0.00113195496393
0.00102890018151
0.000882389787717
0.000671379417212
0.000304038301475
0.000406236378751
0.000954225873476
0.00127918660077
0.0015075308808
0.00166454895758
0.00176420788707
0.00181845582307
0.0018388036719
0.00183615559704
0.00181938291978
0.00179479890002
0.00176473863528
0.00172736273462
0.00167776505319
0.00160779473541
0.00150739070841
0.00136483497859
0.00116516100205
0.000881261000029
0.000385220185016
0.000469687506411
0.00112154033159
0.00150913567518
0.00178241334343
0.00197042218334
0.00208883475676
0.00215152015872
0.00217236850643
0.00216560053161
0.00214121497843
0.00210788097693
0.0020687898118
0.00202171228487
0.00196173115817
0.00187834473555
0.00175921091355
0.00159044933069
0.00135474710804
0.00102078005863
0.000439258615832
0.000512471925045
0.00123716587446
0.00167002923403
0.00197498870449
0.00218324512599
0.00231173662316
0.00237635964225
0.00239163925806
0.00237473874976
0.00234007937809
0.00229791693279
0.00225248042253
0.00220151559677
0.00213743963569
0.00204753295603
0.0019183962557
0.00173443718644
0.00147629220244
0.00110980207372
0.000473373526026
0.00053953529657
0.00131252806077
0.00177599912919
0.00210131303289
0.0023206060368
0.00245174991938
0.00250994984119
0.0025141835022
0.00248435915954
0.00243797439362
0.00238724430487
0.00233723307299
0.00228537924736
0.00222258928606
0.00213457350312
0.0020046229152
0.00181424135941
0.00154492152405
0.00116042447263
0.000492707903692
0.000554862089427
0.00135699289222
0.00183897577451
0.00217535830284
0.00239877743243
0.00252496488151
0.00257229593026
0.00256227877439
0.0025179745868
0.00245968957708
0.00240139434323
0.00234871791884
0.00229867392924
0.0022408458522
0.00215904258447
0.00203444868389
0.00184663703356
0.00157450835366
0.00118314303837
0.000501401834101
0.000561904864243
0.00137899276248
0.00187017599092
0.0022104764269
0.00243221200939
0.00255041956594
0.00258518422367
0.00256056049165
0.00250254935856
0.0024338427523
0.00236970889986
0.00231599543241
0.00226921165013
0.00221786996879
0.00214423191938
0.00202792515366
0.00184746849579
0.00157852524736
0.0011876989337
0.000502813562812
0.000563726195983
0.00138612725207
0.00188002762548
0.00221974438688
0.00243704289075
0.00254679505431
0.00257028668071
0.00253357360682
0.00246493616557
0.00238873565895
0.00232092382794
0.00226726131567
0.00222374137178
0.00217824026821
0.00211207218782
0.00200388065344
0.00183131271144
0.00156945092803
0.00118269609198
0.000500787235013
0.000562817617709
0.0013843528111
0.0018768148902
0.0022136259614
0.00242611564307
0.00252927574748
0.00254511768441
0.00250088021648
0.00242613699393
0.00234594978113
0.00227657706672
0.00222352021893
0.00218236063086
0.00214062865899
0.00207943379693
0.0019770846832
0.00181090624773
0.00155600543142
0.00117456233548
0.000497844344833
0.000560932162181
0.00137716705945
0.00186543290943
0.00219829781588
0.00240708413957
0.00250691092602
0.00251995520047
0.00247366966604
0.00239776533817
0.00231724205277
0.00224814342849
0.00219572667441
0.00215546252913
0.00211491023052
0.00205549019166
0.00195576899042
0.00179325240918
0.00154312245771
0.00116680372927
0.000495406809002
0.000558193393678
0.0013652793016
0.00184697722738
0.0021752294268
0.00238165474186
0.00248160058417
0.0024967902596
0.00245388140287
0.00238155906799
0.00230405977242
0.00223679192481
0.00218486739183
0.0021439627255
0.00210207344105
0.00204134526566
0.00194109718135
0.00177943875393
0.00153174278664
0.00115984639388
0.000493644008179
0.000553208764633
0.00134639643808
0.00181843988909
0.00214072705205
0.00234521399426
0.00244780754748
0.00246914534676
0.002434183917
0.00236956862523
0.0022979748996
0.00223403738315
0.0021827321588
0.00214022164732
0.00209512023802
0.00203078890054
0.00192773347215
0.00176504277112
0.00151833389231
0.00115126410013
0.000491660196521
0.000543853267979
0.00131574486461
0.00177331588904
0.00208662326971
0.00228765506702
0.0023938203231
0.0024234855206
0.00239942361745
0.00234554935598
0.00228235489753
0.00222331958481
0.00217330779491
0.00212900207769
0.00208000411217
0.00201124553688
0.00190477773687
0.00174096363419
0.00149613885017
0.00113613774531
0.000487139483483
0.000527382900976
0.00126676501058
0.00170275750956
0.0020020278992
0.00219637960375
0.00230423216206
0.00234194397807
0.00232953861834
0.00228783179155
0.00223472550492
0.0021822064253
0.00213481478312
0.00208976452296
0.00203786799755
0.00196581247196
0.00185739259454
0.00169425136488
0.00145604399986
0.00110754386779
0.000477168450559
0.000500605735107
0.00119172698213
0.00159660416194
0.00187487538674
0.0020575746705
0.00216211620424
0.00220543215991
0.00220324573666
0.00217346045208
0.00213111627052
0.00208649072764
0.0020435651658
0.00199997797154
0.00194779649588
0.00187553709165
0.00176866574473
0.00161187818225
0.00138653797957
0.00105711356245
0.000458201856973
0.000459620908414
0.00108146113691
0.00144325203418
0.00169167098546
0.00185585491865
0.00195199809843
0.00199488976185
0.00199968140346
0.00198054329399
0.00194868858632
0.00191293137019
0.00187652800175
0.00183737592556
0.00178837485727
0.00172027502996
0.00162212736586
0.00147960733341
0.00127480803909
0.000974977114504
0.000426278809112
0.000399262518618
0.000924025141372
0.00122795820614
0.0014357017263
0.00157293425221
0.0016541764764
0.00169212765399
0.00169914462406
0.00168663244299
0.00166401089136
0.0016376204282
0.00160968920113
0.00157842962122
0.00153848105425
0.00148206789611
0.00139956878991
0.00127907115334
0.00110485511586
0.000848298923198
0.000376165523082
0.000311865756607
0.000698346367427
0.00092353143623
0.00107570148167
0.00117510680114
0.00123367703236
0.0012614464282
0.00126760007598
0.00126036192441
0.00124637716862
0.00122987033385
0.00121219375903
0.00119187505934
0.00116492602025
0.00112553401378
0.00106640453548
0.000978279274624
0.000848575465267
0.000654866143786
0.000299581270906
0.00019577710458
0.000311421548421
0.000398463242318
0.000457303006145
0.000495077353086
0.000516960826625
0.000527184694888
0.000529261630812
0.000526401555602
0.000521656891256
0.000516577925569
0.000511520162811
0.000505702307808
0.000497272461417
0.000483555005693
0.000461633985023
0.000427808551285
0.000376725165348
0.000299866987167
0.000192187345139
0.00022693888163
0.000416989393765
0.000561417700682
0.000662830055413
0.000731668921478
0.000774872678841
0.00079812975258
0.000806719759513
0.00080552234755
0.000798597675815
0.000788634064864
0.000776566813618
0.000761433132953
0.000740770816213
0.000710876690858
0.000667252317058
0.000604557349223
0.00051572868522
0.000389663333611
0.000220619804621
0.000417467962766
0.000989808064335
0.00133498773646
0.00158112662806
0.00175301980266
0.0018641873039
0.00192639824639
0.00195135115015
0.00195025249323
0.00193265980358
0.00190515021753
0.0018703299635
0.00182652912421
0.00176824860348
0.00168740551519
0.00157383166638
0.0014160726427
0.00119988698659
0.000899555390509
0.000388944411569
0.000562171225539
0.00133459072384
0.00179265389022
0.00212154268449
0.00235329356627
0.00250366009232
0.00258707357715
0.00261886777491
0.00261418197201
0.00258653790569
0.00254549083467
0.0024950701129
0.00243327272584
0.00235267236126
0.00224241195417
0.00208901105309
0.00187775358076
0.00159127765198
0.00119618899557
0.000513475004909
0.000664459802855
0.00158260507467
0.00212419149112
0.00251258137254
0.00278535556115
0.00295987832306
0.00305267362325
0.00308272149975
0.00306823106933
0.00302699642376
0.00297180874833
0.00290827688137
0.00283408118325
0.00273951038066
0.00261213029293
0.00243476579039
0.00218983785324
0.00185711332281
0.00139713708991
0.000597381597137
0.000735020004461
0.00175880271976
0.00236218249533
0.00279279334315
0.00309162467183
0.00327725202386
0.00336830577196
0.00338506309747
0.00335222863222
0.00329259104728
0.0032221672878
0.00314821886152
0.00306806112001
0.00297046708514
0.00283818530829
0.00265017494984
0.00238777661441
0.00202768641185
0.00152612100351
0.000650615279941
0.000780840895424
0.00187683558583
0.00252282710843
0.00298040826208
0.00329201511632
0.00347760684876
0.0035546988269
0.00354826091147
0.00348995594852
0.00340822797596
0.00332222674932
0.00324062986136
0.00315998859667
0.00306698673193
0.0029414294526
0.00275809790099
0.00249208606535
0.00212079218804
0.00159781074463
0.00068028516186
0.000807608054347
0.0019484974163
0.00262070656687
0.00309237786944
0.00340664317174
0.0035818787816
0.00363622825687
0.00359999998524
0.00351275605662
0.00340820697798
0.00330810039834
0.00322192946193
0.003145233306
0.00306244880481
0.00295082069879
0.00278163858867
0.00252523314567
0.00215507360521
0.00162651669823
0.000692733545728
0.000820552935046
0.00198529032401
0.00267076205923
0.00314666122009
0.00345578221397
0.00361515276531
0.00364354618062
0.00357755297803
0.0034633164927
0.00333884458372
0.00322773225036
0.00313959240926
0.00306895868252
0.00299847040492
0.00290288058281
0.00275126249591
0.00251013746224
0.00215084392497
0.00162692220481
0.000694005143225
0.00082442626697
0.00199796109133
0.00268754363375
0.00316163579558
0.00346193642281
0.00360488901696
0.00361087888572
0.00352103444105
0.00338622616084
0.00324735142096
0.00312902371705
0.00304046173191
0.00297535898168
0.00291532064698
0.0028335396738
0.00269749586307
0.00247176574588
0.00212603540042
0.00161248364969
0.000689503800862
0.00082301761386
0.00199518688106
0.00268294495551
0.00315243879289
0.00344425314254
0.00357504964849
0.00356634988868
0.00346190116942
0.00331516664463
0.00316842459374
0.0030465660545
0.00295828026145
0.00289665934799
0.00284290541556
0.00276975821037
0.00264414092253
0.00242990694398
0.00209594619678
0.00159396350872
0.000683298748455
0.000818553033785
0.0019821919227
0.00266416151079
0.00312806958351
0.00341444381003
0.00353983239896
0.00352605373169
0.00341744374238
0.00326788192786
0.00311966520834
0.0029974354955
0.00290952153684
0.00284880165883
0.00279656995979
0.00272597658037
0.00260439049922
0.00239599179501
0.00206969145446
0.00157710524935
0.000677672916396
0.000811443771762
0.00196010721545
0.00263280736198
0.00309076661993
0.00337493229893
0.00350193860302
0.00349285638357
0.00339046914134
0.00324687428578
0.00310312148782
0.00298324707464
0.00289554101569
0.00283315541827
0.00277794241843
0.00270414035025
0.00258039804688
0.0023721309344
0.00204902977519
0.00156284947648
0.000673165008135
0.00080014110071
0.00192575336194
0.00258457246161
0.00303510126269
0.00331842711635
0.00345228003267
0.0034563366939
0.00336963307853
0.00324023278627
0.00310662122615
0.00299186664259
0.00290449329575
0.00283842201995
0.00277660190224
0.00269497773391
0.00256414877048
0.00235167327668
0.00202880265219
0.00154760990163
0.000668213592054
0.000781601877814
0.00187240769015
0.00251021215691
0.00294917243712
0.00323009283731
0.0033722171481
0.0033947027148
0.00333070276574
0.00322220695605
0.00310387345464
0.00299734645358
0.00291134402044
0.0028409192798
0.00277080367764
0.00267910672957
0.00253866449656
0.0023206404466
0.00199810969853
0.00152418728255
0.000659641928846
0.000751783210491
0.00179105084373
0.00239759094776
0.00281773226148
0.00309152846909
0.00323920684366
0.00327990322269
0.00324102538634
0.00315695420791
0.00305758171957
0.00296252837057
0.00288024548114
0.00280707609945
0.00272991644296
0.00262913188603
0.00248059064797
0.00226000240884
0.00194186197957
0.00148206528797
0.000643089719101
0.000706000115564
0.00167149682396
0.00223353969566
0.00262499981688
0.00288462463361
0.00303100019069
0.00308468694134
0.00306781366431
0.003007507342
0.00292841370655
0.00284749287583
0.00277226983217
0.00270014399381
0.00262012332384
0.00251517149659
0.00236499263019
0.00214893940924
0.00184484853072
0.00140930814921
0.000613525058237
0.000638787825562
0.00150256271935
0.00200434422023
0.00235502044781
0.00259042710985
0.00272796249976
0.00278546702722
0.00278396207295
0.00274354705938
0.00268383499253
0.00261862987446
0.00255401667329
0.00248802379024
0.00241157714291
0.00231064979477
0.0021684647622
0.00196870833165
0.00169028194504
0.0012928101481
0.000565100160506
0.000542910696172
0.00127033142944
0.00169369495813
0.00198949902801
0.00218880174447
0.00230751324052
0.0023610537901
0.00236632756444
0.00234016568921
0.00229767240915
0.00224895696436
0.00219813288256
0.00214359788478
0.00207855543136
0.00199192808481
0.00187023244574
0.00169883436756
0.00145936458916
0.0011169124766
0.000490222027214
0.000406867058377
0.000948747404575
0.00126824234934
0.00148950169851
0.00163720999311
0.00172523008467
0.00176611008796
0.00177262576098
0.00175707751825
0.00172987460147
0.00169796079341
0.0016641003998
0.00162684048122
0.00158095137811
0.00151823073026
0.00142857732985
0.00130030449546
0.00111811731903
0.000854410055657
0.000376962489586
0.000224907238006
0.00040589427155
0.000540692006485
0.000632782723365
0.000692729555645
0.000727687998215
0.000743673815206
0.00074632394911
0.00074080173812
0.000731286033384
0.000720417361197
0.000709090333601
0.000696461159217
0.000680101093506
0.000656435232933
0.000621107521057
0.00056867754009
0.000491640237012
0.000377655915255
0.00021671069572
0.000261293776849
0.000529101578484
0.000729269962977
0.000871218173173
0.000969289608073
0.00103197243078
0.00106634354686
0.0010793939553
0.00107781969981
0.00106721244664
0.00105130339007
0.00103150663481
0.00100679262853
0.000973844833931
0.000927781919322
0.000862742426775
0.000772096297327
0.000647410241623
0.000474887279033
0.000245547692631
0.000530121830754
0.00129546809746
0.00176187324355
0.00210142904012
0.00234361204581
0.00250337138144
0.00259456503778
0.00263217932157
0.00263142371252
0.00260561250102
0.00256406153426
0.00251071176071
0.00244362577197
0.00235548961251
0.00223517523226
0.00206945752106
0.00184465223867
0.00154508016868
0.00114162251685
0.000473493800154
0.000730815000131
0.00176183274373
0.00237596509211
0.00282508517367
0.0031477807652
0.00336070416371
0.0034803006045
0.00352588410283
0.00351833208297
0.00347680828752
0.00341510855872
0.00333945332277
0.00324752746426
0.00312926441459
0.0029694332243
0.0027505158097
0.00245450637689
0.00206252391508
0.00153598348974
0.000642146927909
0.000874246317721
0.00210491125257
0.00282978650775
0.00335765579846
0.00373440597729
0.0039784559199
0.00410784613588
0.00414482797203
0.00411703031074
0.00405145146043
0.00396675707616
0.00387186888989
0.00376373336171
0.00362962148091
0.00345041490833
0.00320360767805
0.00286602623382
0.00241558768849
0.00180560481878
0.000756040577176
0.000975112176727
0.00235425855796
0.00316269825593
0.00374652943785
0.00415776651618
0.00441495131748
0.00453224992917
0.00453807303232
0.00447286191706
0.00437255942521
0.00426110646581
0.00415013433915
0.00403556397639
0.00390112952354
0.00372342800221
0.00347292637301
0.00311957225556
0.00263795558063
0.00197649524445
0.000827226599505
0.00104195219797
0.0025251715443
0.00339227949523
0.00401213655437
0.00444117154075
0.00468889058395
0.00476928139053
0.00472339123662
0.00460615621415
0.00446333808821
0.00432427329283
0.00420239494847
0.00409219789294
0.00397243792646
0.00381340287573
0.00358098328111
0.00323803850546
0.00274952544931
0.00206527045893
0.000864340945896
0.00108186200636
0.00263163690076
0.00353537515071
0.00417472965372
0.00460423195516
0.00482150848357
0.00484761682467
0.00473732207588
0.00456142687009
0.00437527623454
0.00421225908969
0.00408590079384
0.00398874637687
0.0038943021648
0.00376607953111
0.00356430081044
0.00324877919728
0.00277516736132
0.00209083008955
0.000876019145687
0.00110173881904
0.00268833929849
0.00361091946284
0.00425579031618
0.0046713722354
0.00484951967842
0.00481750099449
0.00464381196921
0.0044143056598
0.00419166547634
0.00401104653744
0.0038845695159
0.00380275836891
0.00373523519844
0.00364035462937
0.0034734854863
0.00319104195634
0.0027440431973
0.00207470784154
0.000871352566676
0.00110802991406
0.00270964932261
0.00363841304764
0.00427925043059
0.00467594767278
0.00481855583067
0.00473861074616
0.00451583605305
0.00424696091971
0.00399899720428
0.00380712893977
0.0036814111732
0.00361075851803
0.00356342930721
0.00349506639595
0.0033580468999
0.0031054677611
0.002685555167
0.00203831342005
0.000858813687951
0.00110589531356
0.00270739609411
0.00363428597074
0.00426753419139
0.00464865458507
0.00476710132858
0.00465724298942
0.00440559826291
0.00411468028934
0.00385309755087
0.00365542193155
0.00353008527906
0.00346483866428
0.00342784843132
0.00337434760934
0.00325579124719
0.00302363503363
0.00262473723278
0.00199862689243
0.000844955891739
0.00109839793004
0.00268877078821
0.00360863296042
0.00423452118859
0.00460753276502
0.00471679041935
0.00459765898193
0.00433822425708
0.00404186024384
0.0037770344026
0.00357783782265
0.00345204095289
0.00338697003011
0.00335109920958
0.0033004673422
0.00318731705842
0.00296352768089
0.00257625610149
0.00196522877453
0.000833364510855
0.00108609104524
0.00265506806933
0.00356327117604
0.00418281293548
0.00455553430635
0.00467100878254
0.00456343021658
0.00431699987776
0.00403104560091
0.00377243019654
0.00357523126265
0.00344780654828
0.00337803430255
0.00333494987206
0.00327617568481
0.00315606891752
0.0029287864074
0.0025433512423
0.00194045297201
0.000824772664637
0.00106696050536
0.00260165754689
0.00349167218005
0.00410301403752
0.00448010445342
0.00461498813532
0.00453840815514
0.00432538327784
0.00406602371335
0.00382346255485
0.00363194519081
0.00350170993429
0.00342224667119
0.00336401112618
0.00328742088976
0.00315011978217
0.00290974318839
0.00251838756516
0.00191905056912
0.000817060043326
0.0010369401496
0.00251917968152
0.00338060949488
0.00397658761569
0.00435636362202
0.00451815753094
0.00448651950455
0.00432342929237
0.00410529439682
0.00388908074626
0.00370835216605
0.00357568323139
0.00348282600261
0.00340376218581
0.00330325476344
0.0031432638485
0.00288471306141
0.00248441154498
0.0018892843551
0.000805701772075
0.000990699127859
0.00239563434395
0.00321371333386
0.00378407475961
0.00415692989036
0.00434248141768
0.00435792674885
0.00425088901158
0.00408239970326
0.00390115042573
0.00373807609509
0.00360697937262
0.00350229749194
0.00340279253576
0.0032789939207
0.00309762733188
0.00282241610728
0.00241846880067
0.00183604005172
0.000784461035743
0.000922305802469
0.00221835309553
0.00297456322491
0.00350668122727
0.00386105635623
0.00405502136815
0.0041066457009
0.00404955421666
0.00392986167097
0.0037871846824
0.00364809583101
0.00352571359486
0.00341660634477
0.00330450201234
0.00316566599925
0.00297098692332
0.00269005238299
0.00229593925008
0.00174192315414
0.00074615187689
0.000825306938383
0.00197480797028
0.00264790742149
0.00312536944471
0.00344836341729
0.00363438053804
0.00370320617087
0.00368169211077
0.00360223232031
0.00349569973809
0.00338363720536
0.00327698223357
0.003173733926
0.00306147513428
0.00292111465149
0.00272856839529
0.00246070670475
0.00209625370719
0.00159007060026
0.000683150087875
0.000691318021708
0.00165062154123
0.00221721907462
0.00262079928611
0.00289621178924
0.00305934701243
0.0031279521199
0.00312438075467
0.00307324498896
0.00299765017009
0.0029130900784
0.00282783463108
0.00274060355464
0.0026415910638
0.00251586242258
0.00234611500321
0.00211377340113
0.00179881446224
0.00136307069286
0.000586374044852
0.000505434962128
0.00121701333803
0.00164483587839
0.00194787184902
0.00215328839892
0.00227550597838
0.00232924354381
0.00233148102175
0.00229992595283
0.00225028090025
0.00219352969835
0.00213488925004
0.00207317480188
0.00200145854531
0.00190883869885
0.00178219248739
0.00160712781541
0.00136684940057
0.00103139194143
0.00044153585955
0.000255151304937
0.000503531069804
0.000686480240825
0.000812570037184
0.000895311386323
0.000943083708864
0.000963343269269
0.000963779297022
0.000951878117148
0.000933869541987
0.000913881785343
0.000893573540927
0.000872073588745
0.000846288621573
0.000811512252086
0.000761883583943
0.000690797571052
0.00058944517767
0.000442896154579
0.000236901403646
0.000308247665306
0.000674262418572
0.000944320100103
0.00113861437054
0.00127596695173
0.00136609115513
0.00141738409917
0.00143879149605
0.0014391350273
0.0014257698445
0.0014036363573
0.00137464377999
0.00133748464193
0.00128782556636
0.00121917972032
0.00112408714608
0.000994694784042
0.000820985001659
0.000586716964742
0.000276015829527
0.000676048110406
0.00169465357591
0.00232363971732
0.0027931863868
0.00313705411079
0.00337054788699
0.00350925929457
0.00357185376039
0.00357842142941
0.00354687889354
0.00348995785057
0.00341323061113
0.0033142213018
0.00318293778442
0.0030042867975
0.00276139427297
0.00243813395461
0.00201795449339
0.00146907363042
0.000584061916513
0.000946732140765
0.00232487567712
0.00315673973526
0.00378048649274
0.00424023752949
0.00455262004352
0.00473482673822
0.00480802873348
0.00480249173737
0.00474628952985
0.00465861914926
0.00454885435132
0.00441357290511
0.00423946003801
0.00400665823349
0.00368966064141
0.00326624049958
0.00271679239922
0.00199891427685
0.00081027643272
0.001143635512
0.00280091625282
0.00378827760514
0.00452478220823
0.00506713911973
0.00542720471947
0.00561779301834
0.00566728318625
0.00562087959648
0.00552046154605
0.00539340380397
0.00525359644142
0.00509639265033
0.00490373313169
0.00464921101474
0.00430106098682
0.00382666320883
0.00319777246473
0.00236508490321
0.000962968521919
0.00128576359924
0.00315602698873
0.00426333974847
0.00508566215064
0.0056830153194
0.00605333681246
0.00620600166439
0.00618659774894
0.00606401973954
0.00589704639313