/*--------------------------------*- C++ -*----------------------------------*\
| =========                 |                                                 |
| \\      /  F ield         | OpenFOAM: The Open Source CFD Toolbox           |
|  \\    /   O peration     | Version:  3.0.1                                 |
|   \\  /    A nd           | Web:      www.OpenFOAM.org                      |
|    \\/     M anipulation  |                                                 |
\*---------------------------------------------------------------------------*/
FoamFile
{
    version     2.0;
    format      ascii;
    class       volVectorField;
    location    "9.8";
    object      U_0;
}
// * * * * * * * * * * * * * * * * * * * * * * * * * * * * * * * * * * * * * //

dimensions      [0 1 -1 0 0 0 0];

internalField   nonuniform List<vector> 
7968
(
(-1.76366944469e-06 -3.88561256092e-05 5.78228903449e-05)
(0.000422782570546 -0.000230247083313 -8.69112944856e-05)
(0.00121137641739 -0.000320394020039 -0.000109137007928)
(0.00189775166759 -0.000357976856484 -3.60367126118e-05)
(0.00241628185228 -0.000328310186127 5.60834003415e-05)
(0.00265506385947 -0.000241997507392 0.000150027996553)
(0.00261600527031 -0.000157622445583 0.000212186323921)
(0.00234749293768 -6.98520065469e-05 0.000262450995753)
(0.0018772520624 -1.91953020837e-06 0.000289958114272)
(0.0012867696975 3.38042881354e-05 0.000302395958283)
(0.000656707431298 3.64255450703e-05 0.000303369589728)
(5.46780184229e-05 7.42255034945e-06 0.000294711972621)
(-0.000457304656653 -4.80366558297e-05 0.000277390372141)
(-0.000822107084952 -0.00012076935303 0.000246043591855)
(-0.00100516224671 -0.000191549350504 0.000204038074946)
(-0.000996864914164 -0.00025535931731 0.000140168413374)
(-0.000784304617677 -0.000277693221532 6.8292828029e-05)
(-0.000459294118596 -0.000238677965683 3.10861206195e-06)
(-6.01212858281e-05 -0.000158346030566 9.23493733781e-06)
(9.31576774753e-05 -1.14532847334e-05 0.000112930255584)
(-0.000180021482344 0.000259654570656 -6.12552883177e-05)
(0.000354076781653 0.00015249899422 -0.000900188671946)
(0.00134025110028 0.000137865002113 -0.00113397486172)
(0.00210611431402 0.000194890321635 -0.00108209601151)
(0.00263440757591 0.000328935585706 -0.000947748030518)
(0.00285404020352 0.000511143538833 -0.000792250232577)
(0.00277748492192 0.00068573406798 -0.000657424894378)
(0.00246208844259 0.000837408223994 -0.000544031247316)
(0.0019546983559 0.000948925830689 -0.000464428924197)
(0.00133251301258 0.00101074053593 -0.000426895377179)
(0.000671968654739 0.00102020151722 -0.000430138236567)
(4.00350110013e-05 0.000978694695931 -0.000469272532248)
(-0.000503353689497 0.000891183390666 -0.000535589825937)
(-0.000903248206982 0.000767431810962 -0.000622247209743)
(-0.00111960255557 0.000626307907902 -0.000718328732374)
(-0.00112824494033 0.000482515536983 -0.000821343566081)
(-0.000907175925523 0.000371777753782 -0.00090605498573)
(-0.000515568284268 0.000321804150897 -0.000927195444234)
(3.6127464015e-05 0.000316892486746 -0.000724920185444)
(0.000251566027549 0.00036345571759 -3.10140947147e-05)
(-0.000271152885968 0.000865238193076 -7.21854626981e-05)
(0.000353739115351 0.000941761928459 -0.00113280167418)
(0.00143407136856 0.00101113725233 -0.00133587593091)
(0.00223441831474 0.0011447361653 -0.00120666866643)
(0.00275926184982 0.00134894485062 -0.00100606513569)
(0.00295809431746 0.00159642638438 -0.000805218554388)
(0.00285915906325 0.00183373204836 -0.000639243857123)
(0.00252159183756 0.00204149486341 -0.000511421661835)
(0.00199844084732 0.00219941850061 -0.000427925182755)
(0.00136365504238 0.00229213048398 -0.000390989380619)
(0.000690842134054 0.00231521489232 -0.00039879178006)
(4.48060926977e-05 0.00227029248388 -0.000446094602478)
(-0.000516605693153 0.00216386869647 -0.000524479097115)
(-0.000939225031032 0.00200850742891 -0.000631130400509)
(-0.00118067260353 0.00182339030756 -0.0007580464234)
(-0.0012078627537 0.00162538865151 -0.000901136351207)
(-0.000990781008742 0.00144924121525 -0.00103826349106)
(-0.000574227199249 0.00131795203334 -0.00111668687773)
(4.87932842609e-05 0.00121699857357 -0.000934537494667)
(0.000325069604209 0.0010794860432 -5.89622612491e-05)
(-0.000312634604507 0.00137855460639 9.40741828282e-07)
(0.000410943520101 0.00153157952968 -0.00109913462513)
(0.00157466931355 0.00163035251722 -0.00122971743824)
(0.00241404062229 0.0017977831926 -0.00102110537334)
(0.00294272790189 0.0020351231026 -0.000760589288058)
(0.00312244352093 0.00231659140002 -0.00051744976464)
(0.00299596415653 0.00258909997882 -0.00032257418002)
(0.00262760425966 0.00283094824283 -0.00017693671981)
(0.00207598504718 0.00301875638464 -8.96034226526e-05)
(0.00141437499966 0.00313400140852 -5.17516943524e-05)
(0.000714596353265 0.00317159585443 -6.0470038981e-05)
(3.87900521575e-05 0.00313252816063 -0.000109809929712)
(-0.000555432270464 0.00302386007738 -0.000194150088771)
(-0.00101411341461 0.00286012203385 -0.000320345772696)
(-0.00129037480686 0.00266040358455 -0.000476787412501)
(-0.00134317845583 0.0024427757758 -0.000661485768032)
(-0.00113174758493 0.00223911983009 -0.000855110840913)
(-0.00069058262585 0.00207178710131 -0.00100525197741)
(-4.42241047738e-06 0.00193155804986 -0.000890675387924)
(0.000352054712626 0.00170504207198 3.04628879555e-07)
(-0.000284962375728 0.00175229461302 8.44569057464e-05)
(0.000538788487944 0.00191228409845 -0.000992275780198)
(0.00177620581595 0.00200722679759 -0.00106134095378)
(0.00265380419781 0.00217503992298 -0.00079327249365)
(0.00318681449248 0.00241254683224 -0.000481250027442)
(0.00334913107539 0.00269765751261 -0.000197532025165)
(0.00319241660279 0.00297748370015 2.50590257179e-05)
(0.00278419023095 0.0032298123167 0.000189515593124)
(0.00219030118841 0.00343005400977 0.000291539300181)
(0.00148690728206 0.00355911697185 0.000335525522896)
(0.000744418004957 0.00360953820217 0.000327899178074)
(2.41128120992e-05 0.00358265772653 0.000274227770176)
(-0.000617521333472 0.00348638043007 0.000178009546825)
(-0.00112416476774 0.00333488206579 3.67979584984e-05)
(-0.00144209744794 0.00314639563984 -0.000143879823788)
(-0.00152536116274 0.0029388785197 -0.000366656231626)
(-0.00132591118957 0.00274238416403 -0.000609811204463)
(-0.000864787935893 0.00257465876891 -0.000817282582967)
(-0.00012508194459 0.00243186184629 -0.000766205467779)
(0.000321147864291 0.00218163486669 8.0303484056e-05)
(-0.000208727713532 0.00188320063226 0.000163643480836)
(0.000707736946157 0.00202140341183 -0.000866420656073)
(0.00201445247369 0.00209724138062 -0.000894578663037)
(0.00292915290177 0.00224386371928 -0.000585077280507)
(0.00346985181585 0.00246042321479 -0.000233395077462)
(0.00361489151258 0.00272415480722 8.30276005307e-05)
(0.00342680412591 0.00298633556713 0.000330165287178)
(0.00297716028778 0.00322993935412 0.00051223436729)
(0.00233376678336 0.00342783487374 0.000626730007398)
(0.00157705427378 0.00355992202635 0.000677263668355)
(0.000779648226246 0.00361840842809 0.000671807321197)
(3.86808819547e-06 0.00360532933776 0.000616457671294)
(-0.000692576081847 0.00352908238139 0.000514120511152)
(-0.00125101833282 0.00340419300449 0.000362480686129)
(-0.00161463021122 0.00324840129644 0.000162487346595)
(-0.00173314338343 0.00307644769331 -8.68305915399e-05)
(-0.00154724815042 0.00291086452623 -0.000367038016781)
(-0.00107132209995 0.00276948562341 -0.00061623027203)
(-0.000284497048641 0.00264651559126 -0.000612249242849)
(0.000246320348598 0.00240243085411 0.00016480530741)
(-0.000131361721463 0.00178070295465 0.000214862439378)
(0.000869843757698 0.0018825593233 -0.000756732991687)
(0.00224200211598 0.00193452419701 -0.000757510506271)
(0.00319429405135 0.00205092492583 -0.000420332623815)
(0.0037467616183 0.00223351859469 -4.14981377645e-05)
(0.00387775830323 0.00246076985354 0.000301065776615)
(0.00366477256542 0.00269272209727 0.000566816792491)
(0.00317575757468 0.00291373804701 0.000765032271189)
(0.0024826759723 0.00309715771996 0.00088986771849)
(0.00167157040746 0.00322389607035 0.000944562256975)
(0.000819054227978 0.00328659148103 0.000938696485892)
(-1.03023795409e-05 0.00328790101673 0.000879924782332)
(-0.000757779311297 0.00323543244557 0.000772245328093)
(-0.00136314665228 0.00314279907432 0.000613306451609)
(-0.00176625216395 0.00302601757193 0.000403216486421)
(-0.00191560976458 0.00289825537008 0.000139215892857)
(-0.00174502788984 0.00277625408308 -0.000163218981658)
(-0.00125810761284 0.00267052115782 -0.000439420663995)
(-0.000435739713044 0.00257363923875 -0.000471435068003)
(0.000169308127364 0.00235577874704 0.000221865319171)
(-5.07332632912e-05 0.00147273192556 0.000256569853528)
(0.00101248018454 0.00153653614632 -0.000663672353759)
(0.00244001051116 0.00156739255864 -0.000652311704144)
(0.00342672652822 0.00165092669935 -0.000298455982529)
(0.00399233259712 0.00179017948865 9.90387319661e-05)
(0.00411805290282 0.00197097498162 0.000459323069074)
(0.00388678543855 0.00215797675301 0.000740482504387)
(0.00336453674402 0.00234050041788 0.000954912751771)
(0.00262658241273 0.00249458344175 0.00109063885202)
(0.00176520401751 0.00260477527604 0.00114890756383)
(0.000862337526197 0.0026669485356 0.00114191693714)
(-1.44418606872e-05 0.00268545680116 0.00107870716468)
(-0.000805801094 0.00266479281455 0.000965075064553)
(-0.0014502856941 0.00261422027266 0.000799795568932)
(-0.00188496593226 0.00254673200777 0.000583305279284)
(-0.00205815683454 0.00247192202666 0.000311413510246)
(-0.00190159229154 0.00240021396983 -5.56113588076e-06)
(-0.00140937716918 0.00233564722719 -0.000293653832918)
(-0.000561695607493 0.0022681155083 -0.000347674900429)
(9.01882252416e-05 0.00209506053417 0.00026549352209)
(1.14345966361e-05 0.000997126290657 0.000281392638805)
(0.00111696783714 0.00103012876005 -0.000598217350974)
(0.00258725632602 0.00104688069928 -0.000583513077289)
(0.00360310191962 0.00110063235615 -0.000221760257233)
(0.0041825389528 0.00119468962244 0.000185085095833)
(0.00430747368405 0.00132066400155 0.000557018025152)
(0.00406523725273 0.00145307031561 0.000848508023597)
(0.0035183553977 0.00158576624008 0.00107516593731)
(0.00274576150942 0.00170170579032 0.00121500977984)
(0.00184526903073 0.00179523557581 0.00125807965033)
(0.000901260966601 0.00185517611237 0.00124539247451)
(-9.13246075662e-06 0.00188805222606 0.00118366694397)
(-0.000822521663433 0.00189758084093 0.00108147762164)
(-0.00149484361568 0.00189415478244 0.000914583525249)
(-0.00195192140652 0.001879526547 0.000697296492412)
(-0.00214293604075 0.00185964337395 0.000425168802835)
(-0.00199859378951 0.00183766011477 0.000104829218527)
(-0.00150897172078 0.00181316193942 -0.00018709018065)
(-0.000649297767175 0.0017719475282 -0.000250538354687)
(2.68930538187e-05 0.001642708891 0.000291659987703)
(4.53929675245e-05 0.000422819838418 0.000290117186749)
(0.0011737083732 0.000429904988938 -0.000567641224621)
(0.00267029667031 0.00043690011015 -0.000553802101398)
(0.00370605920128 0.000464178199432 -0.000190623167549)
(0.00429730020558 0.000512792433794 0.000220862595863)
(0.00442525459005 0.000579804282562 0.000599289849257)
(0.0041793923646 0.000652731221871 0.000895534081177)
(0.00361985165704 0.000729515421016 0.00112770257621)
(0.00283247176933 0.00080298985566 0.00125707018759)
(0.00190901781036 0.000867836529251 0.00130605664906)
(0.00094745650891 0.000924908090175 0.00129099717131)
(2.12789123027e-05 0.00097660749964 0.00122213751527)
(-0.000806593741011 0.00102512158974 0.00111797470869)
(-0.00148534316118 0.00106879524784 0.000962107770297)
(-0.00195502473274 0.00110713981194 0.000748639176241)
(-0.00215737554291 0.0011402751348 0.000481252841245)
(-0.0020243128802 0.00116524269981 0.000164145939927)
(-0.00154490031942 0.00117547920668 -0.000128034111404)
(-0.000691190646052 0.00115949384211 -0.000193600854565)
(-9.78615981745e-06 0.00107606164269 0.00030271043879)
(4.83422731157e-05 -0.000181334482809 0.000285639358243)
(0.00117986023243 -0.000196974307262 -0.000573185707349)
(0.00268424498288 -0.000197992316495 -0.000562406029323)
(0.00372849006541 -0.000196719268279 -0.000199872375203)
(0.00432778066923 -0.000194035444833 0.000212189365619)
(0.00446179675167 -0.000188099888971 0.000592326070155)
(0.00421993841987 -0.00017626794579 0.000888889755236)
(0.00366296181992 -0.000157199762056 0.00112073566554)
(0.00287732138345 -0.000130766502363 0.00124773565146)
(0.00195627332725 -9.01915921935e-05 0.0012945952521)
(0.000998975252598 -3.42943318987e-05 0.00127744791436)
(7.82803680336e-05 3.64229829012e-05 0.00120791517439)
(-0.000745804174214 0.000120374054917 0.00110386196833)
(-0.00142023792479 0.000211806740065 0.000954599269594)
(-0.00189141179511 0.000302046308989 0.000746944138029)
(-0.00209924276204 0.000385928249126 0.000486437134678)
(-0.00197794581873 0.000455180942532 0.000176581999813)
(-0.00151570305672 0.000497006909968 -0.000110819378151)
(-0.000684523286713 0.000505380596563 -0.000176864377998)
(-1.70424391286e-05 0.000469552219676 0.000300546715797)
(2.0681768865e-05 -0.000746715282949 0.000269026430352)
(0.00113546972393 -0.00078459055753 -0.000612454963325)
(0.00262893223459 -0.000795556578112 -0.000606693206389)
(0.00366984353845 -0.000822890839681 -0.000247677133877)
(0.0042731965922 -0.000868174318766 0.000161079195358)
(0.00441665397388 -0.000923979573092 0.000538196608783)
(0.00418663465973 -0.000972720842734 0.000831332230602)
(0.00364794052453 -0.00100963863361 0.00105778168366)
(0.0028810080763 -0.00102328989723 0.00119256058546)
(0.00198743978116 -0.00100935385427 0.00122897947794)
(0.0010552745611 -0.000954594493736 0.00121109842226)
(0.000159260947008 -0.000865360027183 0.00114654964448)
(-0.000641280982542 -0.000746037034481 0.0010499436994)
(-0.00130302015275 -0.000611966029421 0.000899626924839)
(-0.00176420663071 -0.000473039241103 0.000698692194913)
(-0.00197158058295 -0.000340804597876 0.00044608225416)
(-0.00186149529585 -0.000228652696208 0.000146739110339)
(-0.00142290041053 -0.000154764994279 -0.000131436401403)
(-0.00062947262338 -0.000121486800364 -0.000195251820729)
(4.67019856548e-06 -0.000111563192175 0.000287843476667)
(-3.38964147031e-05 -0.00121114846725 0.000238646087116)
(0.00104429564117 -0.00127274581436 -0.000681099862792)
(0.00250918438884 -0.00129787651694 -0.000684056013228)
(0.00353678334552 -0.00135816097349 -0.000334899280606)
(0.00414161306741 -0.00145340155002 6.53646744954e-05)
(0.00429853931555 -0.00156927300606 0.000433814045124)
(0.00408798870335 -0.00167595509009 0.000719322038961)
(0.00358039678339 -0.00176472131218 0.000935650461738)
(0.00285256930949 -0.00181550357308 0.00106891810257)
(0.00200329593632 -0.00181578761982 0.00112090517194)
(0.00111680844077 -0.00176504391705 0.00110445563097)
(0.000263172625113 -0.00166055962476 0.0010462850776)
(-0.000507494108314 -0.00151682116891 0.000942743718823)
(-0.00114117283185 -0.00134438355511 0.000796508614749)
(-0.00158302609735 -0.00116044163471 0.000604253268363)
(-0.00178301819907 -0.000981811512563 0.000362357307625)
(-0.00168210489063 -0.000827112846533 7.81569490782e-05)
(-0.00127125344913 -0.000718242142828 -0.00018423855954)
(-0.000528470533071 -0.000658432710653 -0.00024203158254)
(5.19919153733e-05 -0.000606548030663 0.00026633277668)
(-0.000106734416683 -0.00151339202514 0.000195037451962)
(0.000915311608742 -0.00160348462441 -0.000771070412207)
(0.00233714979215 -0.0016487584803 -0.000790102991628)
(0.00334409350668 -0.0017451572934 -0.000459463202521)
(0.00394966232029 -0.00188936803565 -7.6996126894e-05)
(0.00412492321442 -0.00206052372301 0.000274770184971)
(0.0039412583828 -0.00221926170527 0.000548067562615)
(0.00347408456073 -0.00235245272686 0.000751428666802)
(0.00279668604447 -0.00243715249192 0.000877447506605)
(0.00200268867838 -0.00245718907028 0.000929641208433)
(0.00117195878542 -0.00240810148715 0.000921689802849)
(0.000369528179276 -0.00229507136856 0.000867614921492)
(-0.000353277571639 -0.00212750676229 0.000773112111455)
(-0.000947019419119 -0.00192276919258 0.000638380630839)
(-0.00136048918215 -0.00169994174996 0.00045901609013)
(-0.0015460421646 -0.00147904792426 0.000233158539886)
(-0.00145043897562 -0.00128400179226 -2.86311156166e-05)
(-0.00107105436422 -0.00113834405258 -0.000269072768149)
(-0.000390762341166 -0.00105051076736 -0.000310745934715)
(0.00011832794488 -0.000958796132728 0.000235398229091)
(-0.000177205380576 -0.00161915312863 0.00014449797246)
(0.000767493581148 -0.00173737473309 -0.00087189322271)
(0.00213351328835 -0.00180494938677 -0.000919586876088)
(0.00311442486236 -0.0019343873733 -0.000618661978639)
(0.00371901030105 -0.00211888038788 -0.000265104665931)
(0.0039192695141 -0.00233652722833 6.19040985082e-05)
(0.00376973473167 -0.00253570795724 0.000319648948457)
(0.00334963795212 -0.00270125058959 0.000510069657987)
(0.00272797968157 -0.00281001426705 0.000629820462394)
(0.00199308628316 -0.00284501062443 0.000682242587067)
(0.00122179543341 -0.0028017961566 0.000679198387254)
(0.00047687910354 -0.00268518913599 0.0006326280636)
(-0.000192376472802 -0.00250614699344 0.000547875624731)
(-0.000739015070506 -0.00228147334017 0.000425959322442)
(-0.00111620129668 -0.00203121195052 0.000263498149121)
(-0.00128094873131 -0.00177797186247 6.06005769793e-05)
(-0.00118650883042 -0.00154892824002 -0.000168891372559)
(-0.000841568451896 -0.00137181444575 -0.000378152103978)
(-0.000233006507915 -0.00125572821005 -0.000390356125992)
(0.000187463891808 -0.00112700807008 0.000198315958222)
(-0.00024360054353 -0.00151286105301 6.98212448968e-05)
(0.000614563508255 -0.0016449475871 -0.000982744698254)
(0.00191697948132 -0.00172824609796 -0.00106990714481)
(0.00286828304446 -0.00188000714997 -0.000811841296598)
(0.00347335657797 -0.00209201630403 -0.000499117506104)
(0.00370013327397 -0.00234016745214 -0.00020533441494)
(0.0035909978003 -0.00256918968062 3.0192288499e-05)
(0.00322086185845 -0.00275655325865 0.000206272149658)
(0.00265614382194 -0.00288193025702 0.00031925104294)
(0.00198002984409 -0.00292900863229 0.0003720587323)
(0.00126712137261 -0.00289354746287 0.000374134849164)
(0.000579332148417 -0.00278026483568 0.000335755122595)
(-3.5067723806e-05 -0.00259947119898 0.000262634999488)
(-0.000531635187447 -0.00236715899034 0.000157534317121)
(-0.000868340519116 -0.00210311945722 1.84026951585e-05)
(-0.00100711234792 -0.00183075302765 -0.000151087652542)
(-0.000912116211172 -0.00158232821668 -0.000339960343316)
(-0.000602137626491 -0.0013861714187 -0.000504336099282)
(-6.93976810483e-05 -0.00125168219755 -0.000476628058471)
(0.000251704701295 -0.00110319351812 0.000145247969635)
(-0.000264268160235 -0.00118553598453 -1.05281480627e-05)
(0.000500417641482 -0.00130651211666 -0.00107431867285)
(0.00173058269077 -0.00139015260772 -0.00121594084875)
(0.00264750369584 -0.00154227039241 -0.00101698981087)
(0.00325238235038 -0.00175911629964 -0.000756224894816)
(0.00350325042403 -0.00201286260445 -0.000504090405032)
(0.00343148841802 -0.0022483031094 -0.000295978360539)
(0.00310863760634 -0.00244154507782 -0.000137852450253)
(0.00259342783829 -0.00257350833609 -3.50319963482e-05)
(0.00196593271944 -0.00262853547102 1.68398544161e-05)
(0.00130165706117 -0.00260400407226 2.31744197569e-05)
(0.000662878740487 -0.00250388848642 -6.94051450888e-06)
(9.7588912724e-05 -0.00233666491935 -6.57482732711e-05)
(-0.000351204776369 -0.0021151399812 -0.000147389063061)
(-0.000647080320922 -0.00185995522372 -0.000255267677691)
(-0.000761154973719 -0.00159416968753 -0.00038477232203)
(-0.000665271200096 -0.0013507399352 -0.000521488941592)
(-0.000390603385677 -0.00115803140563 -0.000628792045025)
(6.58106914334e-05 -0.00102165643995 -0.000548735802279)
(0.000285606323258 -0.000871836015293 9.02307192594e-05)
(-0.000219383712349 -0.000734553870157 -8.30594576607e-05)
(0.000453725248076 -0.000783889537128 -0.00109821228937)
(0.00159895013677 -0.000836989910739 -0.00130067533167)
(0.00247625508894 -0.000957781744027 -0.00117646099139)
(0.00307700061719 -0.00114640338546 -0.000975486796146)
(0.0033493515216 -0.00137463979886 -0.000766699701242)
(0.00330902467644 -0.00158820939379 -0.000587702919934)
(0.00302271241123 -0.00176399774995 -0.00044715440844)
(0.00254306448199 -0.00188765704266 -0.000348527111056)
(0.00194911897459 -0.00194464187964 -0.000295864481849)
(0.00131757040675 -0.00193278184309 -0.000286002735591)
(0.000713492151542 -0.00185541089833 -0.000310508107604)
(0.000186395758562 -0.00171892597354 -0.000358912356155)
(-0.000223802369423 -0.00153224071595 -0.000422856490512)
(-0.000485151305202 -0.00131634804908 -0.000499145206731)
(-0.000576005258093 -0.00109066453288 -0.000584262401047)
(-0.000479971442181 -0.000887217158384 -0.000664764263571)
(-0.000238835961652 -0.00073254654024 -0.000705398721634)
(0.000142623884697 -0.000624920402514 -0.000568017502064)
(0.000275589779135 -0.000523221259106 5.26652004973e-05)
(-0.000129440665043 -0.000204655941035 -7.96661621148e-05)
(0.000458809055178 -8.66714697916e-05 -0.00087807678418)
(0.00150681049323 -6.12093409887e-05 -0.00110077584835)
(0.00234443385429 -0.000111061605498 -0.00104732644778)
(0.00294347053353 -0.000236274712744 -0.000910630880467)
(0.00323491497975 -0.000407106541105 -0.000748830013584)
(0.00321673004511 -0.000572024728792 -0.000603809263816)
(0.00295607437251 -0.000709777572582 -0.000483346792411)
(0.00249751767113 -0.000809137905355 -0.00039362098978)
(0.00192284585706 -0.000860493152826 -0.000345391307883)
(0.00131016047391 -0.0008638491397 -0.000337025627561)
(0.000726265274573 -0.00082052008131 -0.000358712199876)
(0.00022365869253 -0.000733979540118 -0.000399655048898)
(-0.000160079617664 -0.000609998422246 -0.000449851031234)
(-0.000396042765957 -0.000465865847868 -0.000501642381991)
(-0.000467948537709 -0.000317703661785 -0.000551742737608)
(-0.000368816018275 -0.000193350816411 -0.000586107401467)
(-0.000152864217159 -0.000120143624783 -0.000576417479568)
(0.00016070389181 -8.81322728493e-05 -0.000414394847769)
(0.000231485810747 -0.000105358897998 8.22232854802e-05)
(3.76868499911e-05 4.92012478936e-05 2.4633589789e-05)
(0.000524009285521 0.000232072647643 -0.000119132330825)
(0.00137593343127 0.000318363560462 -0.000139825385655)
(0.00212445720367 0.000352649210995 -6.77607483348e-05)
(0.00270186917202 0.000323798271053 2.55953714664e-05)
(0.00300392378479 0.00024538414743 0.000121379827574)
(0.00301051234846 0.000161722348338 0.000190297579265)
(0.00279430986642 8.24055592412e-05 0.000240126406524)
(0.00237440137323 1.56723411372e-05 0.000268220334207)
(0.00183625321931 -2.31730697122e-05 0.000277270097721)
(0.00125812603599 -3.2290534315e-05 0.000272816485831)
(0.000706723599557 -1.48381910513e-05 0.000258962184597)
(0.000234943693112 2.58262344099e-05 0.000239149797262)
(-0.000117707022412 8.33223848962e-05 0.000215611184835)
(-0.000324348206516 0.000144639014019 0.000187195504288)
(-0.000378125075175 0.000199808443357 0.000150056382725)
(-0.000280695020231 0.00022665130127 0.000110159410997)
(-0.000105649431942 0.000209243872433 8.00493266113e-05)
(0.000105042669557 0.000165891175034 0.000104783176034)
(0.000128972328633 7.55138947271e-05 0.000201959835349)
(0.000324288879889 0.000301005516717 -0.00069998039926)
(0.000987450763671 0.000449892137963 -0.00109389997668)
(0.00170591800319 0.000562377769164 -0.00118214097032)
(0.00222577872129 0.000644453826287 -0.00104578367311)
(0.00255875146503 0.000706978930109 -0.00083521437038)
(0.00266925020104 0.000760703545065 -0.000613885648304)
(0.00256423111885 0.000801493044334 -0.00042268155067)
(0.0022686026543 0.00083161289991 -0.000266601167456)
(0.00182234880092 0.000852111827537 -0.000160180607058)
(0.00128467452666 0.000865342870011 -0.000108986863562)
(0.000712249302736 0.00087185606351 -0.00010788943729)
(0.000157082834305 0.000870115864248 -0.000149584716927)
(-0.00033651138758 0.000858727703571 -0.00022498537388)
(-0.000727283846665 0.00083447686766 -0.000328612499269)
(-0.000982539391606 0.000798709887345 -0.000452090407919)
(-0.00109007346637 0.000750288354382 -0.000590548890984)
(-0.00104602487807 0.000688741920262 -0.000726827988689)
(-0.000876258567938 0.000604063237636 -0.000815908160629)
(-0.00055874180957 0.000469132682493 -0.00073987136212)
(-0.000211335126172 0.000262980293131 -0.000432346635612)
(0.000540343557822 0.000828891129624 -0.00105193645087)
(0.00116595304622 0.000909411582003 -0.00188765107529)
(0.00173977366672 0.000976367968086 -0.00200835455259)
(0.00213884189852 0.00105571535379 -0.00182274961042)
(0.00238036562919 0.00114729717656 -0.00154288777719)
(0.0024489096796 0.00124816562089 -0.00125441082723)
(0.00234739836004 0.00134731884384 -0.00100301822396)
(0.00209533001297 0.00143778143992 -0.000807256325336)
(0.00172433014755 0.00151168679382 -0.000676888373941)
(0.00127584606811 0.00156249253567 -0.000617002304588)
(0.000792705194582 0.00158756051495 -0.000624140604192)
(0.00031642978226 0.00158599069094 -0.00068999735852)
(-0.000117533197365 0.00155791579252 -0.000805059192785)
(-0.000476875038886 0.00150567504605 -0.000959125605382)
(-0.000734835178332 0.00143622188662 -0.0011420580071)
(-0.000876978143216 0.00135546795243 -0.00134022597324)
(-0.000897831348908 0.00126932632803 -0.00152349718308)
(-0.000809445369722 0.00117352621309 -0.00163048422299)
(-0.000589628270497 0.00104755408418 -0.00149807366797)
(-0.000315990941794 0.000841523118518 -0.00080687769395)
(0.00068055605221 0.00134804692821 -0.00113674659756)
(0.00127250272312 0.00130077289039 -0.0020149264897)
(0.00178554293927 0.00131233181845 -0.0020694708753)
(0.00212506818105 0.00137731491592 -0.00180585180506)
(0.00232099987312 0.00148342541416 -0.00145898145644)
(0.00236594606863 0.00161743851967 -0.00111832735739)
(0.00226322090935 0.00176016697792 -0.000828659668541)
(0.00202864936392 0.0018959295029 -0.000608429920153)
(0.00168912496395 0.00200895848538 -0.000465166135204)
(0.00127910110449 0.00208979153822 -0.000400373009174)
(0.000834409107061 0.00213273884073 -0.000408814328518)
(0.000390517534347 0.00213649443565 -0.000482614821412)
(-2.11984467027e-05 0.00210339044049 -0.000614178669515)
(-0.000371790679552 0.00203878944483 -0.000795877134323)
(-0.000636750904371 0.00195426967755 -0.00101998136637)
(-0.000801058976976 0.00186073000497 -0.00127265850602)
(-0.000857253373255 0.00177060047359 -0.00152118477115)
(-0.000813031656929 0.00169039400993 -0.00169762764391)
(-0.000638713723927 0.00161406368684 -0.00162385291765)
(-0.000405275110291 0.00151761696037 -0.000900219368689)
(0.000772539047118 0.00169024445793 -0.0010244466066)
(0.00136513992726 0.00153665182242 -0.00186673994915)
(0.00186238527962 0.00149567175436 -0.00184702336797)
(0.00217849012783 0.00154026479873 -0.00150564103551)
(0.00235482592813 0.00164925543954 -0.00108912980382)
(0.00238822592477 0.00180156012684 -0.000693464882449)
(0.00228226576392 0.00197155945305 -0.000362304907136)
(0.00204987419557 0.00213805912902 -0.00011244665606)
(0.00171625854105 0.00228121362053 5.02748834791e-05)
(0.00131362627584 0.0023859456793 0.000126228766603)
(0.00087425651988 0.0024437157705 0.00012199546305)
(0.000431783885328 0.00245301734578 4.49840720546e-05)
(1.5331951913e-05 0.00241846087882 -9.93507124668e-05)
(-0.000345847255625 0.00235022858785 -0.000305844492203)
(-0.000626309007634 0.00226235753428 -0.000569563895807)
(-0.000810768853138 0.00216955340003 -0.000877778322587)
(-0.000890206064202 0.00208992050475 -0.00119715784487)
(-0.0008681745298 0.00203691901398 -0.00145258847932)
(-0.000707904788206 0.00201624377839 -0.00145864759587)
(-0.000474077737283 0.00201582651247 -0.000785097272349)
(0.000840944393833 0.00187493108402 -0.000853633256717)
(0.00146121732058 0.00164019787189 -0.00164046722005)
(0.00197078258274 0.00156031571084 -0.00155633958913)
(0.0022874437207 0.00158777539267 -0.00114605853849)
(0.00246048405134 0.0016939828468 -0.000666249532862)
(0.0024899261236 0.00185355475611 -0.000216218393388)
(0.00238000215651 0.0020383847998 0.00015976516556)
(0.00214233410981 0.00222347962019 0.000444854404319)
(0.00179878996304 0.00238616887338 0.00063285357646)
(0.00138052495128 0.00250718222675 0.000725103254084)
(0.000921419317427 0.00257607693893 0.000728363630907)
(0.000456179228558 0.00259113105055 0.000649906398777)
(1.68146812084e-05 0.00255854563605 0.000494150794704)
(-0.000366605972204 0.00249240112398 0.000263887913819)
(-0.000669579280759 0.0024082783637 -3.67685214632e-05)
(-0.000874643892793 0.00232441702359 -0.000395950893129)
(-0.000969720565818 0.00226123440266 -0.00077970983735)
(-0.000954103807804 0.00223615622621 -0.00110869615988)
(-0.00078613883318 0.00226305011781 -0.00118714679474)
(-0.000525185189198 0.00234122186931 -0.000589450311956)
(0.000897351440784 0.00187309744031 -0.000679773018858)
(0.00156272483041 0.00160151267903 -0.0014102831737)
(0.00210184746317 0.00150171570938 -0.00127638804804)
(0.00243447693647 0.00151795189956 -0.000812196902811)
(0.00261512035949 0.00161818613609 -0.000278779217705)
(0.00264760144982 0.00177745737307 0.000221098886586)
(0.00253480670193 0.00196630614208 0.000640934496715)
(0.00228555544136 0.00215837605106 0.00096377309343)
(0.00192117981507 0.00232907921852 0.0011814687659)
(0.00147353353057 0.00245828984531 0.00129339431644)
(0.000979342328467 0.00253434583938 0.00130551363197)
(0.000476717213391 0.00255551760485 0.00122547263604)
(1.4412797507e-06 0.00252906793577 0.00105806996723)
(-0.000414209945258 0.00246965406953 0.000806062916125)
(-0.00074343454388 0.00239449608179 0.000473768388614)
(-0.000966757126112 0.00232330230658 7.25671245012e-05)
(-0.00107227956206 0.0022773935528 -0.000362987177192)
(-0.00105361914304 0.00227466931266 -0.000750372417427)
(-0.000865085031878 0.00233154453148 -0.000888076126089)
(-0.000564959858065 0.00245027350351 -0.000371705862533)
(0.000940279330833 0.00169545117835 -0.000530770242504)
(0.00166076519243 0.00142705004797 -0.00121243793607)
(0.00223865995589 0.0013262598123 -0.00104368801512)
(0.00259603526068 0.00133720153882 -0.000539839860027)