/*--------------------------------*- C++ -*----------------------------------*\
| =========                 |                                                 |
| \\      /  F ield         | OpenFOAM: The Open Source CFD Toolbox           |
|  \\    /   O peration     | Version:  3.0.1                                 |
|   \\  /    A nd           | Web:      www.OpenFOAM.org                      |
|    \\/     M anipulation  |                                                 |
\*---------------------------------------------------------------------------*/
FoamFile
{
    version     2.0;
    format      ascii;
    class       volVectorField;
    location    "4.2";
    object      U;
}
// * * * * * * * * * * * * * * * * * * * * * * * * * * * * * * * * * * * * * //

dimensions      [0 1 -1 0 0 0 0];

internalField   nonuniform List<vector> 
7968
(
(0.000618498591444 0.00060986322914 -0.00115640882365)
(0.00220157012706 0.000177301242341 -0.00121232534093)
(0.00441476974379 1.23387288164e-05 -0.00112395201404)
(0.00622111024643 7.40023234691e-05 -0.000933363943374)
(0.00738703040873 0.000342700322439 -0.000749902218461)
(0.00758830325044 0.000747423293177 -0.000600309778388)
(0.00696371914821 0.00110018419901 -0.000507606065386)
(0.00554266576506 0.00145252902181 -0.000444386981236)
(0.00355808325982 0.0017019298331 -0.000419995948854)
(0.00125959903318 0.00182802386372 -0.00041481312494)
(-0.00114272203104 0.00182923190728 -0.000414006342245)
(-0.00344987872486 0.00170497972204 -0.000417376564154)
(-0.00544890223326 0.00145591328664 -0.000440191039673)
(-0.00688689620265 0.00110267509839 -0.000502481252605)
(-0.00752689602469 0.000748953028403 -0.000595378608482)
(-0.00733954072678 0.000344168481504 -0.000746839355526)
(-0.00618274185965 7.71012354712e-05 -0.000933032020437)
(-0.00438410341695 1.85411936809e-05 -0.0011263597574)
(-0.00217716132625 0.00018771522306 -0.00121660274898)
(-0.000607217559485 0.000627281662166 -0.00116074901346)
(0.000183696384932 0.00218293972969 -0.001215812125)
(0.00184226526988 0.00182943599103 -0.00271053664504)
(0.00454374240079 0.00196998394058 -0.00327234595316)
(0.00667651259351 0.00259546823241 -0.00335964052868)
(0.00798885181584 0.00360610716049 -0.00331419191489)
(0.00825524921902 0.00477439675081 -0.00323146375393)
(0.00752357671336 0.00585393954149 -0.00316566828991)
(0.00595645369682 0.0067539242222 -0.00313332007881)
(0.00380583847527 0.0073776358148 -0.00313815139908)
(0.00134132187841 0.00769227663135 -0.00315408885003)
(-0.00122406705613 0.00769699991488 -0.00315372259138)
(-0.00369926595935 0.00739032677332 -0.00313680863289)
(-0.00586784225309 0.0067707078565 -0.0031317366347)
(-0.00745519208009 0.0058709374614 -0.00316518535117)
(-0.0082043868242 0.004791415099 -0.00323385912918)
(-0.00795148423708 0.00362444938268 -0.00332217640056)
(-0.00664693646357 0.00261772025705 -0.00337224299721)
(-0.00451828531964 0.00199865393407 -0.00328953994512)
(-0.00181586603305 0.00186504804453 -0.00272528323634)
(-0.000167997550516 0.00222608692291 -0.00121467761483)
(1.96192183831e-05 0.00439864335979 -0.00113611548459)
(0.0019817742444 0.00453421918381 -0.00327563213801)
(0.00522443312037 0.00521856863321 -0.0039816807626)
(0.00773921528507 0.00653919366555 -0.00395507320864)
(0.00923013722548 0.00831784000365 -0.00370799153173)
(0.00948796364768 0.0102552786492 -0.00342603258429)
(0.0085781906904 0.0120348782822 -0.00320270901396)
(0.00673630832139 0.0134858178388 -0.0030773968204)
(0.00427576673673 0.0144905160414 -0.00304385980856)
(0.00150084650814 0.0149997298068 -0.00305049578485)
(-0.00137102079387 0.0150085295205 -0.00304869443875)
(-0.00416071891298 0.0145142046296 -0.00303874531399)
(-0.00664521255608 0.0135173245207 -0.00307120107448)
(-0.0085115158836 0.0120673095778 -0.00319844508906)
(-0.00943982604483 0.0102879362603 -0.00342595442253)
(-0.00919400256972 0.00835365791569 -0.00371388002333)
(-0.0077095467612 0.00658189774023 -0.00396698404511)
(-0.00519764304095 0.00527024868741 -0.00399734139368)
(-0.00195248065968 0.00459373588929 -0.00328755396247)
(-9.92233817459e-07 0.00446198017287 -0.00112861497289)
(8.06958110447e-05 0.00621235990249 -0.000943866395868)
(0.00260599734538 0.00667470972799 -0.00336547680591)
(0.00654352388545 0.00774153924361 -0.00395604170089)
(0.00956146617832 0.00956678201856 -0.00359139058767)
(0.0112783555901 0.0119042411782 -0.00293022280916)
(0.0114743462066 0.0143923947608 -0.00224631370439)
(0.0102712134105 0.0166642860506 -0.00169172464407)
(0.00798931850515 0.0185023628371 -0.00134342273907)
(0.00502938239153 0.0197667327246 -0.00119237031674)
(0.0017563870192 0.0204056708711 -0.00115577372765)
(-0.00160566245857 0.0204176887693 -0.00115091266204)
(-0.00489992963714 0.0197990188759 -0.00117929134318)
(-0.0078934415457 0.0185437850168 -0.00132703913329)
(-0.0102056874489 0.0167042446701 -0.00167888372731)
(-0.0114267611663 0.0144300897863 -0.00223943162638)
(-0.0112391069698 0.0119451278501 -0.00292875218479)
(-0.00952614870585 0.00961713629729 -0.00359467262733)
(-0.00651061255891 0.00780335103651 -0.003963046702)
(-0.00257089909997 0.00674544337643 -0.00336812261159)
(-5.8427848274e-05 0.00628519542416 -0.000926635762898)
(0.000350637111463 0.0073853477986 -0.000761181769479)
(0.00361812857494 0.0079951255461 -0.00331620272595)
(0.00832329680716 0.0092422794247 -0.00370795665776)
(0.0118992949024 0.0112963264735 -0.0029280905805)
(0.0138577182406 0.0138791535576 -0.00175366307899)
(0.0139625144021 0.0166072566489 -0.000555508244938)
(0.012395582882 0.0190787689902 0.000428502353122)
(0.00957488490923 0.0210727971038 0.00108933941392)
(0.00599524941087 0.0224485917555 0.00142378543497)
(0.00208753111353 0.0231463480114 0.00154287595143)
(-0.00190994269997 0.0231602252452 0.00155219495233)
(-0.00584889090245 0.0224855717417 0.00144880892694)
(-0.00947653675755 0.0211175902455 0.00111795344966)
(-0.0123352500034 0.0191163857139 0.000448562978211)
(-0.0139176659845 0.0166386361819 -0.00054602754221)
(-0.0138137138244 0.0139117634583 -0.00174912490488)
(-0.0118544628685 0.0113399647896 -0.00292463757898)
(-0.00828105524967 0.00929962134087 -0.00370512852626)
(-0.00357644169673 0.00806239459364 -0.00330787468352)
(-0.000325502389432 0.00745544850186 -0.000735118221704)
(0.000757362026432 0.00759287317908 -0.000611870700038)
(0.00479059152042 0.00826806524872 -0.00323542407975)
(0.0102667909719 0.00950811765942 -0.00342426436473)
(0.0143939917552 0.0115028309507 -0.00223918283405)
(0.0165891945032 0.0139984478062 -0.000546450812327)
(0.0165470265395 0.0165839447738 0.00115605220011)
(0.0145862957858 0.0188952683599 0.00254198978321)
(0.0111989764231 0.0207609061341 0.00347286537179)
(0.00697289936677 0.0220433445283 0.00394448745781)
(0.0024187607574 0.0226902922624 0.00411072358944)
(-0.00221495969439 0.0227045290188 0.00412455725809)
(-0.00681180900775 0.0220814961891 0.00398170784869)
(-0.0111039598783 0.0208058731242 0.00351176312766)
(-0.0145366118281 0.0189263993051 0.00256092963974)
(-0.0165067234298 0.0166048580011 0.00115900399833)
(-0.0165395642362 0.0140179197711 -0.000548578995782)
(-0.0143367144893 0.0115326485703 -0.00223612036625)
(-0.0102128332025 0.00955187999658 -0.00341652183978)
(-0.00474101524468 0.00832187916971 -0.00322214082224)
(-0.000728554242145 0.00765015848331 -0.000580093093536)
(0.00111052700082 0.00697163739918 -0.000519423968085)
(0.0058744386156 0.00753946538566 -0.0031689794094)
(0.0120534322186 0.00860020592594 -0.00319758137154)
(0.0166746253431 0.01030044402 -0.00167652493254)
(0.0190668554544 0.0124319857807 0.000451310182103)
(0.0188606955874 0.0146261507095 0.00255872792264)
(0.0165422265754 0.0165830546076 0.00423955193769)
(0.0126348475467 0.0181862014582 0.00537424650995)
(0.00782451309412 0.0192937314162 0.00594885641135)
(0.00270447445185 0.0198466509912 0.00615029860839)
(-0.0024772369643 0.0198591898376 0.00616812212778)
(-0.00765101115206 0.019327580389 0.00599670109956)
(-0.0125478076299 0.018228189047 0.0054209969235)
(-0.0165074980088 0.0166106328979 0.00425021623951)
(-0.0188268834424 0.014641445542 0.00254963832103)
(-0.0190132792546 0.0124440453994 0.000438093632382)
(-0.0166058147313 0.0103200826925 -0.0016791628308)
(-0.0119881596097 0.00863118260727 -0.00318941525609)
(-0.00581760684549 0.00757977851317 -0.00315119510303)
(-0.00108035676771 0.00701658174489 -0.000485583727909)
(0.00146410997642 0.00555116811628 -0.000455810682638)
(0.00677668747291 0.00597076760032 -0.00313524030468)
(0.0135085494578 0.00675282762924 -0.00306969633287)
(0.0185185940967 0.00800746255548 -0.00132247872497)
(0.0210667482512 0.00959488870342 0.0011223940378)
(0.0207305284624 0.0112185651277 0.00350617396121)
(0.0181462677391 0.0126521041243 0.0053954086593)
(0.0138108422636 0.0138260061335 0.00670705685998)
(0.00853665361469 0.0146690755339 0.00724695255279)
(0.00294859035991 0.0151148090373 0.00732640167749)
(-0.00270341708575 0.0151253334294 0.00734199736016)
(-0.00835248571887 0.0146977570831 0.00728609918476)
(-0.0137259272471 0.0138595666203 0.00676148437562)
(-0.0181241626253 0.0126785294141 0.00540220554657)
(-0.0207036072552 0.0112331348417 0.00348718265203)
(-0.0210113315648 0.00960595025397 0.00110018927202)
(-0.0184427885973 0.00802309259688 -0.00133038827433)
(-0.013436682687 0.00677507878546 -0.0030631404811)
(-0.00671611307317 0.00599919409674 -0.00311744174816)
(-0.00143293047002 0.00558399350482 -0.00042183209858)
(0.00171373584165 0.00356475484597 -0.000430995940262)
(0.00739957964746 0.00381589309207 -0.00313903872431)
(0.0145121519708 0.00428368974648 -0.00303580769082)
(0.0197817424908 0.0050321221093 -0.0011717720617)
(0.0224406491391 0.00599220680192 0.00145664571703)
(0.0220087021283 0.00696131480456 0.0039769942195)
(0.0192484108224 0.00780438850631 0.00596668722217)
(0.0146525079995 0.00851209513412 0.0072431471053)
(0.00906322067313 0.00903808648845 0.0076147540511)
(0.00311985370075 0.00929510924351 0.00775391173119)
(-0.00286180146886 0.00930111752711 0.00777125817805)
(-0.00886750838269 0.00905406998759 0.00765934648864)
(-0.0145685265506 0.00853666436257 0.00728559706305)
(-0.0192310060782 0.00782620991495 0.00597740248908)
(-0.0219854846333 0.00697659402946 0.00395624878713)
(-0.0223841930646 0.00600455060316 0.00143201479475)
(-0.019703132029 0.00504678884542 -0.0011813163759)
(-0.0144378347206 0.00430092391574 -0.00303026625888)
(-0.00733773046503 0.0038365092754 -0.00312243802444)
(-0.00168227254271 0.00358873741498 -0.000397748041009)
(0.00183915854722 0.00126425658767 -0.000425384274277)
(0.00771104934127 0.00134771308755 -0.00315435853516)
(0.0150162547663 0.00150273526634 -0.00304351749141)
(0.0204136813247 0.00175005740114 -0.0011383892331)
(0.0231301678155 0.00207139598401 0.00156748994348)
(0.022647018952 0.00239168055429 0.00412895808815)
(0.0197950981955 0.00266827625762 0.00615030402241)
(0.0150969360102 0.00290762103337 0.00730905530553)
(0.00932233133226 0.00307730865393 0.0077437458498)
(0.00320650719111 0.00316292721134 0.00790786498606)
(-0.00294027504649 0.00316494505826 0.00792415356939)
(-0.00911823913266 0.00308436453846 0.00778924703375)
(-0.0150066791307 0.00291826803979 0.00735774281727)
(-0.0197768472525 0.00267992939544 0.00616690480782)
(-0.0226241927255 0.00240257270044 0.00411264588418)
(-0.0230734987176 0.00208163111351 0.00154451281359)
(-0.0203345412919 0.0017619409151 -0.00114809301712)
(-0.0149414603697 0.00151599220983 -0.00303796721261)
(-0.00764909854894 0.00136294574161 -0.00313827932745)
(-0.00180776905201 0.00128139870102 -0.000392665427453)
(0.00183973058952 -0.00113847962504 -0.000424577159076)
(0.00771268135911 -0.00121858979761 -0.00315387405892)
(0.0150198290174 -0.00136970258569 -0.00304328848463)
(0.020418558285 -0.00161067338176 -0.00113804260142)
(0.0231357714634 -0.00192298617851 0.00156813958088)
(0.0226526249622 -0.002234161248 0.00412950376968)
(0.019800652797 -0.00250219620024 0.00615122686766)
(0.015102291718 -0.00273369005982 0.00730964486237)
(0.00932633622225 -0.00289738056053 0.00774596613277)
(0.00320852318384 -0.00297866620569 0.00791109802388)
(-0.00294073933687 -0.00297867758292 0.007927518863)
(-0.00912090369479 -0.00289921686098 0.00779186655856)
(-0.0150109988788 -0.00273706541178 0.0073585954099)
(-0.0197813062132 -0.00250448101491 0.00616820144692)
(-0.0226287498819 -0.00223312060055 0.00411361661199)
(-0.0230780108622 -0.00191834506257 0.00154551582032)
(-0.0203383808605 -0.00160401631046 -0.00114710980601)
(-0.0149442670397 -0.00136109550196 -0.00303686848993)
(-0.00765038508606 -0.00120876504302 -0.00313691532631)
(-0.00180831256551 -0.00112804555027 -0.000391475591902)
(0.00171548260356 -0.00344394240776 -0.000428456874567)
(0.00740467237284 -0.00369174281449 -0.00313732838021)
(0.0145231043742 -0.00415523695979 -0.00303479032972)
(0.0197967348553 -0.00489644100922 -0.00117038884351)
(0.0224578472903 -0.00584673150149 0.00145931365476)
(0.0220255991098 -0.00680556407682 0.00397994344515)
(0.0192646260579 -0.00763939268632 0.0059702719427)
(0.0146677613089 -0.00833999198024 0.00724369766102)
(0.00907378091803 -0.00886060940588 0.00761853454421)
(0.00312556718829 -0.0091144817788 0.00775976298676)
(-0.00286204145711 -0.00911893239593 0.00777816711911)
(-0.00887455833516 -0.00887268775912 0.00766477362448)
(-0.0145812240729 -0.00835878807585 0.00728671585761)
(-0.0192442237375 -0.00765314450715 0.00598164961762)
(-0.021999213362 -0.00681017991753 0.00395996176737)
(-0.022398076717 -0.00584528492145 0.0014356751921)
(-0.0197151867417 -0.00489395419999 -0.0011781419803)
(-0.0144466877003 -0.00415227573407 -0.00302700058215)
(-0.00734191320907 -0.00368908064661 -0.00311852518019)
(-0.00168398521406 -0.00344176851158 -0.000394240750211)
(0.00146717572703 -0.00544066290329 -0.000451592972255)
(0.00678584533282 -0.00585733453188 -0.00313232509624)
(0.0135275660982 -0.00663465476095 -0.00306745639458)
(0.0185446275178 -0.00788105869058 -0.001318788686)
(0.0210964847582 -0.0094578320001 0.00112902494194)
(0.020759444673 -0.0110699064674 0.00351482111207)
(0.0181732489002 -0.0124925215464 0.00540553418123)
(0.0138328567533 -0.0136576100196 0.00672032994211)
(0.00855339535894 -0.0144981017647 0.0072512961538)
(0.00295656058462 -0.0149397936961 0.00733330394966)
(-0.00270417683229 -0.0149494857961 0.00734954171887)
(-0.00836377285567 -0.0145240249672 0.00729103377197)
(-0.0137430389473 -0.0136860761232 0.00677473957806)
(-0.0181458850881 -0.0125115415732 0.00541212951245)
(-0.0207269958397 -0.0110746141025 0.00349612917521)
(-0.0210355888885 -0.00945638006121 0.00110807586004)
(-0.0184642981718 -0.00788150874188 -0.00132426377571)
(-0.0134525913735 -0.00663913064836 -0.00305791904404)
(-0.00672401232336 -0.00586507716589 -0.00311161082518)
(-0.0014360423954 -0.00544957028241 -0.000416294460574)
(0.00111494060564 -0.00687705777275 -0.000513995852093)
(0.00588783554365 -0.00744244077431 -0.00316572313143)
(0.0120807334983 -0.00849841209269 -0.00319447189312)
(0.0167120883873 -0.0101903360243 -0.00167032697638)
(0.0191096187702 -0.0123114808373 0.000462639966649)
(0.0189025707379 -0.0144944486432 0.00257465837963)
(0.0165800988644 -0.0164405877896 0.00425935404889)
(0.0126652276859 -0.0180355798567 0.0053976085857)
(0.00784471918684 -0.0191371134201 0.00597449057219)
(0.00271417824116 -0.019686261744 0.00617649921737)
(-0.00247780166076 -0.0196978287106 0.00619474574712)
(-0.00766336401441 -0.0191676353354 0.00602269475276)
(-0.0125709548128 -0.0180717143243 0.00544416688256)
(-0.0165380471243 -0.0164602127174 0.0042698369702)
(-0.0188614462608 -0.0144999960685 0.0025662080988)
(-0.0190492362422 -0.0123120755408 0.000451002389259)
(-0.016637797126 -0.0101967333539 -0.00167025735321)
(-0.0120117558422 -0.00851414938663 -0.00318298801063)
(-0.00582962221898 -0.00746495432592 -0.00314453951831)
(-0.00108505441256 -0.00690087923076 -0.000478673329544)
(0.00076124522555 -0.00751603639187 -0.000606594933075)
(0.00480879049655 -0.00819019289496 -0.00323347741537)
(0.0103025163327 -0.00942685767866 -0.00342155204791)
(0.0144425966681 -0.0114144932735 -0.00223180748498)
(0.0166444676661 -0.0139014801417 -0.00053205396579)
(0.0166007563551 -0.0164773852595 0.00117714139792)
(0.0146339418857 -0.0187794974513 0.00256763013432)
(0.0112366069917 -0.020638380345 0.00350194919717)
(0.0069979384323 -0.0219165300153 0.00397512557448)
(0.0024309953214 -0.0225607182394 0.00414152323802)
(-0.00221538541073 -0.0225739978682 0.00415575322487)
(-0.00682613100204 -0.0219513315972 0.00401309882804)
(-0.0111318827432 -0.0206773685992 0.00354153633243)
(-0.0145752131254 -0.0188026023024 0.00258736229585)
(-0.016551988412 -0.0164889103736 0.00118135277093)
(-0.0165874034016 -0.0139106558699 -0.000532178296267)
(-0.0143795719326 -0.0114330236867 -0.00222572314767)
(-0.0102448960247 -0.00945806956307 -0.00341005813364)
(-0.00475816558017 -0.00822953343647 -0.00321577519391)
(-0.000732737536416 -0.00755522115365 -0.000573418537837)
(0.000357040329316 -0.00732895458222 -0.000756571362342)
(0.00364078498391 -0.0079389101002 -0.00331623821008)
(0.00836602647557 -0.00918358126629 -0.00370720663273)
(0.011956893698 -0.0112325615782 -0.00292171132698)
(0.0139224453658 -0.0138093431217 -0.00173932288066)
(0.0140264268687 -0.0165313447904 -0.00053398882342)
(0.0124524089866 -0.018995858911 0.000456348860836)
(0.00962044493263 -0.0209848936262 0.00112181467657)
(0.00602645603012 -0.0223571925215 0.00145925925595)
(0.00210302533065 -0.0230525751858 0.00158013548604)
(-0.00191071112848 -0.0230654625234 0.00158975396106)
(-0.0058661573637 -0.0223909182829 0.00148519731825)
(-0.00950949285508 -0.0210240410404 0.00115200473808)
(-0.0123809867101 -0.0190260428718 0.000478398684015)
(-0.0139720282817 -0.0165543314423 -0.000521986229203)
(-0.0138707943652 -0.0138331978593 -0.00173193000337)
(-0.011906674688 -0.011267126031 -0.00291486701501)
(-0.00832094172966 -0.00923131575993 -0.00370040602464)
(-0.00359884461 -0.00799534811995 -0.00330468223487)
(-0.000332704886273 -0.00738434541496 -0.000729107457648)
(8.73373956694e-05 -0.0061738621166 -0.000941166299318)
(0.00263077417452 -0.00663703883042 -0.00336888138907)
(0.0065900066384 -0.00770257740404 -0.00395887864758)
(0.00962384363123 -0.00952492312837 -0.00358831408482)
(0.0113479892565 -0.0118591262828 -0.00291928727848)
(0.0115424565507 -0.014343781432 -0.00222854954575)
(0.0103315451197 -0.0166121605036 -0.00166859390643)
(0.00803727319833 -0.0184476825402 -0.00131670425958)
(0.00506224149131 -0.0197100216681 -0.00116394013266)
(0.0017734520192 -0.0203472472201 -0.0011251958573)
(-0.00160445460448 -0.0203582898173 -0.00111980182309)
(-0.00491537965428 -0.019739413526 -0.0011492780725)
(-0.00792584064928 -0.0184844140008 -0.00129770014774)
(-0.0102528617223 -0.0166461153665 -0.00165262048341)
(-0.0114840804685 -0.0143749077308 -0.00221833412133)
(-0.0113006188327 -0.011893371724 -0.00291399588461)
(-0.00958338171969 -0.00956884697003 -0.00358740561246)
(-0.00655485940325 -0.00775797020337 -0.00396164247741)
(-0.00259595728716 -0.00670035546513 -0.00336816403732)
(-6.60544757571e-05 -0.00623586047458 -0.000922301401714)
(2.66576103144e-05 -0.00437557017137 -0.00113440104912)
(0.00200752352929 -0.00451097273278 -0.00328242686302)
(0.00527258252446 -0.00519460495853 -0.0039881894596)
(0.00780359057963 -0.00651383970282 -0.00395599763004)
(0.00930191855451 -0.00829105160572 -0.00370172837242)
(0.00955828479914 -0.0102268634797 -0.0034135990789)
(0.00864073987954 -0.0120042289995 -0.0031857216181)
(0.00678673212035 -0.0134534777451 -0.00305740774761)
(0.00431134201928 -0.0144566035063 -0.00302193088629)
(0.00152017425532 -0.0149644740707 -0.00302721265458)
(-0.00136868047041 -0.0149725581405 -0.00302478160306)
(-0.00417569486412 -0.014478257677 -0.00301494427092)
(-0.00667720309869 -0.013481793605 -0.0030481455625)
(-0.00855854352901 -0.0120326755452 -0.00317775872371)
(-0.00949762996596 -0.0102552885762 -0.00340948782539)
(-0.00925686244289 -0.00832291333112 -0.00370280902583)
(-0.00776873156756 -0.00655326423049 -0.00396313838715)
(-0.00524388384911 -0.00524320188753 -0.00400012831297)
(-0.00197882546027 -0.00456691968536 -0.00329127226424)
(-9.35998966102e-06 -0.00443250313408 -0.00112549632256)
(0.000191404206936 -0.00217158796972 -0.00121825775018)
(0.00186834531464 -0.00181602633658 -0.00271848517554)
(0.00459141614421 -0.00195574781052 -0.00328014923376)
(0.00674028944166 -0.00258088509153 -0.00336276696116)
(0.00806030599084 -0.00359152002444 -0.00331088491881)
(0.00832518487176 -0.00475952616461 -0.00322281616998)
(0.00758629547484 -0.00583794945371 -0.00315327936345)
(0.00600759321565 -0.00673733711795 -0.00311817001297)
(0.00384259750944 -0.00736034742847 -0.00312109207818)
(0.00136214997865 -0.00767431799597 -0.0031358207407)
(-0.0012200702227 -0.00767874738849 -0.00313488031022)
(-0.0037123451018 -0.00737211796188 -0.00311807066744)
(-0.00589759019597 -0.00675273318461 -0.00311381468494)
(-0.00749969252158 -0.00585331555131 -0.00314943666076)
(-0.00825934524253 -0.00477500087317 -0.00322151210842)
(-0.00801240006123 -0.00360887929429 -0.00331368925609)
(-0.00670443403086 -0.00260256547239 -0.00337203686605)
(-0.00456333070612 -0.00198382015356 -0.00329400167964)
(-0.00184236733917 -0.00185068199547 -0.00273087393478)
(-0.000177217148118 -0.00221105303747 -0.00121609735581)
(0.000625843939146 -0.000604888260294 -0.0011603004573)
(0.00222616618885 -0.000170789764307 -0.00121759766091)
(0.0044590724337 -5.48222183945e-06 -0.00112790827414)
(0.00627993166165 -6.73461610546e-05 -0.000934456980611)
(0.00745363588299 -0.000336401936746 -0.000747154535923)
(0.00765352823371 -0.000741496097742 -0.000593955926277)
(0.00702342940291 -0.00109402164687 -0.000499141577689)
(0.00559209777577 -0.00144674205672 -0.000434163584757)
(0.00359443447007 -0.00169637371385 -0.000408679581175)
(0.00128116026403 -0.0018224861251 -0.000402840172148)
(-0.00113680521782 -0.00182368575939 -0.000401732904878)
(-0.00345961290014 -0.00169925370268 -0.000405247810682)
(-0.00547364478578 -0.0014499007564 -0.000428595039752)
(-0.00692481217795 -0.00109640758199 -0.000492251831399)
(-0.00757349513389 -0.000742783223947 -0.000587090432029)
(-0.00739155435317 -0.000338388450627 -0.000741877063728)
(-0.00623120670495 -7.08599065687e-05 -0.000932048347602)
(-0.00442235179672 -1.22681497817e-05 -0.00112823071683)
(-0.00219902300929 -0.000181762796694 -0.00121966662956)
(-0.000614570088641 -0.0006214799407 -0.00116062697397)
(0.00113830411543 0.00112865351294 -0.00443445583428)
(0.00324150182208 0.00147592356038 -0.00486528831367)
(0.00551182618429 0.00186738276855 -0.00495469564718)
(0.00728719840718 0.00242264406971 -0.00480189311418)
(0.00833333233166 0.00308279916725 -0.00459431657556)
(0.00841676093494 0.00376268113914 -0.00440872550569)
(0.00762396017502 0.00433156897678 -0.00427266440743)
(0.00602902331585 0.00481595471517 -0.00419836660655)
(0.00385415723846 0.0051494250082 -0.00419287089717)
(0.0013598213554 0.00531712002449 -0.00421145858441)
(-0.00123840420738 0.005319891699 -0.00420982447571)
(-0.00374245574568 0.00515710791741 -0.00418765591296)
(-0.00593407505843 0.00482658375795 -0.00419037614317)
(-0.0075488973825 0.00434326179481 -0.00426376410886)
(-0.00835993116267 0.0037754384294 -0.00440207179871)
(-0.00829366515163 0.00309817311851 -0.00459381735483)
(-0.00725999920656 0.00244048366145 -0.00481014381095)
(-0.00549320302861 0.00188823152492 -0.00497173015304)
(-0.00322791070686 0.00149915551706 -0.00488659796324)
(-0.00113210815359 0.00115384868751 -0.00445474768926)
(0.0014781526232 0.00322460717598 -0.00487192378245)
(0.00368620477007 0.00367928931643 -0.00674557753095)
(0.00588211869261 0.00437619957989 -0.00731967681336)
(0.00754835356242 0.00543896110811 -0.00727160279678)
(0.00846072626246 0.00673163141285 -0.00698548098326)
(0.00848308607193 0.00806979970643 -0.0066356749894)
(0.00762458041367 0.00927782549844 -0.00633571538228)
(0.00600470443455 0.0102623419082 -0.00614008757816)
(0.0038358934106 0.010945370103 -0.00605784358384)
(0.00135577003665 0.0112936531414 -0.00604141459743)
(-0.00122735787983 0.0113009901047 -0.00603956041899)
(-0.00371894978936 0.010965535625 -0.00605241598143)
(-0.00590757558987 0.0102904997178 -0.00613299604731)
(-0.00755027074288 0.00930920951391 -0.00633005764106)
(-0.00842989235014 0.00810379745074 -0.00663529785152)
(-0.00842592275166 0.00677014954684 -0.00699412484602)
(-0.00752813851086 0.00548348039277 -0.00729044144321)
(-0.00587215250588 0.00442698800096 -0.00734789777301)
(-0.00368032004104 0.00373505882258 -0.00677426699432)
(-0.00147725099945 0.00328297283813 -0.0048805210038)
(0.00186640392834 0.00549661943337 -0.00497299794747)
(0.00437845785205 0.00587677685317 -0.00732591693922)
(0.0067599214206 0.00675969447024 -0.0078459760026)
(0.00849226387547 0.00815455502846 -0.00744857807341)
(0.00937227164467 0.00986373426043 -0.00667540697104)
(0.00929252749047 0.0116473252395 -0.00581896075617)
(0.00827178403298 0.0132773701265 -0.00508168404445)
(0.00646465529848 0.0146015561667 -0.00457413594366)
(0.00410952295937 0.0155206109612 -0.00430750198641)
(0.00145103113123 0.01599088791 -0.00420784838956)
(-0.00130724489713 0.0160021969118 -0.00420213648223)
(-0.00398105789792 0.0155514140084 -0.00429203347816)
(-0.00636177070643 0.0146438309943 -0.00455470945326)
(-0.00819593641893 0.013322868349 -0.00506481053084)
(-0.00923903255309 0.011694564162 -0.00580894109446)
(-0.00933645114883 0.00991580031473 -0.00667437424502)
(-0.00847124552466 0.00821481790601 -0.00745707266752)
(-0.00675039912114 0.00682866505173 -0.0078624651548)
(-0.00437337529934 0.00595248926341 -0.00734116695622)
(-0.00186643225617 0.00557559856409 -0.00496431664707)
(0.00242164588716 0.00727652424348 -0.00482251717254)
(0.00543982695788 0.00754662891858 -0.00728155885992)
(0.0081525517975 0.00849568257466 -0.00745164276242)
(0.0100485237753 0.0100549652495 -0.00642685027382)
(0.0109268875067 0.0119778485964 -0.00490237743731)
(0.0107011937827 0.0139845311366 -0.00330836520783)
(0.00942267815062 0.0158150242209 -0.00195491226414)
(0.00729665201758 0.0172922968228 -0.00101690750465)
(0.00460710476375 0.0183135749836 -0.000504410031249)
(0.00162233466656 0.0188366578911 -0.000296282415637)
(-0.00145756611035 0.0188509137189 -0.000284148034363)
(-0.00446365134672 0.0183523175747 -0.000472520336653)
(-0.00718787554469 0.0173434290755 -0.000978622434079)
(-0.00934688281344 0.015866343679 -0.00192280253748)
(-0.0106475592286 0.0140340722401 -0.00328651882384)
(-0.010887536966 0.0120305639238 -0.00488807753947)
(-0.0100219058067 0.0101172094077 -0.00641779400976)
(-0.00813811300242 0.00856896751978 -0.00744744891109)
(-0.00543109267906 0.00762844659991 -0.00727401786805)
(-0.00241980580597 0.00736197546423 -0.00478851287509)
(0.00308135705436 0.00833207700804 -0.00461760335449)
(0.00673288674082 0.00846569249249 -0.00699505395145)
(0.00986240108525 0.00938203217126 -0.00667801052305)
(0.0119712781197 0.010941205232 -0.00490014405281)
(0.0128553655665 0.0128724205727 -0.00250091561667)
(0.0124480686281 0.0148841011413 -5.76711051102e-05)
(0.010859636937 0.0167298830933 0.00198542237006)
(0.00834713121293 0.0182191151344 0.0033905369028)
(0.00524304552259 0.0192483966607 0.00416406045384)
(0.00184226114764 0.0197772532967 0.00448295667318)
(-0.00165427897493 0.0197937876502 0.00450296374577)
(-0.00508542872716 0.0192931629354 0.00421647418931)
(-0.00823762247055 0.018275250746 0.00344993110742)
(-0.0107903333726 0.0167799773872 0.0020280266074)
(-0.0123983925701 0.0149279421232 -3.48577839576e-05)
(-0.0128127402624 0.0129159063643 -0.00248520175621)
(-0.0119361571831 0.0109936954276 -0.0048805819603)
(-0.00983931483348 0.00944668032071 -0.00665555511251)
(-0.00671754871346 0.00853975914572 -0.00696532419547)
(-0.00307660520081 0.00840998160578 -0.00456008022164)
(0.00376388374995 0.00842435374581 -0.00443301512335)
(0.00807404858233 0.00849473481729 -0.00664514900443)
(0.0116503504122 0.00930819330984 -0.00581733510266)
(0.013982498221 0.0107225482561 -0.00329512374258)
(0.0148687852274 0.012474615519 -3.98963586088e-05)
(0.0142953225965 0.0143245246717 0.0031939748138)
(0.0124001951014 0.0160383396079 0.00585607909507)
(0.00948405401412 0.0174241895855 0.0076692509561)
(0.00593611193512 0.018383176714 0.00867055128573)
(0.00208190218302 0.0188773863636 0.00908530826819)
(-0.00187126607346 0.0188950234329 0.00911552406665)
(-0.00576712153987 0.0184308416762 0.00875027669361)
(-0.00938139565142 0.0174820764551 0.00775422701106)
(-0.0123449902008 0.0160816707616 0.00590102737108)
(-0.014254046269 0.0143590643716 0.00320433727011)
(-0.0148247760616 0.0125065586393 -4.04242820176e-05)
(-0.0139376828615 0.0107608194513 -0.00328005424441)
(-0.0116161040568 0.00935752139914 -0.00578697787474)
(-0.00805029322448 0.00855244679787 -0.00660227390141)
(-0.00375425883589 0.00848464121091 -0.00435995937229)
(0.00433376130326 0.00763585655632 -0.00429608783965)
(0.00928529063707 0.00763866073743 -0.00634254504412)
(0.0132861760239 0.00828798579015 -0.00507258796881)
(0.0158194197515 0.00944284695298 -0.00192478489327)
(0.016719411485 0.0108844593646 0.00202920014684)
(0.0160105870267 0.0124313772474 0.00588718724354)
(0.0138449914083 0.0138782579438 0.00904264946036)
(0.0105567085655 0.0150518234755 0.0111941730172)
(0.00659201280852 0.0158733916725 0.012378316822)
(0.00230929752508 0.0163017442775 0.0128701443593)
(-0.0020770200556 0.0163177639115 0.0129121622111)
(-0.00641313981637 0.0159169762293 0.0124910863189)
(-0.0104661731822 0.0151062389506 0.0113123057793)
(-0.0138078448879 0.0139160028881 0.00908420258355)
(-0.0159770475425 0.0124572743786 0.00588117459602)
(-0.0166747861364 0.0109082309309 0.00200706780995)
(-0.0157668294162 0.00946973737147 -0.00192397513428)
(-0.013241854474 0.00832272425221 -0.00504374363365)
(-0.00925428315436 0.00767955070734 -0.00629418593271)
(-0.00432091353847 0.00767954239456 -0.00421685853506)
(0.00481853534236 0.00604135175645 -0.00421980130094)
(0.0102711022185 0.00601645542805 -0.00614401381436)