/*--------------------------------*- C++ -*----------------------------------*\
| =========                 |                                                 |
| \\      /  F ield         | OpenFOAM: The Open Source CFD Toolbox           |
|  \\    /   O peration     | Version:  3.0.1                                 |
|   \\  /    A nd           | Web:      www.OpenFOAM.org                      |
|    \\/     M anipulation  |                                                 |
\*---------------------------------------------------------------------------*/
FoamFile
{
    version     2.0;
    format      ascii;
    class       volScalarField;
    location    "2.7";
    object      ddt0(epsilon);
}
// * * * * * * * * * * * * * * * * * * * * * * * * * * * * * * * * * * * * * //

dimensions      [0 2 -4 0 0 0 0];

internalField   nonuniform List<scalar> 
7968
(
-0.00175641840894
-0.00190070172916
-0.00199919708125
-0.00204578299812
-0.00206326234029
-0.00206778703227
-0.00206766498693
-0.00206648555618
-0.00206600740654
-0.00206515220553
-0.00206523128227
-0.00206572414196
-0.00206589357139
-0.0020669689244
-0.00206720081373
-0.0020629714692
-0.00204586294159
-0.00199956559282
-0.00190115496474
-0.0017566399807
-0.00190072432171
-0.00269744298433
-0.00323793727216
-0.00352886369916
-0.00366595467115
-0.00371917560272
-0.00373240054238
-0.00373055408569
-0.00372556115452
-0.00372208181786
-0.00372154092653
-0.00372372529847
-0.0037272893205
-0.00372813606593
-0.00371469961249
-0.00366225910564
-0.00352663495321
-0.0032373062861
-0.00269794834724
-0.00190117095227
-0.00199923605593
-0.00323791749393
-0.00412726563659
-0.00463949625899
-0.00490353406722
-0.00502081495496
-0.00506046182311
-0.00506600020974
-0.00506099483373
-0.00505648958395
-0.00505581802341
-0.00505889889785
-0.00506194677728
-0.00505454022873
-0.00501380170379
-0.00489679585355
-0.00463429133455
-0.0041243133451
-0.0032372093949
-0.00199963203491
-0.0020458776434
-0.00352939614841
-0.00464029485477
-0.00530980335691
-0.00567417087328
-0.00584823933799
-0.00591551820013
-0.00594018576665
-0.00594022464513
-0.00593689364192
-0.00593663578395
-0.00593914087471
-0.00593153538954
-0.00591101249618
-0.00584125740784
-0.00566591041137
-0.00530197537449
-0.00463453437837
-0.00352677981531
-0.00204600801158
-0.00206358658991
-0.00366795977341
-0.00490648332404
-0.00567657841394
-0.00611066237449
-0.00632781903913
-0.00642667860487
-0.00645609503046
-0.00645849342623
-0.00645544422074
-0.00645582462431
-0.0064593114727
-0.00645627385509
-0.00642497421416
-0.0063236659705
-0.00610298802845
-0.00566727819436
-0.00489820139358
-0.0036632858083
-0.00206334991808
-0.00206854003893
-0.00372352087333
-0.0050272066598
-0.00585457788407
-0.00633153150933
-0.00658355206014
-0.00669319020889
-0.0067276256
-0.00673052212624
-0.00672701300039
-0.00672799378588
-0.00673306008691
-0.00673055292089
-0.00669483785679
-0.00658170393028
-0.00632640582749
-0.00584516548767
-0.00501718499925
-0.00371709169452
-0.00206793664038
-0.00206894362612
-0.00373943959454
-0.00507084431529
-0.0059260110809
-0.00642923072665
-0.00669436195858
-0.00681046170844
-0.00684578177214
-0.00684711958489
-0.00684226420963
-0.00684366689341
-0.00685089596783
-0.0068506912489
-0.00681455487473
-0.00669526004987
-0.00642459361147
-0.00591779139499
-0.00506008123217
-0.00373188020532
-0.00206806160062
-0.00206823615863
-0.00373992524323
-0.00507963466333
-0.00594523099766
-0.00645987138234
-0.00673014779937
-0.00684713975194
-0.00688059035591
-0.00687924111531
-0.00687264071567
-0.00687428758143
-0.00688369745118
-0.00688667378364
-0.0068528311254
-0.00673270906251
-0.00645672857646
-0.00593907139664
-0.00506909154535
-0.00373190747632
-0.0020671500412
-0.0020674319756
-0.00373646567952
-0.00507676495445
-0.00594688192891
-0.0064635695427
-0.00673428663349
-0.00684983986434
-0.00688084008032
-0.00687711086392
-0.00686917579638
-0.00687102693605
-0.00688198960918
-0.00688763845761
-0.00685661441825
-0.00673803742278
-0.00646145504174
-0.00593792567104
-0.00506702163326
-0.00372854573313
-0.00206494075718
-0.0020663215159
-0.00373358317486
-0.00507273984489
-0.0059443107791
-0.0064611385516
-0.00673129225315
-0.00684573090845
-0.00687550694665
-0.00687091523761
-0.00686280199221
-0.00686476393816
-0.00687631340607
-0.00688331367709
-0.00685393478275
-0.00673658291306
-0.00646033368308
-0.00593641477703
-0.0050647460429
-0.00372672280516
-0.00206438925872
-0.00206652720285
-0.00373287599086
-0.00507151585208
-0.00594399300098
-0.00646114894623
-0.00673171110346
-0.00684674449408
-0.00687736695452
-0.00687385645015
-0.00686652781672
-0.0068685395174
-0.00688010696641
-0.00688704508188
-0.00685735931704
-0.00673946128819
-0.00646254118371
-0.00593798318937
-0.00506637655512
-0.00372795376259
-0.00206523162972
-0.00206728874097
-0.00373425840812
-0.0050732808172
-0.00594590751096
-0.00646357337233
-0.00673544127879
-0.00685267140061
-0.0068859497115
-0.00688476998919
-0.00687875081448
-0.00688135943242
-0.00689263845853
-0.00689813667019
-0.00686619516357
-0.00674600297976
-0.00646747603109
-0.00594238118399
-0.00507139434865
-0.00373139349275
-0.00206601910044
-0.00206794917332
-0.00373665677607
-0.00507459509561
-0.00594369792324
-0.00645962171592
-0.00673164674867
-0.00685110890436
-0.00688779718211
-0.00688981536515
-0.00688581874249
-0.00688900258642
-0.00689913765341
-0.00690182947879
-0.00686643842579
-0.00674374892844
-0.00646487897896
-0.00594814894938
-0.00507512401857
-0.0037355574781
-0.00206835055346
-0.00206870502996
-0.0037360595785
-0.00506526692182
-0.00592037895086
-0.00642803028905
-0.00669551199154
-0.00681444633483
-0.00685342534334
-0.00685847651339
-0.00685653792956
-0.0068598521073
-0.00686801079663
-0.00686735802051
-0.006829185214
-0.0067067531913
-0.00643314316946
-0.00592789252145
-0.00506697219874
-0.00373608982458
-0.00206937427263
-0.00206854333303
-0.00372103758016
-0.00502266194813
-0.00584938385507
-0.006328667296
-0.0065833701564
-0.00669593210274
-0.00673386608022
-0.00674030645882
-0.00673960130036
-0.00674245337381
-0.00674840663208
-0.00674531225994
-0.00670746703717
-0.00659154569455
-0.00634074278436
-0.00585541372102
-0.00502449551619
-0.00372176590891
-0.0020693476813
-0.0020638945305
-0.0036669608058
-0.00490388181165
-0.00567316088502
-0.00610847468665
-0.00632948820865
-0.00642703558715
-0.0064593065324
-0.00646458307881
-0.0064638325289
-0.00646575276997
-0.00646996682439
-0.00646646380545
-0.00643703958864
-0.00634102900457
-0.00611606585915
-0.00567697125859
-0.00490553972369
-0.00366814698889
-0.00206476099844
-0.00204640052359
-0.003529759349
-0.00463959516853
-0.00530829777999
-0.00567322768954
-0.00584989272052
-0.00592134644498
-0.00594146156253
-0.00594164815034
-0.00593984818528
-0.00594068480153
-0.00594626896864
-0.00594870596658
-0.00592802045583
-0.00585511186283
-0.0056765982601
-0.00531037037549
-0.00464112544885
-0.00353117213224
-0.00204722098348
-0.00199979939343
-0.00323903091987
-0.00412775503919
-0.00463933258412
-0.00490353092343
-0.00502223175161
-0.00506439905947
-0.0050727425008
-0.00507009460594
-0.00506710674379
-0.00506752235709
-0.00507140884495
-0.0050743276536
-0.00506582398821
-0.00502326144505
-0.00490454771879
-0.0046406324651
-0.00412926776034
-0.00324041208043
-0.0020004812305
-0.001901203535
-0.00269868113201
-0.00323893768007
-0.00352952057578
-0.00366666612731
-0.00372055634745
-0.00373495064885
-0.00373436482673
-0.00373036959828
-0.00372780063233
-0.00372782070236
-0.00373034022469
-0.00373402136816
-0.00373449569849
-0.0037203533135
-0.00366712439649
-0.00353062414382
-0.00324025418802
-0.00269972749235
-0.00190166546256
-0.00175661425889
-0.00190121164236
-0.00199983694048
-0.00204644832278
-0.0020639881095
-0.00206866034648
-0.00206874380905
-0.0020676991335
-0.00206538422858
-0.00206469976235
-0.00206511076788
-0.00206627505809
-0.00206785173923
-0.00206886869085
-0.00206893951321
-0.00206449792459
-0.00204709939788
-0.00200045753893
-0.00190167114907
-0.00175685882981
-0.00189965804647
-0.00269215283822
-0.00323082758241
-0.00352173811322
-0.00365998407118
-0.00371490785644
-0.00372998192277
-0.0037296615805
-0.00372465684827
-0.00372170869164
-0.00372130773725
-0.00372304706545
-0.00372679542523
-0.00372623294728
-0.00371079535047
-0.00365611055935
-0.00351859692983
-0.0032287378363
-0.00269133629538
-0.00189994031056
-0.00269280492146
-0.00185927492777
-0.002151302366
-0.00232481695306
-0.00241260195236
-0.00245000610077
-0.00246184392671
-0.00246305071194
-0.0024612635269
-0.00245971927226
-0.00245935098297
-0.0024602040744
-0.00246135998015
-0.00245962047239
-0.00244745621825
-0.0024100070062
-0.00232247038468
-0.00214951048551
-0.00185843171063
-0.00269240607075
-0.00323166492776
-0.00215169035508
-0.0024785167423
-0.00268647606708
-0.00279907898293
-0.00285144491732
-0.00287086316818
-0.00287516506703
-0.00287427132346
-0.00287296688391
-0.0028727435873
-0.0028736191942
-0.00287397044675
-0.0028690357397
-0.00284903354132
-0.00279627920193
-0.00268360713614
-0.00247602096137
-0.00215019647563
-0.00323005446925
-0.00352283735938
-0.00232553003649
-0.00268676815281
-0.0029262710606
-0.00306201389674
-0.00312893090027
-0.00315624956561
-0.00316485063676
-0.00316525488087
-0.00316424273542
-0.00316424011927
-0.00316518065531
-0.00316415349312
-0.00315536555608
-0.00312722694882
-0.00305948355882
-0.00292320118516
-0.00268372674125
-0.00232336167842
-0.00351977137243
-0.00366188033701
-0.00241380487745
-0.00279976312291
-0.00306231852779
-0.00321554006185
-0.0032941416696
-0.00332825713065
-0.00333898125705
-0.0033401673257
-0.00333933911161
-0.00333959293912
-0.00334085525025
-0.00333976221729
-0.00332862699779
-0.00329345970758
-0.00321375951022
-0.00305939379267
-0.00279636687881
-0.00241100357088
-0.00365731488896
-0.00371821507005
-0.00245192704539
-0.00285270333816
-0.00312960238097
-0.00329411460505
-0.00338036424119
-0.00341805048663
-0.00343006810091
-0.00343136406056
-0.00343042198297
-0.00343089413954
-0.0034327018636
-0.00343192936307
-0.00341979534186
-0.00338108046404
-0.00329330984773
-0.00312706838774
-0.00284911494312
-0.00244857479791
-0.00371226692103
-0.00373502934215
-0.00246460963124
-0.00287279540948
-0.00315717455215
-0.00332792797327
-0.00341763376155
-0.00345681460471
-0.00346885282768
-0.0034695681277
-0.00346818694906
-0.00346880016039
-0.00347134043928
-0.00347146179368
-0.00345956562453
-0.00341948075048
-0.00332783123154
-0.00315514492709
-0.00286914286883
-0.00246082972716
-0.00372799640575
-0.00373637389688
-0.00246659315463
-0.00287765983342
-0.0031651645097
-0.00333832433573
-0.00342919040095
-0.00346832256284
-0.00347955772707
-0.00347931217479
-0.00347731929412
-0.00347799223123
-0.00348128903017
-0.00348258101572
-0.0034716883097
-0.00343174918614
-0.00333887765026
-0.00316337800993
-0.00287403467882
-0.00246253589761
-0.00372866209206
-0.00373368180513
-0.00246538585595
-0.00287719190549
-0.00316565178165
-0.00333935204441
-0.00343015029309
-0.00346862905785
-0.00347891317307
-0.00347778143429
-0.00347526422107
-0.0034759685441
-0.0034798791497
-0.00348221112775
-0.00347242404629
-0.00343320069448
-0.00334033118592
-0.00316389270093
-0.00287366359306
-0.00246126722191
-0.00372753875394
-0.00373196982267
-0.00246412736209
-0.00287599323851
-0.00316468112381
-0.00333841143647
-0.00342895737665
-0.00346696576369
-0.00347670849621
-0.00347513548426
-0.00347240350076
-0.00347318590255
-0.00347748531108
-0.00348044176374
-0.0034713246194
-0.00343258564999
-0.00333987282989
-0.0031632716004
-0.00287278252403
-0.00246017442909
-0.00372577491592
-0.00373177342134
-0.00246376645782
-0.00287573723622
-0.00316464013885
-0.00333851435932
-0.00342917297507
-0.00346730335807
-0.00347719908977
-0.00347581372874
-0.00347327677735
-0.00347423452198
-0.00347867824357
-0.00348169888882
-0.00347252450903
-0.00343361204259
-0.00334064832013
-0.00316378772349
-0.00287314481568
-0.00246037222337
-0.00372706317985
-0.00373255585167
-0.00246437134861
-0.00287646298374
-0.00316550388128
-0.0033396150707
-0.00343073207498
-0.00346955733241
-0.00348028084612
-0.00347967241076
-0.00347770447876
-0.00347892013824
-0.00348323678317
-0.00348573588171
-0.0034757689312
-0.00343602938782
-0.00334244109358
-0.00316531436565
-0.00287464124471
-0.00246177381035
-0.00372988521333
-0.00373438319994
-0.00246512291951
-0.00287654021521
-0.00316479842531
-0.00333853772939
-0.00342988456732
-0.00346953152993
-0.00348142772261
-0.00348196773856
-0.00348079775865
-0.00348223345832
-0.00348610345299
-0.00348758149765
-0.00347635215954
-0.00343560028413
-0.00334169307445
-0.00316570802328
-0.00287535018159
-0.0024632088189
-0.0037310756767
-0.00373278476254
-0.00246293992993
-0.00287137164276
-0.00315626657736
-0.00332772938228
-0.00341803843798
-0.0034578275552
-0.00347064410031
-0.0034722905652
-0.00347187802312
-0.00347337140337
-0.00347653028684
-0.00347677975746
-0.0034643964332
-0.00342332169665
-0.00333058201542
-0.00315735302752
-0.00287047279936
-0.00246157446349
-0.00373047891151
-0.00371623563758
-0.00245031011943
-0.00285117792518
-0.00312833565181
-0.00329339710936
-0.00338006001907
-0.00341835818608
-0.0034311564509
-0.00343338665808
-0.00343341137584
-0.00343473222126
-0.00343709263762
-0.00343635572017
-0.00342367869708
-0.00338410534995
-0.0032960934899
-0.00312887860763
-0.00285026869606
-0.00244934281506
-0.00371476511451
-0.00366042933895
-0.00241239722348
-0.00279828136346
-0.00306085821623
-0.00321435013939
-0.00329322442821
-0.00332759879744
-0.00333895497716
-0.00334094438774
-0.0033409357551
-0.00334188564002
-0.00334357739675
-0.00334252226022
-0.00333118261184
-0.00329624058297
-0.00321567264473
-0.00306062422573
-0.00279730091957
-0.00241176510931
-0.00365964878549
-0.00352183146173
-0.00232438598463
-0.00268543897053
-0.00292479575463
-0.00306058798627
-0.00312786016845
-0.00315570875046
-0.00316392868278
-0.00316481643114
-0.00316437356255
-0.00316486360809
-0.00316626430525
-0.00316625044444
-0.00315758104292
-0.00312886725153
-0.0030605326452
-0.00292399154125
-0.00268451685242
-0.00232407271083
-0.00352159435964
-0.00323091710901
-0.00215090885181
-0.00247756163392
-0.00268533366065
-0.00279788178502
-0.0028504357218
-0.00287027644546
-0.00287506301881
-0.00287465080637
-0.00287366364071
-0.00287377346813
-0.00287495537361
-0.00287536471523
-0.00287026553673
-0.00284994751455
-0.00279700186363
-0.00268435712368
-0.0024768572679
-0.00215085459041
-0.00323106284351
-0.00269245634499
-0.00185925898137
-0.00215130635719
-0.00232474462142
-0.00241251785015
-0.00245005444156
-0.00246215682579
-0.0024636552726
-0.00246215276576
-0.00246076175343
-0.00246055331238
-0.00246157106164
-0.00246277782945
-0.00246102499796
-0.0024488014385
-0.00241134743691
-0.00232384696458
-0.00215079868557
-0.00185926038295
-0.00269275207764
-0.00189997308675
-0.00269304398791
-0.00323161855763
-0.00352220676456
-0.00366030697278
-0.00371541322043
-0.0037309440114
-0.00373118133002
-0.00372947755524
-0.00372720217631
-0.0037272875264
-0.00372824414226
-0.003729986946
-0.00372929740919
-0.00371371174993
-0.00365891370583
-0.00352125281894
-0.00323103066415
-0.00269282247234
-0.00190033212612
-0.00199697568733
-0.00322499550286
-0.00410596958156
-0.00461429102827
-0.0048787458271
-0.00499919121462
-0.00504299115133
-0.00505207977492
-0.00504944716019
-0.00504601034772
-0.00504605295705
-0.00504893520399
-0.00505054771914
-0.00504033460833
-0.004995459271
-0.00487409204793
-0.00460891223584
-0.00410057870102
-0.00322143381402
-0.00199710927689
-0.00322616719312
-0.00214618592934
-0.00247060607243
-0.00267709424141
-0.00278937092482
-0.00284223793643
-0.00286249729188
-0.00286757500373
-0.00286730118438
-0.00286637594385
-0.00286643109012
-0.00286741176289
-0.00286763675004
-0.00286237372643
-0.00284177330011
-0.00278838690795
-0.00267544157368
-0.00246842721101
-0.00214422775038
-0.00322347780737
-0.00410764439161
-0.00247128787334
-0.00276012123034
-0.0029623911412
-0.00307979368426
-0.00313902869961
-0.00316418785937
-0.00317219695914
-0.00317356193645
-0.00317394971778
-0.0031744449154
-0.00317519423339
-0.00317463899803
-0.00316691651838
-0.00314155368445
-0.00308151746508
-0.00296284515719
-0.00275921129986
-0.0024696837527
-0.00410318398789
-0.00461622438954
-0.00267804635323
-0.00296243433603
-0.00317371915853
-0.00330199599339
-0.0033699951752
-0.00340115255431
-0.00341206833987
-0.00341475698322
-0.00341543670039
-0.00341666548571
-0.00341828934521
-0.00341735161529
-0.00340712297064
-0.00337625062351
-0.00330712687937
-0.00317685099337
-0.00296323432581
-0.00267714920544
-0.00461115001203
-0.00488123318989
-0.00279039972096
-0.00307936668234
-0.00330114741598
-0.00343936072971
-0.00351474865856
-0.00354853663638
-0.00356144959678
-0.00356568616139
-0.00356679242974
-0.00356866184878
-0.00357112513923
-0.00357168940701
-0.00356102801884
-0.0035251365347
-0.0034482528981
-0.00330717913008
-0.00308199422772
-0.00279027137578
-0.00487598618314
-0.00500284633499
-0.00284336376948
-0.00313786876197
-0.00336759674516
-0.00351275731268
-0.00358837072264
-0.0036207000567
-0.00363652820987
-0.00364305609029
-0.00364407015858
-0.00364643223042
-0.00364998220681
-0.00365435100769
-0.00364785541488
-0.00360938858363
-0.00352513593054
-0.00337637987118
-0.00314213158729
-0.00284381334602
-0.00499737739568
-0.00504840673637
-0.00286386708392
-0.00316225223631
-0.00339650988201
-0.00354355495777
-0.00361421174018
-0.00364772399507
-0.00366837611426
-0.00367665836061
-0.00367694236416
-0.00367949412615
-0.0036842043552
-0.00369281547628
-0.00369209044758
-0.00365389689228
-0.0035614870213
-0.00340760296579
-0.00316776870076
-0.00286461087648
-0.00504257266222
-0.00505948919225
-0.00286931253689
-0.00316967582795
-0.00340574128531
-0.00355186199719
-0.0036196715113
-0.00365564706289
-0.00367825793706
-0.00368667172545
-0.00368591471262
-0.00368850646816
-0.00369438191698
-0.00370626921582
-0.00370968800713
-0.00367353357038
-0.00357625240802
-0.00341840997031
-0.00317600045535
-0.00287010848685
-0.00505321881975
-0.00505862026672
-0.00286937500114
-0.0031704882027
-0.00340692684076
-0.00355225527534
-0.00361929557675
-0.00365520845268
-0.00367745921735
-0.00368503130793
-0.00368345672883
-0.00368613316465
-0.00369306787602
-0.00370706528817
-0.00371290730623
-0.00367819231682
-0.0035802228584
-0.00342086688651
-0.00317738348064
-0.00287017983905
-0.00505222201964
-0.00505626890849
-0.00286858939416
-0.00316998763663
-0.00340648796924
-0.003551505974
-0.00361781755958
-0.00365287044856
-0.00367433801949
-0.00368131072987
-0.00367946558738
-0.00368237779133
-0.00369007196283
-0.00370524046438
-0.00371236564533
-0.00367858568145
-0.00358091611708
-0.00342138124106
-0.00317735524702
-0.00286960181028
-0.00505066277444
-0.00505625090142
-0.00286860922611
-0.00317033239569
-0.00340707186407
-0.00355219387973
-0.00361849950399
-0.00365364948185
-0.00367541275355
-0.00368280044399
-0.00368137173268
-0.00368466581396
-0.00369263691156
-0.00370795810832
-0.00371506463534
-0.0036810031271
-0.00358279614095
-0.00342269679413
-0.00317821724147
-0.00287013934488
-0.00505274889698
-0.00505826716137
-0.00286943849033
-0.00317144369035
-0.0034085529371
-0.00355416187524
-0.00362114955577
-0.00365729706585
-0.00368036922782
-0.0036891311077
-0.00368876034965
-0.00369253859708
-0.00370025785478
-0.00371467713051
-0.00372045436759
-0.00368491606278
-0.00358538803434
-0.003424411696
-0.00317966813624
-0.00287157769782
-0.00505689537016
-0.00505875158471
-0.00286942993538
-0.00317105422922
-0.00340805008155
-0.00355509709166
-0.00362415989827
-0.00366184248
-0.00368641951713
-0.00369679466133
-0.00369781101801
-0.00370201105499
-0.00370896515605
-0.00372116558207
-0.00372361490281
-0.00368475247012
-0.00358381245506
-0.00342295647732
-0.00317896689814
-0.00287190197617
-0.00505875913864
-0.00504748539221
-0.00286400264133
-0.00316378757446
-0.00339905367962
-0.00354719143323
-0.00362086028065
-0.00365869683384
-0.00368289216565
-0.00369378664957
-0.00369610944694
-0.00370050668523
-0.00370635038007
-0.00371477776404
-0.00371137869743
-0.00366748569377
-0.00356948017207
-0.00341251799152
-0.00317067890287
-0.00286635850432
-0.00504800131237
-0.00500182245966
-0.00284339753031
-0.00313924806764
-0.00336984111843
-0.00351533608432
-0.00359310950622
-0.0036301179033
-0.00365050923998
-0.00365989731794
-0.00366303851558
-0.00366724440774
-0.00367184047927
-0.00367547236312
-0.00366484581214
-0.00362015328005
-0.00353161035827
-0.00338038186069
-0.00314442108535
-0.0028452794874
-0.00500223873552
-0.00487996444657
-0.00279016081938
-0.00308033610951
-0.00330285626641
-0.00344147153823
-0.00351712161242
-0.00355213921877
-0.00356749213188
-0.00357407309267
-0.00357715023129
-0.00358067711518
-0.00358400853835
-0.00358386103306
-0.00357078972995
-0.00353218860631
-0.00345291795462
-0.00330986532652
-0.00308357581559
-0.00279147629644
-0.00488011180084
-0.00461435505223
-0.00267739890921
-0.00296284965635
-0.00317479768186
-0.00330345383837
-0.00337182932716
-0.00340317208893
-0.00341546059076
-0.00341964195519
-0.00342180693609
-0.00342423397004
-0.00342640093878
-0.0034248512475
-0.00341381871478
-0.00338103738108
-0.00331003579181
-0.00317851687376
-0.00296444589364
-0.00267827865756
-0.00461441724718
-0.00410521052579
-0.00247039431322
-0.00276015978052
-0.00296307109484
-0.00308090259053
-0.00314059307296
-0.00316639645512
-0.00317538988789
-0.00317771427397
-0.00317854394047
-0.00317987357798
-0.00318128987332
-0.00318026844723
-0.00317146334677
-0.00314471116826
-0.00308354452073
-0.0029643416988
-0.0027606616633
-0.00247098350585
-0.00410539055677
-0.00322435008614
-0.00214584337841
-0.00247110928113
-0.00267826560056
-0.00279107681475
-0.00284446651142
-0.00286535461794
-0.00287114459841
-0.0028715507266
-0.00287113335406
-0.00287149893663
-0.00287255050507
-0.00287240854297
-0.00286642283784
-0.00284502811699
-0.0027911139731
-0.00267800748962
-0.00247089030893
-0.00214602489983
-0.00322458269606
-0.00199729353874
-0.00322550378758
-0.00410658872103
-0.0046151517543
-0.00488008503578
-0.00500142394008
-0.00504665322059
-0.00505746885162
-0.00505667125854
-0.00505490497166
-0.00505567476815
-0.00505843675996
-0.00505923220874
-0.0050476518315
-0.00500140563867
-0.00487924818699
-0.00461389983627
-0.00410530087206
-0.00322467172777
-0.00199770407453
-0.0020417102788
-0.00350028837832
-0.00458936481066
-0.00524952428647
-0.0056161742806
-0.00579918987502
-0.00587663250574
-0.00590104354124
-0.00590437600062
-0.00590369937637
-0.00590625078797
-0.0059112027414
-0.00591069180148
-0.00588772084899
-0.0058099923778
-0.00562441626832
-0.00525249804246
-0.00458601269849
-0.00349439325363
-0.00204146763421
-0.00350182440184
-0.0023078670254
-0.00266372262035
-0.00290117365923
-0.0030383890876
-0.00310884419479
-0.0031399918817
-0.00315102031373
-0.00315380361429
-0.00315452598191
-0.00315589304267
-0.00315771614786
-0.00315714053349
-0.00314770369018
-0.00311719783064
-0.00304598217463
-0.00290627207789
-0.00266515593739
-0.002306315712
-0.0034974257764
-0.00459120225469
-0.00266419470454
-0.00294830881338
-0.00316088696419
-0.0032919684905
-0.0033634154728
-0.00339755133164
-0.00341146133808
-0.00341697406762
-0.00341887157944
-0.0034214765527
-0.00342388726677
-0.00342317222729
-0.00341246826199
-0.00337983867829
-0.00330776572144
-0.00317363972688
-0.00295609617215
-0.00266698030217
-0.00458989250888
-0.00524943617334
-0.0029005537037
-0.00315911517478
-0.0033687805756
-0.00350408125719
-0.00357849290084
-0.00361344635117
-0.00363108998837
-0.00363962152082
-0.00364342093828
-0.00364744383605
-0.00365139812287
-0.00365408446442
-0.00364629273455
-0.00360918493624
-0.00352993682665
-0.0033905918316
-0.003174290173
-0.00290876622079
-0.00525567599446
-0.00561256565048
-0.00303539990804
-0.00328635542917
-0.00349921738438
-0.00363389088345
-0.00370227912437
-0.00373702744624
-0.00376309749136
-0.00377805637631
-0.00378269593053
-0.00378801514554
-0.0037937714278
-0.00380428149871
-0.00380576624496
-0.0037691670399
-0.0036800876885
-0.00353024520051
-0.00330869750875
-0.00304874012549
-0.00562688709231
-0.00579189088448
-0.00310298686418
-0.00335274175051
-0.00356636627742
-0.00368949785508
-0.0037509551934
-0.00379018388711
-0.00382768742115
-0.00384956803878
-0.00385401288395
-0.00386028450201
-0.0038682313933
-0.0038891440268
-0.00390577804801
-0.00387454870683
-0.00377678629556
-0.00361005962337
-0.00338121379639
-0.00312027556458
-0.00581260900638
-0.00586672635235
-0.0031315884295
-0.00338161424833
-0.0035896354785
-0.0037014391436
-0.00376005072829
-0.00380525836035
-0.00385406573029
-0.0038808259241
-0.00388410136248
-0.00389090863601
-0.00390134916524
-0.00393226272683
-0.00396379143594
-0.00393925928787
-0.00383556323055
-0.00365363537642
-0.0034147844334
-0.0031513717233
-0.00589151477836
-0.0058900499444
-0.00314083722099
-0.00339088240496
-0.00359237946162
-0.00370020977869
-0.0037578036322
-0.0038086829609
-0.00386295302282
-0.00389110637555
-0.00389247573392
-0.00389945084298
-0.00391241343126
-0.00395068683931
-0.00399211941941
-0.00397335565036
-0.00386533584054
-0.00367544637535
-0.00342724657563
-0.00316180338001
-0.00591666906073
-0.00589329902554
-0.00314250492249
-0.00339209615328
-0.00359081596802
-0.00369684867126
-0.0037537451169
-0.00380521884261
-0.00385982526203
-0.00388681023114
-0.00388650016798
-0.00389368296586
-0.00390895294255
-0.00395176456818
-0.00399854965775
-0.00398315229287
-0.00387487739634
-0.00368235831632
-0.00343044668328
-0.00316386115646
-0.00592054330438
-0.00589273504784
-0.00314269593886
-0.00339179864447
-0.00358962192604
-0.00369396364241
-0.0037490725935
-0.0037991009138
-0.00385259821017
-0.00387861526532
-0.00387779714526
-0.00388551345793
-0.00390243744115
-0.00394774441696
-0.00399730628233
-0.00398404770214
-0.00387675413294
-0.00368411736309
-0.00343096642651
-0.00316411864137
-0.00592077779392
-0.00589485701089
-0.0031438568808
-0.0033931492126
-0.003590734061
-0.00369450549213
-0.00374924223645
-0.00379950991085
-0.00385390614579
-0.00388108825968
-0.00388130522669
-0.00388987724572
-0.0039073549763
-0.00395297466216
-0.00400256543907
-0.00398882013523
-0.00388057025053
-0.00368683592629
-0.00343274496638
-0.00316529791706
-0.00592436366497
-0.0058991523393
-0.00314579756785
-0.00339591014432
-0.00359389636824
-0.00369821096332
-0.00375387118411
-0.00380584408051
-0.00386290877132
-0.00389322422109
-0.00389593464842
-0.00390564242215
-0.00392253478883
-0.00396626035313
-0.00401316747381
-0.00399638819552
-0.003885356182
-0.00368965917262
-0.00343511054548
-0.00316679720262
-0.00592916765976
-0.00589868256256
-0.00314581130726
-0.00339652196538
-0.0035981046977
-0.00370632245719
-0.00376559411206
-0.00382023077045
-0.00387992117701
-0.00391344018209
-0.00391918319545
-0.00392992413012
-0.00394526564998
-0.00398450331422
-0.00402435821252
-0.00399995677415
-0.00388372644564
-0.00368610521679
-0.00343295194864
-0.00316519884694
-0.00592671051435
-0.00587689050458
-0.00313756176951
-0.00338833713535
-0.00359757263172
-0.00371335395006
-0.00377922396166
-0.00383390744016
-0.00389192896095
-0.00392562195943
-0.00393385462727
-0.00394505878396
-0.00395819961397
-0.00398938526531
-0.00401579548177
-0.00397853470947
-0.00385939267121
-0.00366520253021
-0.00341972786962
-0.00315398762021
-0.00590018728704
-0.00580188102325
-0.00310901458421
-0.0033596748699
-0.00357344907497
-0.00370046475942
-0.003771329092
-0.00382238921757
-0.00387106475466
-0.00390020937056
-0.00390974647157
-0.0039205831714
-0.00393124929929
-0.0039513853142
-0.00395960644344
-0.00391215710262
-0.0037963626479
-0.00361800414731
-0.00338415315052
-0.00312149308676
-0.00581874902417
-0.00562043647382
-0.00304045058988
-0.00329269220944
-0.0035049608562
-0.0036403560923
-0.00371471201763
-0.00375890389849
-0.00379375639642
-0.00381502602951
-0.00382438024526
-0.00383392821877
-0.00384205577472
-0.00385107722101
-0.00384444001844
-0.00379330201831
-0.00369125283351
-0.00353405655451
-0.00330952003877
-0.00304883855551
-0.00563092385991
-0.00525317024821
-0.00290371026968
-0.0031641472567
-0.00337396497875
-0.00350829847619
-0.00358280721534
-0.00362094349076
-0.0036442845528
-0.00365733012799
-0.00366501609806
-0.00367237577742
-0.00367793591497
-0.0036788238966
-0.00366507137098
-0.00362009115765
-0.0035348790634
-0.00339184722891
-0.00317398088575
-0.00290872041351
-0.00525888350255
-0.00459024087794
-0.002665215738
-0.00295173931053
-0.00316541441983
-0.00329654020057
-0.00336793233836
-0.00340275019851
-0.0034183655159
-0.00342535629077
-0.0034300174567
-0.00343491794923
-0.0034385495107
-0.00343655850992
-0.00342273914368
-0.00338609832723
-0.00331038921837
-0.00317415951468
-0.00295636943718
-0.00266797840271
-0.00459330945274
-0.00349898557637
-0.00230791153193
-0.00266636880135
-0.00290574400345
-0.00304402850725
-0.00311520304949
-0.00314736369699
-0.00315989535718
-0.00316437529988
-0.0031666807443
-0.00316895518599
-0.00317053816103
-0.00316835781808
-0.00315617302635
-0.00312261082357
-0.00304911952314
-0.00290860069644
-0.00266785174607
-0.00230918610621
-0.00350063057629
-0.00204192720957
-0.00350072613735
-0.00459245254725
-0.00525546854998
-0.00562423224245
-0.00580929798608
-0.00588977064973
-0.00591824114297
-0.00592606207183
-0.00592920216427
-0.00593329255898
-0.00593710483018
-0.005932861715
-0.00590409129944
-0.00582044208075
-0.00563108981522
-0.00525851159365
-0.00459309906073
-0.00350062404512
-0.00204256615813
-0.00205463636213
-0.00360724050588
-0.00481007020367
-0.00557590014113
-0.00602864628896
-0.00627342565595
-0.00638940378265
-0.0064349401668
-0.00644935317659
-0.0064560423834
-0.00646536090507
-0.00647585111494
-0.00647570566973
-0.00644124952789
-0.00633165520269
-0.006085630183
-0.00562041553038
-0.00483201243239
-0.00360758558267
-0.00205410007215
-0.00360879368657
-0.00237469341631
-0.00275618619512
-0.00302277347371
-0.00318686906688
-0.00327860527216
-0.00332442565079
-0.00334456392673
-0.00335287881906