/*--------------------------------*- C++ -*----------------------------------*\
| =========                 |                                                 |
| \\      /  F ield         | OpenFOAM: The Open Source CFD Toolbox           |
|  \\    /   O peration     | Version:  3.0.1                                 |
|   \\  /    A nd           | Web:      www.OpenFOAM.org                      |
|    \\/     M anipulation  |                                                 |
\*---------------------------------------------------------------------------*/
FoamFile
{
    version     2.0;
    format      ascii;
    class       volScalarField;
    location    "2.7";
    object      k_0;
}
// * * * * * * * * * * * * * * * * * * * * * * * * * * * * * * * * * * * * * //

dimensions      [0 2 -2 0 0 0 0];

internalField   nonuniform List<scalar> 
7968
(
0.00166007714541
0.00179410470408
0.00189354883816
0.00194955459757
0.0019775353891
0.00198929402746
0.00199233286252
0.00199127530928
0.00198938413559
0.00198801784991
0.00198833454781
0.0019898779894
0.00199184152437
0.00199249730618
0.00198893196909
0.00197673380456
0.00194854189077
0.00189258269895
0.00179343355196
0.00165983871527
0.00179406163551
0.0024039416707
0.00280641914634
0.00304033390065
0.00316983536297
0.00323505965297
0.00326236171711
0.00326960504549
0.00326880381644
0.00326731179873
0.00326864695257
0.00327218257706
0.0032737409075
0.00326589372268
0.00323709094995
0.00317011935715
0.00303920057972
0.00280452985014
0.0024021544148
0.00179336176549
0.00189352920989
0.00280649077724
0.00341005649361
0.00376981222918
0.00397742020076
0.00408871294403
0.00414091233333
0.00416030985085
0.0041649275615
0.00416589404798
0.00416814355915
0.00417094570832
0.0041682449512
0.00414864569862
0.00409442899773
0.00398031313246
0.00377002298868
0.00340838485997
0.00280421221119
0.00189237746377
0.00194976452936
0.00304106958712
0.00377050744929
0.00421321348263
0.00447471186624
0.00461945640966
0.00469156550928
0.00472428918334
0.00474040902292
0.00474666548803
0.00474919718905
0.00474743442441
0.00473515064585
0.00470496628729
0.00463080257378
0.00448205421684
0.00421618598252
0.00376994350103
0.00303874723428
0.0019482082965
0.00197815966675
0.00317157767619
0.00397904777811
0.00447547929945
0.00477298514732
0.0049418693036
0.00503864707813
0.00508709421186
0.00510758318729
0.00511557412364
0.00511879957654
0.0051165912926
0.00510022120713
0.00505388781784
0.00495983605535
0.00478634972808
0.00448256297889
0.00398052965903
0.00316975528952
0.00197631509547
0.00199041645702
0.00323781019099
0.00409109750545
0.00462056216522
0.00494175173967
0.00513881182059
0.00524919676926
0.00530240664278
0.00532430542491
0.00533279954463
0.00533674836141
0.00533539329397
0.00531871791144
0.00526817064615
0.00515809445732
0.0049615607563
0.00463269971274
0.00409545791251
0.00323708662411
0.0019884827085
0.00199389387908
0.00326577702411
0.00414349615522
0.00469203461341
0.0050358106921
0.00524721001929
0.0053622540418
0.00541632119222
0.00543760348174
0.00544567849193
0.00545032826758
0.00545068780691
0.00543569551809
0.00538499301008
0.00527031540076
0.00505684843037
0.00470927395558
0.00415120479511
0.00326663911535
0.00199209919729
0.00199306425403
0.00327306331967
0.00416212886542
0.00472100889116
0.00508184781297
0.0052978527482
0.00541359643287
0.00546635154467
0.00548589280385
0.00549308092772
0.00549841093465
0.00550085127776
0.00548851282451
0.00543968781493
0.00532452497363
0.00510629047464
0.00474271519431
0.00417317679582
0.00327577498532
0.00199163261967
0.00199068054597
0.00327144920918
0.00416503416359
0.00473380531006
0.00509971346061
0.00531675923972
0.00543161369958
0.00548250646078
0.00550029515719
0.00550670981162
0.00551272478811
0.00551701597855
0.00550713164746
0.00546053119533
0.0053463574882
0.00512691149588
0.00475630212165
0.00417910674016
0.00327609716596
0.0019901725791
0.00198872576357
0.0032683264746
0.00416336939151
0.00473772612994
0.00510494909158
0.00532205865819
0.00543619968841
0.00548605467346
0.00550300276982
0.00550919810662
0.00551583162591
0.0055212255685
0.00551268328093
0.00546732977046
0.00535386223069
0.00513421149203
0.00476208342386
0.00418001846098
0.00327477333995
0.00198903081782
0.00198826328838
0.00326758869501
0.00416277328012
0.00473808584902
0.00510560829172
0.00532304797397
0.00543764425369
0.00548809755381
0.00550574215218
0.0055125482944
0.00551943927746
0.00552479850317
0.00551598949259
0.00547018830372
0.00535618818927
0.0051360231575
0.00476348395361
0.00418119334036
0.00327541982488
0.00198897762271
0.00198957236496
0.00326939025841
0.00416326423759
0.00473475803178
0.00510156624034
0.00531955426953
0.00543570137585
0.00548826553014
0.00550791912069
0.00551592916996
0.00552275996123
0.00552703588841
0.00551640813553
0.00546850976049
0.00535278044754
0.00513184121759
0.00476009104384
0.00418198059647
0.00327762048397
0.00199016510025
0.00199155517863
0.00326996972792
0.00415925480099
0.00472109122059
0.00508451031155
0.00530201753458
0.0054197240938
0.00547497015163
0.00549719512624
0.00550664216081
0.00551322457027
0.00551569377641
0.00550220031047
0.00545131289228
0.00533367763909
0.00511313917463
0.00474843315644
0.00417620636494
0.0032770816313
0.00199141272454
0.00199218166293
0.00326196592819
0.00413960954553
0.00468987353696
0.00503858116108
0.00525206771597
0.00536951047391
0.00542656104923
0.00545098792206
0.00546168517397
0.00546781928166
0.00546820364927
0.00545173033264
0.00539837002729
0.0052805246857
0.00506415273712
0.00471398300442
0.00415266564896
0.00326660723069
0.00199135036526
0.00198870234732
0.00323372559521
0.0040866623732
0.00461751456238
0.00494193118059
0.0051434953273
0.00525660953105
0.00531298264593
0.00533817596123
0.00534940416622
0.00535489511391
0.00535351053386
0.00533513621487
0.00528160244896
0.00516813600497
0.00496903664733
0.00463488657141
0.00409435687698
0.0032351326975
0.0019870973599
0.00197665789666
0.00316776214379
0.00397461864769
0.00447197804873
0.00477197887488
0.00494482611981
0.00504534265509
0.00509691920617
0.00512059673544
0.00513122911405
0.00513592786522
0.00513364214217
0.00511571828085
0.00506672172828
0.00497092842577
0.00479085107351
0.00448172771756
0.00397688363771
0.00316602048562
0.00197440401204
0.00194861923318
0.00303795770046
0.00376660327655
0.00420972724161
0.00447295042165
0.00462083100826
0.0046971083536
0.00473276608891
0.00475167062658
0.00476034529192
0.00476424493861
0.00476279409923
0.00475310283645
0.00471866768998
0.00463835305498
0.00448336974659
0.0042129387214
0.00376459314462
0.00303394030228
0.00194604258483
0.00189275558539
0.00280420840114
0.00340690809952
0.00376664933228
0.00397523827453
0.00408865669548
0.00414401184437
0.00416710586319
0.00417539312767
0.00417927201017
0.00418327722036
0.00418614402915
0.00418142001053
0.00415774009529
0.00409833424428
0.00397928610116
0.00376553362492
0.00340252839345
0.0027992579121
0.00189030414239
0.00179361912718
0.00240240388433
0.00280405190935
0.00303769696863
0.00316760853716
0.00323403432391
0.00326325545914
0.00327287910172
0.00327449109416
0.00327501816445
0.00327754906314
0.00328108380458
0.00328116641135
0.00327053542028
0.00323828186775
0.00316806238306
0.00303493140056
0.00279953311501
0.0023980882675
0.00179179793051
0.00165992483458
0.00179358894973
0.00189265340088
0.00194839987194
0.0019763122443
0.0019882480497
0.00199169151267
0.00199118738475
0.00198981244258
0.0019889082638
0.001989500433
0.00199108833514
0.00199273562351
0.00199259236068
0.00198807887245
0.00197504498674
0.00194636435287
0.00189040526613
0.0017918060473
0.00165920835219
0.00179002793714
0.00238259665222
0.00277889047157
0.00301271924921
0.00314560320288
0.00321621815662
0.00324948784579
0.00326209169298
0.00326469332897
0.00326444632158
0.00326572411624
0.00326785214322
0.00326591241833
0.00325318288673
0.00321912914729
0.00314745838573
0.00301357336774
0.00277900608393
0.00238232722395
0.00178962262698
0.00238270631719
0.00470382490603
0.00581924846592
0.00647785470216
0.00686817886751
0.00708919664287
0.00720446887155
0.0072578820498
0.00727938332667
0.00728777719141
0.00729161508331
0.0072900334102
0.00727307219034
0.00722136877984
0.00710519645474
0.00688142245498
0.00648740424354
0.0058250474282
0.00470660397737
0.00238238362518
0.00277888878484
0.00581820545184
0.00728776058289
0.00817956662902
0.00872513568803
0.0090454297512
0.00922018141086
0.00930647484772
0.00934412532351
0.0093595239443
0.00936475762722
0.0093588774287
0.00932792844028
0.00924481447151
0.00906970683807
0.00874636218652
0.00819604409789
0.00729882437774
0.00582417640567
0.00277881252495
0.00301269931061
0.00647585165172
0.00817812862148
0.00923154204521
0.00988940067638
0.0102843082303
0.0105053587057
0.0106193013501
0.0106699967956
0.0106908937695
0.0106975675912
0.0106888005305
0.0106466266321
0.010538259773
0.0103177300698
0.0099198002939
0.00925624754412
0.00819573467611
0.00648620288371
0.00301315137422
0.00314566355513
0.00686498275533
0.0087215161285
0.00988664836128
0.0106241994963
0.0110730848891
0.0113274061846
0.0114564840151
0.0115147705377
0.0115390236729
0.0115472656135
0.01153816364
0.0114914344972
0.0113689841794
0.0111158799882
0.0106645259956
0.00992054293129
0.00874665081757
0.00688065303764
0.00314696884806
0.00321636305704
0.00708435818404
0.00903873248654
0.0102773488546
0.011068038642
0.0115518814354
0.0118237133851
0.0119606656796
0.0120215227376
0.0120467342749
0.0120565285359
0.0120494693975
0.0120029059197
0.01187457067
0.0116051091498
0.0111184742516
0.0103207634546
0.00907188274816
0.00710589054808
0.00321883019567
0.00324960147144
0.00719749415261
0.00920963411937
0.0104931555289
0.0113166758452
0.0118171739391
0.0120965529432
0.0122344921964
0.0122936397699
0.0123177641305
0.0123290058125
0.0123258229386
0.01228349617
0.0121560955706
0.0118801775967
0.0113767037219
0.0105455498167
0.0092505621244
0.00722485978637
0.00325344459846
0.00326195019094
0.00724828712364
0.00929149995124
0.010600921834
0.0114387174123
0.011946230861
0.0122261906347
0.0123607331071
0.0124158212615
0.0124378342957
0.0124503840854
0.0124517999235
0.0124157241297
0.0122932605854
0.0120175920472
0.0115070242
0.0106597778969
0.00933910810218
0.00728087951717
0.00326722009291
0.00326428243726
0.00726672493308
0.00932439949997
0.010645945587
0.0114895675368
0.0119985806973
0.0122761773808
0.0124063652563
0.0124575466705
0.0124777421954
0.0124914476255
0.0124968358866
0.0124664595905
0.0123494328947
0.0120766257651
0.0115646658703
0.0107118974425
0.00937771221591
0.00730361189259
0.00327055624411
0.00326309843754
0.00727173705258
0.00933488694847
0.0106608424091
0.0115066201066
0.0120156202329
0.0122914879639
0.0124192636566
0.0124685929787
0.0124881758128
0.0125028254261
0.0125105499568
0.0124833517978
0.012369398143
0.0120984641777
0.0115863690663
0.0107312215463
0.00939206232107
0.00731169128397
0.00327041458644
0.00326275200066
0.00727252345101
0.00933611201179
0.0106625130554
0.0115088698694
0.0120185982985
0.0122953971883
0.0124243037951
0.0124748412559
0.0124954644463
0.012510766385
0.0125186221557
0.0124910003158
0.0123761583271
0.0121040782546
0.0115908227331
0.010734721637
0.00939494492164
0.00731401968069
0.00327100587549
0.00326365682859
0.00726890970462
0.00932778727363
0.0106506575204
0.0114958892049
0.0120069986048
0.0122872887049
0.0124207315353
0.0124753693908
0.0124985287947
0.0125140927848
0.0125198285918
0.0124881726995
0.0123684985492
0.0120922843667
0.0115768837219
0.0107213123805
0.00938535526892
0.00730979036393
0.00327203578281
0.0032611306226
0.00725138386321
0.00929639528443
0.0106082706225
0.0114480718884
0.0119587960095
0.0122429617377
0.0123825610178
0.012442951194
0.0124694667763
0.0124847967958
0.0124866182489
0.0124483549174
0.0123215158517
0.0120402715351
0.0115241425047
0.0106724712409
0.00934906102961
0.00728893322936
0.00326882905813
0.00324861561416
0.00720084494976
0.00921496434672
0.0105011173019
0.0113275553667
0.0118320163115
0.0121166735989
0.0122609356832
0.0123266191031
0.0123562444321
0.0123708190294
0.0123679595418
0.0123226080008
0.0121893333737
0.011906001856
0.0113952804851
0.0105586657882
0.00926010508448
0.0072326204738
0.00325446218006
0.00321528596472
0.00708741363765
0.00904362676818
0.0102849755174
0.011079843643
0.0115671707926
0.0118447061041
0.0119886337175
0.0120566611893
0.0120878675314
0.012101211729
0.0120942849153
0.0120440040302
0.0119087074599
0.0116306359285
0.0111358409411
0.0103316422005
0.00907900336796
0.00711187160036
0.00321886283755
0.00314464656977
0.00686744774753
0.00872539986008
0.00989284259717
0.010633804801
0.0110873888824
0.0113471299762
0.0114832476564
0.0115488103484
0.0115791026155
0.011590832621
0.0115815983104
0.011530629714
0.0114008632553
0.0111389111833
0.0106787513143
0.00992808915229
0.00875078478252
0.00688453680963
0.00314611984898
0.00301185915414
0.00647763091165
0.00818077644543
0.00923591786084
0.00989660331131
0.0102956813649
0.0105222611189
0.0106427795806
0.0107003920531
0.0107269595482
0.0107368503084
0.0107276544408
0.01068051661
0.010566200421
0.0103369697395
0.00993053894934
0.0092608356614
0.00819762214436
0.00648865039149
0.00301187306676
0.00277823530985
0.00581920922189
0.00728905188215
0.00818196744305
0.00872971742077
0.00905354786065
0.0092332325725
0.00932548086177
0.00936918536107
0.00938948966535
0.0093976929906
0.0093917638225
0.00935709866601
0.00926782213583
0.00908491439087
0.00875424667606
0.00819890516569
0.00729985336808
0.00582622771901
0.00277762560367
0.00238221093411
0.00470397598888
0.00581916508019
0.00647833234293
0.00687018837309
0.00709391651065
0.00721307431665
0.00727118679935
0.00729743912027
0.00730973619827
0.00731593016065
0.00731443483863
0.00729486596471
0.00723843077924
0.00711644418664
0.00688735478603
0.00648986966091
0.00582647181693
0.00470897332248
0.00238153965174
0.00178975511303
0.00238220430581
0.0027781585318
0.00301181320175
0.00314488248525
0.00321618145023
0.00325065793565
0.00326485727832
0.00326921438364
0.00327059113803
0.00327280115369
0.00327468714985
0.0032715468288
0.00325698124494
0.00322080611919
0.00314733500161
0.00301245162692
0.00277781253164
0.00238158090417
0.0017886756499
0.00188617194165
0.00276917512835
0.00336446025563
0.0037270235855
0.00394288413542
0.00406485131161
0.00412765262432
0.00415567357834
0.00416589502194
0.00416929341015
0.00417148441612
0.00417172162489
0.00416374493845
0.0041364838325
0.00407322877447
0.00395000058238
0.00373237648969
0.00336776717488
0.00277040867436
0.00188575720363
0.00276946132947
0.00579355964969
0.00726420906779
0.00816046403819
0.00871132549565
0.0090365622374
0.00921538935191
0.00930461184315
0.00934467438715
0.0093616441215
0.00936757247289
0.00936147616172
0.00932954162384
0.00924476745146
0.00906678190378
0.00873933352256
0.00818393516767
0.00728151190203
0.00580388499314
0.00277055249205
0.0033642046667
0.00726142382714
0.00914633999205
0.0103183534742
0.0110581667971
0.0115078992951
0.0117634693045
0.0118959935856
0.0119577471244
0.0119840231796
0.011990868396
0.0119778384031
0.0119265310248
0.0118006125894
0.0115478126764
0.0110972207604
0.0103533314921
0.00917443669132
0.00728030831686
0.00336756180565
0.00372584172573
0.00815400419456
0.0103137350088
0.01167517323
0.0125488765128
0.0130892045718
0.0134013952572
0.0135663754553
0.0136430573803
0.0136747136365
0.0136825239503
0.0136655938817
0.013601060312
0.0134447810863
0.0131375170829
0.0125982050817
0.0117213727139
0.0103528683402
0.00818231694431
0.00373186581123
0.00394049332059
0.00870006594994
0.0110470169177
0.0125415491701
0.0135105152531
0.0141153073814
0.0144645797957
0.014646313962
0.0147292545115
0.0147625359089
0.0147710986787
0.0147540342811
0.0146847136301
0.0145134341361
0.0141703399712
0.0135694025104
0.0125988058933
0.0110974051665
0.00873840168563
0.00394945271045
0.00406104320939
0.0090195496152
0.0114887046283
0.0130724440859
0.0141053383945
0.0147483252576
0.0151166807028
0.0153026935081
0.0153831426553
0.0154138222868
0.0154229983919
0.0154096807087
0.0153434510718
0.0151688720129
0.0148103565913
0.0141722882963
0.0131401750063
0.0115501700908
0.00906801555929
0.0040730807361
0.00412232078717
0.00919215496211
0.0117355031203
0.0133741447861
0.0144435517241
0.0151055739963
0.0154771229652
0.0156558821149
0.0157268004428
0.0157517407543
0.015761723281
0.0157555167765
0.0156990694404
0.0155313837039
0.0151715807654
0.0145192430934
0.0134514929893
0.0118071594174
0.00925005773783
0.00413736888869
0.00414877092766
0.00927520723159
0.0118595266151
0.0135293446239
0.0146144884705
0.0152807415247
0.0156449336447
0.0158102872011
0.0158685792525
0.0158866211115
0.0158976770046
0.0159001898956
0.0158570561109
0.0157023280142
0.0153501238731
0.0146962544376
0.0136141740268
0.0119396022035
0.0093410077176
0.00416648483639
0.00415733431476
0.00930946154494
0.011913454939
0.0135971765206
0.0146877376735
0.0153511201128
0.015705315957
0.0158575849195
0.0159046886346
0.0159168801131
0.0159289951669
0.0159391872599
0.0159082314517
0.0157665087457
0.0154242406746
0.0147741942447
0.0136877664653
0.0119997003119
0.00938104990314
0.00417715375048
0.00415894093376
0.00932146145037
0.0119331860432
0.013621816871
0.0147133770954
0.0153737058946
0.0157214954802
0.0158661470159
0.0159070739474
0.0159162262077
0.0159291434939
0.0159437452775
0.0159196867192
0.0157854929583
0.0154494201541
0.0148026215077
0.0137154794332
0.0120227629326
0.00939638931239
0.0041801962862
0.00415934516404
0.00932407022652
0.0119363882567
0.0136253570703
0.0147172531098
0.0153779916135
0.0157261695524
0.0158713216741
0.0159129701944
0.0159228705957
0.0159362591793
0.0159508680229
0.0159262812621
0.0157911952263
0.0154542235321
0.0148067268371
0.0137190445903
0.0120261368088
0.00939964514078
0.00418130989648
0.00415854837562
0.00931673918605
0.0119223822583
0.0136071379214
0.0146986759896
0.0153632315257
0.0157184974504
0.0158721638706
0.0159213363933
0.0159356969742
0.0159491902821
0.0159594142338
0.0159269172878
0.0157825652532
0.0154376099269
0.0147854219827
0.0136972943458
0.0120086521935
0.00938971638897
0.00417998102201
0.00415059972527
0.00928582409289
0.0118726084021
0.0135441368141
0.0146305223726
0.015298223821
0.0156637477521
0.0158311758567
0.015892781457
0.0159143421344
0.0159276611404
0.0159303048698
0.0158848031481
0.0157259672466
0.015369458107
0.0147119354101
0.0136267417054
0.0119511567049
0.00935235823452
0.00416980895183
0.00412438148271
0.00920438677749
0.0117506774509
0.0133917434125
0.014462397937
0.0151257539118
0.0154986695442
0.0156800788613
0.0157553928822
0.0157850101446
0.0157980099735
0.0157920625015
0.0157326576121
0.0155597332251
0.0151941614902
0.0145364330537
0.0134644066942
0.0118180869944
0.00926106749531
0.00413994787634
0.00406296642785
0.00903170742629
0.0115037885513
0.0130899317817
0.0141249184971
0.0147698280792
0.0151404105924
0.0153299482484
0.0154157066875
0.0154517937038
0.0154643551608
0.0154511570036
0.0153812924371
0.0152003062924
0.0148341074604
0.0141884789326
0.0131505443211
0.0115580085486
0.00907659854299
0.0040742352096
0.00394208435401
0.00871091689903
0.0110604825219
0.0125572578371
0.0135285799913
0.0141363052796
0.01448964734
0.014676625429
0.0147657152036
0.0148046792314
0.0148165929482
0.0147991935146
0.0147252628389
0.0145461828522
0.0141933914398
0.0135830410893
0.0126056385913
0.0111015592256
0.00874414346503
0.00394932729299
0.00372696750292
0.00816275341096
0.0103246064495
0.0116879696114
0.0125640049483
0.013107667908
0.0134247007981
0.013595916977
0.0136794296628
0.013716921745
0.013728130553
0.0137106604255
0.0136405253529
0.0134765181969
0.01315870469
0.0126092937123
0.0117253951155
0.0103545072529
0.00818628615897
0.00373119118119
0.00336471468316
0.00726746119734
0.0091539191952
0.0103275054924
0.0110695131635
0.0115227190768
0.011783401387
0.0119224683495
0.0119909996297
0.0120227313602
0.0120332221406
0.0120202406806
0.0119642165291
0.0118300497252
0.0115669210626
0.0111066894551
0.010356374808
0.00917573257393
0.00728425119522
0.00336715590088
0.00276931876345
0.00579640317068
0.00726795495317
0.00816547540669
0.00871836071296
0.00904692248197
0.00923062271391
0.00932591920631
0.0093722140761
0.00939435093175
0.0094034417669
0.00939744153807
0.00936176049231
0.00927002812547
0.00908349511179
0.00874827142756
0.00818795371705
0.00728448030676
0.00580902058086
0.00277056490248
0.00188585418103
0.00276932422439
0.00336478430073
0.0037275400178
0.00394387914468
0.00406690444755
0.00413150474002
0.00416192398239
0.00417473462929
0.00418038925566
0.00418388065677
0.00418399244648
0.00417428660212
0.0041440457379
0.00407733697377
0.00395122369573
0.00373207679896
0.00336746514252
0.00277068858517
0.0018845722727
0.00194223418678
0.00300332989128
0.00373252005577
0.00418943636477
0.00447012070504
0.00463382650583
0.00472095854952
0.00476145424692
0.00477734475317
0.00478324181811
0.00478651146155
0.00478626181353
0.00477432770124
0.00473589263031
0.00464925556149
0.00448484634338
0.0042022500485
0.00374195289046
0.00300796994249
0.00194213147979
0.003003965221
0.00646981858092
0.00819648387675
0.00927589556581
0.00995507418041
0.0103643288333
0.0105932559577
0.0107090206692
0.0107615552659
0.0107837104832
0.0107913888437
0.0107834120232
0.0107422719237
0.0106339541731
0.0104086475769
0.0099995734866
0.0093173016876
0.00823104795494
0.00649327846482
0.00300824041986
0.00373175433783
0.00819091210067
0.0103820654482
0.0117711982431
0.0126653774033
0.0132180536002
0.013535977819
0.0137013524553
0.0137781047115
0.0138096012878
0.0138169214411
0.0137993784983
0.0137352604422
0.0135795724195
0.0132687562693
0.012720036806
0.0118261355397
0.0104322785841
0.00822959294839
0.00374177817754
0.00418602937557
0.00926261724749
0.0117621402461
0.0133599266469
0.0144012127919
0.0150537599227
0.0154345912841
0.015632159452
0.0157209123677
0.0157546273105
0.0157607836883
0.0157390519078
0.0156612341203
0.0154738356609
0.0151057878337
0.0144623198575
0.0134251581706
0.0118255685897
0.00931549102196
0.00420170657818
0.004463169642
0.00993188761562
0.0126442177474
0.0143883612783
0.015533694641
0.0162561296453
0.0166717092585
0.0168798458208
0.0169666307791
0.0169959272483
0.0170004018674
0.0169797392605
0.0169003943252
0.0167012624273
0.0163008173455
0.0155965330287
0.0144623767057
0.0127199264523
0.009998732728
0.00448429216639
0.00462282665869
0.0103297638335
0.0131829275123
0.0150260343274
0.0162418339698
0.017000197163
0.0174230670306
0.0176203727165
0.0176914592252
0.0177100049825
0.0177133879964
0.0177006081826
0.0176325576938
0.0174394987265
0.0170313506543
0.0162985691791
0.0151061960445
0.0132703531623
0.0104104545734
0.00464923221947
0.00470590949366
0.0105470875112
0.0134866908513
0.0153923728187
0.0166450997675
0.017411779693
0.0178193624869
0.0179893001091
0.0180344078227
0.0180382660729
0.0180419651456
0.0180433417005
0.0179975589666
0.017825836105
0.0174294963782
0.0166924181001
0.0154739517553
0.0135845717994
0.0106405533644
0.00473720674169
0.00474273780729
0.0106521986052
0.0136394709216
0.0155787823838
0.0168439271664
0.017600856912
0.0179808323996
0.0181159418846
0.0181318750803
0.0181204367698
0.0181256355615
0.0181441305545
0.0181259643583
0.0179836973452
0.0176105403303
0.016884335158
0.0156612809097
0.0137457866798
0.0107560830566
0.00477806431123
0.00475544163972
0.0106958356409
0.013706058727
0.0156589552503
0.0169239917976
0.0176657041181
0.0180186229742
0.0181231087499
0.0181145779833
0.0180905954233
0.0180973124195
0.018130583237
0.0181368161997
0.0180218817758
0.0176723707626
0.0169613688354
0.0157422328528
0.0138175074985
0.0108066547147
0.00479354823143
0.00475875683235
0.0107118682406
0.0137314817755
0.0156880444128
0.0169503725098
0.0176816479764
0.0180182593376
0.0181051473824
0.0180828972225
0.0180519477998
0.0180595186339
0.0181009665655
0.018120727638
0.0180212764053
0.0176858394572
0.0169849615774
0.0157703872288
0.0138442104043
0.0108256603473
0.00479826747259
0.00476018037432
0.010716652948
0.0137370787198
0.0156940500861
0.0169567014943
0.017687699684
0.0180236899092
0.018110087818
0.0180877940823
0.0180570540741
0.0180647107498
0.0181058107665
0.0181246727402
0.0180240328027
0.0176877549992
0.0169867408888
0.0157726661779
0.0138471419289
0.0108293507908
0.00479979484449
0.00475940292374
0.0107091637376
0.0137215187239
0.0156758613637
0.0169417648943
0.0176823864348
0.0180331671665
0.0181360456025
0.0181274144537
0.0181041678574
0.0181112821688
0.0181436915261
0.0181474595001
0.0180292042951
0.017677294301
0.016965803439
0.0157479615701
0.0138251969882
0.0108162145102
0.00479723519513
0.00474852354677
0.0106716629783
0.0136621156695
0.0156032241119
0.0168689236531
0.0176233115518
0.0179992602929
0.0181316834933
0.0181478079731
0.0181380314745
0.0181443243115
0.0181619277047
0.0181403633374
0.0179933557699
0.0176166522985
0.0168894270768
0.01566780369
0.013754668143
0.0107676666025
0.004781948985
0.00471252265659
0.0105696740579
0.0135130855779
0.0154205405993
0.0166723656116
0.0174346592586
0.0178363916604
0.0180030385944
0.0180490493417
0.0180559188155
0.0180618194771
0.0180628685431
0.0180136231928
0.0178367235446
0.0174360381051
0.0166969021236
0.01547885092
0.0135905420308
0.0106498341872
0.00473932850105
0.00462930811863
0.0103525693561
0.0132095283041
0.0150543930128
0.016268999474
0.0170225665769
0.0174393917383
0.0176338724497
0.0177071087059
0.0177300628868
0.0177366798629
0.0177241266247
0.0176526384894
0.0174538147984
0.0170397472712
0.01630225495
0.0151073119112
0.0132705700489
0.0104146190388
0.00464858830334
0.00446891151864
0.00995281088403
0.0126685394068
0.0144145377717
0.015560126168
0.0162801155276
0.0166920072908
0.0168994363396
0.0169900608317
0.017024826356
0.0170330067569
0.0170124594238
0.0169288487123
0.0167222684422
0.0163125275474
0.0156001187214
0.0144588612055
0.0127140443146
0.00999753891455
0.00448127783396
0.00419057402159
0.00928033413736
0.0117826715704
0.0133818822335
0.0144244000703
0.0150784033695
0.0154608392781
0.0156614917128
0.0157558666471
0.015795595175
0.0158053793412
0.0157831565282
0.015699557495
0.015502305255
0.0151215443015
0.0144650572939
0.0134182190574
0.0118158161616
0.00931115353334
0.00419778707442
0.00373457755891
0.00820420289196
0.0103976581889
0.0117878888849
0.0126833513754
0.0132387095192
0.0135614359888
0.0137335762891
0.0138176732076
0.013855680804
0.0138667048586
0.0138492816626
0.0137789755973
0.0136115439022
0.0132858483838
0.0127228281376
0.0118190707433
0.0104227266466
0.00822580042376
0.0037387341121
0.0030047336231
0.00647712418019
0.00820572557932
0.00928633508697
0.00996714426707
0.0103797114162
0.0106142909613
0.0107376578077
0.0107983059262
0.0108274878882
0.0108393679282
0.0108314113014
0.0107847209655
0.0106656307312
0.010426738616
0.0100048886842
0.00931421300817
0.00822625191454
0.00649354062004
0.00300695601436
0.00194201049361
0.0030047252399
0.00373494868941
0.00419233320247
0.00447345017449
0.00463824776945
0.00472759911499
0.0047713176015
0.00479079778531
0.00479988152127
0.00480499057266
0.00480455110368
0.0047898945414
0.00474655364531
0.00465409398125
0.00448470688776
0.00419944831797
0.00373937158232
0.00300726016519
0.0019404120001
0.00197571059964
0.00316245394465
0.00399744458223
0.00453412113597
0.00487078843236
0.00506945961346
0.00517486056423
0.00522254716839
0.00524005144534
0.00524603231346
0.00524994649214
0.00525074780572
0.00523823738454
0.00519378150541
0.00509051167545
0.00489343763636
0.00455705039161
0.00401743247742
0.0031746140295
0.00197680833441
0.00316376672213
0.00696685133211
0.00891098194667
0.0101518041154
0.0109430779586
0.0114213375501
0.0116856987171
0.0118147454195
0.0118692224326
0.0118897593924
0.0118969211618
0.0118896818506
0.0118465218616
0.0117262196126
0.0114686587156
0.0109961416154
0.0102088455069
0.00896691962796
0.00701172086267
0.00317520189065
0.00399596675607
0.00890167283372
0.0113620154073
0.0129470160977
0.0139780127476
0.0146169641554
0.0149811597276
0.0151633687039
0.0152407769839
0.0152663921788
0.0152691678269
0.0152490799726
0.0151788257698
0.0150056041074
0.0146542185507
0.0140287819112
0.013009676993
0.0114313977069
0.00896539881366
0.00401753629704
0.00452746679775
0.0101302519183
0.0129335329965
0.0147456082359
0.0159376336242
0.0166859431245
0.0171144245324
0.0173221423538
0.0174009819896
0.0174205551045
0.0174171394574
0.0173914025167
0.0173085692365
0.0171046443926
0.0166946467328
0.0159731305924
0.0148060972138
0.013009074909
0.0102072839547
0.00455673895917
0.00485733414802
0.0109063537035
0.0139479475948
0.0159215235952
0.0172270802832
0.0180436435718
0.0184921599183
0.0186898212568
0.0187474456286
0.0187500666331
0.0187408293498
0.0187195313803
0.0186437133904
0.0184374091944
0.0180045564294
0.0172296827024
0.0159709237771
0.0140277849788
0.0109956425368
0.00489299931843
0.00504837725425
0.0113677712457
0.0145694993187
0.0166557416924
0.0180332907016
0.0188685277734
0.0192934460751
0.0194454610277
0.0194602051979
0.0194375628172
0.0194260402646
0.0194230226973
0.0193767728959
0.0191968765548
0.0187748517444
0.0179871571737
0.0166826607591
0.0146520548255
0.0114703733259
0.00509026653256
0.00514642820442
0.0116158085383
0.0149188515761
0.017076814162
0.0184815493041
0.0192959227575
0.0196614779839
0.0197421933661
0.0196994742333
0.0196475183687
0.0196387328207
0.0196669346433
0.0196700902137
0.0195409143253
0.0191564758724
0.0183860423867
0.0170731185283
0.0149999472441
0.0117318163303
0.00519443250013
0.00518788675658
0.0117309343739
0.015090519662
0.0172834875697
0.0186861402671
0.0194572427484
0.0197489711557
0.0197509712981
0.0196480839416
0.0195676304486
0.0195645486983
0.0196291714303
0.0196902831269
0.0196236157148
0.0192912854815
0.0185551054803
0.0172554685274
0.0151689209353
0.0118580283921
0.0052409499188
0.00520062333267
0.0117753627519
0.0151622490396
0.0173658520209
0.0187541734483
0.0194823873534
0.0197106269778
0.0196472933022
0.0194956021813
0.019392274568
0.0193938817445
0.0194884860778
0.0195987546232
0.0195871945431
0.0193036157613