/*--------------------------------*- C++ -*----------------------------------*\
| =========                 |                                                 |
| \\      /  F ield         | OpenFOAM: The Open Source CFD Toolbox           |
|  \\    /   O peration     | Version:  3.0.1                                 |
|   \\  /    A nd           | Web:      www.OpenFOAM.org                      |
|    \\/     M anipulation  |                                                 |
\*---------------------------------------------------------------------------*/
FoamFile
{
    version     2.0;
    format      ascii;
    class       volScalarField;
    location    "2.7";
    object      p;
}
// * * * * * * * * * * * * * * * * * * * * * * * * * * * * * * * * * * * * * //

dimensions      [1 -1 -2 0 0 0 0];

internalField   nonuniform List<scalar> 
7968
(
4707.66046778
4707.63798744
4707.58049444
4707.49240862
4707.37440689
4707.23090887
4707.0675158
4706.88988985
4706.70418745
4706.51493239
4706.32864213
4706.14978624
4705.98411002
4705.83406082
4705.70208776
4705.58966348
4705.49709604
4705.42452909
4705.37393698
4705.34286286
4707.66014319
4707.64678934
4707.59396387
4707.50894553
4707.39176445
4707.24765745
4707.08271143
4706.90320249
4706.715398
4706.52511392
4706.33818159
4706.15968515
4705.9942445
4705.8449286
4705.71371345
4705.60139393
4705.50779076
4705.43236257
4705.37768823
4705.33857505
4707.64738538
4707.63891375
4707.58794227
4707.50340173
4707.3847922
4707.2381076
4707.07007844
4706.88759895
4706.69733974
4706.50546089
4706.31777936
4706.13954799
4705.97515422
4705.82760563
4705.69849523
4705.58798508
4705.49525452
4705.41921074
4705.36291777
4705.31973379
4707.6233864
4707.6182859
4707.5679388
4707.4826022
4707.3614874
4707.21129685
4707.03946833
4706.85338292
4706.66033856
4706.46651659
4706.27795928
4706.09998467
4705.93700326
4705.7916859
4705.66539642
4705.55764641
4705.46688503
4705.39146038
4705.33466493
4705.28887228
4707.58541058
4707.58155493
4707.53018382
4707.44267207
4707.3182138
4707.16410932
4706.98820313
4706.79869162
4706.60280004
4706.40708849
4706.21771381
4706.04006447
4705.87850913
4705.7358188
4705.61289341
4705.50867639
4705.42100462
4705.34770901
4705.29203734
4705.24569922
4707.53326991
4707.52938622
4707.47614329
4707.38586717
4707.25797415
4707.09989337
4706.92040369
4706.72777133
4706.52951316
4706.33231362
4706.14245949
4705.96538359
4705.80549008
4705.6655384
4705.54611933
4705.44582308
4705.36186435
4705.29163565
4705.23813185
4705.1925632
4707.46733624
4707.46264161
4707.40735514
4707.31450389
4707.18358276
4707.02259984
4706.84038807
4706.64555904
4706.44577114
4706.24779749
4706.05806606
4705.88200385
4705.7240074
4705.58679325
4705.47085123
4705.37437109
4705.29422531
4705.22737655
4705.17651168
4705.1325193
4707.38797058
4707.38233197
4707.3254396
4707.23080901
4707.09804684
4706.93537604
4706.75185137
4706.55602456
4706.35579222
4706.15802207
4705.96928304
4705.79493129
4705.63927231
4705.50489513
4705.39222676
4705.29926836
4705.22260661
4705.15890524
4705.11060725
4705.06843163
4707.29621757
4707.28979492
4707.23205124
4707.13664523
4707.00344994
4706.84062159
4706.65731059
4706.46196099
4706.26272122
4706.06645846
4705.87981875
4705.70801451
4705.5552037
4705.42383566
4705.31424323
4705.22437269
4705.15059398
4705.08960315
4705.04349043
4705.00275318
4707.19353073
4707.18681563
4707.12913663
4707.03419696
4706.90191539
4706.74047308
4706.55897632
4706.36575033
4706.16906091
4705.97570843
4705.79230528
4705.62388792
4705.47444925
4705.34630284
4705.2396639
4705.15247301
4705.08106771
4705.02212654
4704.97764624
4704.93814354
4707.08244921
4707.07603983
4707.01940677
4706.92612851
4706.79614947
4706.63760618
4706.45952795
4706.2701236
4706.07758149
4705.88852925
4705.70940614
4705.54506214
4705.39934545
4705.27446811
4705.17063675
4705.08570868
4705.01608193
4704.95852393
4704.91505642
4704.87641567
4706.96647424
4706.96105351
4706.90642129
4706.8159406
4706.68957622
4706.53532468
4706.36208111
4706.17798032
4705.99094395
4705.80736576
4705.63336798
4705.47363103
4705.33189268
4705.2102997
4705.10896134
4705.02578276
4704.95728295
4704.9004155
4704.8573267
4704.81919191
4706.85055457
4706.8460612
4706.79415888
4706.70749582
4706.58595673
4706.43723173
4706.27002303
4706.09238807
4705.91184978
4705.73455378
4705.56624071
4705.41142804
4705.27374061
4705.15525088
4705.05597273
4704.97387562
4704.90576978
4704.84885128
4704.80553571
4704.76784711
4706.73818033
4706.73508342
4706.68657247
4706.60462734
4706.48879196
4706.34658731
4706.1863183
4706.01591278
4705.84247996
4705.67189682
4705.50951642
4705.3596732
4705.22585492
4705.11002709
4705.01211792
4704.9303077
4704.86177931
4704.80411857
4704.76003484
4704.7220057
4706.63350964
4706.63176135
4706.58687116
4706.50999144
4706.40052433
4706.26544064
4706.11269993
4705.9498759
4705.78370733
4705.61982056
4705.46322739
4705.31806191
4705.18762909
4705.07374422
4704.97640185
4704.89412223
4704.82453551
4704.76572671
4704.72068418
4704.68246994
4706.53997909
4706.53883871
4706.49714283
4706.42507713
4706.32183653
4706.19402185
4706.04882576
4705.89350906
4705.73437111
4705.5767997
4705.4255239
4705.28446105
4705.15670414
4705.04401522
4704.94657551
4704.86329131
4704.79240326
4704.73250192
4704.68678088
4704.64894932
4706.45979419
4706.45803363
4706.41844918
4706.35016685
4706.25238588
4706.13109207
4705.99294167
4705.84448644
4705.69175048
4705.53978467
4705.39308934
4705.25537523
4705.12961879
4705.01753352
4704.91960019
4704.83523894
4704.7633277
4704.70294941
4704.65728885
4704.62075419
4706.39480046
4706.3904185
4706.35118044
4706.28496624
4706.19123542
4706.07528192
4705.94305532
4705.80051446
4705.65314472
4705.50579608
4705.36276144
4705.22758464
4705.10314574
4704.99129741
4704.8928352
4704.80772655
4704.73548687
4704.67565737
4704.63116193
4704.59733255
4706.3484072
4706.3400494
4706.29987304
4706.23417796
4706.14293865
4706.03074973
4705.90293295
4705.76482408
4705.62147501
4705.47749787
4705.33706845
4705.20354483
4705.0798698
4704.96802625
4704.86914938
4704.78369555
4704.71171289
4704.6531184
4704.61037388
4704.58002309
4706.31913994
4706.30254792
4706.25847045
4706.19050122
4706.09923977
4705.98847351
4705.86301216
4705.72758332
4705.58654207
4705.44464802
4705.30603155
4705.17371414
4705.05087779
4704.9393556
4704.84075441
4704.7560323
4704.68561178
4704.62988918
4704.5907417
4704.56689564
4212.27628425
4212.2494637
4212.18803275
4212.09644388
4211.97614035
4211.83100794
4211.66574984
4211.48576677
4211.29627807
4211.10375286
4210.91311964
4210.7299635
4210.55839228
4210.40316641
4210.26698897
4210.15146308
4210.05755234
4209.98574104
4209.9372799
4209.90963128
4212.27251995
4212.25516826
4212.19770781
4212.10987396
4211.9937294
4211.85272295
4211.69101474
4211.51359753
4211.32563411
4211.13273802
4210.9405987
4210.75479169
4210.58033817
4210.42155241
4210.28149654
4210.16203174
4210.06441909
4209.98936637
4209.93766238
4209.90174922
4212.25795176
4212.24471519
4212.18742
4212.1001954
4211.98536741
4211.84592661
4211.68553919
4211.50881151
4211.32073927
4211.12683919
4210.93319891
4210.74551691
4210.56907098
4210.40832736
4210.26640778
4210.14529229
4210.04644986
4209.97089632
4209.91931174
4209.88010865
4212.23353925
4212.22412082
4212.16749381
4212.08108204
4211.96740475
4211.82883374
4211.66872209
4211.4915799
4211.30216541
4211.1065317
4210.91089937
4210.72133932
4210.54325746
4210.38145396
4210.23867797
4210.11675846
4210.01717583
4209.94119723
4209.88931294
4209.84714555
4212.1971443
4212.19199929
4212.13692477
4212.05193743
4211.93954427
4211.80125755
4211.64079672
4211.4617995
4211.27010363
4211.07200402
4210.87422384
4210.68315902
4210.50444156
4210.34240377
4210.19960266
4210.07765404
4209.97775849
4209.90133282
4209.84864811
4209.80329481
4212.14773208
4212.14709291
4212.09422083
4212.01093003
4211.89959434
4211.76156159
4211.59908846
4211.4172822
4211.22249093
4211.02161269
4210.82196475
4210.63014649
4210.45175851
4210.29076536
4210.14942253
4210.0284568
4209.9290869
4209.8525807
4209.79894804
4209.75046104
4212.08447062
4212.08811753
4212.03773679
4211.95621563
4211.8459949
4211.70697434
4211.54229387
4211.35736076
4211.15949202
4210.9561813
4210.75539895
4210.56383807
4210.38693828
4210.22824046
4210.08944766
4209.97074071
4209.87264895
4209.79659537
4209.74218747
4209.69099869
4212.00706714
4212.01438354
4211.96644402
4211.88669431
4211.77719608
4211.63743377
4211.470845
4211.28322762
4211.08284567
4210.87788122
4210.67705452
4210.48702712
4210.31289777
4210.15766385
4210.02239174
4209.90666168
4209.81054341
4209.73551142
4209.68073326
4209.62754526
4211.91568573
4211.92571812
4211.87993539
4211.8020227
4211.69329052
4211.55340639
4211.38606534
4211.19711147
4210.99574559
4210.79065829
4210.59122882
4210.40396324
4210.23353295
4210.08240326
4209.95109323
4209.83873959
4209.74524524
4209.67134897
4209.61671841
4209.56272789
4211.81150643
4211.82299565
4211.77886437
4211.70259863
4211.59523901
4211.4564116
4211.29001719
4211.10185408
4210.90167306
4210.69844459
4210.50190505
4210.31837193
4210.15218491
4210.00544132
4209.87802102
4209.76903531
4209.67810486
4209.60580912
4209.55194291
4209.49816151
4211.69687639
4211.70859825
4211.66558007
4211.59090571
4211.48557421
4211.34925479
4211.18587349
4211.00115291
4210.80485098
4210.60579992
4210.41358204
4210.23433787
4210.07226953
4209.92924974
4209.80558141
4209.69967233
4209.61118405
4209.54072659
4209.48817852
4209.43558673
4211.57575244
4211.58640044
4211.5439532
4211.47083193
4211.36815191
4211.23571317
4211.0772778
4210.89847638
4210.70850216
4210.51570204
4210.32903875
4210.15452578
4209.99648791
4209.85701768
4209.73623733
4209.63287341
4209.54653533
4209.47802641
4209.42720833
4209.37665372
4211.45234291
4211.46122978
4211.41891905
4211.34731945
4211.24774186
4211.12020735
4210.96815004
4210.79705086
4210.61512821
4210.43006315
4210.24991137
4210.08057184
4209.92656833
4209.79026474
4209.67195444
4209.57067358
4209.48592849
4209.41951167
4209.37066002
4209.32260632
4211.3325423
4211.33856493
4211.29594533
4211.22553297
4211.12930048
4211.00714713
4210.86222159
4210.69969177
4210.5267194
4210.35019
4210.1771884
4210.01342215
4209.86353433
4209.73018483
4209.61404713
4209.5145154
4209.43157683
4209.36661763
4209.31978312
4209.27518655
4211.22105447
4211.22355816
4211.18032803
4211.11096663
4211.01738878
4210.90041486
4210.76253983
4210.60852977
4210.44446784
4210.2764798
4210.11078388
4209.95279867
4209.80713114
4209.67674213
4209.56260339
4209.46460604
4209.38327267
4209.31989157
4209.27510765
4209.23418278
4211.12177766
4211.12043962
4211.07649352
4211.00778114
4210.91627357
4210.80320491
4210.6714891
4210.5250689
4210.36917073
4210.20915316
4210.05047433
4209.89819548
4209.75679258
4209.62936321
4209.51723148
4209.42099893
4209.3413058
4209.27960086
4209.23679308
4209.19965393
4211.03788104
4211.03280717
4210.9883695
4210.92004414
4210.82982901
4210.71958984
4210.59219952
4210.45182412
4210.30259802
4210.14935472
4209.99693262
4209.84996297
4209.71257731
4209.58822383
4209.47838553
4209.38403735
4209.30617906
4209.24615779
4209.20501321
4209.17148043
4210.97180361
4210.96341005
4210.91906196
4210.85121538
4210.76179611
4210.65322261
4210.52863616
4210.39202365
4210.24750662
4210.0993614
4209.95200149
4209.8096555
4209.67623581
4209.55480918
4209.44727633
4209.35488314
4209.27876384
4209.22006462
4209.17987771
4209.1494345
4210.92627148
4210.91450048
4210.87068178
4210.80317761
4210.71381711
4210.60547471
4210.48171838
4210.34676367
4210.20478562
4210.05988661
4209.91618975
4209.77758004
4209.64765953
4209.52928264
4209.42434475
4209.33411925
4209.25967793
4209.20191827
4209.16190298
4209.13423104
4210.89989984
4210.87954424
4210.83239532
4210.76191083
4210.66940978
4210.55818791
4210.43230431
4210.2962945
4210.15484012
4210.01165594
4209.87071808
4209.73548495
4209.60933329
4209.49502776
4209.39411829
4209.30777858
4209.23691038
4209.18220714
4209.14496463
4209.12387738
3716.93560026
3716.90794619
3716.84446723
3716.74971482
3716.62553893
3716.47551065
3716.30415944
3716.11679935
3715.91910532
3715.71708931
3715.51679779
3715.32395772
3715.14377749
3714.9807267
3714.83790043
3714.71723649
3714.61978165
3714.54600049
3714.49657167
3714.46847435
3716.93305934
3716.92074178
3716.86505953
3716.7767923
3716.66008436
3716.51745154
3716.35229272
3716.16919014
3715.97352843
3715.77124616
3715.56870375
3715.37202928
3715.18691721
3715.01801954
3714.868716
3714.74129834
3714.63744135
3714.55817987
3714.50218173
3714.46046463
3716.92139857
3716.91718887
3716.86304588
3716.77479821
3716.65937064
3716.51884552
3716.35573345
3716.1738433
3715.97818404
3715.77464432
3715.56989419
3715.37021322
3715.18185089
3715.00971365
3714.85748942
3714.72782754
3714.62284008
3714.54371397
3714.48680152
3714.43840521
3716.90101229
3716.9036119
3716.84979735
3716.75965432
3716.64317466
3716.50217981
3716.33854199
3716.15561721
3715.95836137
3715.75250761
3715.54492936
3715.34252785
3715.15184958
3714.97810179
3714.8251592
3714.69569277
3714.59188848
3714.51480655
3714.45820922
3714.40464194
3716.86966018
3716.88013307
3716.82814664
3716.73735653
3716.62026847
3716.47843601
3716.27308581
3716.06604747
3715.87685538
3715.67277901
3715.46727908
3715.26767682
3715.10562424
3714.95232522
3714.78318621
3714.65466698
3714.55216548
3714.47651746
3714.41926846
3714.35997465
3716.82521898
3716.84390544
3716.79514305
3716.7050683
3716.587954
3716.3241402
3715.97947739
3715.78779871
3715.65288989
3715.46271955
3715.27211128
3715.08869108
3715.00203469
3714.95553553
3714.78674202
3714.6054445
3714.50438833
3714.42959679
3714.37095509
3714.30605448
3716.76573173
3716.79195739
3716.7471486
3716.65872534
3716.49673257
3716.04465431
3715.68880334
3715.60723309
3715.53138378
3715.34136698
3715.15242979
3714.97230558
3714.94899023
3715.01599683
3714.87600369
3714.57064549
3714.44917272
3714.37497562
3714.31480215
3714.24520483
3716.68982879
3716.72215693
3716.68130758
3716.59530561
3716.38382208
3715.86295624
3715.58356217
3715.57643923
3715.52976243
3715.3269517
3715.1272203
3714.9381555
3714.94292806
3715.06502246
3714.9564518
3714.5556037
3714.3878474
3714.31428771
3714.25298284
3714.18012774
3716.59687295
3716.6334254
3716.5958859
3716.51233614
3716.28805069
3715.76657098
3715.52098634
3715.54617402
3715.51098327
3715.299954
3715.09358328
3714.89907289
3714.91420437
3715.05531488
3714.94905624
3714.51494765
3714.32185407
3714.24937694
3714.18771999
3714.11330135
3716.48756648
3716.52626823
3716.49094773
3716.40957581
3716.18228985
3715.64672532
3715.40220825
3715.44042196
3715.41533065
3715.20622602
3715.00296614
3714.81238436
3714.84035174
3714.99825086
3714.89522943
3714.44832727
3714.25300149
3714.181998
3714.12094571
3714.04656232
3716.3645022
3716.40328182
3716.3689956
3716.28928252
3716.05938682
3715.5112057
3715.27013771
3715.32485044
3715.31292888
3715.1087266
3714.91054542
3714.72498046
3714.76618524
3714.94071485
3714.84070032
3714.38081623
3714.18328431
3714.11420006
3714.0546111
3713.98178312
3716.23222457
3716.2690035
3716.23464204
3716.1561122
3715.92406445
3715.3646892
3715.12922307
3715.20356928
3715.20742759
3715.01066659
3714.8191922
3714.63956471
3714.69439372
3714.88553526
3714.78812879
3714.31484365
3714.11497188
3714.04804259
3713.99062486
3713.92072432
3716.09637857
3716.12941808
3716.09409454
3716.01658252
3715.82512197
3715.30764363
3715.09623597
3715.18494495
3715.19198274
3714.99503712
3714.80215084
3714.61993997
3714.66727479
3714.83972689
3714.71144391
3714.22898125
3714.05048494
3713.98547975
3713.93071674
3713.86479303
3715.96347734
3715.99116556
3715.95425918
3715.87776902
3715.7563836
3715.39200031
3715.20006219
3715.26410514
3715.24488872
3715.04322748
3714.84404604
3714.65384814
3714.65447667
3714.73606141
3714.51505044
3714.11111381
3713.99088618
3713.927967
3713.87613105
3713.81522394
3715.83946248
3715.86057282
3715.82189036
3715.74696183
3715.64876697
3715.46502586
3715.29683291
3715.27643363
3715.20381842
3715.00925282
3714.81578202
3714.62960605
3714.55589594
3714.48483776
3714.23369168
3714.02003455
3713.93797884
3713.87648369
3713.82748838
3713.77237968
3715.72922389
3715.74308488
3715.70291239
3715.62986348
3715.53505682
3715.41978897
3715.26070373
3715.13771057
3715.01127887
3714.83979715
3714.66841422
3714.50287088
3714.37400321
3714.23523937
3714.07450505
3713.97378618
3713.89258044
3713.83183789
3713.78525001
3713.73638251
3715.63660309
3715.64341121
3715.60265321
3715.53213712
3715.44063722
3715.32961609
3715.20080808
3715.05761162
3714.90399453
3714.74468058
3714.58500177
3714.43017978
3714.2850063
3714.15297935
3714.03636813
3713.93680243
3713.85597394
3713.79516003
3713.75009378
3713.70723842
3715.56444258
3715.56518498
3715.524974
3715.45759027
3715.3690989
3715.26115336
3715.13599829
3714.99709272
3714.84859523
3714.69499963
3714.54125016
3714.39193747
3714.25135649
3714.12277912
3714.00838865
3713.90988856
3713.82904104
3713.76733523
3713.72263244
3713.68485495
3715.51506186
3715.50870957
3715.46775268
3715.40128886
3715.31301158
3715.20495612
3715.08012442
3714.9425406
3714.79660473
3714.64676618
3714.49750072
3714.35301471
3714.21711164
3714.0927431
3713.98187426
3713.88603327
3713.80675802
3713.74545604
3713.70172252
3713.66947983
3715.4868844
3715.46628007
3715.41829752
3715.34627575
3715.25186195
3715.13808377
3715.0089957
3714.86927428
3714.72347947
3714.5757599
3714.43028688
3714.29071059
3714.16039304
3714.04206225
3713.93750188
3713.8480451
3713.77475379
3713.71854634
3713.6803757
3713.65893706
3221.63179333
3221.60433124
3221.54038177
3221.44382827
3221.31633609
3221.16060125
3220.98085
3220.78256828
3220.57198194
3220.3556288
3220.14044237
3219.93288458
3219.73909239
3219.56370702
3219.41007354
3219.28026365
3219.17546566
3219.09639986
3219.04345713
3219.01367473
3221.632791
3221.62603631
3221.57473373
3221.48892277
3221.37341748
3221.22920654
3221.05866954
3220.86622356
3220.65788198
3220.44067383
3220.22208575
3220.00934703
3219.80877167
3219.62513851
3219.4619497
3219.32178779
3219.20679384
3219.11857048
3219.05476145
3219.00651534
3221.62858119
3221.63507429
3221.58786695
3221.50107141
3221.38463081
3221.2398497
3221.06875924
3220.87535006
3220.66515482
3220.44591969
3220.22415478
3220.00801553
3219.80453595
3219.61863503
3219.45404778
3219.31350729
3219.19911765
3219.11186029
3219.04507444
3218.98591678
3221.6179454
3221.63598043
3221.58852033
3221.49447857
3221.370375
3221.14694718
3220.83241045
3220.60209008
3220.42058346
3220.21837954
3220.01459862
3219.8173544
3219.68832191
3219.60577741
3219.44065347
3219.27564242
3219.16757786
3219.08677581
3219.02110332
3218.95332099
3221.59756653
3221.6285345
3221.58130605
3221.48035102
3221.17261463
3220.59493336
3220.17594268
3220.06752773
3219.98513436
3219.81353353
3219.64165525
3219.47796006
3219.45957643
3219.57221216
3219.54342906
3219.30571702
3219.12521601
3219.0507682
3218.98616161
3218.90935776
3221.56325088
3221.60736658
3221.56162602
3221.37417068
3220.65163088
3219.99465943
3219.80067389
3219.82256668
3219.78140378
3219.60891072
3219.43792834
3219.27713036
3219.31067212
3219.55073141
3219.72149735
3219.52483091
3219.11312965
3219.00429593
3218.9401534
3218.85498209
3221.5111885
3221.56697693
3221.52390659
3221.1345189
3220.18183902
3219.75700856
3219.64480982
3219.66853299
3219.63349536
3219.4537143
3219.2775392
3219.11343233
3219.17363585
3219.48142302
3219.7848485
3219.80107053
3219.19293896
3218.94831465
3218.8842242
3218.79247025
3221.43845077
3221.50328408
3221.46350782
3220.93720192
3220.00769265
3219.71766051
3219.59811385
3219.62445755
3219.58850816
3219.39440661
3219.2068482
3219.03338037
3219.10507748
3219.44945213
3219.7955311
3219.93796921
3219.28846046
3218.88480803
3218.82080223
3218.72481606
3221.34329853
3221.41402904
3221.37730455
3220.81417915
3219.9123896
3219.65984178
3219.55033083
3219.58699744
3219.55744892
3219.35639427
3219.1632041
3218.98407672
3219.06174071
3219.42527675
3219.78919927
3219.95774221
3219.28804065
3218.81618348
3218.75268121
3218.65486924
3221.22593409
3221.29936136
3221.26492108
3220.68421627
3219.75628729
3219.51367663
3219.42172412
3219.47677729
3219.46074132
3219.26237457
3219.07324873
3218.89855942
3218.98979385
3219.37554418
3219.75765734
3219.93420897
3219.23503422
3218.74500639
3218.68222848
3218.58467771
3221.08928985
3221.16249875
3221.12904686
3220.53050842
3219.57713605
3219.34646214
3219.27504567
3219.35385568
3219.35397135
3219.1623751
3218.97998792
3218.8116417
3218.91790663
3219.32641055
3219.72643023
3219.9109433
3219.1817882
3218.67308331
3218.61177987
3218.51623025
3220.93901646
3221.00913752
3220.97522421
3220.35909873
3219.38126245
3219.16449453
3219.1159659
3219.22292147
3219.24098751
3219.05901412
3218.88531156
3218.7251102
3218.84801689
3219.28017479
3219.69857657
3219.8903858
3219.13062726
3218.60275408
3218.54342228
3218.45148057
3220.782659
3220.84706377
3220.81256394
3220.27700704
3219.31353055
3219.11266278
3219.09327666
3219.22725065
3219.25318717
3219.07021652
3218.89434099
3218.73162056
3218.85785887
3219.29355959
3219.70456238
3219.8519108
3219.02655089
3218.53627573
3218.47889762
3218.39199582
3220.62839614
3220.68453283
3220.64939757
3220.34924651
3219.49492049
3219.24800261
3219.27038677
3219.42581893
3219.44700631
3219.25008622
3219.05819755
3218.87784426
3218.98181349
3219.37888013
3219.73087585
3219.66560249
3218.79064041
3218.4746725
3218.41925432
3218.3388926
3220.48379617
3220.52946671
3220.49407088
3220.36944549
3219.84589209
3219.50091908
3219.5197074
3219.68916322
3219.69672898
3219.4835816
3219.27362094
3219.07336274
3219.13769597
3219.45819646
3219.6065111
3219.18222225
3218.54162615
3218.41853581
3218.36475468
3218.29241573
3220.35493816
3220.38878695
3220.35384522
3220.27261742
3220.07339946
3219.80559331
3219.76803729
3219.89887194
3219.87078453
3219.65002217
3219.4308279
3219.21937559
3219.20512029
3219.31100401
3219.11780596
3218.67157155
3218.42864969
3218.36882638
3218.3159976
3218.25282417
3220.24660254
3220.26867971
3220.23499436
3220.16247635
3220.06586003
3219.90266101
3219.75442253
3219.73744253
3219.6466287
3219.45896165
3219.27157918
3219.09021618
3218.98071355
3218.88359117
3218.65489586
3218.47558157
3218.39127082
3218.32709859
3218.27441664
3218.22048658
3220.16249613
3220.17412718
3220.14189082
3220.07774388
3219.99033936
3219.88078795
3219.75127237
3219.60562439
3219.44896807
3219.28664382
3219.12367794
3218.96569725
3218.81702087
3218.6805847
3218.55826523
3218.45180296
3218.36327978
3218.29453383
3218.24154348
3218.19572287
3220.10494536
3220.1046988
3220.06949867
3220.00737129
3219.92239882
3219.81526895
3219.68835615
3219.5459626
3219.39325713
3219.23552389
3219.07786665
3218.92490533
3218.78056573
3218.64770198
3218.52793158
3218.42286925
3218.33471179
3218.26584181
3218.21553114
3218.17854638
3220.07281206
3220.05306646
3220.00619785
3219.93455516
3219.83949095
3219.72328094
3219.58994835
3219.44463683
3219.29242274
3219.13786059
3218.98538119
3218.83890575
3218.70194566
3218.57718034
3218.46621874
3218.37056796
3218.29171273
3218.23115238
3218.18984064
3218.16708213
2726.36364515
2726.33698853
2726.27604157
2726.18167529
2726.05428692
2725.89476531
2725.70650159
2725.49511409
2725.26773848
2725.03191834
2724.79610839
2724.56782828
2724.35429066
2724.1603603
2723.98964987
2723.84449187
2723.72652824
2723.63711665
2723.57683216
2723.5445364
2726.37075052
2726.36503917
2726.31938498
2726.23973794
2726.12942351
2725.98627135
2725.81083113
2725.60725271
2725.38262852
2725.1451452
2724.90445322
2724.66917211
2724.44668641
2724.24171342
2724.05787593
2723.89824014
2723.76591162
2723.66391657
2723.59045198
2723.53921125
2726.3808867
2726.39145006
2726.34978161
2726.26523961
2726.14829874
2725.92834577
2725.6107753
2725.36605568
2725.16706344
2724.94620985
2724.72281316
2724.50565073
2724.35586312
2724.25232891
2724.07088325
2723.88889106
2723.7616597
2723.66390085
2723.58794807
2723.52346896
2726.38897168
2726.41571099
2726.37034034
2726.26427053
2725.8237025
2725.21604787
2724.81983687
2724.6868109
2724.582604
2724.40145608
2724.22021175
2724.04836923
2724.00959575
2724.09642974
2724.1254688
2723.96977111
2723.72976514
2723.64391488
2723.57225967
2723.49597589
2726.3893357
2726.43478793
2726.38470235
2725.9349209
2725.04775865
2724.51865286
2724.31034193
2724.24014021
2724.16097769
2723.98831872
2723.81853382
2723.66146813
2723.68407215
2723.91820522
2724.17135413
2724.20671234
2723.83686325
2723.61147831
2723.54517637
2723.45631801
2726.37434711
2726.43893604
2726.30061566
2725.33553242
2724.52325263
2724.13722858
2723.86601469
2723.78070375
2723.71178217
2723.5462009
2723.3867217
2723.24309812
2723.3123198
2723.64899949
2724.04564521
2724.35285389
2724.17277999
2723.60755054
2723.50430554
2723.40398
2726.33690423
2726.41845062
2726.07527246
2724.88642982
2724.29921343
2723.84246303
2723.53073165
2723.43277851
2723.36819222
2723.20352703
2723.04817622
2722.91077884
2723.0089222
2723.41556201
2723.9154649
2724.34011034
2724.45776557
2723.69221563
2723.45001274
2723.34098919
2726.27152461
2726.36621184
2725.88819814
2724.72933144
2724.20147173
2723.71469288
2723.38608845
2723.27539042
2723.2077199
2723.03216245
2722.87162034
2722.73187726
2722.84409727
2723.28951285
2723.8452782
2724.32922504
2724.55185691
2723.78389261
2723.38525882
2723.27087473
2726.17481596
2726.27807414
2725.76545225
2724.63011158
2724.11693538
2723.63370981
2723.31249553
2723.20181581
2723.15167175
2722.97327168
2722.81147874
2722.66639034
2722.77938887
2723.24099573
2723.81778497
2724.32014703
2724.55994319
2723.77844345
2723.31381302
2723.19724237
2726.04630496
2726.15334438
2725.62324286
2724.45510854
2723.95185489
2723.4846401
2723.18378767
2723.08691937
2723.05532459
2722.87947856
2722.72353252
2722.58417178
2722.70929282
2723.19116295
2723.78619626
2724.30061504
2724.54270124
2723.72178122
2723.23843114
2723.12231941
2725.88970889
2725.99632377
2725.44791056
2724.24711924
2723.75461672
2723.30617355
2723.02943944
2722.95780389
2722.94439784
2722.77908569
2722.63288749
2722.50191113
2722.64169776
2723.14494481
2723.75838241
2724.28431464
2724.52714273
2723.6648466
2723.16218423
2723.04848986
2725.71244825
2725.81440005
2725.24643047
2724.01447192
2723.53459633
2723.10773015
2722.85695017
2722.81851058
2722.82198479
2722.67060171
2722.53621677
2722.41710623
2722.57574125
2723.10296875
2723.73596537
2724.27311208
2724.51549223
2723.60995387
2723.08749349
2722.97802077
2725.52482836
2725.61835835
2725.13205534
2723.89529814
2723.44642925
2723.0547057
2722.83420996
2722.83241785
2722.83880802
2722.68950057
2722.55505356
2722.43805059
2722.6074166
2723.14449525
2723.77189533
2724.28911104
2724.4916308
2723.49950535
2723.01612164
2722.91257039
2725.33774509
2725.41917546
2725.17054092
2723.99456336
2723.57653014
2723.25301925
2723.07893314
2723.11447249
2723.11954676
2722.95684212
2722.80473945
2722.66856988
2722.82138015
2723.32741614
2723.88935876
2724.32010117
2724.35029958
2723.25521062
2722.94877013
2722.85318653
2725.16119346
2725.22730879
2725.1511786
2724.35668837
2723.82244935
2723.6063669
2723.50188592
2723.57284246
2723.56867781
2723.38013455
2723.19930689
2723.03257396
2723.14639707
2723.5780805
2724.01753595
2724.30055038
2723.87569194
2723.00061682
2722.88486779
2722.79967038
2725.0028651
2725.05169373
2725.01515527
2724.75299614
2724.20857719
2723.99714396
2723.97617243
2724.07311006
2724.05029165
2723.83477744
2723.62435975
2723.42550902
2723.48083077
2723.79817214
2724.07168002
2723.93816083
2723.22544258
2722.87965848
2722.82522833
2722.75250178
2724.86905959
2724.90073145
2724.87046143
2724.79077639
2724.51598388
2724.36898367
2724.37669063
2724.4483195
2724.39491886
2724.1648224
2723.93713932
2723.71804586
2723.69370362
2723.7922505
2723.67668635
2723.28722429
2722.90225608
2722.83072784
2722.77288354
2722.71291246
2724.76485684
2724.78184938
2724.75673114
2724.6971117
2724.61176825
2724.45266184
2724.3029646
2724.28677078
2724.19486929
2724.00228091
2723.80958989
2723.62243526
2723.50924611
2723.40707682
2723.16470638
2722.96943406
2722.87016952
2722.79221294
2722.73138123
2722.68213812
2724.69320242
2724.69552664
2724.66798099
2724.61431906
2724.53688222
2724.43359201
2724.30557759
2724.15781756
2723.99671562
2723.82860275
2723.6595683
2723.49484583
2723.33861462
2723.19347425
2723.06028522
2722.94081613
2722.83857791
2722.75797633
2722.69944654
2722.66053734
2724.65524965
2724.63746677
2724.5955823
2724.52866052
2724.43676128
2724.32050624
2724.18358727
2724.03211917
2723.87204855
2723.70850611
2723.54637921
2723.39001696
2723.24305041
2723.10811967
2722.98632682
2722.87952875
2722.7901255
2722.72064094
2722.67280818
2722.64780782
2231.12331164
2231.09779136
2231.04536555
2230.96031335
2230.83958973
2230.68083303
2230.48598674
2230.26089694
2230.01394583
2229.75374475
2229.49086817
2229.23440734
2228.99321128
2228.77254383
2228.57650142
2228.40772522
2228.26902927
2228.16287717
2228.09064525
2228.0557544
2231.13888783
2231.12686202
2231.08806554
2231.01861313
2230.91806172
2230.77906316
2230.5636164
2230.32471505
2230.08824595
2229.83039857
2229.56641364
2229.30708989
2229.08282569
2228.86960259
2228.64552738
2228.45948003
2228.30390286
2228.18413999
2228.10029931
2228.05295608
2231.17281475
2231.17535435
2231.13696971
2231.0557527
2230.77323746
2230.28915961
2229.89839817
2229.66545733
2229.49448842
2229.28053882
2229.06385967
2228.85588902
2228.7411652
2228.71728086
2228.69291831
2228.509307
2228.29872835
2228.18880787
2228.10572774
2228.04654211
2231.21223793
2231.23230587
2231.18396097
2230.75537586
2230.02416587
2229.46627127
2229.18935247
2229.03417058
2228.89761913
2228.70003265
2228.50523031
2228.32449532
2228.29167557
2228.44199976
2228.62592227
2228.62890268
2228.40183632
2228.17514546
2228.10163131
2228.02959058
2231.24729768
2231.28994421
2231.03996538
2230.10241823
2229.36714295
2228.86692185
2228.47722343
2228.28447338
2228.15836679
2227.97992314
2227.80942948
2227.65829991
2227.69127749
2227.97486535
2228.35164875
2228.67748688
2228.68375684