/*--------------------------------*- C++ -*----------------------------------*\
| =========                 |                                                 |
| \\      /  F ield         | OpenFOAM: The Open Source CFD Toolbox           |
|  \\    /   O peration     | Version:  3.0.1                                 |
|   \\  /    A nd           | Web:      www.OpenFOAM.org                      |
|    \\/     M anipulation  |                                                 |
\*---------------------------------------------------------------------------*/
FoamFile
{
    version     2.0;
    format      ascii;
    class       surfaceVectorField;
    location    "2.7";
    object      Uf;
}
// * * * * * * * * * * * * * * * * * * * * * * * * * * * * * * * * * * * * * //

dimensions      [0 1 -1 0 0 0 0];

internalField   nonuniform List<vector> 
22672
(
(0.000317479249874 8.9813121985e-05 -0.000297144126464)
(8.56566134285e-05 0.000323768733675 -0.00029420732485)
(0.000182531877385 0.000189674939068 -0.000641248593309)
(0.000807621853273 2.62072909276e-05 -0.000305198067755)
(0.00048435162451 0.000233236473827 -0.00046975609385)
(0.00063442706584 0.000173434931996 -0.000723379733978)
(0.00131201736913 1.14058745559e-06 -0.000263082872126)
(0.00109524652254 0.000206862522454 -0.00051417948189)
(0.00120113968678 0.000179906091169 -0.00071125866935)
(0.00170447270795 8.04143002161e-06 -0.000190756127518)
(0.0016041225897 0.000226449061878 -0.000471617018411)
(0.00166908236453 0.000206369155655 -0.000618904970664)
(0.00190428538151 4.12298877812e-05 -0.000109406079963)
(0.00194528605716 0.000288151239085 -0.000393107969333)
(0.00197264262351 0.000248731357879 -0.000487964405792)
(0.00187452467508 8.57611453676e-05 -3.07882009129e-05)
(0.00204573151523 0.000370183394567 -0.000297803609006)
(0.00204799826695 0.000295883296005 -0.000340423102864)
(0.0016231413939 0.00012950257711 3.77800577715e-05)
(0.00189647777535 0.00044867471347 -0.000203360039049)
(0.00188469693007 0.000336288961762 -0.000197291778473)
(0.0011850263913 0.000164233296219 8.98726658887e-05)
(0.00152076608233 0.00051239651144 -0.000119353801015)
(0.00150396070834 0.000366126348352 -7.42818044132e-05)
(0.000621784206159 0.000183732342051 0.000119087075949)
(0.000973955558167 0.000551718662264 -5.98230682842e-05)
(0.000959154102344 0.000382566765028 1.15232561124e-05)
(1.92452479983e-06 0.00018625634665 0.000125875007373)
(0.000328760059516 0.000563443852447 -3.16061073334e-05)
(0.000321120950056 0.000385812050112 5.64155693588e-05)
(-0.000598440295471 0.000172608791149 0.00011341385282)
(-0.000334313112037 0.000549946734403 -3.39588093014e-05)
(-0.000332116978016 0.000376926516714 5.04178152616e-05)
(-0.00110974482134 0.000143923752324 8.14264656065e-05)
(-0.000936467467142 0.000513423960963 -6.40681213022e-05)
(-0.000926482485027 0.000357051504425 -2.11973010636e-06)
(-0.00148223022978 0.000103887963551 3.18960573705e-05)
(-0.00141458491645 0.000455364420258 -0.000120092468691)
(-0.00140091269083 0.00032766326959 -8.28793395859e-05)
(-0.00167452706451 5.98010962613e-05 -2.85901970215e-05)
(-0.00171727453555 0.000383385555536 -0.000193268536893)
(-0.00170564881733 0.000290917493705 -0.000191089085595)
(-0.00166942472543 1.91669897031e-05 -9.61561215495e-05)
(-0.00181375829478 0.00030692414816 -0.000273720787899)
(-0.00181259839283 0.000250548936244 -0.000312026890195)
(-0.00146987983919 -7.86629776423e-06 -0.000165636307282)
(-0.00169390656182 0.000235653137939 -0.000354817251085)
(-0.00171445453765 0.00020984865594 -0.000435198463559)
(-0.00111336732832 -9.81090820694e-06 -0.000227203976436)
(-0.00137535138447 0.000187651151794 -0.000422220244466)
(-0.00143014234815 0.000177054905921 -0.000544164132906)
(-0.000671391295266 1.59182832143e-05 -0.000261770320645)
(-0.000921313951689 0.000177685834316 -0.000457808327904)
(-0.00101535656259 0.000158546851781 -0.000619662367995)
(-0.000253171729863 7.42745180198e-05 -0.000250176666663)
(-0.000389060979919 0.00020525288321 -0.000413947613938)
(-0.000526341664162 0.000154386529125 -0.000623472992295)
(-5.62047847636e-05 0.000286543326411 -0.000246904245221)
(-0.000145899647439 0.000167191493025 -0.000539715426158)
(0.000234058977889 0.000484399902575 -0.000466819292235)
(2.25821519074e-05 0.000805521373546 -0.000299264496462)
(0.000176242667455 0.000640370655872 -0.000715812264066)
(0.000790639465041 0.000434493230669 -0.000678737507984)
(0.00044150092645 0.00077301734985 -0.000681411259587)
(0.000648291886864 0.000633408189485 -0.00109636203081)
(0.00139620996951 0.000455235447357 -0.000722713628174)
(0.00116329172441 0.000812115321654 -0.000810933686477)
(0.00128320199809 0.00068093752022 -0.00121082393105)
(0.00186700212187 0.000533296639208 -0.000673968860227)
(0.00175261529563 0.000917283547898 -0.000783977773055)
(0.00180132733245 0.000777976428988 -0.00116162719449)
(0.0021107560844 0.000648125888098 -0.000581505498377)
(0.00214239637872 0.00107167943393 -0.000688872942069)
(0.00213583252538 0.00090580356341 -0.00102728262953)
(0.00208913983887 0.000767892496643 -0.000470375447142)
(0.00225494091549 0.00123751191441 -0.000559765912903)
(0.0022207822709 0.00103532217 -0.000845712664061)
(0.00181135864379 0.000869043847242 -0.000360493897836)
(0.00208424226765 0.00137877387584 -0.000425271440748)
(0.00204398632723 0.00114101359301 -0.000652318287552)
(0.00132040243741 0.000938749638795 -0.000269049535188)
(0.00166251935718 0.00148057022495 -0.000304796100373)
(0.00162992498731 0.00121309638998 -0.000477217778515)
(0.000686515648084 0.000970683820957 -0.000210516251566)
(0.00105381874912 0.00153423595501 -0.000217244562953)
(0.00103641596646 0.00124820936762 -0.000348630749822)
(-7.92945408197e-06 0.000966070996017 -0.000191439924008)
(0.000341446079471 0.00154159367664 -0.000173498330946)
(0.000341646393813 0.00125003820616 -0.000283704966471)
(-0.000679429631985 0.000928624185072 -0.000211440783424)
(-0.00038633679081 0.00150863978663 -0.000176547696845)
(-0.000369180347111 0.00122409005471 -0.000287193135886)
(-0.00125255322513 0.000861066268477 -0.000265587055599)
(-0.00104706017218 0.00144010964478 -0.000222437344562)
(-0.00101552073515 0.00117372218624 -0.000353562383013)
(-0.00166575892184 0.000768702328849 -0.000345257062954)
(-0.00157136631502 0.0013395762122 -0.000302932293818)
(-0.00152974506397 0.00110075351204 -0.000471006426713)
(-0.0018747504613 0.000661212284321 -0.000438399127771)
(-0.00190237683122 0.00121376007423 -0.00040671214748)
(-0.00185843613557 0.00100800069035 -0.000621383353986)
(-0.00185723541729 0.000550395732041 -0.000532381917435)
(-0.00200594521625 0.00107222918405 -0.000519846108427)
(-0.00197145653456 0.000900796223727 -0.000782820498763)
(-0.00161562600831 0.000454388027802 -0.000611401188268)
(-0.00186696822525 0.00092716913349 -0.000628084334045)
(-0.00186082335035 0.000787067490887 -0.000933125865077)
(-0.00118757050248 0.000395432024126 -0.000652824595933)
(-0.001501424326 0.00080351459552 -0.000708567157867)
(-0.00154692183944 0.000684010276836 -0.00104391944485)
(-0.000653954320312 0.000385484043063 -0.000609985621196)
(-0.000975891898755 0.000724804298469 -0.000729533835137)
(-0.00108716601797 0.000609466580651 -0.00108073517083)
(-0.000176148553014 0.000433110953997 -0.000410675192496)
(-0.000345923148635 0.000697822881857 -0.000608697588761)
(-0.000536847850004 0.000573136630835 -0.000970376317921)
(1.48670237736e-06 0.000723935131314 -0.000252787287545)
(-0.000141113186399 0.000577048101729 -0.000613540720412)
(0.000208359263564 0.0010769098185 -0.000513856463813)
(-5.24457186927e-06 0.00130470374537 -0.000258992593533)
(0.000185721893693 0.00118945829038 -0.000707542226271)
(0.000835916574494 0.00113047378667 -0.00081360743808)
(0.000462662691817 0.00136661927804 -0.000735247241844)
(0.000704527169478 0.00124759344385 -0.00122115983222)
(0.00152600188995 0.00125140317561 -0.000872197831358)
(0.0012904359773 0.00148601228004 -0.000881313191598)
(0.00141247714391 0.00136557320243 -0.0013639828172)
(0.00205139726971 0.0014298672493 -0.000798881854897)
(0.00194856732695 0.00167425280911 -0.000820154232247)
(0.00197236531571 0.00154474918402 -0.00128236510796)
(0.00231121539386 0.00163213209397 -0.000667133356594)
(0.00236505708158 0.00190213281428 -0.000673495332247)
(0.00231791527515 0.00175349902433 -0.00109027188526)
(0.0022720695417 0.00181675566451 -0.000514661906508)
(0.0024633225658 0.00212256510441 -0.000492880132433)
(0.00238658571448 0.00195067361425 -0.000845907636046)
(0.00195250232045 0.0019567243596 -0.000369573643285)
(0.0022495198162 0.00229578419603 -0.000316575777522)
(0.00217407244057 0.00210358422357 -0.00059744332924)
(0.00140667724457 0.00204148342492 -0.000252991128138)
(0.00176957359573 0.00240891336316 -0.000168651502362)
(0.00171479761032 0.00220077271775 -0.000382518246792)
(0.00071359246974 0.00207040105485 -0.000180226642333)
(0.00109897872096 0.00245796409358 -6.61288744e-05)
(0.00107378067115 0.00224186494114 -0.000230643527604)
(-3.75387256574e-05 0.00204986351702 -0.000158606103783)
(0.000328434695215 0.00245187023696 -1.87520422687e-05)
(0.000333849340026 0.00223505506804 -0.000159145532347)
(-0.000760378371987 0.00198686721314 -0.000187544257983)
(-0.00045136133465 0.00240001097402 -2.78888156951e-05)
(-0.000417977876319 0.00218956384112 -0.000168531731975)
(-0.00137760713112 0.00188679210291 -0.00025978258278)
(-0.00115759944902 0.0023097313497 -8.81110555722e-05)
(-0.00110056165707 0.00211160233079 -0.000252393174341)
(-0.00182403145711 0.00175471094247 -0.000364387378344)
(-0.00171993704499 0.00218540988783 -0.000189855005706)
(-0.00164536541135 0.00200410898998 -0.000399409624327)
(-0.00205238605155 0.00159725883678 -0.000488159128136)
(-0.00207977240656 0.00203107763348 -0.000321827528397)
(-0.0019980170754 0.00186888400595 -0.000588963289769)
(-0.00203513872373 0.00142411966008 -0.000615548525037)
(-0.0021989082794 0.00185231222247 -0.000470393780672)
(-0.00212575434947 0.00170976505003 -0.000797330742362)
(-0.00176984622526 0.00125409467655 -0.000725250303644)
(-0.00205518656119 0.0016590400488 -0.000618777366661)
(-0.00201632252029 0.00153536064972 -0.000997163838564)
(-0.00129097306085 0.00111311870051 -0.000785276397071)
(-0.00165791221433 0.00147664697804 -0.000738458634291)
(-0.00168588030248 0.00136616589469 -0.00115200601296)
(-0.000685756891137 0.00101948581424 -0.000728245802702)
(-0.00107274432265 0.00133197032511 -0.000785156050375)
(-0.00118947931339 0.00122610810956 -0.00121238269617)
(-0.000150254536133 0.000973626130432 -0.00045080968381)
(-0.000356041591916 0.00123796114551 -0.000649282829779)
(-0.000579154774824 0.00113176375058 -0.00107564114503)
(2.77120993619e-05 0.0011758108423 -0.000213249020511)
(-0.000148397730057 0.00107450611961 -0.000602130588424)
(0.000224968020375 0.00158482094261 -0.000480383371564)
(-2.59342482791e-06 0.00170662645503 -0.000191134570948)
(0.000211847714302 0.00165777030683 -0.000626891213596)
(0.000941784833253 0.00171528604391 -0.000802952995363)
(0.00053776552598 0.00184485112204 -0.000702108827924)
(0.000804255929947 0.00176604002876 -0.001195049126)
(0.00171849823885 0.00190292781117 -0.000829269592487)
(0.00147113851992 0.00201847220015 -0.000827734763385)
(0.00159707316752 0.00192671438228 -0.00130917373828)
(0.00228787485028 0.00213989672765 -0.000694767709597)
(0.00218945757436 0.00225077261216 -0.000705752943071)
(0.00219929841519 0.00214906884655 -0.00114589674844)
(0.00254361538685 0.00238414831727 -0.000499242108086)
(0.00261446424327 0.0025054026882 -0.00049020902354)
(0.00254344208597 0.0023933940965 -0.000859010658554)
(0.002463943833 0.00259134838019 -0.000294794003448)
(0.0026769426191 0.00273356989276 -0.000251637804002)
(0.00257563051935 0.00261337409299 -0.000531333402043)
(0.00208423065013 0.00273595176178 -0.000115653636599)
(0.00240231843518 0.00289968615129 -3.76191700423e-05)
(0.00230748599052 0.0027755341749 -0.000224188875226)
(0.00147224402992 0.0028120148301 1.82107513761e-05)
(0.00185303833976 0.00299402395363 0.000130394993375)
(0.0017879014391 0.0028704178622 2.68759683805e-05)
(0.000718284011039 0.00282549595741 9.53457256643e-05)
(0.00111854154054 0.00302113050042 0.00023787690692)
(0.00109210545753 0.00290096328793 0.000190793565763)
(-8.63120666179e-05 0.0027881050709 0.000111965245819)
(0.000294620333248 0.0029952625857 0.000280666007743)
(0.000306606037266 0.00287998163013 0.000261203672386)
(-0.000855043346046 0.00270990567744 7.15443867157e-05)
(-0.000528929024527 0.00293028176694 0.000261670790374)
(-0.000482821171531 0.00281999898739 0.000238460398964)
(-0.0015121709448 0.00259705411539 -1.81834784982e-05)
(-0.00127239519411 0.00283493077091 0.000187870874538)
(-0.00119809892679 0.00272901225765 0.000131928044554)
(-0.00199231945939 0.00245241591132 -0.00014729515576)
(-0.00186824022288 0.00271201313292 6.77646998588e-05)
(-0.00177322021602 0.00260951632847 -4.64549173416e-05)
(-0.00224637593144 0.00227870943825 -0.000304062180933)
(-0.00225822190621 0.00256074700357 -8.90734669022e-05)
(-0.00215414667133 0.00246150752484 -0.000275613142688)
(-0.00223994139514 0.00208182021098 -0.000473622622296)
(-0.00239979860621 0.00238245199158 -0.000270720816707)
(-0.00230469841028 0.00228656848112 -0.000536574608826)
(-0.00196171804695 0.00187775328897 -0.000631985697308)
(-0.00226246630749 0.00218239500767 -0.000462925471107)
(-0.00220563860807 0.00209123068311 -0.000801578666957)
(-0.00143913776833 0.00169196575672 -0.000738338287594)
(-0.00184487232793 0.00198147360592 -0.000632700303205)
(-0.00186427135691 0.00189532598362 -0.00102740731553)
(-0.000763024270911 0.00154559839607 -0.000706193077452)
(-0.00120754923452 0.00180456517226 -0.000724214387026)
(-0.0013295324389 0.00172407813291 -0.00114870879404)
(-0.000158563443737 0.00143248053591 -0.00041172216648)
(-0.000409233180269 0.00166705833164 -0.000604785429048)
(-0.000652178369215 0.00159718898382 -0.00103355849242)
(2.78379696006e-05 0.00153554461955 -0.000146572941441)
(-0.000166561546693 0.00149419833374 -0.00051829752993)
(0.000282481394795 0.00194411778162 -0.000412860027308)
(2.62571274024e-05 0.00193396793639 -0.00011443704648)
(0.000253522951566 0.00198064606808 -0.00050982322405)
(0.0010950131534 0.00212436861088 -0.000726890595945)
(0.00064955971214 0.00211919047364 -0.000625650815663)
(0.000933600760361 0.00212371352806 -0.00108687142969)
(0.00194839770718 0.00234062715434 -0.000704218113969)
(0.00167552372204 0.00231228012923 -0.000716024799392)
(0.00181010531551 0.00229945617386 -0.00114719274122)
(0.00254426894336 0.00258830133395 -0.000501194257014)
(0.00243771469795 0.00254435921056 -0.000530675793913)
(0.00244729753143 0.00252443757579 -0.000889458013929)
(0.00277615714748 0.00282510636396 -0.000242604719455)
(0.00285327928121 0.00277914190372 -0.000251485863406)
(0.00277705324676 0.00275830200186 -0.000505627514986)
(0.00264001690017 0.00301072604841 5.53702940319e-06)
(0.00286466042482 0.00297415815312 3.17092943125e-05)
(0.00275894919683 0.00295754364885 -0.00010444803096)
(0.00218887955787 0.00312558866985 0.000208429459932)
(0.00252045403962 0.00309961323344 0.000269597543702)
(0.00242507002524 0.00309365748234 0.000251210302908)
(0.00150925294349 0.00317065641472 0.00035006114892)
(0.00190084823717 0.00315498671729 0.000444412331143)
(0.00183971161694 0.00316133414641 0.000518663929942)
(0.000698928047557 0.0031583291206 0.000423197188999)
(0.00110904254849 0.0031491470531 0.000545369317103)
(0.00108916837686 0.00316738708838 0.00068230843134)
(-0.000149362553309 0.00310522628094 0.000430371552298)
(0.000243940487131 0.00310253177679 0.0005772908887)
(0.000263028167797 0.0031288720874 0.00074102148026)
(-0.000952962607233 0.00302372118383 0.000377997278196)
(-0.000608799787848 0.00303174875836 0.000547500671973)
(-0.000556409403922 0.00306081208838 0.000702133094024)
(-0.00164094324365 0.00291910703552 0.000273819052895)
(-0.0013762251242 0.00294582541019 0.000464079050729)
(-0.00129703212761 0.00297190831975 0.000577085975305)
(-0.00215149300849 0.00279078579971 0.000125986388716)
(-0.00199654987805 0.00284465795557 0.000333722267812)
(-0.00189765710707 0.00286316288229 0.00037790485911)
(-0.00243317134809 0.00263669545681 -5.57321026753e-05)
(-0.00241321997394 0.00272368466174 0.000162624516588)
(-0.00230568365549 0.00273198358303 0.000118740533549)
(-0.00244503830064 0.00245711619035 -0.000260023665518)
(-0.00257979103418 0.00257902461784 -4.01288414543e-05)
(-0.00248188691464 0.00257645322699 -0.000184705887395)
(-0.00216567441493 0.00226213170487 -0.000463640077004)
(-0.00245750682535 0.0024092320267 -0.000264515449799)
(-0.00239935727306 0.00239938004568 -0.000506201182515)
(-0.00161247933049 0.0020720327364 -0.000618576402636)
(-0.00203235706705 0.00222884464592 -0.000476699152938)
(-0.00205408035582 0.00221589196841 -0.000800566459462)
(-0.00087586443574 0.00190560277471 -0.000622806738622)
(-0.00135680827814 0.00205647684976 -0.00061174464973)
(-0.00148612176253 0.0020472077886 -0.000988526955092)
(-0.000200727613542 0.00175066847657 -0.000339636204009)
(-0.000491494225997 0.00190546123055 -0.000519864837694)
(-0.000745255028807 0.00191104740788 -0.000913540137822)
(5.09566285969e-06 0.00173390998099 -7.18725313078e-05)
(-0.000195940778112 0.00177761322666 -0.000399093243141)
(0.00036126412222 0.00208384129692 -0.000327227834835)
(6.78171814629e-05 0.00194600372955 -3.87342252658e-05)
(0.000300737878058 0.00209494919036 -0.000373300118985)
(0.00126138418205 0.00228136978637 -0.000614785019109)
(0.000768965139107 0.00214673734042 -0.000527104536176)
(0.00106626810999 0.00225383998733 -0.000927667091641)
(0.00217309539248 0.00248854591501 -0.000542482479336)
(0.00186562380752 0.00232862753311 -0.000579060886345)
(0.00201407499043 0.00241898995991 -0.000928058715755)
(0.00277702031052 0.00270593388904 -0.000280967400304)
(0.00265289611243 0.00252663944758 -0.000341352349548)
(0.00267449128256 0.00261354933579 -0.000586205178446)
(0.0029722735031 0.00289695708598 2.28281503623e-05)
(0.00304522368434 0.00271151558307 -1.71888637557e-05)
(0.00298033111106 0.00280335022555 -0.000127626813862)
(0.00277077380369 0.00303032744107 0.000295769808612)
(0.00299942503014 0.00284735364424 0.000291188546506)
(0.0029066083344 0.00295297240142 0.000328304340461)
(0.00224987017997 0.00309571125333 0.000505580414913)
(0.00258777720365 0.00291813466484 0.000536108797783)
(0.00250654607249 0.00304177638961 0.000702382381171)
(0.00150998343513 0.00309991028044 0.000639720499327)
(0.0019062909476 0.00292717419894 0.000702086291588)
(0.00185938505349 0.00306941953669 0.000967699483628)
(0.000657361640415 0.00306004500284 0.000699463016804)
(0.00107074857017 0.00288739268086 0.0007862320005)
(0.0010627113081 0.00304562766179 0.00111437639025)
(-0.000217368922153 0.0029962525528 0.000694420008376)
(0.000182194661189 0.00282390016242 0.000802591293621)
(0.000208166060499 0.00299105359692 0.00115336237574)
(-0.00103885733891 0.00292167874927 0.000633582444506)
(-0.000681082180139 0.00275455048711 0.000763149116503)
(-0.000627879868969 0.00292187211342 0.00109868684068)
(-0.00174415517655 0.00284001344395 0.000523982265645)
(-0.00145575907011 0.00268782779822 0.000676523346313)
(-0.00138156112877 0.00284667398414 0.000963295542248)
(-0.00227622143689 0.00274724411838 0.000370360395684)
(-0.00208791436676 0.00262075536275 0.000546562435235)
(-0.00199836742481 0.00276444124104 0.000755968878669)
(-0.00258241910894 0.00263683130081 0.000178227777809)
(-0.00252356453678 0.00254474255037 0.000375171800831)
(-0.00242792965447 0.00266961127562 0.000485139738774)
(-0.00261654822514 0.00250339341767 -4.46206257348e-05)
(-0.00271293609094 0.00245097030647 0.000166330322222)
(-0.00262793231503 0.00255670010125 0.000162183311528)
(-0.002345653968 0.00234995679842 -0.000277574525733)
(-0.00261011027754 0.00233343301051 -7.3859120596e-05)
(-0.00256428390008 0.00242405182393 -0.000195095427654)
(-0.0017768000422 0.0021890646501 -0.000469867400033)
(-0.002188302584 0.00219839212336 -0.000312270684405)
(-0.00222164294566 0.00228073098931 -0.000538401654859)
(-0.000996550405811 0.00203359074873 -0.000508802748803)
(-0.00149088461124 0.00205727312542 -0.00048022624535)
(-0.00163004272064 0.00214063277971 -0.000781046218758)
(-0.00026029370346 0.00186652542605 -0.000252101164992)
(-0.000578999848498 0.001918390012 -0.000417460952853)
(-0.000837868891658 0.00201590183359 -0.000749185828911)
(-2.86924048811e-05 0.00173735489039 6.82169193189e-07)
(-0.000229115881841 0.00187069046213 -0.000263738835246)
(0.000439459117694 0.00198518126751 -0.000238610926608)
(0.000110794359631 0.00174238841574 2.9477089868e-05)
(0.000342605096261 0.00198079182221 -0.000235843872831)
(0.00140755131219 0.00216973554242 -0.000491380403412)
(0.000873656111755 0.00192722543091 -0.000424233447721)
(0.0011781434024 0.00213431500736 -0.000748580309721)
(0.00235574832465 0.00234122405943 -0.000377930756557)
(0.00201584404997 0.00207526857198 -0.000442141249012)
(0.00217835322314 0.00227042032224 -0.00069483801212)
(0.00295325246066 0.00250515162074 -7.75738129994e-05)
(0.00281121847033 0.00222037741947 -0.000168152473558)
(0.00284962429199 0.00241611261222 -0.000291241992548)
(0.00310450508462 0.00263393537549 0.000251171532388)
(0.00317257867146 0.0023415655912 0.000181520797106)
(0.00312706010771 0.0025472098889 0.000218697561928)
(0.00284240771473 0.00270688479353 0.000531527535677)
(0.00307260090083 0.00241491546549 0.000498170590179)
(0.00300056571968 0.00263785014799 0.000694535813634)
(0.00226149492207 0.00272114779752 0.000732614674457)
(0.00260298270129 0.0024324656337 0.000734765170806)
(0.00254214879376 0.00267543774319 0.0010665821421)
(0.00147549395314 0.00268655290579 0.000848597792761)
(0.00187275738921 0.00240129465302 0.000881489077924)
(0.00184411784625 0.00266333349788 0.00131188086075)
(0.000598073801275 0.00262369179933 0.000889360277317)
(0.00100946329911 0.00233547801321 0.00094129804458)
(0.00101458572421 0.00261260187125 0.00142933516357)
(-0.000283952226962 0.00255516990478 0.000871320401748)
(0.000115575197412 0.00226266253799 0.000939103813709)
(0.000146950271149 0.00254677095325 0.00144326396705)
(-0.00110481786996 0.0024940736917 0.00080609001831)
(-0.000740202137499 0.00220048167931 0.000891826186561)
(-0.000690066865586 0.00248226161511 0.00137493471396)
(-0.00181168566266 0.00244224240543 0.000699103515902)
(-0.00150584478503 0.0021563983308 0.00080824236205)
(-0.00144239217821 0.0024270150634 0.00123829745891)
(-0.00235336410197 0.0023922262335 0.000551373840382)
(-0.00213674616873 0.00212537792388 0.00068791518437)
(-0.00206357584806 0.00237795155804 0.00103705600643)
(-0.00267733780144 0.00233336797489 0.000363274345243)
(-0.00258220467448 0.00209572947585 0.000527897275632)
(-0.00250600703754 0.00232656563043 0.00077298682908)
(-0.00273191962163 0.00225618203944 0.000137091827361)
(-0.00278926816101 0.00205543057349 0.000326509617401)
(-0.00272452800037 0.00226420489292 0.000450121533223)
(-0.00247539536047 0.00215797487589 -0.000108555279268)
(-0.00270637548311 0.00199512854153 8.46360938901e-05)
(-0.00267878671258 0.00218548520938 8.17801121858e-05)
(-0.0019038683055 0.00204398029421 -0.000322629529722)
(-0.00229531795391 0.0019147280665 -0.00016444529538)
(-0.002343235189 0.00209365660236 -0.000287863165196)
(-0.00109908045235 0.0019205933765 -0.0003888844494)
(-0.00159099724625 0.00181889831265 -0.000352976132317)
(-0.00173908566249 0.00199551278143 -0.000566413269116)
(-0.000319072879384 0.00176824812279 -0.000164677618668)
(-0.00065390697864 0.00171053760407 -0.000315493599611)
(-0.000912418941389 0.00189659067302 -0.00057215543637)
(-6.33048446259e-05 0.00154935536729 6.46268283045e-05)
(-0.000257861177078 0.00175970274319 -0.000131073532401)
(0.000505901287866 0.00166437561189 -0.000156145431245)
(0.000147372568099 0.00134875124423 8.49893033593e-05)
(0.000375082813503 0.00165209358569 -0.000112264075365)
(0.00151866983195 0.00181283958755 -0.000374994293321)
(0.000951317087747 0.00149236976904 -0.000332834550493)
(0.00125934420267 0.00178073955602 -0.000577912796)
(0.0024833852966 0.00193406708721 -0.000232362966013)
(0.00211618862695 0.00159337436755 -0.000325010276959)
(0.00229142409838 0.00187756002725 -0.000482821111697)
(0.0030643419561 0.00203615332355 9.09421365483e-05)
(0.00290705277484 0.00167983254225 -3.01442669522e-05)
(0.00296353152221 0.00196891467019 -4.04115604171e-05)
(0.00317354029263 0.00210184792786 0.000428519854897)
(0.00323658581134 0.0017391863374 0.00033100248615)
(0.00321229622299 0.00204061878854 0.000493181214733)
(0.00285931161457 0.00211995731984 0.000701408225308)
(0.00309150287311 0.00175872752782 0.000642764706997)
(0.00304088067446 0.00207627258725 0.000970416981377)
(0.00223142699882 0.00209238455684 0.000883639574273)
(0.00257649084758 0.00173635820601 0.000862677194128)
(0.00253574379175 0.00207000804157 0.00132399245983)
(0.00141433931595 0.00203022620273 0.000974189329743)
(0.0018118325877 0.00168049742547 0.000984778293846)
(0.00180003792848 0.00202768822264 0.00153788535192)
(0.000528834543149 0.00195468980453 0.000991041580972)
(0.000935429570002 0.00160389053393 0.00101511016683)
(0.000951490209963 0.00195957254596 0.00161709268918)
(-0.000343684816396 0.00188849023753 0.000959609598522)
(5.10482398001e-05 0.00153262828166 0.000992590213961)
(8.52590277649e-05 0.00189021119327 0.00160255402079)
(-0.00114819448647 0.00184362179878 0.000893978530301)
(-0.000783454247213 0.0014820894483 0.000939046388961)
(-0.000738883335012 0.00183497724733 0.00152290225277)
(-0.0018430208195 0.00182061631264 0.000797054030517)
(-0.00152761672378 0.00145843881857 0.000863315434487)
(-0.00147714755592 0.00180083509407 0.0013927861313)
(-0.002383550616 0.00181011882151 0.00066443861962)
(-0.00214667257348 0.00145648701852 0.000759736818771)
(-0.00209180901894 0.00178357168621 0.00120942091676)
(-0.00271780058319 0.00179903261419 0.00049113254779)
(-0.00259359334531 0.00146400637055 0.000618456511263)
(-0.00253841674955 0.0017727235763 0.000965973213604)
(-0.00278977130296 0.00177567866363 0.00027405388393)
(-0.00281248613611 0.00146800177018 0.000433059635518)
(-0.00276927179171 0.00175759057186 0.000659399587568)
(-0.00254987773956 0.00173356875817 2.87460777778e-05)
(-0.00274716051262 0.00145853677552 0.000199473049866)
(-0.00273893996357 0.00173054979567 0.000296698188137)
(-0.00198507721871 0.0016717215038 -0.000194791897976)
(-0.0023507449875 0.00143076562143 -5.05734272963e-05)
(-0.0024134035302 0.00168963986398 -8.08381666106e-05)
(-0.0011727196698 0.0015911553996 -0.000279585282528)
(-0.00165090570988 0.00138282577575 -0.000248153043887)
(-0.00180663699518 0.0016363674581 -0.000376285169534)
(-0.000367731979595 0.00147424157821 -8.61891526388e-05)
(-0.000705994773327 0.00131527504779 -0.000229242330526)
(-0.000962549821313 0.00157073511875 -0.000409725337402)
(-9.12131247946e-05 0.00119856963844 0.000113555137276)
(-0.000279090227249 0.00146029551055 -1.69463852501e-05)
(0.000551750624602 0.00116308024343 -9.1699815889e-05)
(0.000171202102996 0.000816544013962 0.000120750055654)
(0.000395212553485 0.00114928320577 -1.95432780948e-05)
(0.00158710070741 0.00125928720721 -0.000282850534131)
(0.000995327449378 0.000899265313395 -0.0002673943412)
(0.00130639568869 0.00123737651888 -0.000442245468923)
(0.00255343712473 0.00132551785118 -0.000122791577899)
(0.00216533817566 0.000947140495856 -0.000243057159018)
(0.00235238888028 0.00129132102732 -0.000320102328623)
(0.00311389445085 0.00136941876901 0.00020991608265)
(0.00294498622875 0.000976837505273 6.08833478979e-05)
(0.0030183059001 0.00133180544357 0.000142537997442)
(0.00318796541485 0.00138311604279 0.00054524733825)
(0.00324804397187 0.00098388835866 0.000423496791939)
(0.00324214084461 0.00135278016014 0.000681227373492)
(0.0028345118806 0.0013627531119 0.000804033675818)
(0.00307132687831 0.000964979635207 0.000725423984993)
(0.00303687747597 0.00134696427399 0.00114720185116)
(0.00217418607922 0.00131258413225 0.000963815913702)
(0.00252688014304 0.000921497871142 0.00092831894961)
(0.00249865989691 0.00131304651117 0.00147518660968)
(0.00133989285989 0.00124270398038 0.00102569913094)
(0.00174292114723 0.000861216534039 0.00102757764537)
(0.00173847577257 0.00125760952509 0.00165357460859)
(0.000459214496324 0.00117082629232 0.00101665879982)
(0.000864798960399 0.000793815356898 0.00103159792534)
(0.000882739609899 0.00118888820617 0.00169075403408)
(-0.000392272732834 0.00111565543731 0.0009720270044)
(-2.74000741858e-06 0.000737457249202 0.000991566045172)
(2.89378516076e-05 0.00112760977964 0.00164665872362)
(-0.00117006038594 0.00108668477385 0.000908383293147)
(-0.000811134008521 0.00070264816191 0.00093306511457)
(-0.000772593975736 0.001086024072 0.00155722934955)
(-0.00184340524364 0.00108422166788 0.00082599822274)
(-0.0015291587341 0.00069387139764 0.000865111817499)
(-0.00148777012464 0.001069680841 0.00143791262479)
(-0.00237447978433 0.00110012822936 0.000713754710414)
(-0.00213039494324 0.000708308305101 0.000777880952436)
(-0.00208768611062 0.001075077907 0.00127925353098)
(-0.00271192808154 0.00112228067724 0.000560383598991)
(-0.00257149263434 0.000737369570184 0.000655106081204)
(-0.00253120397443 0.00109269306494 0.001064085302)
(-0.00279630578186 0.00113957400778 0.000358478801454)
(-0.00279505807947 0.000770289161193 0.000486267534632)
(-0.00276843275477 0.00111213977677 0.00078209043719)
(-0.00257187198462 0.00114377005836 0.000120153544792)
(-0.00274180427008 0.000798557207157 0.000264422129569)
(-0.00274991042434 0.00112541876834 0.000435545818588)
(-0.00202044027031 0.00112964804376 -0.000103934573208)
(-0.00235966486189 0.000813677882544 1.87272868125e-05)
(-0.00243539595573 0.00112686406081 6.56559928374e-05)
(-0.00121187574359 0.00109475652169 -0.000197810091885)
(-0.00167084712593 0.000811217503262 -0.000179848173209)
(-0.0018335902167 0.00111409145185 -0.000236956355744)
(-0.00039778805135 0.00102659098884 -2.94980406111e-05)