/*--------------------------------*- C++ -*----------------------------------*\
| =========                 |                                                 |
| \\      /  F ield         | OpenFOAM: The Open Source CFD Toolbox           |
|  \\    /   O peration     | Version:  3.0.1                                 |
|   \\  /    A nd           | Web:      www.OpenFOAM.org                      |
|    \\/     M anipulation  |                                                 |
\*---------------------------------------------------------------------------*/
FoamFile
{
    version     2.0;
    format      ascii;
    class       volScalarField;
    location    "5.6";
    object      k_0;
}
// * * * * * * * * * * * * * * * * * * * * * * * * * * * * * * * * * * * * * //

dimensions      [0 2 -2 0 0 0 0];

internalField   nonuniform List<scalar> 
7968
(
0.000485104247329
0.000569394130236
0.000633205672621
0.000669475953897
0.0006841894818
0.000685036663402
0.000678241634925
0.000667376236795
0.000656456991988
0.000648219872535
0.00064820177123
0.000656424974902
0.00066734316828
0.00067821712819
0.000685031270754
0.00068420264194
0.000669508699176
0.000633248761116
0.000569438744014
0.000485130837701
0.000569372404475
0.000856705740568
0.0010397704414
0.00113747624429
0.00117527518274
0.00117526469146
0.00115531089291
0.00112699235546
0.00110171487295
0.00108679532606
0.00108674883713
0.00110159909127
0.00112683387596
0.00115514627917
0.00117513328662
0.00117519669333
0.00113746144471
0.00103980236365
0.000856761423742
0.000569410342312
0.000633160734221
0.00103972959786
0.00129181807985
0.00142659601132
0.0014809788766
0.00148358831197
0.00145813838149
0.00142189093192
0.00138994223018
0.00137150688703
0.00137143907706
0.00138976655807
0.00142163838997
0.00145785888816
0.00148334157887
0.00148080343646
0.00142650655096
0.00129179954208
0.00103975853079
0.000633196987207
0.000669404584367
0.00113740285472
0.00142657015374
0.00158105201603
0.00164280006528
0.00164411840267
0.001612997957
0.00157110630964
0.00153567405442
0.00151779820626
0.00151772830442
0.00153546775784
0.00157077430133
0.00161260859053
0.00164375610804
0.0016425190419
0.00158087203569
0.00142647963527
0.00113738317222
0.000669431377064
0.000684098892986
0.00117520695772
0.00148098466684
0.00164284801903
0.00170370231224
0.00170052783568
0.00169176966484
0.00167089704586
0.00164705159947
0.00163144164668
0.00163137178982
0.00164686895071
0.00167063240055
0.00169144682017
0.00170007930219
0.00170331688082
0.00164257009968
0.00148080902011
0.00117512065694
0.000684104212069
0.000684959581046
0.00117527546955
0.00148371699117
0.00164432821185
0.00170070893161
0.00173438678112
0.00174121215944
0.00172709172173
0.00170542865585
0.00168966861909
0.00168959796192
0.00170525066991
0.00172683896137
0.00174091570319
0.00173404355099
0.00170026495104
0.00164397357412
0.00148347107152
0.00117513321081
0.000684941148829
0.000678185782615
0.00115542988626
0.00145844687408
0.00161345319648
0.00169207188133
0.00174138881798
0.00175412818227
0.00174037224485
0.00171647627962
0.00169843872327
0.00169836940897
0.00171630482031
0.00174013381278
0.00175385850645
0.00174110495729
0.00169176507365
0.00161308092437
0.00145817076542
0.0011552495288
0.000678140034058
0.000667343721521
0.0011272128834
0.00142235914234
0.00157176451935
0.0016713748816
0.00172747077663
0.00174058970671
0.00172340185737
0.00169478155694
0.00167282602098
0.0016727636228
0.00169463355861
0.00172320609523
0.001740378777
0.00172726038735
0.00167115638795
0.00157147923704
0.0014221289386
0.00112704380463
0.000667282467747
0.000656421794704
0.00110196516949
0.0013904616051
0.00153634350219
0.00164763213237
0.00170594952253
0.00171686292023
0.00169496044084
0.00165956194684
0.00163183672967
0.00163179060231
0.00165946393485
0.00169484934868
0.00171676408043
0.0017058676395
0.00164755529584
0.00153624579162
0.00139036287732
0.00110187054973
0.00065636672603
0.000648159732676
0.00108698680369
0.00137193989828
0.00151828303182
0.00163196410875
0.00169019098465
0.00169886395909
0.0016730758212
0.00163192855236
0.0015986591356
0.00159864427838
0.00163191435799
0.00167309278679
0.00169892530768
0.00169028916393
0.00163208178667
0.00151840131781
0.00137203901631
0.00108702227497
0.000648139235445
0.000648167737049
0.00108685377878
0.00137171438221
0.00151804237502
0.00163173499568
0.00168998790944
0.00169871042032
0.00167299603238
0.00163193606416
0.0015987486248
0.00159877931904
0.00163203064454
0.00167316522915
0.00169895211408
0.00169028122065
0.00163205621743
0.00151837233282
0.00137202341875
0.00108703843122
0.000648205720254
0.000656414918615
0.00110164376634
0.00138990838652
0.00153566339611
0.00164706848559
0.00170547644102
0.00171652265653
0.00169480796939
0.00165962514924
0.00163209219773
0.00163214356703
0.00165976947025
0.00169504848149
0.00171685059772
0.00170586243803
0.00164749619236
0.00153615175416
0.0013903236047
0.00110190441947
0.000656479448455
0.000667343653379
0.00112683071743
0.00142166644721
0.00157081718203
0.00167066352489
0.00172689180992
0.00174019940916
0.00172326994982
0.0016949403086
0.00167323114949
0.00167328680022
0.00169509393948
0.00172351965678
0.00174053217052
0.001727277172
0.00167108629
0.00157133045623
0.00142207627257
0.00112708886813
0.000667404760447
0.000678215651067
0.00115510569934
0.0014577985683
0.00161251126759
0.00169133475037
0.00174081878737
0.00175377873053
0.001740312009
0.00171673162961
0.00169895059076
0.0016990042786
0.00171687678734
0.00174053812899
0.00175406540073
0.00174113968694
0.00169167679358
0.00161290513842
0.00145811090748
0.00115529801587
0.000678251097694
0.0006850241633
0.00117508219557
0.0014832422176
0.00164358635394
0.00169982906575
0.00173383754483
0.00174093056298
0.00172710080903
0.0017057429792
0.00169023193859
0.00169028286749
0.00170587534452
0.00172729258323
0.00174115439119
0.00173406843413
0.00170006579203
0.00164380301029
0.00148341561647
0.0011751813261
0.000685027500021
0.000684191348523
0.00117516725649
0.00148072573626
0.0016423705754
0.00170307854783
0.00169996047645
0.00169155371752
0.00167096655881
0.00164740847393
0.00163202117843
0.00163207151397
0.0016475332622
0.00167112941638
0.00169171630991
0.00170007734922
0.00170315943067
0.00164243973112
0.00148077862486
0.0011751847014
0.000684170176444
0.000669490511519
0.00113747879149
0.00142649864716
0.00158081701203
0.00164245256825
0.00164379126755
0.00161285132916
0.00157124583114
0.00153609746727
0.00151839178815
0.00151844340095
0.00153622168472
0.00157138805771
0.00161296307469
0.00164385121934
0.00164246880857
0.00158081507672
0.0014264850704
0.00113744959422
0.000669458037937
0.000633224758728
0.00103986256355
0.00129186668443
0.00142652980268
0.00148082847996
0.00148344574191
0.0014581124925
0.00142206951246
0.00139035766523
0.00137212518976
0.00137217859738
0.00139047944207
0.00142220379962
0.00145821415175
0.00148349584853
0.00148083384177
0.00142650885732
0.00129183288902
0.00103982219047
0.000633194334054
0.000569412849596
0.000856832172493
0.00103986673726
0.00113750647854
0.00117524746868
0.00117523445297
0.00115534045797
0.00112714796648
0.00110202570333
0.00108724702059
0.00108729305707
0.00110212604174
0.0011272565263
0.00115542187072
0.00117527429206
0.00117525054816
0.00113748537383
0.0010398364221
0.000856800796632
0.000569390189178
0.000485115955996
0.000569449055115
0.000633274736092
0.000669542230354
0.000684245808667
0.000685091942927
0.000678307357558
0.000667475589817
0.000656601801956
0.00064841299767
0.00064843549561
0.000656648497858
0.000667521345112
0.000678336069066
0.000685100729323
0.000684239267844
0.000669525888916
0.000633258890428
0.00056943667759
0.000485103017062
0.00056407379756
0.000775575370981
0.000935536926953
0.00103617694765
0.00108984609223
0.00111075306194
0.00111138714674
0.00110159255554
0.00109021845426
0.00108289231572
0.00108285949635
0.00109013968588
0.00110149072029
0.00111128663685
0.00111067980594
0.00108981465561
0.00103618834176
0.000935580035474
0.000775630734408
0.00056410718413
0.000775542706394
0.00147304995149
0.00186683961748
0.00209116881815
0.00220098182243
0.00223700484195
0.00222999429832
0.00220267441536
0.00217341403656
0.00215494921562
0.00215488708979
0.00217325546707
0.00220245337436
0.00222975622357
0.00223680457442
0.00220085862603
0.00209113547558
0.00186687821211
0.00147312380714
0.000775587282756
0.000935476714161
0.00186676413662
0.00239254853126
0.00270003568497
0.0028594870809
0.00292024810228
0.00292108149966
0.00289278784269
0.00285909058421
0.00283677137756
0.00283668762134
0.00285887390576
0.00289247754377
0.00292072625065
0.00291992046705
0.002859240848
0.00269989532585
0.00239250636745
0.00186679026647
0.000935505360992
0.00103608969799
0.00209104119945
0.00269998575558
0.00306534399116
0.00326396564354
0.00334956147382
0.00336357061736
0.00334819326941
0.00332307280873
0.00330257031506
0.00330247576885
0.00332283707454
0.00334787218767
0.00336313153917
0.00334913424244
0.00326360174495
0.00306508215823
0.00269983253336
0.00209098224725
0.00103608438608
0.00108976068021
0.00220087242862
0.00285946777024
0.00326400213134
0.00349418923671
0.00361070708899
0.00363800924311
0.00361902385308
0.00358689777854
0.0035638388033
0.00356372215075
0.00358659129892
0.00361858106743
0.00363750568911
0.00361029395236
0.00349374829329
0.00326363068292
0.00285919980865
0.00220071411579
0.00108970959829
0.00111071881144
0.00223700789862
0.00292036290726
0.00334974196707
0.0036108333651
0.00373239301307
0.00376099907726
0.00373824605154
0.00370027468737
0.0036735291826
0.00367340170238
0.00369993630183
0.00373775707939
0.00376044665972
0.00373187538281
0.00361042452752
0.00334930906108
0.00292001229957
0.00223676924016
0.00111062158869
0.00111143947181
0.00223016084538
0.0029213905416
0.00336396531646
0.00363846362404
0.00376133400951
0.00378679067861
0.0037570450756
0.00371094124274
0.00367898039474
0.00367885654562
0.00371061097986
0.00375657238542
0.00378625711055
0.00376081111501
0.00363799248852
0.00336354240819
0.00292102764281
0.00222989195663
0.00111130898729
0.00110173648403
0.00220298171302
0.00289325013957
0.00334865578326
0.0036197628654
0.00373897228802
0.00375748531917
0.00371823788713
0.00366586312465
0.0036291887213
0.00362908420395
0.00366559610078
0.00371786975947
0.003757074595
0.0037385797019
0.00361941791141
0.00334840335384
0.00289298305633
0.00220276626131
0.00110160807719
0.00109040141194
0.00217376369086
0.00285960679009
0.00332367341633
0.00358781155075
0.00370126926395
0.00371171747847
0.00366620480688
0.00360442821975
0.00356087390069
0.00356080580764
0.0036042701526
0.0036660166436
0.00371154664614
0.00370114019617
0.00358771936464
0.00332361456154
0.00285953589839
0.00217369286439
0.00109032618546
0.00108303645743
0.00215521918318
0.00283720668803
0.00330316482987
0.00356472182158
0.0036745361736
0.00367980943764
0.00362967420864
0.00356105933354
0.00351223560843
0.00351222531202
0.00356106192026
0.00362973798455
0.00367996204228
0.00367476409201
0.00356497723684
0.0033034038097
0.00283741123285
0.00215536246563
0.00108306398834
0.00108292927089
0.00215500040907
0.00283691815084
0.00330284338023
0.00356434366914
0.00367417679783
0.0036795511672
0.00362956541418
0.0035611124931
0.00351242422848
0.00351248364069
0.00356129812852
0.00362990036687
0.00368003762563
0.0036747647388
0.00356494783499
0.00330338787274
0.00283740710474
0.00215537096185
0.00108307628898
0.00109014950432
0.00217322588046
0.0028588921043
0.00332292000508
0.0035868758813
0.00370038102716
0.00371109114072
0.00366598415575
0.00360463491102
0.00356143054128
0.00356152860904
0.00360492305605
0.00366647286801
0.0037117740747
0.00370116482214
0.00358765858846
0.00332359604844
0.00285953387412
0.00217372178543
0.0010903545018
0.0011014441003
0.00220230808372
0.00289232448753
0.00334773106076
0.00361855793694
0.00373784926906
0.00375673601746
0.00371804618651
0.00366626908886
0.00363007004243
0.0036301815433
0.00366659077826
0.00371857472524
0.00375744921308
0.00373865393558
0.0036193542482
0.00334840064243
0.00289298681098
0.00220281985229
0.00110164424639
0.00111119583808
0.00222953392244
0.00292045942959
0.00336285698884
0.00363726634254
0.00376025173481
0.00378611156554
0.00375698286518
0.00371154941025
0.00368007349107
0.00368018579044
0.00371186595132
0.00375748161509
0.00378674283126
0.00376094214348
0.00363794608298
0.003363491289
0.00292103121078
0.00222996759952
0.00111134548346
0.00111057183857
0.00223656697847
0.00291962023746
0.00334880686673
0.0036100008592
0.00373155815626
0.00376049368817
0.00373829853204
0.00370094818653
0.00367470242148
0.00367480992529
0.00370124121014
0.00373873118525
0.00376100200783
0.0037320764109
0.00361047941289
0.00334926645479
0.00292002783351
0.00223686704507
0.00111065252198
0.00108971060232
0.00220067938209
0.00285900483495
0.00326333122561
0.00349346594353
0.00361019765472
0.00363770578816
0.00361916615002
0.00358755726838
0.00356494553339
0.00356505144468
0.00358783404616
0.00361954611947
0.00363811419304
0.00361058894331
0.00349379502664
0.00326362442505
0.00285925207935
0.00220084746079
0.00108973151353
0.00103610479039
0.0020910782128
0.00269980471085
0.00306496866758
0.00326350141737
0.00334918157598
0.00336343124927
0.00334840787103
0.00332368830572
0.00330357334654
0.00330367988359
0.00332395899767
0.00334876821745
0.00336379837495
0.00334949542235
0.00326374611002
0.0030651599818
0.00269994507073
0.00209115545598
0.00103609134608
0.000935517901551
0.00186695496949
0.00239258887188
0.00269991371243
0.00285927259065
0.00292007268402
0.00292109108988
0.00289309073341
0.00285972981088
0.00283772039864
0.00283782711082
0.00285999782423
0.00289343665213
0.00292143229708
0.00292035473271
0.0028594805386
0.00270005715739
0.00239267540027
0.00186698656048
0.000935492296797
0.000775574132747
0.0014732834416
0.00186700455225
0.00209122394692
0.00220095659984
0.00223698667029
0.00223008983932
0.00220297181719
0.00217395200768
0.0021557108294
0.00215580141324
0.00217417603325
0.00220325794635
0.0022303706629
0.00223721926739
0.00220112751964
0.00209133608194
0.00186706429657
0.00147329518969
0.000775545569117
0.000564044805783
0.000775662772175
0.000935639217408
0.00103624488343
0.00108987173172
0.00111076172182
0.00111142451276
0.00110171151767
0.00109044474716
0.00108322107185
0.00108326210903
0.00109053572797
0.00110181399858
0.00111151061819
0.00111081958241
0.00108990177622
0.00103625486093
0.000935637205184
0.000775650652246
0.000564019793363
0.000648516647606
0.000949016665508
0.00117516358712
0.00131914718298
0.0013989424779
0.00143425722582
0.00144385848957
0.00144381061756
0.00144458801114
0.00144708777955
0.00144703832808
0.00144445662506
0.00144362738822
0.00144366398525
0.0014341009036
0.00139885631874
0.00131913497684
0.0011752067796
0.000949081527141
0.000648552519344
0.000948994909424
0.0018400865602
0.00234687495293
0.00263778409472
0.00278267502669
0.00283269351063
0.0028283139271
0.00280038994375
0.00277133874503
0.00275402684683
0.00275394452015
0.00277112259518
0.00280008434858
0.00282798113788
0.00283241000163
0.00278250409957
0.00263774270079
0.00234693821089
0.00184020080524
0.000949061278333
0.0011751154664
0.00234677448515
0.00301392303323
0.00340989776673
0.00362273381554
0.00371210629912
0.00372626022107
0.00370167478555
0.00366718827901
0.00364392240334
0.00364382266297
0.00366692575062
0.00370130371064
0.0037258524329
0.00371172542127
0.00362245424907
0.00340974986445
0.00301389854176
0.00234683447385
0.00117515998265
0.00131907138774
0.00263761786234
0.00340982548164
0.00388561185322
0.00416049618285
0.00429690699282
0.00434847811311
0.00434560204705
0.00431939296976
0.00429795877526
0.00429785292983
0.00431911662554
0.00434522229591
0.00434809878786
0.00429647574295
0.00416012745914
0.00388534675005
0.00340967614264
0.00263757064004
0.00131906196777
0.00139888377033
0.00278253506392
0.00362267930874
0.0041605048966
0.00449302849559
0.00468430991735
0.00476087359
0.00476881201681
0.00474647094229
0.00472548746463
0.00472536791172
0.00474615622479
0.00476837445101
0.00476040288248
0.00468385758673
0.00449260995577
0.00416013954928
0.00362239831044
0.0027823565347
0.00139880214566
0.00143429081112
0.00283270368528
0.00371218602226
0.00429701859223
0.00468441554388
0.00490148954021
0.00499475159764
0.00500901115626
0.00498587753849
0.00496258405443
0.00496245048068
0.00498552414498
0.00500851609322
0.00499421649126
0.00490099627453
0.00468398266079
0.00429660218023
0.00371180638089
0.00283241013387
0.00143413434272
0.00144405087643
0.0028285567507
0.00372654559999
0.00434869954864
0.0047611852877
0.00499501798302
0.00509773253332
0.00511201245306
0.00508252008024
0.0050535573959
0.00505342197184
0.00508216437383
0.00511151262742
0.0050971857895
0.00499452206388
0.0047607761907
0.00434836618303
0.00372615589977
0.00282821821179
0.0014438431861
0.0014441675741
0.00280084366472
0.00370216852998
0.00434608085983
0.00476939806257
0.00500966037323
0.00511248407477
0.00511888944166
0.00507744475468
0.00503997952792
0.00503987014852
0.00507716096988
0.00511849221057
0.00511204156343
0.00500926720692
0.00476909353295
0.00434581539924
0.00370187465668
0.00280057467129
0.0014439710477
0.00144499809716
0.00277185153123
0.00366775612219
0.00431999794897
0.00474726334799
0.0049868494001
0.00508342934018
0.0050779500154
0.00502291680253
0.00497622080675
0.00497616301573
0.00502277582815
0.00507776805405
0.00508324127152
0.00498671184732
0.00474719657807
0.0043199547339
0.00366769471529
0.0027717817777
0.00144490062917
0.00144739865647
0.00275440824389
0.00364437653653
0.0042985120303
0.00472629073018
0.00496364456484
0.00505466446708
0.00504074792407
0.00497653480847
0.00492361993407
0.00492362905898
0.00497658277831
0.00504086024471
0.00505484385009
0.00496388090101
0.00472657208274
0.0042987974488
0.00364464676106
0.00275462952943
0.00144747011586
0.00144717808394
0.00275407385932
0.003644003905
0.00429813865503
0.0047259027337
0.00496327403443
0.00505438056413
0.00504062390099
0.00497659376479
0.00492382752592
0.00492390776502
0.00497683584451
0.00504103281574
0.00505492773895
0.00496388711395
0.00472653878222
0.00429875959608
0.00364461129953
0.00275459207046
0.00144742268021
0.00144444885824
0.00277100104744
0.00366680309707
0.00431905397721
0.00474628427332
0.00498592025807
0.00508273737549
0.00507767285598
0.00502312007564
0.00497681547106
0.00497693791319
0.00502347544383
0.00507824480634
0.00508347209692
0.00498672918779
0.00474710565697
0.0043198532684
0.00366759990869
0.00277168691499
0.00144478192373
0.00144348019465
0.00279973247968
0.00370091003121
0.0043448591809
0.00476813227906
0.00500847007683
0.00511162032434
0.00511860520736
0.00507783014368
0.00504090981175
0.00504104455421
0.00507821837621
0.00511921297115
0.0051123753545
0.00500928761076
0.00476895587878
0.0043456630727
0.00370172760629
0.00280043913971
0.00144380584811
0.00144340655862
0.00282744911317
0.00372526060787
0.00434753955655
0.00475991909542
0.00499384321171
0.00509691243056
0.00511181879441
0.00508305415547
0.00505469718927
0.00505482742402
0.00508342491198
0.00511237979849
0.0050975812655
0.0049945450609
0.00476061151564
0.00434819726556
0.0037259586433
0.00282804989108
0.00144365183501
0.00143379321774
0.00283179183952
0.00371104088024
0.00429582135944
0.00468327745034
0.00490048984984
0.00499408850572
0.00500891114881
0.00498643788248
0.0049637017947
0.00496382706113
0.0049867802562
0.00500940190578
0.00499464286713
0.00490104171318
0.00468380695523
0.00429634508412
0.00371155335406
0.00283221095767
0.00143392482199
0.00139854522747
0.00278190814674
0.0036217978171
0.00415950158498
0.0044920585255
0.00468351948349
0.0047603933088
0.0047687920213
0.00474700575805
0.0047265131603
0.00472663763291
0.00474733461031
0.00476923943034
0.00476086838567
0.00468395987887
0.00449244754607
0.00415986242805
0.00362212266121
0.00278214473609
0.0013985765815
0.00131885419896
0.00263727016816
0.00340923112182
0.00388485954708
0.00415972096899
0.00429627598982
0.00434817638087
0.00434569175093
0.0043199535898
0.00429894787396
0.00429907831476
0.00432029040884
0.00434613626436
0.00434863192279
0.00429666705693
0.00416003274622
0.00388511220665
0.00340942517659
0.00263738039761
0.00131882590687
0.001174968892
0.00234664205656
0.00301358616598
0.00340939682037
0.00362217035948
0.00371163368219
0.0037260508328
0.00370184840826
0.00366779090481
0.00364490588263
0.00364504171972
0.00366813561804
0.00370229386105
0.00372649028352
0.0037119974581
0.00362244079036
0.00340958814634
0.00301370479171
0.00234668166803
0.00117491609074
0.000948874069351
0.00184008020259
0.00234674602458
0.00263751751169
0.00278232260012
0.00283237019856
0.0028281664291
0.0028005304697
0.00277180088678
0.0027547751196
0.00275489210812
0.00277209220021
0.00280090130188
0.00282852703875
0.00283266337542
0.00278253216679
0.00263765461791
0.00234681538483
0.00184008065198
0.00094881240266
0.000648357137125
0.000948973242357
0.00117511892164
0.0013190396619
0.00139875888409
0.00143402750841
0.00144365104554
0.00144369945505
0.00144459698744
0.00144720577404
0.00144725306915
0.00144469943018
0.00144380641503
0.0014437278879
0.00143406161032
0.00139875386295
0.00131901136809
0.00117507669258
0.000948920880278
0.000648299996735
0.000753446586813
0.00115907480358
0.00145869064825
0.00165041075161
0.00176310557379
0.00182392639408
0.00186074707695
0.0018964173929
0.00193596167571
0.00196443530981
0.00196437359211
0.00193577896356
0.00189614101184
0.00186042817248
0.00182365399608
0.00176294175715
0.00165036169014
0.00145872436184
0.00115914000662
0.000753480846568
0.00115908814516
0.00226026990104
0.00287833774513
0.00322499178172
0.00339099034886
0.00344143278762
0.00343180494731
0.00340495254864
0.00338558814489
0.00337805752872
0.00337793188629
0.00338524453106
0.0034044499828
0.0034312449349
0.00344094833931
0.00339068839006
0.00322489625079
0.00287840851018
0.00226042569715
0.00115917864022
0.00145868593017
0.00287822640252
0.00367494083729
0.0041346301346
0.00437291985299
0.00446503507518
0.00447232816018
0.00443956755159
0.00440115396017
0.00437742522266
0.00437728386801
0.00440077093028
0.00443901600453
0.00447171460655
0.00446448054634
0.00437251824429
0.00413442833043
0.00367492733949
0.00287834058064
0.00145875956261
0.00165038276666
0.00322482068526
0.00413455880407
0.00468146765573
0.0049941462535
0.0051494312324
0.00521247619622
0.00520862090523
0.0051788017076
0.00515465057615
0.0051545207024
0.00517845358558
0.00520812865887
0.00521193835453
0.0051489682882
0.00499371096349
0.00468115642508
0.00413440653734
0.00322481241093
0.00165039573189
0.00176311001786
0.00339088199537
0.00437288722725
0.00499415356364
0.005391478766
0.00562086302999
0.00572634469706
0.0057471810145
0.0057253723842
0.0057015783048
0.00570144804481
0.00572502206656
0.00574668745408
0.00572580571581
0.00562038354931
0.00539112380876
0.00499376478491
0.00437257230144
0.00339069577964
0.00176303210849
0.00182406293666
0.00344155976264
0.00446518766136
0.00514950741511
0.0056209375628
0.00590638383254
0.0060483607515
0.00608498657218
0.00606440092511
0.0060380926375
0.00603794663727
0.00606400261976
0.00608441776236
0.00604774216316
0.00590583549655
0.00562050105976
0.00514913015366
0.00446473565108
0.00344119157878
0.00182388176184
0.00186111066655
0.00343230556103
0.0044727828992
0.00521276008978
0.00572659098271
0.00604859463819
0.00621134288402
0.00625074808979
0.00622260920395
0.00618965764603
0.0061895080157
0.0062221987398
0.00625015261922
0.00621066692994
0.00604798544931
0.00572611216169
0.00521233874779
0.00447227792588
0.0034318373758
0.00186085755267
0.0018969756064
0.00340578655434
0.00444030800383
0.00520911886353
0.00574765879366
0.0060856245038
0.00625132126123
0.00628184133846
0.0062393255882
0.00619604162985
0.006195935715
0.006239030479
0.00628139632334
0.00625074120678
0.00608507793262
0.00574724838586
0.00520877951658
0.0044399034262
0.00340538612826
0.00189675290645
0.001936486616
0.00338648014679
0.00440198836413
0.00517944672403
0.00572610346541
0.00606543752692
0.00622375420636
0.00624003835654
0.00618067924078
0.00612657533731
0.00612654114308
0.00618057571049
0.006239862478
0.00622346969421
0.00606514679133
0.00572590379403
0.00517933816138
0.00440186846138
0.00338634628756
0.00193642730662
0.0019647206012
0.00337869704597
0.00437808526562
0.00515525359376
0.005702402536
0.0060393020303
0.00619109554145
0.00619711161663
0.00612700774452
0.00606615164198
0.00606618942034
0.00612711210754
0.00619726716954
0.00619124146824
0.00603941776437
0.00570255175798
0.00515550266064
0.0043783785653
0.00337895665597
0.00196489941912
0.00196437218242
0.00337816302689
0.00437754415638
0.00515477706392
0.00570195985031
0.00603888405937
0.00619076959423
0.00619696383568
0.00612705577165
0.00606635099537
0.0060664554225
0.00612735050811
0.00619742844696
0.006191327746
0.00603941131912
0.00570248264917
0.00515539942122
0.0043782530545
0.00337881212157
0.00196476033215
0.00193556085691
0.00338506585821
0.00440055768852
0.00517820325612
0.00572496410322
0.00606436032615
0.00622291612327
0.00623965034695
0.00618081053505
0.00612711019169
0.00612725600007
0.00618121802418
0.00624027704234
0.006223660066
0.00606508824117
0.00572567986081
0.00517903164258
0.00440150986964
0.00338594775303
0.00193605838822
0.00189573158447
0.00340385846264
0.00443834415378
0.00520742980233
0.00574612963872
0.00608417585085
0.00625017996643
0.00628135033666
0.00623957394039
0.00619686710711
0.00619702242613
0.00624001176646
0.00628200734444
0.00625092667122
0.00608490109533
0.00574684826329
0.00520827173133
0.00443932912839
0.00340478047069
0.00189621388419
0.00185985460413
0.00343027901871
0.00447065888447
0.00521093022984
0.00572493744238
0.0060470656297
0.00621014927098
0.00625026127859
0.00622295465089
0.00619067046656
0.00619081401323
0.00622336105681
0.00625085339652
0.00621079260698
0.0060476704405
0.00572554486615
0.00521165162899
0.00447150765044
0.00343106880654
0.001860221579
0.00182299906282
0.00343974529012
0.00446317911721
0.00514777972002
0.0056193506158
0.00590497062222
0.00604726132393
0.00608449857236
0.00606465660148
0.00603898361089
0.0060391192953
0.00606502306716
0.00608499894844
0.00604777835888
0.00590544459881
0.0056198386745
0.00514832811187
0.00446379505468
0.00344029025029
0.00182319462612
0.00176228215265
0.00338940453499
0.00437111584325
0.00499240050503
0.00539004437224
0.00561957227472
0.00572535062294
0.00574666419305
0.00572548147057
0.00570226315385
0.00570239385859
0.00572582718521
0.00574711735248
0.00572580615762
0.00561998931437
0.00539045476731
0.00499279749413
0.00437150481119
0.00338970320435
0.00176232035562
0.00164975032198
0.00322368312931
0.00413307854059
0.00467986326024
0.00499262694747
0.00514820607557
0.00521156257717
0.00520817878154
0.0051789295023
0.00515529750176
0.00515543905064
0.0051792952514
0.00520864928591
0.00521202556057
0.00514861312271
0.0049929478123
0.0046801345408
0.00413330027882
0.00322380837244
0.00164968926952
0.0014581843297
0.00287738447865
0.0036737709277
0.00413326148641
0.00437150826774
0.00446377651159
0.00447142426298
0.00443918325616
0.00440132800576
0.00437807835604
0.00437822985005
0.00440170988031
0.00443966371605
0.00447187831774
0.00446413553536
0.00437176545595
0.00413344299404
0.00367388128103
0.0028774046852
0.00145807890403
0.00115867702631
0.00225969237018
0.00287751378032
0.00322395865659
0.00338982733305
0.00344028973551
0.00343088178049
0.0034043984781
0.0033854225205
0.00337822059521
0.00337834401362
0.00338572319984
0.00340476498312
0.00343121557578
0.00344053660873
0.00338998273042
0.00322404771492
0.00287754089957
0.00225964857443
0.00115855749221
0.00075310471873
0.00115875705231
0.00145830951727
0.00164989864136
0.0017624273024
0.0018230972179
0.00185984437025
0.0018955249122
0.00193509430505
0.00196361206996
0.00196364596381
0.00193515682616
0.00189556183673
0.00185982736331
0.00182302570668
0.00176231686628
0.00164977589413
0.00145818376379
0.00115863363012
0.000752993769041
0.0008892919498
0.00144351304466
0.00184895480334
0.00212073432443
0.00230338964044
0.00243119228635
0.00254005013051
0.00265278400765
0.00275857177994
0.00282461852961
0.0028245588258
0.00275842373859
0.00265253085374
0.0025397130914
0.00243088440974
0.00230320806455
0.00212069138035
0.00184900335554
0.00144359285566
0.000889330630665
0.0014435744091
0.00283779909902
0.0036050533057
0.00403629894887
0.00424564869966
0.00431639767373
0.00432520313949
0.0043302646708
0.0043506690081
0.00437084131556
0.00437065595219
0.00435016276117
0.00432948486341
0.00432431596963
0.00431561995547
0.00424516168117
0.00403613683199
0.00360514871223
0.0028380303773
0.00144369954593
0.0018489978913
0.00360494386602
0.00455394298138
0.00508013208559
0.00533352492173
0.00541518162164
0.00540630514921
0.00536543647686
0.00532779018795
0.00530794676439
0.00530773670336
0.00532719474356
0.00536455104892
0.00540530439156
0.00541429245507
0.00533290423826
0.00507985835948
0.00455398435747
0.00360518287308
0.00184913232073
0.00212075049655
0.00403614233606
0.00508006955398
0.00567091420936
0.00598864061611
0.00614218069773
0.00618863613867
0.00616958279834
0.00612608089795
0.00609411281502
0.00609393450739
0.00612558705294
0.00616885462344
0.00618779846308
0.00614141066294
0.00598796944439
0.0056705050683
0.00507995558352
0.00403626532256
0.00212085331758
0.00230341117492
0.00424560229827
0.00533354592412
0.00598867220508
0.00640507706518
0.00664538831898
0.00675016317539
0.00675665692845
0.00671383268183
0.00667572225078
0.00667556905436
0.00671339217993
0.00675599514964
0.00674937727158
0.00664463816488
0.0064044331366
0.00598813546486
0.00533320392433
0.00424549863463
0.00230345310242
0.00243130842241
0.00431668541846
0.00541548811337
0.00614234698237
0.00664548063825
0.00695975718794
0.00710822621439
0.0071260595275
0.00707755099407
0.00703295624004
0.00703279617977
0.00707707487725
0.00712531515087
0.00710733336281
0.00695890312806
0.00664475703128
0.00614175559288
0.00541492078942
0.00431630793187
0.00243127010381