/*--------------------------------*- C++ -*----------------------------------*\
| =========                 |                                                 |
| \\      /  F ield         | OpenFOAM: The Open Source CFD Toolbox           |
|  \\    /   O peration     | Version:  3.0.1                                 |
|   \\  /    A nd           | Web:      www.OpenFOAM.org                      |
|    \\/     M anipulation  |                                                 |
\*---------------------------------------------------------------------------*/
FoamFile
{
    version     2.0;
    format      ascii;
    class       volVectorField;
    location    "4.9";
    object      ddt0(rho,U);
}
// * * * * * * * * * * * * * * * * * * * * * * * * * * * * * * * * * * * * * //

dimensions      [1 -2 -2 0 0 0 0];

internalField   nonuniform List<vector> 
7968
(
(0.0515194695801 0.0389292154764 -0.0462484320968)
(0.264572220768 -0.0296223671776 -0.0777910154056)
(0.565583432204 -0.065637445037 -0.0716428487449)
(0.80010312912 -0.080848882278 -0.0240672491377)
(0.95976791572 -0.0699470498925 0.0312569652667)
(0.957255371557 -0.0344047283181 0.0856818469358)
(0.892622620463 -0.0240730739349 0.11457666174)
(0.741307672679 0.00491378525276 0.141197571598)
(0.521167675866 0.030945445264 0.153721481708)
(0.269602193229 0.0446619883819 0.156855756768)
(0.0072391652959 0.045502640108 0.15746581641)
(-0.248408105603 0.0333674400786 0.155842338276)
(-0.477335602117 0.00861046834051 0.145583331788)
(-0.643829756943 -0.0193856603987 0.122186644441)
(-0.729098080602 -0.031848326097 0.0957102759881)
(-0.76081528851 -0.0641839798604 0.0459868190343)
(-0.639649825967 -0.0755140016002 -0.00646057702506)
(-0.450393816888 -0.0600854333455 -0.0516239354964)
(-0.19726543118 -0.0249989148968 -0.0566480638197)
(-0.0286218426839 0.0411776475284 -0.0254389904602)
(-0.0164765327275 0.228215851085 -0.0767931237667)
(0.24893223932 0.211475197738 -0.366350427807)
(0.604852394664 0.215996947567 -0.436161006166)
(0.858849900239 0.236288612348 -0.384993059904)
(0.992603697631 0.273809455147 -0.294507150375)
(0.986345008261 0.307450948618 -0.202129636725)
(0.89413688477 0.309131833855 -0.127013133599)
(0.729923527893 0.317860669016 -0.0672261429317)
(0.511364696986 0.329116762191 -0.0302549883919)
(0.267917713223 0.336385742385 -0.014195131756)
(0.0160107197201 0.337394738804 -0.0129413130696)
(-0.231613746461 0.332005769953 -0.0262473104704)
(-0.459314393839 0.322285505912 -0.0599035530169)
(-0.638607385869 0.314397736607 -0.116129269739)
(-0.751233338517 0.314125174889 -0.18755501283)
(-0.788102107288 0.284214448831 -0.275521512825)
(-0.693888309019 0.248749897271 -0.362430116161)
(-0.487896615933 0.229260985322 -0.411368173944)
(-0.182200863694 0.222631969146 -0.342511154924)
(0.0391024263887 0.234249939635 -0.0576238854396)
(-0.0521984785048 0.504264423481 -0.0714921561527)
(0.254017239631 0.541597235168 -0.43687218557)
(0.61972886153 0.555527177615 -0.48352883489)
(0.863509948275 0.564452986586 -0.395287658429)
(0.971580507094 0.570911272413 -0.276072088001)
(0.948550803566 0.562539150189 -0.169612336956)
(0.84278954541 0.528614291095 -0.0931314399418)
(0.680489895761 0.505220625124 -0.041323194601)
(0.477863484382 0.496817005128 -0.0133518917153)
(0.256822546136 0.497280343068 -0.00201908487157)
(0.0292976731215 0.498965399091 -0.000823645845408)
(-0.19641451523 0.501559320061 -0.00959631253033)
(-0.408721505446 0.512216001717 -0.0345217876483)
(-0.585577429092 0.535871641463 -0.0831717974035)
(-0.711359556984 0.571391567042 -0.155141677463)
(-0.763895040836 0.583605463101 -0.256213280883)
(-0.695473420209 0.579886536135 -0.370017924554)
(-0.501085192619 0.572376161848 -0.455408337886)
(-0.187375513042 0.556925047668 -0.411016630813)
(0.074311997395 0.514386602094 -0.0528928545515)
(-0.0677580569543 0.716361387843 -0.0252684050589)
(0.273778614561 0.771706209447 -0.387490848602)
(0.628545634842 0.774842844084 -0.397986411612)
(0.847585611152 0.758372669809 -0.282762013334)
(0.922203205311 0.724495466585 -0.152689112497)
(0.873089443702 0.665997904009 -0.0537036109948)
(0.761049196587 0.589512790026 0.0044283608473)
(0.608832441394 0.532890946476 0.0378836885972)
(0.430164463463 0.505395438283 0.0417383515789)
(0.240831556793 0.496647771373 0.0444086741353)
(0.0466925613753 0.499187191831 0.045537238555)
(-0.147863961983 0.512059754111 0.0456768082518)
(-0.337400424701 0.541752251706 0.0473972676862)
(-0.504108171402 0.599200478796 0.0138683816071)
(-0.634605589955 0.67682883819 -0.0396205106393)
(-0.711568863568 0.738588428965 -0.132094505725)
(-0.676249703266 0.775406266494 -0.255522836697)
(-0.50751842926 0.793717161938 -0.366705492239)
(-0.206482475954 0.789622840687 -0.359076251761)
(0.0897114670121 0.729160453492 -0.00651604609631)
(-0.0573333597827 0.857506063922 0.0288516442102)
(0.310032017485 0.886260453192 -0.300171771821)
(0.634143064408 0.863262284958 -0.282052710846)
(0.813211463942 0.81300312765 -0.156558562018)
(0.850465655342 0.741117603089 -0.0287110722911)
(0.777861845071 0.647203954271 0.0488401558511)
(0.66636987139 0.537642108546 0.088481852648)
(0.538600800674 0.461230713735 0.109660991239)
(0.391340055038 0.424458500999 0.122916277729)
(0.229910417382 0.414223763678 0.13130751078)
(0.0606619719813 0.417903103712 0.133058213167)
(-0.108193389633 0.433957144754 0.127315183869)
(-0.267601471258 0.473246711511 0.116643950796)
(-0.409822551127 0.55088464348 0.0976750263204)
(-0.539441221171 0.660932939158 0.0625424452347)
(-0.638215012116 0.756304735151 -0.007785931711)
(-0.639342022575 0.830275223595 -0.127302700713)
(-0.511122424784 0.882340861686 -0.247892567007)
(-0.24212920897 0.904769412156 -0.268918829422)
(0.078982056319 0.87150235923 0.0485705378206)
(-0.0229419377749 0.84140532192 0.0810456528714)
(0.341874055517 0.865787365274 -0.209989747418)
(0.624088504052 0.825578226964 -0.17896712441)
(0.753275464843 0.748853814981 -0.0606638061081)
(0.755558851968 0.652278282733 0.0455485341354)
(0.653449680122 0.527598694879 0.101671390941)
(0.553330883971 0.402894860716 0.1097307898)
(0.455988537288 0.319241749762 0.112354466445)
(0.345877562811 0.282019128907 0.122841260637)
(0.217700510678 0.275868388102 0.131853693096)
(0.0769333185445 0.280860087951 0.134827421543)
(-0.0615938954624 0.295535792276 0.128975311687)
(-0.185979870629 0.336798760205 0.118938915608)
(-0.298026430058 0.422358344659 0.118261331012)
(-0.416437883274 0.545118039352 0.114610759386)
(-0.54317124758 0.669341624055 0.0659800576214)
(-0.577568984713 0.766029137737 -0.0308459078209)
(-0.499106841701 0.843429343774 -0.143053146475)
(-0.273238169788 0.882239484147 -0.176494371805)
(0.0448903146325 0.853852134943 0.101266503435)
(-0.0125785059616 0.767446708414 0.10849455267)
(0.341919303743 0.764089118454 -0.1374161372)
(0.588417153201 0.709979418683 -0.105592665606)
(0.674456572098 0.62638056806 -0.00518158846268)
(0.643382477893 0.529289040039 0.081651644586)
(0.527589790304 0.41440879155 0.105574252262)
(0.446269285476 0.306824594809 0.0851062314439)
(0.384664025639 0.239623759492 0.0770420545765)
(0.310598233681 0.21590836964 0.0924762898074)
(0.20974024425 0.212953645614 0.111097622337)
(0.091072195889 0.218530322377 0.115560894092)
(-0.0231254157093 0.232371985048 0.100982128437)
(-0.113142430308 0.261462743161 0.0828445691207)
(-0.191232218839 0.330198076416 0.0953603893255)
(-0.29355415319 0.435573673247 0.118713901914)
(-0.432381879727 0.548190906785 0.10249178821)
(-0.498974195942 0.644251702469 0.0248980350732)
(-0.462895305141 0.726843250195 -0.0682951640349)
(-0.273359340142 0.778961246241 -0.103338296912)
(0.0337672178027 0.778864996991 0.128617904798)
(0.0150587483854 0.610940249393 0.133555786341)
(0.348573825798 0.594699317459 -0.0802131589732)
(0.56271067119 0.542370179261 -0.0566773541789)
(0.614988749964 0.468180912535 0.0260240762227)
(0.563380800008 0.395562364521 0.099411327157)
(0.441819904771 0.310753164186 0.104147627916)
(0.379149852692 0.238363246881 0.0746413425118)
(0.345716284225 0.198812201548 0.0796595909422)
(0.277486140934 0.164681743841 0.163679130746)
(0.202736073585 0.188758783607 0.114772276504)
(0.10360778664 0.196062354128 0.11540483965)
(0.0103092842694 0.187975289442 0.157131529221)
(-0.0725977511908 0.219568379241 0.0872740567846)
(-0.123535011425 0.259975182855 0.0848532483532)
(-0.209947784391 0.331062764354 0.120035537441)
(-0.355155857062 0.412779098568 0.122160118623)
(-0.440877629055 0.484194585431 0.0602095834812)
(-0.438833006345 0.556835728487 -0.0178175048921)
(-0.281286785536 0.607070776485 -0.045365925182)
(0.00526087036703 0.6205436093 0.15318939019)
(0.0396276217405 0.389848975588 0.14497790749)
(0.357344541386 0.375426122922 -0.0453934279347)
(0.55107936919 0.338877699209 -0.0314207576054)
(0.584293862422 0.287986303129 0.0258068981856)
(0.52304168462 0.246460715225 0.109620567541)
(0.401310199307 0.198197655955 0.112662075496)
(0.353389164993 0.159494279442 0.0906575351422)
(0.309444325395 0.122888630672 0.166478784068)
(0.285053280634 0.129968171813 0.0718256683208)
(0.20392244687 0.143515043195 0.0502012426932)
(0.107118230335 0.148620199608 0.0538252468331)
(0.00694683422716 0.144274427042 0.0769517182868)
(-0.0429651948838 0.142258172415 0.153295938486)
(-0.0959725331837 0.174513988673 0.102444784501)
(-0.171198947687 0.211933475375 0.130851933907)
(-0.317337168764 0.258487561652 0.133507059205)
(-0.411378370701 0.299605333398 0.0595641537585)
(-0.428460425834 0.349542505465 0.0084174823652)
(-0.29135015804 0.384621347486 -0.0103311759441)
(-0.0202751766853 0.397231524483 0.164143947868)
(0.051933145275 0.140738065114 0.14732360054)
(0.362201890671 0.135060620204 -0.0308244223144)
(0.548166354297 0.12116855884 -0.0221542138749)
(0.571719601899 0.101976234178 0.0257378108873)
(0.508435663461 0.0873686451436 0.115391236648)
(0.38937767935 0.0709861709457 0.118660229614)
(0.34404425132 0.0574333935187 0.104745593003)
(0.32594434577 0.0449922352317 0.114874716321)
(0.294969156958 0.0425918050153 0.0448361479987)
(0.210737808782 0.0477600181284 0.0437461881068)
(0.105315017805 0.0500375070203 0.0486268239382)
(0.000116702722447 0.0479834485112 0.0537526752544)
(-0.0554243598318 0.0517315310124 0.110449701142)
(-0.0855281810659 0.0632524741314 0.118269229148)
(-0.159681194119 0.076424381076 0.13766508673)
(-0.302933566365 0.0928947693796 0.139738201349)
(-0.398927114588 0.108210458676 0.0604771905583)
(-0.426217565134 0.127279587974 0.0184165144418)
(-0.296905775529 0.140796635358 0.00440609889531)
(-0.0331494570085 0.145729073609 0.166335483523)
(0.0516734124533 -0.116447140564 0.14737879994)
(0.361278641797 -0.110869601166 -0.0306313523318)
(0.546849838545 -0.0995572388801 -0.0223025969301)
(0.570212283569 -0.0844598042474 0.0250817422473)
(0.506919310237 -0.074277777966 0.114444690951)
(0.387756478845 -0.0620900508851 0.117324645981)
(0.34223292439 -0.0527814146241 0.10280675363)
(0.324384511266 -0.0446521871256 0.112201409544)
(0.293959101939 -0.045797856711 0.0419401115216)
(0.210486651862 -0.0527385638125 0.040677622546)
(0.105758542626 -0.0549417663475 0.0456201618702)
(0.00122087687548 -0.0508784157109 0.0508376097042)
(-0.0535487229615 -0.0504248141058 0.10762315327)
(-0.0833235962429 -0.0565320279587 0.11630430187)
(-0.157551514887 -0.0645351809712 0.136121980248)
(-0.300702243978 -0.0753312633024 0.13868971512)
(-0.39676318745 -0.0844430988592 0.0599622579671)
(-0.424459440339 -0.0985301468504 0.0185034421328)
(-0.295669830736 -0.108972319125 0.00494399135657)
(-0.0328161232623 -0.114165016193 0.166558218682)
(0.0389586251258 -0.364830932731 0.14529226429)
(0.35476491908 -0.3502990457 -0.0446232857209)
(0.547469128441 -0.31582363394 -0.0316439124667)
(0.580050162931 -0.268138362726 0.0242142549345)
(0.518784003993 -0.230268939418 0.107090583792)
(0.396920714706 -0.185285489862 0.109111356882)
(0.348782933699 -0.149461331779 0.0858943252402)
(0.305725566323 -0.115649306362 0.159306459606)
(0.282748902113 -0.125046186882 0.0643298812893)
(0.20328065136 -0.139428773702 0.0427369125545)
(0.107906403658 -0.144466846475 0.046065863407)
(0.00987842744998 -0.138733716605 0.0688004284697)
(-0.0378938383908 -0.133583693008 0.145577572586)
(-0.0899151699958 -0.161870869589 0.0975355649957)
(-0.165235663893 -0.195393946898 0.126900320974)
(-0.311025251551 -0.237429686123 0.130787237134)
(-0.405400671142 -0.273290862422 0.0585685861032)
(-0.423718290252 -0.319569840315 0.00874805111505)
(-0.28797054541 -0.352302175971 -0.00882114980728)
(-0.0193853913018 -0.365345822146 0.164869368954)
(0.014221369722 -0.585278806428 0.134394732828)
(0.344935480476 -0.568484913043 -0.0787171437073)
(0.557626873056 -0.517353894204 -0.0566204752859)
(0.608847550562 -0.445077748593 0.0247731655601)
(0.557231238413 -0.37454553049 0.0962872715676)
(0.435760744817 -0.291359454076 0.099780179981)
(0.373543123153 -0.220234285559 0.0691321573766)
(0.340825198701 -0.181233702657 0.073520491073)
(0.275299434993 -0.149489266007 0.152216354143)
(0.202225141209 -0.173005258598 0.104344397293)
(0.104992130194 -0.179790163881 0.104782795132)
(0.0139472978356 -0.171142986657 0.145536721476)
(-0.0653644579909 -0.19963158375 0.0805234977726)
(-0.115414654697 -0.238516399079 0.0793522326444)
(-0.201422574962 -0.307474639544 0.115453958997)
(-0.345856893704 -0.386761419462 0.1190759277)
(-0.432232475524 -0.455280348949 0.0614122777806)
(-0.432335784448 -0.525430967004 -0.0168771613557)
(-0.276549201389 -0.574273591983 -0.0429702649081)
(0.00641891883274 -0.588653035592 0.154660008292)
(-0.0134155933761 -0.7418836572 0.110025415479)
(0.33790833928 -0.737340609144 -0.135171323363)
(0.582625930499 -0.683334755416 -0.104936915414)
(0.667636787757 -0.600191842153 -0.0065506083671)
(0.636905652902 -0.503424544069 0.0788032544443)
(0.521428163334 -0.388563673732 0.101877124148)
(0.440750880249 -0.280559313982 0.0802212637961)
(0.380434544141 -0.213069234981 0.0713197107701)
(0.307989706022 -0.188987330758 0.0862262752395)
(0.209371717135 -0.185581867911 0.104513036209)
(0.0934688912657 -0.190686376031 0.108965959728)
(-0.0180329015115 -0.204035436223 0.094818554502)
(-0.105746225795 -0.232552001461 0.0772206721592)
(-0.18248123467 -0.300561441483 0.0908424115849)
(-0.284343908988 -0.405401529572 0.114850459821)
(-0.422468972316 -0.517337245658 0.0995166967924)
(-0.489112796115 -0.612886100796 0.0241789087556)
(-0.454888284653 -0.694339645403 -0.0668473915245)
(-0.267893512622 -0.746363484553 -0.100008441)
(0.0349955434288 -0.747926409199 0.130930952624)
(-0.0245081504505 -0.81624113952 0.0828335412783)
(0.338418654387 -0.839101941365 -0.206886638892)
(0.619106138027 -0.798131860693 -0.177308383043)
(0.747432426852 -0.72044809124 -0.0607607474043)
(0.750239142581 -0.622938159244 0.0440769451773)
(0.648616191834 -0.497024169921 0.0996826154937)
(0.549268919685 -0.370606875936 0.107196552498)
(0.452893485965 -0.285299666366 0.109015409203)
(0.344292511235 -0.247361707686 0.11880443733)
(0.218049919992 -0.240661901834 0.12755366012)
(0.0794653692304 -0.245319350982 0.130492672898)
(-0.0566477422922 -0.260095828489 0.125053863543)
(-0.178641298248 -0.301712664647 0.115976139578)
(-0.289609078567 -0.387262215789 0.116211733362)
(-0.407624373731 -0.510200234441 0.112573712205)
(-0.533904102657 -0.634829599264 0.0645515671153)
(-0.568263563873 -0.732205726311 -0.0303675676388)
(-0.491568020513 -0.810370118227 -0.140355122124)
(-0.268187400765 -0.850233876739 -0.17249196691)
(0.0469837246695 -0.824128392684 0.103733177362)
(-0.0575155232694 -0.834817857709 0.031696345759)
(0.30836465706 -0.862224758012 -0.296606905176)
(0.631277370419 -0.837466173088 -0.279209362148)
(0.809636673026 -0.785139718936 -0.154836158959)
(0.847436427152 -0.711426551215 -0.0277878577162)
(0.775794756289 -0.615641167808 0.0494787119512)
(0.665377084029 -0.503354245577 0.0893404257416)
(0.538121330493 -0.423894052281 0.111503382769)
(0.391271232897 -0.386524234097 0.123902725291)
(0.231103641507 -0.3757644924 0.132385696504)
(0.063001799988 -0.379124078463 0.134193165995)
(-0.104615935746 -0.395817474886 0.128307797404)
(-0.261784781281 -0.437318558771 0.117189014307)
(-0.402385163522 -0.514327752055 0.0990603109821)
(-0.532018313648 -0.625023134651 0.0636230767643)
(-0.630712202596 -0.721460864297 -0.00619059740016)
(-0.632188968196 -0.797123574784 -0.124611793144)
(-0.505708373372 -0.851467485381 -0.24370600309)
(-0.239117392166 -0.87614327162 -0.263937921671)
(0.079242517291 -0.845318699449 0.0522122170211)
(-0.0681844524928 -0.697944522676 -0.021887736612)
(0.273191969236 -0.75178725957 -0.383513861704)
(0.627308196825 -0.752971025935 -0.394045603281)
(0.845869788127 -0.734074094375 -0.279184249189)
(0.920938556479 -0.69803528385 -0.149552862429)
(0.872891668379 -0.637710733084 -0.0504951033807)
(0.762573205822 -0.5593960227 0.00841797880959)
(0.609427686628 -0.501326728703 0.0480879591978)
(0.429837563991 -0.472908760349 0.04552229046)
(0.242285729307 -0.463237338412 0.047598474864)
(0.0492196091172 -0.465115771785 0.0489176247553)
(-0.145468436782 -0.477688395787 0.048372782782)
(-0.331517221516 -0.507421572474 0.0425021774502)
(-0.495489638007 -0.565462219758 0.0174633552148)
(-0.627543538621 -0.644242531423 -0.0352597095759)
(-0.705418636705 -0.707599855432 -0.127541626913)
(-0.671018191129 -0.746630154336 -0.250364215623)
(-0.503925522821 -0.76767135082 -0.361127740553)
(-0.204880494598 -0.766122171615 -0.353651537448)
(0.0900786014799 -0.708466681565 -0.00273921432096)
(-0.0524463174535 -0.491209108374 -0.0676778136761)
(0.25410294203 -0.527662103554 -0.432637886919)
(0.61973277047 -0.53995021069 -0.478983991927)
(0.863368285483 -0.54666926237 -0.390397211756)
(0.971751355532 -0.550943706651 -0.270887409641)
(0.949144903258 -0.54087165598 -0.164378344183)
(0.844296398591 -0.505622514958 -0.0879692538746)
(0.682279835665 -0.482026109143 -0.0357600111514)
(0.479868157129 -0.471454945245 -0.0083527876423)
(0.25974315744 -0.470642417012 0.00291111077922)
(0.0328421833234 -0.471371613236 0.00442440891046)
(-0.192482156122 -0.472891932041 -0.00401848434298)
(-0.40334449772 -0.482198147037 -0.0293083716168)
(-0.579217723466 -0.508327485931 -0.0766905383569)
(-0.705739856054 -0.545982460825 -0.148326142404)
(-0.759537795682 -0.560341561236 -0.249235948276)
(-0.692114909663 -0.558897486157 -0.363409409901)
(-0.49900961531 -0.553870459903 -0.448965124504)
(-0.186812766253 -0.540537873305 -0.405102540777)
(0.0743148498287 -0.499816341068 -0.0489911537805)
(-0.0169158787636 -0.220717761325 -0.072770874064)
(0.24849838712 -0.204071624531 -0.362349043962)
(0.604722099103 -0.207779686153 -0.432134250241)
(0.859065916549 -0.226806829908 -0.380651868465)
(0.993368668648 -0.262950102407 -0.288999883882)
(0.987066032749 -0.295393969419 -0.196398953751)
(0.895540301449 -0.295919872798 -0.121446502034)
(0.731990645766 -0.303912352595 -0.0618031436723)
(0.51415923718 -0.313999619379 -0.024825131395)
(0.271627772574 -0.32032559466 -0.00857632749339)
(0.0204797581407 -0.320607048721 -0.0069610444279)
(-0.226628680873 -0.314616015424 -0.0199198084828)
(-0.453937101978 -0.30459879701 -0.0532543330846)
(-0.633322355408 -0.29802082214 -0.109102388231)
(-0.746719608111 -0.299366173033 -0.180309046104)
(-0.785055229361 -0.271095368942 -0.268947858107)
(-0.691445933581 -0.237208926538 -0.356547214991)
(-0.486220825879 -0.219174387285 -0.405711104405)
(-0.181461340602 -0.213407168385 -0.337383567199)
(0.0393746408932 -0.225332631763 -0.0537345350688)
(0.049913006636 -0.0366916539534 -0.0422302254238)
(0.261901484256 0.0317563535532 -0.0747751959096)
(0.563272038142 0.0679671313747 -0.0690491143195)
(0.798150913265 0.0835065129936 -0.0217840613136)
(0.958793046314 0.0729797297209 0.0336293353385)
(0.956506710173 0.0378974627897 0.0882207021749)
(0.892934714645 0.0279929199083 0.116753225457)
(0.742892983166 -0.000647647325534 0.143215289826)
(0.523898372793 -0.0263954020375 0.155708121363)
(0.273478778695 -0.0398714183034 0.158902014471)
(0.0120902230544 -0.0404361193998 0.159776894044)
(-0.242922086848 -0.0280310973772 0.158581358282)
(-0.471610215288 -0.00314824630668 0.148744526856)
(-0.638204569379 0.0244336890712 0.125619856122)
(-0.723947697748 0.0364681399469 0.0992697718185)
(-0.756979501855 0.068022991932 0.0494510763108)
(-0.636127245828 0.0789319708962 -0.00325057347684)
(-0.447121777291 0.0631985396288 -0.0481493032965)
(-0.194437785279 0.0282558298735 -0.052596982029)
(-0.0270232369188 -0.0376815138637 -0.0207577700713)
(0.169640419062 0.157247619499 -0.533105803694)
(0.506524240675 0.253722753257 -0.632656994973)
(0.782762788511 0.320329811786 -0.616247474303)
(0.961823060235 0.369004927091 -0.518999270663)
(1.05243304943 0.407829840248 -0.391517454864)
(1.01676192235 0.429298232219 -0.267004948803)
(0.922947332672 0.422500404526 -0.165910429084)
(0.755240339881 0.421997050743 -0.0819370015904)
(0.528852291291 0.423475695649 -0.0340239668629)
(0.274671094241 0.424708218495 -0.0165651388623)
(0.0115305773927 0.425296747547 -0.0145132949382)
(-0.246484149653 0.425117049423 -0.0272197162995)
(-0.48132930014 0.42447267005 -0.0685203909466)
(-0.663629322567 0.425350229309 -0.143829146832)
(-0.777507178447 0.431026503677 -0.235990425806)
(-0.842620700053 0.413655357381 -0.349632191444)
(-0.792246549195 0.375346243287 -0.468002703147)
(-0.660855843554 0.327443615134 -0.557830103645)
(-0.436654514288 0.259235387972 -0.571045578939)
(-0.14706796308 0.158554995293 -0.47254083353)
(0.269465303665 0.469873033603 -0.632073001329)
(0.609016117879 0.566331812978 -0.853894365096)
(0.824066378873 0.634705974009 -0.815269072996)
(0.937097909817 0.690347851222 -0.658703244614)
(0.964415449592 0.730452244351 -0.469108226801)
(0.913995554917 0.747231982896 -0.291726234232)
(0.807916165369 0.742808125915 -0.148164625657)
(0.653410240418 0.741611470276 -0.039389640811)
(0.462893773834 0.743723992806 0.0300577901816)
(0.253322424339 0.746863459004 0.0622200816084)
(0.0362237234758 0.748405456061 0.0647055912898)
(-0.177270142702 0.747972528291 0.0381025401569)
(-0.376089698814 0.747733914 -0.0241940750322)
(-0.543981627134 0.748868287367 -0.123876404486)
(-0.669491200795 0.753883742235 -0.256796967797)
(-0.748089829763 0.739920338722 -0.421840679359)
(-0.758655068735 0.702549247981 -0.600182612907)
(-0.692704934412 0.648477873869 -0.748492033157)
(-0.528850094304 0.578147953419 -0.785378103072)
(-0.241103918348 0.474573576816 -0.570370347342)
(0.337563054369 0.719058695943 -0.618375038158)
(0.679871845574 0.755423144097 -0.818083487333)
(0.860539589275 0.789661159829 -0.714247370748)
(0.92935841004 0.812650840846 -0.498666159147)
(0.917970534657 0.819999867191 -0.26308028378)
(0.845039815542 0.807703165257 -0.056347977372)
(0.729259519683 0.781968104646 0.0996312527642)
(0.582726095213 0.761563424169 0.207820280537)
(0.41620506388 0.745305741102 0.278359054228)
(0.23764359612 0.741725936949 0.313175453593)
(0.0504418650448 0.744186864682 0.315488082594)
(-0.132136452108 0.752254579129 0.285644009562)
(-0.307599138499 0.772986806758 0.22075656962)
(-0.466810369904 0.791133873644 0.12164426922)
(-0.599904967745 0.816983108035 -0.0220694841449)
(-0.698793237138 0.831568370167 -0.214096906078)
(-0.746100677892 0.826921699883 -0.435271466024)
(-0.723538030827 0.805894316661 -0.641220923317)
(-0.594283367792 0.770984625088 -0.744128583525)
(-0.306210249237 0.729825300103 -0.554598764504)
(0.386545132359 0.873776658786 -0.526118318878)
(0.735978335134 0.844725110983 -0.666977217464)
(0.884129480852 0.834966907305 -0.504542498024)
(0.905039546853 0.810185547453 -0.256007730646)
(0.850433869634 0.763936837947 -0.0149978122633)
(0.74941733222 0.695733043026 0.169921880708)
(0.627971880414 0.619802776145 0.293296590684)
(0.492428524964 0.559345269021 0.364955371996)
(0.353984802267 0.524024090066 0.420453802539)
(0.216446604356 0.511726239921 0.448461590976)
(0.0701121568498 0.515218567244 0.450899985162)
(-0.0705588484736 0.533154420615 0.426913787253)
(-0.221474120017 0.57170074683 0.372489790339)
(-0.371653506853 0.632932208918 0.311150958717)
(-0.506437646437 0.708265195823 0.200581044519)
(-0.630615407987 0.77691619037 0.0328683325105)
(-0.718711667707 0.824794997088 -0.19079523605)
(-0.742809128127 0.851558388631 -0.427018957095)
(-0.646370101108 0.861573464407 -0.58784639761)
(-0.352897951043 0.887693946646 -0.458618290408)
(0.42540518183 0.94484023764 -0.404285671548)
(0.775332761853 0.852800627342 -0.484405352333)
(0.890902049281 0.804451326655 -0.276460595264)
(0.85814745355 0.736502062624 -0.0224331756431)
(0.750727711574 0.636965741983 0.188035252895)
(0.620115855905 0.52109873672 0.3167544594)
(0.503311869898 0.408630444913 0.372247484907)
(0.401876375443 0.321569937172 0.393007497181)
(0.305359431762 0.278142183042 0.417450628285)
(0.200189566399 0.262083401765 0.436863320483)
(0.0849299989797 0.266713026507 0.440273144542)
(-0.0270631324913 0.290003978544 0.424916453581)
(-0.134937783413 0.336304852472 0.402079371825)
(-0.249785784271 0.42867073271 0.386655769544)
(-0.381594078085 0.539297242099 0.342353140811)
(-0.532666205233 0.652619316942 0.231685104019)
(-0.670552677479 0.751775085006 0.0420008928778)
(-0.746424635467 0.821052919192 -0.196388412378)
(-0.68283373981 0.869660172257 -0.400830280041)
(-0.390291551307 0.959224068852 -0.332188942366)
(0.445849243684 0.895404888445 -0.285767015926)
(0.790613393294 0.788143708811 -0.313413658344)
(0.877049815618 0.717046560004 -0.0771188656128)
(0.787618749285 0.62049037497 0.155739434828)
(0.632430936378 0.489395138648 0.309366810986)
(0.486197216576 0.355512040197 0.354608677376)
(0.383169176712 0.225257107381 0.330871362182)
(0.318980398391 0.131016009677 0.304435873801)
(0.262057730256 0.085224964979 0.304696540698)
(0.188109301727 0.0724223651878 0.317366870915)
(0.0996797530242 0.0785055590429 0.321868724572)
(0.0169427835763 0.10152144639 0.313633434752)
(-0.0524714826373 0.155464647535 0.315056410939)
(-0.133533205616 0.258477298222 0.346234952408)
(-0.255150875834 0.381844674474 0.377233900136)
(-0.419631502644 0.510071077567 0.347632226952)
(-0.600858349321 0.637585511284 0.216168550619)
(-0.730620201757 0.733848051909 0.00368444324271)
(-0.696306098945 0.804139316282 -0.226900178107)
(-0.408596790311 0.908249298199 -0.211093813182)
(0.438953570541 0.792568516414 -0.189629895596)
(0.784444750272 0.672750863067 -0.176058618148)
(0.848831299251 0.591577233669 0.0720961525021)
(0.70690943723 0.488967041367 0.272697964683)
(0.513621100963 0.360415007424 0.355564520271)
(0.352524955944 0.235589381908 0.320745704613)
(0.264622589587 0.114276043533 0.203123552608)
(0.246256855484 0.0382981284294 0.117342256939)
(0.233042446798 0.00996480502029 0.107475442609)
(0.18465411614 0.0104261384606 0.127773458457)
(0.112315623432 0.0191459113382 0.134279314777)
(0.0541806770581 0.0324097836052 0.11935724891)
(0.0299714933499 0.0685514744787 0.133464151509)
(-0.0151373711629 0.156240719109 0.238492255)
(-0.131873846329 0.269781234156 0.344391212716)
(-0.308458351603 0.385953609012 0.392742074333)
(-0.523941340037 0.510791959338 0.329762780578)
(-0.702880097629 0.609097800794 0.152833755659)
(-0.6901163445 0.68776874016 -0.0884993495926)
(-0.401720572325 0.804289385153 -0.114377027363)
(0.437409140703 0.619912541911 -0.110090710614)
(0.780932951598 0.513601108138 -0.0734366350939)
(0.825361932263 0.440222156502 0.173412301516)
(0.640717584301 0.347827892625 0.336014288095)
(0.416871228791 0.255358968968 0.367928662311)
(0.248988121623 0.166525726627 0.277392038306)
(0.185409646227 0.088993243293 0.0918568070432)
(0.211838672404 0.0526284044134 0.00198051439952)
(0.231383833466 0.0572729672181 -0.00303397480737)
(0.193253837603 0.06183242737 0.0526379798379)
(0.120550324786 0.0706799552525 0.0684366505061)
(0.0667615852277 0.0798275733584 0.0296699064126)
(0.0729690150314 0.0824667335746 0.0272957259147)
(0.067818205858 0.124101791093 0.150088333536)
(-0.0362140055213 0.198300585517 0.316591006269)
(-0.218601509972 0.277654577666 0.408015452959)
(-0.462452344696 0.366473103493 0.3923286437)
(-0.683871427647 0.456123112139 0.255359837893)
(-0.688339253804 0.52656396123 0.0152135577485)
(-0.400719486013 0.629663739183 -0.0353713418882)
(0.437409943873 0.392961804317 -0.0653526728041)
(0.780056845022 0.322959794196 -0.00891317217624)
(0.804446425502 0.273659831754 0.238330850491)
(0.600881499149 0.208846351187 0.38661691349)
(0.367697752148 0.160151521863 0.389348503237)
(0.196867470784 0.112970407323 0.271781540522)
(0.153741062993 0.0792500025767 0.079452238555)
(0.215409507318 0.0709447783087 -0.00728660874631)
(0.238335642959 0.0739896374094 0.0695039322609)
(0.201494499485 0.0807838515768 0.146762207258)
(0.126418056485 0.0872612374002 0.167749547785)
(0.0689615606561 0.091218661234 0.116635604952)
(0.0754298438511 0.0913330508491 0.0386576805263)
(0.0999359246722 0.0999027106876 0.145167053345)
(0.0107612541505 0.132142439921 0.320164930998)
(-0.176637037451 0.173557519027 0.430899259066)
(-0.424560585815 0.219634530453 0.449022476347)
(-0.662565278002 0.285333100198 0.323392824984)
(-0.688631466438 0.332801266834 0.0807954001495)
(-0.401681037153 0.400448843594 0.00849348860527)
(0.437206580678 0.141701820211 -0.0500230484389)
(0.780164426961 0.117048088136 0.0197893476882)
(0.796438985553 0.0993585312186 0.268596142615)
(0.583750990056 0.0761738628958 0.40933853325)
(0.34607920488 0.0584186210424 0.404800389961)
(0.177076723276 0.0426762309351 0.280255853227)
(0.145214546735 0.0322898669774 0.0939177463792)
(0.211546191561 0.0297402064394 0.0324954924101)
(0.241560925345 0.0295300870166 0.124663847769)
(0.205053086048 0.0303203978784 0.213907850523)
(0.130685540004 0.0327592910167 0.238080210973)
(0.0707706966479 0.0357484245298 0.178950419875)
(0.079382721775 0.0374909991604 0.0856670462339)
(0.107134304347 0.0395100025203 0.161528936445)
(0.0285995387509 0.0492829577594 0.329548818155)
(-0.156418731633 0.0639486423428 0.444989664236)
(-0.407336224199 0.0822283686855 0.474801652092)
(-0.654703763018 0.105973515219 0.356086463078)