/*--------------------------------*- C++ -*----------------------------------*\
| =========                 |                                                 |
| \\      /  F ield         | OpenFOAM: The Open Source CFD Toolbox           |
|  \\    /   O peration     | Version:  3.0.1                                 |
|   \\  /    A nd           | Web:      www.OpenFOAM.org                      |
|    \\/     M anipulation  |                                                 |
\*---------------------------------------------------------------------------*/
FoamFile
{
    version     2.0;
    format      ascii;
    class       surfaceVectorField;
    location    "4.9";
    object      ddt0(Uf);
}
// * * * * * * * * * * * * * * * * * * * * * * * * * * * * * * * * * * * * * //

dimensions      [0 1 -2 0 0 0 0];

internalField   nonuniform List<vector> 
22672
(
(0.000158049660022 4.66171171419e-06 -6.21312831821e-05)
(1.75529402827e-05 0.000134153438117 -6.16314455066e-05)
(0.000110778935603 9.82649079414e-05 -0.000292621886019)
(0.000422134990587 -4.77157800436e-05 -7.48514608185e-05)
(0.000257214927442 9.20619446634e-05 -0.000222471005608)
(0.000386242898769 0.000112252094757 -0.00035755479002)
(0.000690441547961 -7.33752118673e-05 -4.79412070437e-05)
(0.000586272610433 7.68775546596e-05 -0.000254359552066)
(0.00067538778108 0.000127575611326 -0.000346522462734)
(0.000884145253782 -7.5533918296e-05 3.60141389921e-06)
(0.000830971757143 8.05710232534e-05 -0.000204898897086)
(0.000882550584707 0.000144337615125 -0.00027560816199)
(0.000963536918112 -5.22699990034e-05 5.85748726486e-05)
(0.000977946474103 0.000106176281998 -0.000131862794034)
(0.00100791378076 0.000169245828849 -0.000186795142055)
(0.000921196947305 -2.92916957663e-05 0.000100309829796)
(0.000973551755189 0.000141869912215 -5.83287550312e-05)
(0.000988787611413 0.000197802577889 -0.000100518472867)
(0.000808554644902 -9.59706105059e-06 0.000128117743772)
(0.0008949900886 0.000149749673388 -6.22938200362e-06)
(0.000909420479183 0.000199572284734 -3.77534992113e-05)
(0.000623319330781 1.79616911066e-05 0.000147725450777)
(0.00073694149346 0.000169682557159 3.70524568816e-05)
(0.000749621764804 0.000213839390888 1.53143912245e-05)
(0.00039087951925 3.78714877412e-05 0.000155568670823)
(0.00051719653711 0.000188895489571 6.18446912495e-05)
(0.000525955912158 0.000227619661614 4.3731755974e-05)
(0.000138752039455 4.51630611359e-05 0.000157444227544)
(0.000269244259174 0.000199654232277 7.145915801e-05)
(0.000272626961303 0.000235107394292 5.30606457201e-05)
(-0.000115292896845 3.95054904786e-05 0.000156936619794)
(1.16462170975e-05 0.000200611030644 7.23929133496e-05)
(9.40217378513e-06 0.000235822947445 5.43602812289e-05)
(-0.000353932636517 2.10261158798e-05 0.000150984686611)
(-0.000240442400298 0.000191663860738 6.49148260969e-05)
(-0.000247890805006 0.000229654210305 4.81301220698e-05)
(-0.00055074147047 -5.39790646917e-06 0.000134126534811)
(-0.000469167082337 0.000173934908596 4.29176703582e-05)
(-0.000480194068642 0.000216930635197 2.40788021057e-05)
(-0.00068159994686 -2.56636036842e-05 0.00010914508777)
(-0.00064237137449 0.000155025549514 3.03481971868e-06)
(-0.000654904723293 0.000203347057684 -2.31223631981e-05)
(-0.000747651935885 -4.81029359689e-05 7.09765357847e-05)
(-0.000741496328848 0.000147018467917 -4.6004347055e-05)
(-0.000754657148189 0.000199948005103 -8.02883025974e-05)
(-0.000703050319771 -6.99749637102e-05 1.97990824486e-05)
(-0.000775853164912 0.000114623948556 -0.000114974141553)
(-0.000803160147373 0.00017505009649 -0.00015906633696)
(-0.000551161530973 -6.79219221706e-05 -2.90941667232e-05)
(-0.000667968813832 8.97607650194e-05 -0.00018477720815)
(-0.000717236199871 0.000150185939861 -0.000241971377047)
(-0.00033022406632 -4.2618882476e-05 -5.42329745055e-05)
(-0.000469989048402 8.65048156635e-05 -0.000231912500486)
(-0.000556624335354 0.000133919711765 -0.000308014659931)
(-0.00011392472479 8.1037780859e-06 -4.11169689172e-05)
(-0.000190074084782 0.000100151540582 -0.000199938380867)
(-0.000317529735761 0.000117328879543 -0.00031689897289)
(5.24987097017e-06 0.000138294780972 -4.16058927688e-05)
(-8.8002757785e-05 0.000100045816854 -0.000252638642396)
(0.000116561768554 0.000220241712184 -0.000221971167932)
(-3.43993858231e-05 0.000372845718093 -7.42762155403e-05)
(0.000126722341721 0.000349673361213 -0.000356667210641)
(0.000433072804308 0.000214121401097 -0.000401979096855)
(0.000251928097029 0.000382243457097 -0.000402335323068)
(0.000429747395464 0.000389604488367 -0.000608709954564)
(0.000739889228947 0.000226550484285 -0.000411317242108)
(0.00061339436103 0.000390477632022 -0.000460673849979)
(0.000715747091594 0.000426118059533 -0.000622341022619)
(0.000933016328888 0.000255509356695 -0.00034036310502)
(0.000862732547777 0.000405132800524 -0.000390843733543)
(0.000899592765122 0.000464153439639 -0.000519564012522)
(0.000991685293327 0.000291154518043 -0.000248766421714)
(0.000983863670288 0.000428287002824 -0.00028580439028)
(0.000980274552702 0.000503036518124 -0.000382520054248)
(0.000939840253136 0.000308847019436 -0.000164867966831)
(0.000969191935945 0.000443213549889 -0.000186206014207)
(0.000951882965463 0.000528291950967 -0.000251010338244)
(0.00080392827073 0.000314061342791 -9.72946688941e-05)
(0.000870029101372 0.000428733575706 -0.000110270742321)
(0.000852560718805 0.000526918083601 -0.000144285652657)
(0.000611935362991 0.000324071649198 -4.88283026463e-05)
(0.000706478079542 0.000422945239834 -5.43724437788e-05)
(0.000692913253719 0.00053068997788 -6.21474963253e-05)
(0.000385347663484 0.000333350460639 -2.22648215637e-05)
(0.000495505491726 0.000425724571162 -2.18424462576e-05)
(0.000488006951131 0.000537385973661 -1.07800227227e-05)
(0.000142223407326 0.000337496351163 -1.35921561838e-05)
(0.000262842975015 0.00043023046534 -8.12127828832e-06)
(0.000261089723446 0.00054259930968 1.23169986774e-05)
(-0.000102934608401 0.000335301875691 -1.96288803472e-05)
(2.26953216406e-05 0.000431631073867 -6.89421676991e-06)
(2.61645845195e-05 0.00054387678198 1.41416111752e-05)
(-0.000335928296139 0.000327733403288 -4.31521901556e-05)
(-0.000214398828808 0.000429658366576 -1.79532272258e-05)
(-0.000204809596687 0.000540960432774 -4.89276374142e-06)
(-0.000539604373758 0.000318913447495 -8.81740447341e-05)
(-0.000434798412467 0.000428727149588 -4.72968058878e-05)
(-0.000418453481717 0.000535971978946 -5.1091667004e-05)
(-0.000692804635956 0.000314825911821 -0.000152114615106)
(-0.000613192969999 0.00043507263209 -9.98290323524e-05)
(-0.000592358127864 0.000532589157902 -0.000127110979865)
(-0.00077044725438 0.000299708174649 -0.000231955024393)
(-0.000732610953718 0.000450875072414 -0.000171655824178)
(-0.000711640035202 0.000534965124968 -0.000226927572708)
(-0.000746621801436 0.000266962283026 -0.000319550432152)
(-0.000777396080062 0.000439919301238 -0.000266346160124)
(-0.000769479771297 0.000512989845394 -0.000350321553361)
(-0.000597464718803 0.000239435594575 -0.000387595541913)
(-0.000695931528322 0.000419163135634 -0.000366883367385)
(-0.00072757913297 0.0004765060085 -0.000480110484679)
(-0.000340462056574 0.000226352996656 -0.000377617906847)
(-0.000495380500225 0.000405585766213 -0.000434168113866)
(-0.000591363200704 0.000439659524888 -0.000577687046499)
(-7.35146179605e-05 0.000228851876919 -0.000200427304718)
(-0.000185120349799 0.000395558621827 -0.000377441434069)
(-0.000356165207242 0.000401110509125 -0.00056365145675)
(5.68093816515e-05 0.000381091425082 -5.53576301266e-05)
(-0.000101182629557 0.000355049818765 -0.000317211257934)
(0.000101683472316 0.00052387338738 -0.000254640370676)
(-6.0086368457e-05 0.000617173109159 -4.84673786486e-05)
(0.000142939409728 0.000612763725691 -0.00034736275476)
(0.000442045991691 0.000549551032953 -0.000461030076192)
(0.000264373617233 0.000663982072605 -0.00041292450372)
(0.000467786181061 0.00064967905693 -0.000624032884688)
(0.000750538889627 0.000560999507727 -0.000440200341414)
(0.000625262334234 0.000673339624393 -0.00044155214996)
(0.000741468280271 0.000673806448381 -0.000593243805814)
(0.000925677553526 0.00056870550931 -0.000336285018803)
(0.000857090554231 0.000671494168793 -0.00033963615644)
(0.000898050061708 0.000689793005744 -0.000443343019681)
(0.0009623807205 0.000567746989011 -0.000223243982774)
(0.000948599140933 0.000659719997633 -0.000214767125646)
(0.000946477836393 0.000696708304401 -0.000269832663718)
(0.000893962236977 0.000546560553054 -0.000131608789698)
(0.000912462834378 0.00062690471775 -0.000111859376196)
(0.000898411688141 0.000686355718212 -0.000116720847719)
(0.000753836911119 0.000517849417863 -6.73485172056e-05)
(0.000803365520888 0.000570379576019 -4.44315573671e-05)
(0.000787441709416 0.000656472550727 -2.64195475044e-06)
(0.00057071928236 0.000501921035062 -2.73865873902e-05)
(0.000645823115318 0.00052899885824 -1.72274423346e-06)
(0.000632746820629 0.000634534042879 7.63122724996e-05)
(0.000363159007108 0.000497942728383 -7.69890298247e-06)
(0.000454831981292 0.000509300237346 1.42190986864e-05)
(0.000447840012322 0.000622180180442 0.000123608987454)
(0.000143325684789 0.000499018085181 -1.42333887428e-06)
(0.000249275354492 0.000504275175001 2.12334002904e-05)
(0.000247678559994 0.000620617228136 0.0001457568334)
(-7.87701317647e-05 0.000501160394778 -5.21856364846e-06)
(3.80639801795e-05 0.000506477346172 2.23975960509e-05)
(3.99419962277e-05 0.000622692757259 0.000147476943616)
(-0.000293194958579 0.000507797057301 -2.2097842958e-05)
(-0.000172448408092 0.000515289138148 1.8073372866e-05)
(-0.000164570344488 0.000628032340212 0.000129127987969)
(-0.000488274866556 0.000524984167767 -5.89517935064e-05)
(-0.000373731244257 0.000537503795999 6.45006274996e-06)
(-0.000358803985818 0.000643755511481 8.65332788964e-05)
(-0.000645205423597 0.000554625318992 -0.000119370241424)
(-0.000545822038513 0.000578909054987 -3.47133507469e-05)
(-0.000527139998348 0.000664695143682 1.30051967652e-05)
(-0.000738469243484 0.000578536128923 -0.000206046959909)
(-0.000674192057691 0.000636702136214 -9.75555772464e-05)
(-0.000656811176329 0.000695435329791 -9.3113738899e-05)
(-0.000736162303171 0.000582792802619 -0.000313679095357)
(-0.000739058677296 0.000673113506844 -0.000194502871288)
(-0.000732659791959 0.000708859829392 -0.000236505451368)
(-0.000605710011892 0.000577168267158 -0.000413455939338)
(-0.000687095882539 0.000687797778838 -0.000313333314743)
(-0.000722084618184 0.000704670494866 -0.000400358020048)
(-0.000348617897823 0.000565666088733 -0.000433991641087)
(-0.000505208826313 0.000691392437512 -0.00041179644737)
(-0.00061341325135 0.000690375319032 -0.000544096754972)
(-5.91825626635e-05 0.000536619276837 -0.000232371759477)
(-0.000197282939698 0.000680800419318 -0.000385738843264)
(-0.00039153337844 0.000665150300804 -0.000575449431)
(8.21594757927e-05 0.00062872130975 -2.97576930071e-05)
(-0.000116158453343 0.000623227293567 -0.000307263531885)
(0.000104942937137 0.000745374166556 -0.000206751511693)
(-6.26584854775e-05 0.000790422606681 1.79499492101e-06)
(0.000159680740563 0.000796501027113 -0.000279589138369)
(0.000456367557556 0.000774668425398 -0.000393446577488)
(0.000292431574274 0.000835423647315 -0.000344451169737)
(0.000505788496677 0.000809672409194 -0.000524784277289)
(0.000748895884344 0.000767990156917 -0.000340987964986)
(0.000632482933254 0.000826460849327 -0.000340632718489)
(0.000757700836651 0.000806355687995 -0.000447536222186)
(0.000893332569794 0.000742771272432 -0.000218118263282)
(0.000831896249249 0.000793443482442 -0.000220056498257)
(0.000877892284423 0.000785692868094 -0.000268220328568)
(0.000898277460702 0.000696500831831 -0.000103382519067)
(0.000887932855526 0.000739202444681 -9.08636649734e-05)
(0.000887916123229 0.000745557453311 -8.61110121741e-05)
(0.000811362461838 0.0006288879405 -2.4682143865e-05)
(0.000826967767308 0.000658376290787 -2.43630925946e-06)
(0.000812716623597 0.000682093696705 5.40068441331e-05)
(0.000674270033835 0.000562213149745 2.11942156049e-05)
(0.00071499993606 0.000560822011072 4.65389854195e-05)
(0.00069576346763 0.000605749079204 0.000145532593379)
(0.000508169367006 0.000520077155322 3.9882941843e-05)
(0.000574751246389 0.000491085650967 7.39054769565e-05)
(0.000551623335922 0.000547102808906 0.000203254338423)
(0.000330752081261 0.000501921134169 4.31514019592e-05)
(0.000411493860759 0.000457564386912 8.24761556846e-05)
(0.000392781068363 0.000515635806641 0.000228759186133)
(0.000143973597713 0.000498810104365 4.50543352156e-05)
(0.000235794972653 0.000447186812105 8.80165115845e-05)
(0.000229050938008 0.00050509159637 0.000243803690504)
(-4.53032257792e-05 0.000506530280441 4.56895325652e-05)
(5.37745886955e-05 0.000450310464895 8.94586100275e-05)
(5.85080191331e-05 0.000508112710873 0.000245617048076)
(-0.00022997401542 0.000527850953658 4.66212785739e-05)
(-0.000128257642211 0.000465522112589 8.66517541804e-05)
(-0.000109407326764 0.000523545329927 0.00023468015435)
(-0.000409471519368 0.000571499619415 3.06885055096e-05)
(-0.000303046892876 0.000500931644724 8.21689162412e-05)
(-0.000279939185342 0.000557725747019 0.000216166924835)
(-0.000562138447211 0.000639160275384 -1.28986865696e-05)
(-0.00045779035545 0.000571923600914 5.58726189178e-05)
(-0.000438668037189 0.000617173306035 0.000159407630238)
(-0.000672165528612 0.000708980415377 -8.60114886254e-05)
(-0.000588082978091 0.000670308385168 1.14818775936e-05)
(-0.000571547856597 0.000693792607982 7.57347970277e-05)
(-0.000700715952023 0.000758358775298 -0.000194157090674)
(-0.000676105108665 0.000753649853507 -7.00656199139e-05)
(-0.000672299619236 0.00075911585949 -5.30498378819e-05)
(-0.000601124794137 0.00078597332931 -0.000311673822776)
(-0.00065897833535 0.000810504887052 -0.000191756825745)
(-0.00069873585016 0.000801540762364 -0.000223504655596)
(-0.000361398861228 0.000793094299728 -0.000363543649547)
(-0.000510235889635 0.000845396895141 -0.000307851586756)
(-0.00062628976095 0.000824119478303 -0.000394714464908)
(-6.22303808401e-05 0.000760757630436 -0.000183124776794)
(-0.000224708706478 0.0008536435173 -0.000314561915099)
(-0.000427193994011 0.000827084253711 -0.000472449188338)
(8.44988062309e-05 0.000803931910963 2.10654030853e-05)
(-0.000131830836521 0.000809884044862 -0.000237634643104)
(0.000129724339895 0.000873455244795 -0.000135904663123)
(-4.0210046583e-05 0.000853428388876 5.50477579101e-05)
(0.000184367518633 0.000902797339638 -0.000194130357369)
(0.000478513561298 0.00087633907476 -0.000291637310738)
(0.000326540803571 0.0008775464425 -0.000255540723903)
(0.000543660730364 0.000871098187949 -0.00039276569064)
(0.000736384729528 0.000839644454568 -0.000219701251759)
(0.000630250351983 0.000846002775322 -0.000230925659377)
(0.00076389689363 0.000835359861323 -0.000279230488277)
(0.000838812609706 0.000778461836122 -9.28018999475e-05)
(0.000784655322298 0.000780839808208 -0.000108806962602)
(0.000837185996446 0.000776149304511 -9.15737136189e-05)
(0.000809257780839 0.000695416507174 1.00825448347e-05)
(0.000804459376248 0.000691128061132 8.43391825212e-06)
(0.000802039015782 0.000690282851783 7.60386945002e-05)
(0.000710128594514 0.000593500217876 6.8784820025e-05)
(0.000716947714125 0.000575778802576 7.53912333129e-05)
(0.000700251867664 0.000585207739289 0.000180380141271)
(0.000585412127987 0.000500343093295 9.92502467712e-05)
(0.000610951295511 0.000454341690811 9.928478174e-05)
(0.000585900995069 0.000473997866647 0.000230149002013)
(0.000451265746656 0.000443648864244 0.000116498690798)
(0.000498194908719 0.000370757632105 0.000111208898276)
(0.000471087053789 0.000392107239067 0.000253755058676)
(0.000305239234779 0.000420099872184 0.00012734126531)
(0.000369273124768 0.000330305392632 0.000123099724073)
(0.000348979148338 0.00035193846321 0.000272901338546)
(0.000145373731346 0.000416807437076 0.000132420786396)
(0.00022420892123 0.000320192481905 0.000131817869674)
(0.000215437530535 0.000338760855677 0.000286775865624)
(-1.80548127983e-05 0.000426688970904 0.000130420831643)
(6.89222569698e-05 0.000324537911786 0.000134183637976)
(7.29276545489e-05 0.000342920288459 0.000289316433913)
(-0.000173237847711 0.000454418579993 0.000122199391848)
(-8.50477052896e-05 0.000341855391568 0.000128377348324)
(-6.77485736233e-05 0.000362627004182 0.000278992677908)
(-0.00032037234688 0.000512996820535 0.000107353029649)
(-0.000227186357977 0.000385552351834 0.000117999269889)
(-0.000201633782823 0.00040550839708 0.00026248092951)
(-0.000461487383235 0.000607008800211 8.02531830812e-05)
(-0.000354564548025 0.000470375677618 0.000108162843842)
(-0.000330400969063 0.000490664092293 0.000242289447655)
(-0.00058245622723 0.000709898196389 2.74277463054e-05)
(-0.000478803521178 0.000591392042399 8.87361641088e-05)
(-0.000461350574011 0.000601200222694 0.000199116203777)
(-0.00064415507082 0.000794716414327 -6.76653549849e-05)
(-0.000591762747505 0.000706995045887 2.91495650301e-05)
(-0.000586494271643 0.000705730270329 0.000107299147917)
(-0.000586289550064 0.000857847911844 -0.000187934589725)
(-0.0006095481428 0.000797872906165 -7.92160014535e-05)
(-0.000656125859181 0.000792449094878 -4.62970138534e-05)
(-0.000382177304579 0.000895161664518 -0.000258869852307)
(-0.000506021050981 0.000864409307622 -0.000195823654643)
(-0.00062990539641 0.000853230372193 -0.000223825259851)
(-8.67943988743e-05 0.000889733493445 -0.000110371735219)
(-0.000258146304195 0.000895129965317 -0.000223106502187)
(-0.000463313582411 0.000888810984314 -0.000336925139843)
(6.20479228994e-05 0.000866622303118 7.50537006312e-05)
(-0.000155935266506 0.000917012128193 -0.000149408048243)
(0.000164022603488 0.000855135386705 -6.45883028693e-05)
(-1.77921208055e-05 0.000799898602425 9.4940945121e-05)
(0.000211834953998 0.000869970878487 -0.000111842661668)
(0.000491603509618 0.000847207597928 -0.000194829072542)
(0.000342513045967 0.000813603757402 -0.000174016089445)
(0.000567264360802 0.000828456301643 -0.000265373021969)
(0.000702075678196 0.000788634917048 -0.00012003137022)
(0.000607345671151 0.000765168546668 -0.000142536347979)
(0.000751921522387 0.000772702351259 -0.00013132002428)
(0.000756597983492 0.000701827952639 -7.57114440219e-06)
(0.000715152093487 0.00068091846372 -3.29819158311e-05)
(0.000771835085141 0.000685905685134 4.38082745777e-05)
(0.000693396083506 0.000590999601141 7.37426067303e-05)
(0.000700729664315 0.000577552531187 6.37147770416e-05)
(0.000695245000215 0.000571864942109 0.00017535627191)
(0.00058547964556 0.000466081206957 0.000105891195028)
(0.000591580107962 0.000451876853855 0.000103809182658)
(0.000570849858597 0.000442350478792 0.000230624669809)
(0.000481433116878 0.000361722248338 0.000111243433245)
(0.000500698290298 0.000329031646294 9.75935726614e-05)
(0.000469092918971 0.000314640438162 0.000228422163241)
(0.000385484305316 0.000301172990032 0.000117809931551)
(0.000421086050874 0.000246121901163 9.48694486066e-05)
(0.000388186117768 0.000225540223842 0.000219928103501)
(0.000276516529434 0.000279442392345 0.000127576328438)
(0.000328832736221 0.000211857649223 0.000107855452435)
(0.000304514400036 0.000183948866507 0.000227045190128)
(0.000146997807899 0.000278864668105 0.000133580721253)
(0.000214106341749 0.000211498563949 0.000121695931472)
(0.000203270821621 0.0001744597369 0.000238099461929)
(1.28557763188e-05 0.000288722802973 0.000132140154657)
(8.41543279735e-05 0.000217012807387 0.000125419813986)
(8.84662303149e-05 0.000180002056981 0.000241716388218)
(-0.000107255187073 0.000316716846085 0.000124177226365)
(-4.2437689253e-05 0.00022753509461 0.000115186897335)
(-2.23672252303e-05 0.000198891223586 0.00023448503955)
(-0.000216504062435 0.000380234046147 0.000118809084082)
(-0.000149816692583 0.000265973709004 0.000101069258821)
(-0.000119425966421 0.000246548013013 0.000228701654688)
(-0.000338372806153 0.000484608793994 0.00011664582487)
(-0.000245051205029 0.000351204758646 0.000106998543065)
(-0.000216170899885 0.000341034263111 0.000240607864316)
(-0.000467764376115 0.000608329452969 9.04579828336e-05)
(-0.000355633142863 0.000471483403903 0.000116872334274)
(-0.000336401846946 0.000464319098373 0.000248549393211)
(-0.000560995356204 0.000718982986007 1.75989185615e-05)
(-0.000488661863624 0.000596017190946 8.43876109814e-05)
(-0.000482275666311 0.000590775031581 0.00020328057687)
(-0.000549968588929 0.000806175717827 -8.71050663717e-05)
(-0.00053924057899 0.000698480931423 -2.97901486733e-06)
(-0.000590273981333 0.000703071027206 8.75508139403e-05)
(-0.000393768798824 0.00086438554687 -0.000160060304523)
(-0.000481862913518 0.000782586842776 -0.000105863076714)
(-0.000615969849273 0.000790058334289 -7.47101378964e-05)
(-0.000120559114279 0.000869608067622 -3.7681066336e-05)
(-0.000273789259301 0.000829224860375 -0.000140167263666)
(-0.000485646231335 0.000844708773706 -0.000206919725546)
(3.93997771209e-05 0.000811960155599 0.000115149488259)
(-0.000182180933465 0.000882638112947 -6.55243870385e-05)
(0.000171020137081 0.000767149506332 -1.4486841455e-05)
(1.24242945461e-06 0.000679874762291 0.000121243363077)
(0.000213572190193 0.000781415253085 -5.22759465712e-05)
(0.00047549554 0.00073836296205 -0.000121723364882)
(0.00034586957751 0.000670401289083 -0.00010901106178)
(0.000564199700936 0.000719717138015 -0.000162858765267)
(0.0006436380599 0.000669384353351 -5.54868935898e-05)
(0.000576601726132 0.000617504497716 -8.12812949634e-05)
(0.00071991933505 0.000651951348712 -2.19899606293e-05)
(0.000656350995764 0.0005788755869 3.83040056126e-05)
(0.000645887037019 0.000535728198022 1.04399265879e-05)
(0.000691927895596 0.000558679062796 0.000131076617242)
(0.000569857708474 0.000472696867798 9.37813529693e-05)
(0.000604470996204 0.000444073296087 9.06948449362e-05)
(0.000579544484113 0.00044565387896 0.000218739633615)
(0.000462146352033 0.000361263956932 9.55115602915e-05)
(0.000485573790859 0.000337345277216 0.000105049254474)
(0.000440848429651 0.000325583219535 0.000221200949959)
(0.0003882693894 0.000273714204609 8.12195880231e-05)
(0.000413453173063 0.000242395928077 8.00176756814e-05)
(0.000356085577561 0.000210928680154 0.000159668254382)
(0.000331012034703 0.000228186271374 8.49149694908e-05)
(0.000365847080171 0.000184935077958 7.8491408758e-05)
(0.000316029553827 0.000139211883414 0.000117809628035)
(0.000255514505413 0.000214832381946 0.000101975055469)
(0.00029457558147 0.000164628040707 0.000128310920577)
(0.000272314524518 0.00011315011552 0.000122315893394)
(0.000149497025263 0.000216135532247 0.000113535024204)
(0.000206612682821 0.00017582594968 0.000113144881282)
(0.000197553286168 0.000111894929383 0.000141483703321)
(3.79872572661e-05 0.000225857071929 0.000108466556664)
(9.75141530652e-05 0.000181727489161 0.000115694901042)
(0.00010187706012 0.000119054259166 0.000146726036481)
(-5.02420941148e-05 0.000247362152688 9.20789297913e-05)
(-6.42117779979e-06 0.000183664748112 0.000129290984721)
(1.55569170192e-05 0.000132626379224 0.000132038527203)
(-0.000120599065271 0.000296346352578 8.92587178044e-05)
(-9.30371508517e-05 0.00020713712138 8.52124426317e-05)
(-4.16574780394e-05 0.000165300347125 0.000128989397113)
(-0.000218031443462 0.000383555817923 0.000107225052468)
(-0.000157648075925 0.000265800495178 9.02642670782e-05)
(-0.000103350878022 0.000243637792586 0.000182391555364)
(-0.000346461243104 0.000492767098695 0.000110801962421)
(-0.000252186896425 0.000359122303401 0.000119586977172)
(-0.00021309504727 0.000353311433981 0.000240127880431)
(-0.000461755093553 0.00059729647323 6.38096775525e-05)
(-0.000394473643309 0.000462894247083 0.00011252823181)
(-0.000371088841122 0.000467915007227 0.000247701150218)
(-0.000491244065495 0.000686781961024 -2.17370252096e-05)
(-0.000470775616017 0.000553570130127 4.26303536319e-05)
(-0.000512382151125 0.000578564517037 0.000173920252929)
(-0.000377456826771 0.000754255814306 -8.59700358569e-05)
(-0.00045167139099 0.000633474547823 -4.31325787334e-05)
(-0.000583936247113 0.000669173059351 3.5424705411e-05)
(-0.00012787880267 0.000780315284564 1.26632909294e-05)
(-0.000277820455624 0.000684157025558 -7.44848760486e-05)
(-0.000482603622922 0.000734684173631 -0.000103642099697)
(1.95493347025e-05 0.000690385199309 0.000141157719005)
(-0.000184308017916 0.000793003457868 -5.63455611463e-06)
(0.000189197525072 0.000603907077594 2.67191427523e-05)
(2.73925072618e-05 0.000491674442227 0.000139517981219)
(0.000226641894061 0.000616535951931 -2.17984826937e-06)
(0.000467514800167 0.000569560565854 -6.85689918615e-05)
(0.000353596819189 0.000475656785602 -6.2917057259e-05)
(0.000565772636392 0.000555150176217 -8.50035587043e-05)
(0.000599847276142 0.000506187787919 -1.53544747854e-05)
(0.000557902451857 0.000431451713077 -4.41291589115e-05)
(0.000695287854267 0.000492182115485 5.23783148529e-05)
(0.000583483665799 0.000432652622362 6.28307659115e-05)
(0.000600727033689 0.00036599184444 2.5961932062e-05)
(0.000628986251976 0.000408740547498 0.000184873101418)
(0.000483019974933 0.000353794464351 0.000101962746441)
(0.000544192838546 0.000306970951258 0.000104704523218)
(0.000491012376632 0.000326048720797 0.000236484058681)
(0.000377874716372 0.000275052216008 8.95553698638e-05)
(0.000422318595944 0.000238833323981 0.000108599154051)
(0.000346021782163 0.000239067003799 0.000202709176474)
(0.000331794542325 0.000218981727179 7.72894964162e-05)
(0.000366925753172 0.00018238247191 8.27971610465e-05)
(0.000282791060923 0.000163975005907 0.000105263953027)
(0.000299839487647 0.000182071881684 0.000121887359845)
(0.000328168617387 0.000149129276203 0.00012328992842)
(0.00027928035612 0.000125947180991 6.70581089019e-05)
(0.000229716473228 0.000177047197362 0.00013948074639)
(0.000281775004483 0.000128213510922 0.000117963132732)
(0.000254891510982 0.000111173617805 0.000105983156449)
(0.000151695985378 0.000192775364878 0.00011530475812)
(0.000203697544113 0.000142363133366 8.2639476023e-05)
(0.000198353868094 0.000125531012695 0.000111090281114)
(6.52663822078e-05 0.000192376122391 0.000136519329099)
(0.00010554984324 0.000148642185277 8.47764216505e-05)
(0.000112278777194 0.000133625274332 0.000119251722442)
(-1.67907519479e-05 0.000204141953999 0.000122424497561)
(8.63770942402e-06 0.000146505576072 0.000117257840188)
(3.86026691919e-05 0.000134146877042 0.000118988061056)
(-6.16945455595e-05 0.000240202324591 8.62179919054e-05)
(-5.78885720005e-05 0.000167877255202 0.000120503380739)
(1.88624147749e-07 0.000151287178568 8.38550517759e-05)
(-0.000135342396246 0.000296042647717 0.000102626191783)
(-0.000109949342613 0.000200614361223 9.38171659761e-05)
(-2.79032694625e-05 0.000192380963147 0.000138383994593)
(-0.000262965107402 0.000372580775118 0.000121313246561)
(-0.000190899191208 0.000255980415963 0.000125666876779)
(-0.000123285757131 0.00026514959299 0.000230217128813)
(-0.000390442223985 0.00044929409931 9.13489078895e-05)
(-0.000336838937158 0.00032150226031 0.00012806323126)
(-0.000287394625877 0.000345838717245 0.00026839895)
(-0.000449237518497 0.000521452897569 2.12348001078e-05)
(-0.000426897824035 0.000379528911956 5.99947527357e-05)
(-0.000452483453165 0.000426102556846 0.000232721079753)
(-0.00037085849916 0.00058299975436 -3.16474189249e-05)
(-0.000434421409055 0.000444075046395 -4.70694543078e-06)
(-0.000562358258739 0.000507389682372 0.000111571773759)
(-0.000147079769481 0.000614912359572 5.40095520267e-05)
(-0.000286831288274 0.0004865384037 -2.7897289547e-05)
(-0.000485683010209 0.000567836431172 -2.47981455083e-05)
(-7.52056233689e-06 0.000500249155226 0.000158952773356)
(-0.000198084946346 0.000626229458317 4.4030009078e-05)
(0.000206389653897 0.000383328021392 4.98817812072e-05)
(4.58628624748e-05 0.000260093173673 0.000146414316486)
(0.0002389491543 0.000392111515305 2.41159764064e-05)
(0.000467427180908 0.000357797158742 -3.84772243091e-05)
(0.000360423669289 0.000250447263474 -3.81783379847e-05)
(0.000569723155147 0.000349821662265 -3.71161529106e-05)
(0.000576834866249 0.000313998646187 -2.81275206398e-06)
(0.000550616430068 0.000225328229733 -2.68363061247e-05)
(0.000678987476573 0.000306821785482 9.55132070612e-05)
(0.000546874175994 0.000267705772427 6.7835689368e-05)
(0.000579052979467 0.000189800310783 2.58186057095e-05)
(0.00059366047072 0.000248865359997 0.000205051882758)
(0.00043866929146 0.000222728617473 0.000111340930828)
(0.000516666847909 0.00016152400108 0.000112708651428)
(0.000446171851633 0.000203672462703 0.000252652288133)
(0.000340881942368 0.000179165280827 0.000101840945234)
(0.000396052343555 0.000129891461456 0.000115868900537)
(0.000299625601633 0.000155863782657 0.00020579198477)
(0.000309596788645 0.000141443049656 0.000128797593051)
(0.000349338749655 0.000104876133631 9.78756387407e-05)
(0.000254017452323 0.000119585405828 0.000107887268344)
(0.000277830250968 0.0001266547553 0.000119365701308)
(0.000318261615141 7.48817342351e-05 0.000140927692933)
(0.000262896516229 9.70893594855e-05 0.000105138869963)
(0.000230094726792 0.000136986247542 6.11218623652e-05)
(0.000290532612389 7.34103996926e-05 5.84348046328e-05)
(0.000262164492498 0.000102160959829 0.00010173141449)
(0.000154072632774 0.000146335945531 5.21111395539e-05)
(0.00020770325224 8.39808116514e-05 4.70566232194e-05)
(0.000203073309992 0.000112349667284 0.000133731588791)
(6.84506279872e-05 0.000146721601036 6.55149327392e-05)
(0.000106406745903 8.79250238198e-05 5.13223357334e-05)
(0.000116975936197 0.000118162628277 0.000145803998747)
(2.67204166855e-06 0.000143530884066 0.000115336723366)
(3.52935494962e-06 8.41644361444e-05 6.54776101366e-05)
(3.80162270268e-05 0.000117965484084 0.000127665773753)
(-3.95840718645e-05 0.0001586735004 0.00012810255481)
(-4.92932952538e-05 8.81570044587e-05 0.000132115503605)
(1.62587788111e-05 0.000117007865971 0.000121518459845)
(-9.95399291994e-05 0.000193570875137 0.000116857850973)
(-9.09172399052e-05 0.000114425993043 0.000110557027476)
(1.98789526224e-06 0.000137454681043 0.00014565394336)
(-0.000221664478158 0.000235631489317 0.000132416861478)