/*--------------------------------*- C++ -*----------------------------------*\
| =========                 |                                                 |
| \\      /  F ield         | OpenFOAM: The Open Source CFD Toolbox           |
|  \\    /   O peration     | Version:  3.0.1                                 |
|   \\  /    A nd           | Web:      www.OpenFOAM.org                      |
|    \\/     M anipulation  |                                                 |
\*---------------------------------------------------------------------------*/
FoamFile
{
    version     2.0;
    format      ascii;
    class       volScalarField;
    location    "5.8";
    object      ddt0(epsilon);
}
// * * * * * * * * * * * * * * * * * * * * * * * * * * * * * * * * * * * * * //

dimensions      [0 2 -4 0 0 0 0];

internalField   nonuniform List<scalar> 
7968
(
-6.74839563085e-05
-8.08647165238e-05
-9.19380296388e-05
-9.88721354718e-05
-0.000102853193479
-0.000104578273621
-0.000105164111535
-0.000104922880889
-0.000104402214263
-0.000103901854505
-0.000103906082881
-0.000104409792015
-0.000104932838176
-0.000105176022108
-0.000104591633337
-0.00010286776146
-9.88848861664e-05
-9.19481814552e-05
-8.08723488404e-05
-6.74870877435e-05
-8.08625241809e-05
-0.000143378800665
-0.000191533695422
-0.000221463886252
-0.000237691249377
-0.000244249079951
-0.000245697993594
-0.000244645080557
-0.000243437647173
-0.000242861385708
-0.000242862211854
-0.000243436957325
-0.000244641642854
-0.000245693441627
-0.000244250098523
-0.000237705660248
-0.000221487090462
-0.00019155954352
-0.000143399593925
-8.08694121648e-05
-9.19310899417e-05
-0.000191522949375
-0.000268476929224
-0.000316957260301
-0.000343727290799
-0.000355210776244
-0.000357884512985
-0.000356736564771
-0.000355434746479
-0.000354978697692
-0.000354974253426
-0.000355417388424
-0.000356705621704
-0.00035784398042
-0.000355176094797
-0.000343714631014
-0.000316964197608
-0.000268495402558
-0.000191542669833
-9.19393241249e-05
-9.88584840659e-05
-0.000221443113399
-0.000316951369142
-0.000376419606829
-0.000407913773169
-0.000419776318969
-0.000420627327054
-0.000416813195449
-0.000408363559273
-0.000405319393429
-0.000405304842267
-0.000408284871524
-0.000416753305305
-0.000420546758824
-0.00041969591634
-0.000407859683359
-0.000376394608942
-0.00031694811207
-0.00022145160751
-9.88665607038e-05
-0.000102833810405
-0.000237674073335
-0.000343740675493
-0.000407945002757
-0.000438484659214
-0.000445918758203
-0.000446072761434
-0.000445822090475
-0.000444341267611
-0.000443125582476
-0.000443117280508
-0.00044430840913
-0.00044578062663
-0.00044601171068
-0.000445803806686
-0.000438392598935
-0.000407882945124
-0.000343709549704
-0.000237665457964
-0.000102839620141
-0.000104555919018
-0.000244256249137
-0.000355279716728
-0.000419894735955
-0.000446025910739
-0.000458065258941
-0.000463012914552
-0.000462631817091
-0.000460611153567
-0.000459309809006
-0.000459305811485
-0.000460592242209
-0.000462595326767
-0.00046295996373
-0.000457993273606
-0.000445908003818
-0.000419803834448
-0.000355224338423
-0.000244231858778
-0.000104558209107
-0.00010513931417
-0.000245739203769
-0.00035803262434
-0.000420868667774
-0.000446237928409
-0.000463107691569
-0.000467914037088
-0.000465492254827
-0.000461454822092
-0.00045902706457
-0.000459026112926
-0.000461443571962
-0.000465465135222
-0.000467872689952
-0.000463055663492
-0.000446174137504
-0.000420780244878
-0.000357972402138
-0.00024570724886
-0.000105137679901
-0.00010489603751
-0.000244711263958
-0.000356939347354
-0.000417141465983
-0.000446066987428
-0.000462817174914
-0.000465582967175
-0.000460345608853
-0.000453811311928
-0.000449893525091
-0.000449895586061
-0.000453808267631
-0.00046033357787
-0.000465564363471
-0.000462792285745
-0.000446035061235
-0.000417090119497
-0.00035690170343
-0.000244686948997
-0.000104892709291
-0.000104370772663
-0.000243500866263
-0.000355639517752
-0.000408871732179
-0.000444658024819
-0.000460842753506
-0.000461587884221
-0.000453846854674
-0.00044466696022
-0.000439035783648
-0.000439041772385
-0.000444675995073
-0.000453857357146
-0.000461602370908
-0.00046085831901
-0.000444666192475
-0.00040884895319
-0.000355645725994
-0.000243496244651
-0.000104367226527
-0.000103866702315
-0.000242901347231
-0.000355136491414
-0.000405610504482
-0.000443396471063
-0.000459532301308
-0.000459162470325
-0.000449928037944
-0.000439029261322
-0.000432151518858
-0.000432164977602
-0.000439056783659
-0.000449966850817
-0.000459214983277
-0.00045959640011
-0.000443470134562
-0.000405687975803
-0.000355197411998
-0.00024292238005
-0.000103864034734
-0.000103876479526
-0.000242880845758
-0.000355081305667
-0.000405515470748
-0.000443333401101
-0.000459499343691
-0.000459156410097
-0.000449946638766
-0.000439065433234
-0.000432199775257
-0.000432221956131
-0.000439114979202
-0.000450017035345
-0.000459249074698
-0.000459611016778
-0.000443466108489
-0.000405669184715
-0.000355189073679
-0.000242924991332
-0.000103875320063
-0.000104387220536
-0.000243443627333
-0.000355484806108
-0.000408486231105
-0.000444474346561
-0.000460752425188
-0.000461571211872
-0.000453896341922
-0.000444765957087
-0.000439167277714
-0.000439192081557
-0.000444826834886
-0.000453988606533
-0.000461695281153
-0.000460901198903
-0.000444657830324
-0.000408770478529
-0.000355627611947
-0.000243505157255
-0.00010438773514
-0.000104916292967
-0.00024463908784
-0.000356735960007
-0.00041682322959
-0.000445870789177
-0.000462703564105
-0.000465570092136
-0.000460428859488
-0.000453968085601
-0.000450097854554
-0.000450121468954
-0.000454030830457
-0.000460530310961
-0.000465710032764
-0.000462869004178
-0.00044605157088
-0.000417050545808
-0.000356887802979
-0.000244706243552
-0.000104917983937
-0.000105165285446
-0.000245682840981
-0.000357840055291
-0.000420549091089
-0.00044603153043
-0.000462998163504
-0.000467917695136
-0.000465609257106
-0.000461658190259
-0.000459286006433
-0.000459307108909
-0.000461718132145
-0.000465709523059
-0.000468054183545
-0.000463158577698
-0.00044620578834
-0.000420750139766
-0.000357970573852
-0.000245739123315
-0.000105166092513
-0.000104587865954
-0.000244240589498
-0.000355153898662
-0.000419651136308
-0.000445736710857
-0.000457959383797
-0.000463033364089
-0.000462765484854
-0.000460833707628
-0.00045958552256
-0.000459604299148
-0.000460888034209
-0.000462855947408
-0.000463154204138
-0.000458103507707
-0.000445910321821
-0.00041978210595
-0.000355234175434
-0.00024427238203
-0.00010458634389
-0.000102870727005
-0.000237708371839
-0.000343701957808
-0.000407817135532
-0.000438311059452
-0.000445790091506
-0.000446104333553
-0.000445960191062
-0.000444577805663
-0.000443409941925
-0.000443428114333
-0.000444629600521
-0.000446041366856
-0.000446206166288
-0.000445904735328
-0.000438400417251
-0.00040787242554
-0.000343730323256
-0.000237714226996
-0.000102867229775
-9.88939346533e-05
-0.000221510898159
-0.000316984263763
-0.000376394886047
-0.000407849049024
-0.000419731103302
-0.000420671193406
-0.000416962366962
-0.000408666183047
-0.00040561095118
-0.000405630460646
-0.00040872287869
-0.000417043256891
-0.000420757316711
-0.000419798298658
-0.000407886948417
-0.000376409275631
-0.000316983745644
-0.000221503178759
-9.88901963184e-05
-9.19606812205e-05
-0.000191599959431
-0.000268545347029
-0.000316994290017
-0.000343737992409
-0.000355226840282
-0.000357945620785
-0.000356857199087
-0.000355605885795
-0.000355180496105
-0.000355198866011
-0.000355654640426
-0.000356923879106
-0.000358011499259
-0.000355274495656
-0.000343763026334
-0.00031699929127
-0.000268539286241
-0.000191591866218
-9.19582669922e-05
-8.08845896568e-05
-0.000143438350774
-0.000191596245538
-0.000221514516885
-0.000237728244435
-0.000244285749311
-0.000245751607586
-0.000244725315365
-0.000243539511843
-0.00024297787622
-0.000242992120509
-0.000243575597341
-0.000244773583949
-0.000245800110467
-0.000244323687356
-0.000237751605388
-0.000221521673469
-0.000191595113844
-0.000143435922861
-8.08839387214e-05
-6.74956484303e-05
-8.08865660221e-05
-9.19625407317e-05
-9.88966635496e-05
-0.000102876669965
-0.000104600769393
-0.000105186247128
-0.00010494647456
-0.000104426521242
-0.000103927270467
-0.000103934709876
-0.000104441512901
-0.000104965265824
-0.00010520472223
-0.000104615197496
-0.000102886658283
-9.89007652315e-05
-9.19633807208e-05
-8.0886723151e-05
-6.74955583887e-05
-7.27706167683e-05
-0.00011884743259
-0.000158996930649
-0.000187371184547
-0.000205509391398
-0.000215741545723
-0.000220243307496
-0.00022079590538
-0.000219323376445
-0.000217730647116
-0.000217735938074
-0.000219336700203
-0.000220814037737
-0.000220264509806
-0.000215764641468
-0.00020553391221
-0.000187393583183
-0.000159014750171
-0.000118860026527
-7.27749997246e-05
-0.000118838773639
-0.000144633530978
-0.000180969601999
-0.00020890713468
-0.000228001667708
-0.000239932753613
-0.00024655557069
-0.000249543514678
-0.000250501756333
-0.000250637733827
-0.000250641368132
-0.000250510109121
-0.000249554086216
-0.000246567179964
-0.000239945803038
-0.000228016662579
-0.00020892320475
-0.000180985044854
-0.000144646856571
-0.000118845434595
-0.00015897840345
-0.000180960140754
-0.000221955718794
-0.000254508170029
-0.00027687718592
-0.000290630912882
-0.000298090223625
-0.000301483957782
-0.00030291496781
-0.000303472121778
-0.000303473458035
-0.000302915932139
-0.000301482636089
-0.000298086779767
-0.000290627956126
-0.000276878447423
-0.000254514127679
-0.00022196458196
-0.000180969721772
-0.000158984375886
-0.000187343333832
-0.00020889195342
-0.000254503199466
-0.000290926784813
-0.000315607383461
-0.000330231979978
-0.000337647838341
-0.000339707665899
-0.000340421416137
-0.000340767859258
-0.000340767180483
-0.000340415341558
-0.000339697695021
-0.000337633728307
-0.000330213891048
-0.000315593555024
-0.00029092055405
-0.000254503122026
-0.000208895892613
-0.000187346294946
-0.000205479022935
-0.000227987976564
-0.000276876272886
-0.000315613136076
-0.000341303609679
-0.00035589700064
-0.000364477199988
-0.00036872833418
-0.000370512141241
-0.000371123929879
-0.00037112341075
-0.000370507972926
-0.000368720510319
-0.000364464419581
-0.000355875620762
-0.000341282753204
-0.000315594353801
-0.000276866457904
-0.000227985507545
-0.000205476964901
-0.000215716311443
-0.000239928092468
-0.00029064440634
-0.000330256057222
-0.000355913142
-0.000373341663298
-0.000384127652273
-0.000389643395006
-0.000391948886682
-0.000392735420582
-0.000392735584636
-0.000391946617946
-0.000389637593234
-0.000384117686444
-0.000373324929492
-0.000355888256751
-0.000330230055864
-0.000290627774694
-0.000239921135839
-0.000215709701037
-0.000220226326204
-0.000246562124955
-0.000298121966043
-0.000337691795372
-0.000364504950143
-0.000384142687305
-0.000396367310505
-0.000402543170866
-0.000405043553146
-0.000405735284501
-0.00040573674353
-0.000405045429282
-0.000402542841977
-0.000396361662341
-0.000384130288748
-0.000364486618912
-0.000337668903776
-0.000298105032318
-0.000246554350045
-0.000220218524228
-0.000220782219389
-0.000249554816755
-0.000301525676689
-0.000339760860372
-0.000368768479531
-0.00038967647929
-0.000402566018903
-0.000408834008975
-0.000411137686338
-0.000411717448087
-0.000411721333192
-0.000411145446333
-0.000408840652386
-0.000402566044545
-0.000389668233801
-0.000368755936725
-0.00033974483157
-0.000301515873814
-0.000249551672159
-0.000220778885599
-0.000219304802045
-0.000250508061042
-0.000302952496862
-0.000340479313119
-0.00037056222948
-0.00039199734326
-0.000405087468545
-0.000411161215505
-0.000412818189069
-0.000412930267842
-0.000412937129811
-0.000412832853744
-0.000411176210052
-0.000405096145144
-0.000391997487513
-0.000370558764311
-0.000340474903875
-0.000302955027853
-0.000250511823696
-0.000219307912405
-0.000217705530973
-0.000250634315484
-0.000303495691171
-0.000340807451147
-0.000371171886118
-0.000392791642351
-0.000405797187546
-0.0004117578993
-0.00041294127854
-0.000412691951435
-0.000412701080939
-0.000412961194469
-0.00041178074672
-0.000405816273394
-0.000392803160497
-0.000371180893051
-0.000340818162025
-0.000303511568487
-0.000250644325558
-0.000217713786304
-0.000217714024889
-0.000250634695827
-0.000303486723992
-0.000340796318577
-0.000371166422448
-0.000392793324956
-0.000405804088445
-0.000411770007215
-0.000412957094401
-0.000412709248308
-0.000412719191978
-0.000412979700081
-0.000411798176211
-0.000405833017669
-0.000392816841331
-0.000371188434382
-0.000340821104863
-0.000303513666258
-0.000250649253676
-0.000217726436523
-0.000219320859236
-0.000250505074313
-0.000302923983114
-0.000340439340131
-0.000370543411136
-0.000391998062062
-0.000405104385069
-0.000411190505019
-0.000412858052821
-0.000412975175336
-0.000412984108091
-0.000412879701987
-0.000411219466462
-0.000405139071104
-0.000392031897095
-0.000370578450817
-0.000340481940128
-0.000302961765455
-0.000250525573877
-0.000219339439502
-0.000220802350689
-0.000249552316169
-0.000301487661534
-0.000339711659156
-0.000368745080464
-0.000389676114211
-0.000402587728856
-0.000408876088266
-0.000411198672521
-0.000411791881484
-0.000411799146966
-0.000411218235359
-0.000408904536633
-0.000402624306216
-0.000389714585383
-0.00036878580648
-0.000339760134122
-0.000301530685919
-0.000249576609619
-0.000220826344864
-0.000220256937381
-0.000246570697436
-0.000298091845162
-0.000337641037236
-0.000364480666023
-0.000384144397581
-0.000396395447358
-0.00040260201873
-0.000405128807143
-0.000405838736187
-0.000405844744698
-0.000405147575598
-0.00040263155462
-0.000396431861164
-0.000384183126956
-0.000364522690397
-0.000337691247175
-0.00029813130311
-0.000246592874463
-0.000220280103319
-0.000215767996621
-0.000239960316261
-0.00029064047676
-0.000330221091957
-0.000355885490107
-0.000373344801599
-0.00038416117953
-0.000389708951778
-0.000392040720699
-0.000392840763018
-0.00039284636106
-0.000392058026954
-0.000389737061936
-0.000384196213674
-0.000373382354319
-0.000355925666134
-0.000330259026942
-0.000290667162865
-0.000239974447722
-0.000215784633007
-0.000205554085872
-0.000228048329555
-0.000276908862122
-0.000315615147734
-0.000341296234695
-0.000355904749486
-0.000364514767328
-0.000368792561676
-0.000370599014996
-0.000371222456386
-0.000371228246007
-0.000370616384764
-0.000368820052505
-0.000364548215644
-0.000355938728172
-0.000341325012022
-0.000315636016369
-0.000276921358098
-0.000228053877193
-0.000205563286783
-0.000187433237566
-0.000208975088612
-0.000254569807376
-0.000290969045378
-0.000315631183687
-0.0003302568186
-0.000337692437366
-0.000339773856302
-0.000340507533678
-0.000340860049338
-0.000340866659547
-0.000340526805336
-0.000339803033859
-0.00033772643561
-0.000330285830993
-0.000315651221735
-0.000290980742968
-0.000254575221429
-0.000208976986633
-0.000187439334796
-0.000159069339381
-0.000181054788371
-0.00022204476308
-0.00025458061672
-0.000276933657945
-0.000290682115625
-0.000298148605264
-0.000301554223325
-0.000302994842133
-0.000303557072444
-0.000303564681761
-0.000303016066576
-0.000301584713066
-0.000298181541691
-0.000290710291359
-0.000276953536285
-0.000254592472521
-0.000222050986701
-0.00018105878034
-0.000159076761226
-0.00011891416054
-0.000144726805592
-0.000181065880961
-0.000208995011317
-0.00022807862153
-0.000240003954963
-0.000246627788498
-0.000249619569067
-0.000250580212805
-0.000250716690318
-0.00025072427511
-0.000250600977722
-0.000249650026345
-0.000246661738787
-0.000240035200321
-0.000228103288463
-0.000209012044662
-0.000181077505401
-0.000144735645838
-0.000118922672922
-7.28107124278e-05
-0.000118931762359
-0.000159091839685
-0.000187460778642
-0.000205590452223
-0.000215819407986
-0.000220326224171
-0.00022088842056
-0.000219424047638
-0.000217836491316
-0.000217848136269
-0.000219454896874
-0.000220933452771
-0.000220376717145
-0.000215866934964
-0.000205629761608
-0.00018748918436
-0.00015911161997
-0.000118944572023
-7.28156234252e-05
-6.68553386132e-05
-0.000126225025343
-0.000182411380922
-0.000224870177917
-0.000253382730674
-0.000270045959627
-0.00027622399386
-0.000273384775457
-0.000265201479707
-0.000258032831653
-0.000258042820125
-0.000265233937359
-0.000273435582389
-0.000276285567114
-0.000270106657736
-0.000253436515989
-0.000224913901882
-0.000182444963343
-0.000126248662613
-6.68631846605e-05
-0.000126207381629
-0.000149954264361
-0.000189412703542
-0.000222757790015
-0.00024812402115
-0.000266194442884
-0.000277554664584
-0.000282857371646
-0.000283752364674
-0.000282936636073
-0.000282946404646
-0.000283780540892
-0.000282898289326
-0.000277600379176
-0.00026623602519
-0.000248157058135
-0.000222782071516
-0.000189430501277
-0.000149969153732
-0.000126218561319
-0.000182377984107
-0.000189399365653
-0.00022897413602
-0.000264707983192
-0.000292402459419
-0.000312208069575
-0.000325156452498
-0.000332903357536
-0.000336660003933
-0.000337990994096
-0.000337998114347
-0.000336676762665
-0.000332926289141
-0.000325180303683
-0.000312227369848
-0.000292418414984
-0.000264720304244
-0.000228982988295
-0.000189407165681
-0.000182385373452
-0.00022482296759
-0.000222737225854
-0.000264701181551
-0.000303191129432
-0.000332326420209
-0.00035209791253
-0.000363020720963
-0.00037094497872
-0.000374776791873
-0.000376278521433
-0.00037628202679
-0.00037478304694
-0.000370952692061
-0.000363026113103
-0.000352095493311
-0.000332328862569
-0.000303193100053
-0.000264702976544
-0.000222738974334
-0.000224823450469
-0.000253333093033
-0.000248102890813
-0.000292394894438
-0.000332325410937
-0.000361665309974
-0.000380952352108
-0.000393209528643
-0.000400480882082
-0.000404088251846
-0.000405529873844
-0.000405529974728
-0.0004040866421
-0.000400480279506
-0.000393208702461
-0.000380941795751
-0.000361564548444
-0.000332319270815
-0.000292390791273
-0.000248101348792
-0.000253328038358
-0.000269997650699
-0.000266173589479
-0.000312201733753
-0.000352098185122
-0.000380950075289
-0.000401248835245
-0.000413882400519
-0.00042078127005
-0.000424146642183
-0.000425545664065
-0.00042554170835
-0.000424133853365
-0.000420770324905
-0.000413878417018
-0.000401238338231
-0.000380933471987
-0.000352081341087
-0.000312195202085
-0.000266173716876
-0.000269992986593
-0.000276168415249
-0.00027752579553
-0.000325144186666
-0.000363006334009
-0.000393198056714
-0.000413879767443
-0.000426235282056
-0.000432690985105
-0.000435869988739
-0.000437352630589
-0.000437348363992
-0.000435855800083
-0.000432684418377
-0.000426238314205
-0.000413878119783
-0.000393185727834
-0.000362993969426
-0.000325141901771
-0.000277531879323
-0.000276171675357
-0.000273310359493
-0.00028281143248
-0.000332880699931
-0.000370922971382
-0.000400462560623
-0.000420786679062
-0.000432715864243
-0.000438903756685
-0.00044177755114
-0.000442969999062
-0.00044296933781
-0.000441775891595
-0.000438912208242
-0.000432726932515
-0.000420790366349
-0.000400452397336
-0.000370913210881
-0.00033288272085
-0.000282822221701
-0.000273321442328
-0.00026512120111
-0.00028369268297
-0.000336624649583
-0.000374748840175
-0.000404072598518
-0.000424170464249
-0.000435932548962
-0.000441828203881
-0.000444114019597
-0.000444885022945
-0.000444889065071
-0.000444123131729
-0.00044184612445
-0.00043595132215
-0.000424181054758
-0.000404066333564
-0.000374741588882
-0.000336628987428
-0.000283698954057
-0.000265124367952
-0.000257964599626
-0.000282875523985
-0.000337943833461
-0.000376243815641
-0.000405519495042
-0.000425588271474
-0.000437445326425
-0.000443052549803
-0.000444915019684
-0.000445404380569
-0.0004454087201
-0.000444924990197
-0.000443073084382
-0.000437475172069
-0.000425608798713
-0.000405518786196
-0.000376238697967
-0.000337946434748
-0.000282869366548
-0.000257949109359
-0.000257999414684
-0.000282897714964
-0.000337952793819
-0.00037624715958
-0.000405519857693
-0.000425590153911
-0.00043745181603
-0.00044306478792
-0.00044493005155
-0.000445418832814
-0.000445421428182
-0.000444936016797
-0.000443082582291
-0.000437486787996
-0.0004256196365
-0.000405525108816
-0.000376242262506
-0.000337950684443
-0.000282879288129
-0.000257971461593
-0.000265211028563
-0.000283748612347
-0.000336641752571
-0.000374750773162
-0.000404070359711
-0.000424172499716
-0.000435946176474
-0.000441855131139
-0.000444149015941
-0.000444918066086
-0.000444919108113
-0.000444151378237
-0.000441867296598
-0.000435977562413
-0.000424204123018
-0.000404079837587
-0.000374749681112
-0.000336640148043
-0.000283725939548
-0.000265183965619
-0.000273423912885
-0.000282886932181
-0.000332905451152
-0.000370927782615
-0.000400460713747
-0.000420790319518
-0.000432735979035
-0.000438949677158
-0.000441840836803
-0.000443037378298
-0.00044303749271
-0.000441843417324
-0.000438961307531
-0.000432762600375
-0.000420817180621
-0.000400468005545
-0.000370926136228
-0.000332904559379
-0.00028286772646
-0.000273411657126
-0.000276283911737
-0.00027761388204
-0.000325180424999
-0.00036301778673
-0.000393199132885
-0.000413884711163
-0.000426265250777
-0.000432759468125
-0.000435970655522
-0.000437469756149
-0.00043747008261
-0.000435976810637
-0.000432776057981
-0.000426291270043
-0.000413902512074
-0.000393199907993
-0.000363014700036
-0.000325179930736
-0.000277598597958
-0.000276284911202
-0.000270125996714
-0.00026627991833
-0.000312257653495
-0.000352108839137
-0.000380948996517
-0.000401248586331
-0.000413908375338
-0.000420846312878
-0.00042424063285
-0.000425655567041
-0.000425658074861
-0.000424250741634
-0.000420864574561
-0.000413927841655
-0.000401256111966
-0.000380945858884
-0.000352108372951
-0.000312252598272
-0.00026626427806
-0.000270130175339
-0.000253485573115
-0.000248234840015
-0.000292487644873
-0.0003323789541
-0.000361547446239
-0.000380965270598
-0.000393230630055
-0.000400514162932
-0.00040413556153
-0.000405584387097
-0.000405587272852
-0.000404145229429
-0.00040052811765
-0.00039324156735
-0.000380966551358
-0.000361521869529
-0.000332371212773
-0.000292475085333
-0.000248216494945
-0.000253487312715
-0.000224994784517
-0.000222891114666
-0.000264830861521
-0.000303287654775
-0.000332393079653
-0.00035213939827
-0.000363058811616
-0.000370981165361
-0.000374812180713
-0.000376310193617
-0.000376313965975
-0.000374823999846
-0.000370997391514
-0.000363072461951
-0.000352146639386
-0.000332391158873
-0.000303279200883
-0.000264816973908
-0.000222874871529
-0.000224998226743
-0.000182551115496
-0.000189563108279
-0.000229130510683
-0.00026484256682
-0.000292510666103
-0.00031229345517
-0.000325226667524
-0.000332960979094
-0.000336705676337
-0.000338024687362
-0.000338030449067
-0.000336722896752
-0.000332985940585
-0.000325252201276
-0.000312312464158
-0.000292519378988
-0.000264841807661
-0.000229123381478
-0.000189555366206
-0.000182561534697
-0.000126350732615
-0.000150112635091
-0.000189581047804
-0.000222918786266
-0.000248269930512
-0.000266324734647
-0.00027767025544
-0.000282956531462
-0.000283836101241
-0.000283010178109
-0.000283018031416
-0.000283858938843
-0.000282991769287
-0.000277710120369
-0.00026636056273
-0.00024829512272
-0.000222932552852
-0.000189587334373
-0.000150117337026
-0.000126366283026
-6.69253117098e-05
-0.000126382388364
-0.000182597491056
-0.000225053942828
-0.000253558049453
-0.000270219728728
-0.000276407236284
-0.000273579972031
-0.000265409026811
-0.000258248840632
-0.000258264664498
-0.000265454891452
-0.000273652875896
-0.000276493364197
-0.000270303520423
-0.000253626653843
-0.00022510376847
-0.000182632101239
-0.000126405425929
-6.6938734794e-05
-5.23703345684e-05
-0.000113085714794
-0.000172858279007
-0.000216976146441
-0.00024311467404
-0.000252295816286
-0.000244338554733
-0.000221616196388
-0.000195485699878
-0.000178488441417
-0.000178500415791
-0.000195510994277
-0.0002216751902
-0.000244437068135
-0.000252398670974
-0.000243200567279
-0.000217036727425
-0.000172902287389
-0.000113113447694
-5.23811029547e-05
-0.00011305767663
-0.000138741305425
-0.000179325870615
-0.000214468870337
-0.000241860448914
-0.000261286623031
-0.000271753245196
-0.000272743243893
-0.000267914933859
-0.00026311177315
-0.000263128995977
-0.00026796409628
-0.000272821065179
-0.000271845090044
-0.000261366705768
-0.000241915367629
-0.000214497286197
-0.00017933780404
-0.0001387506273
-0.000113079244094
-0.000172812776219
-0.000179308044458
-0.000223769776543
-0.000265739669795
-0.000299934247376
-0.000325662659679
-0.000343814453761
-0.00035449860565
-0.000359083807651
-0.00035982643857
-0.000359805117041
-0.000359118437248
-0.000354555523509
-0.00034387500298
-0.000325709544854
-0.000299970954585
-0.000265757878543
-0.000223773203853
-0.000179308071716
-0.00017282662454
-0.000216907378292
-0.00021444118719
-0.000265730653303
-0.000313858448809
-0.000351006310577
-0.000375149988566
-0.000393620141709
-0.000404533886667
-0.00041013658961
-0.000412302079011
-0.000412306841996
-0.000410149623776
-0.000404560054685
-0.00039364912806
-0.00037515425747
-0.000351026076477
-0.000313869881116
-0.000265729030287
-0.00021443214324
-0.000216907415755
-0.000243046261497
-0.000241829093584
-0.000299920208216
-0.000351001358658
-0.000386173172225
-0.000412040759591
-0.000427946883722
-0.000437172633381
-0.000442018036014
-0.000444040603019
-0.000444035693404
-0.000442001595574
-0.000437166398922
-0.000427961620072
-0.000412052501193
-0.000386299953064
-0.000351004317777
-0.000299916556527
-0.000241815054321
-0.000243026883906
-0.000252211300514
-0.000261241247258
-0.000325638559987
-0.000375139942935
-0.000412028250518
-0.000435398681601
-0.000449172971536
-0.000456712331985
-0.00046040549563
-0.00046196617016
-0.000461948521719
-0.000460352213647
-0.000456668802882
-0.000449173189214
-0.000435417976496
-0.000412037834275
-0.000375112425266
-0.000325630801106
-0.00026123019652
-0.000252185199253
-0.000244219393941
-0.000271671528357
-0.000343759887181
-0.000393570573192
-0.000427907934498
-0.000449167936993
-0.000461769728122
-0.000467945781938
-0.000470512622352
-0.000471670103206
-0.00047165038379
-0.000470449117776
-0.000467911020759
-0.000461778213248
-0.000449197213162
-0.000427936165132
-0.000393568321541
-0.000343761860046
-0.000271667135548
-0.000244186963823
-0.000221468620608
-0.000272617815807
-0.000354407572619
-0.000404447600088
-0.000437111519688
-0.000456731093733
-0.000468011460338
-0.000473002666266
-0.000474556394535
-0.000474953340603
-0.000474941078877
-0.000474525316266
-0.000473006280644
-0.000468037508172
-0.000456764847653
-0.00043714940203
-0.000404458219816
-0.000354410872286
-0.00027260598581
-0.000221403027403
-0.000195384386848
-0.000267775625993
-0.000358981115781
-0.000410044889857
-0.000441973018652
-0.000460470791695
-0.000470671919293
-0.000474682397844
-0.000474894790109
-0.000474581257817
-0.000474579064449
-0.000474889531965
-0.000474704839857
-0.000470706519789
-0.000460514608934
-0.000442010053518
-0.00041005142937
-0.000358973972302
-0.000267729109508
-0.000195236057287
-0.000178456452885
-0.000262996739411
-0.000359997906842
-0.000412226898583
-0.000444027040152
-0.000462076692265
-0.000471870329404
-0.000475122839491
-0.000474639475525
-0.000473904134552
-0.000473900765728
-0.00047463283005
-0.000475144630646
-0.000471931603871
-0.000462138349742
-0.000444062309077
-0.000412224853489
-0.000359975611513
-0.000262906738423
-0.000178232314952
-0.000178514649604
-0.000263041773689
-0.000359931828081
-0.000412239458565
-0.000444035848156
-0.000462080860055
-0.000471878021896
-0.000475138257969
-0.000474659691376
-0.000473923824524
-0.000473916757764
-0.000474643853309
-0.000475153002055
-0.000471946959579
-0.000462155102941
-0.000444069574804
-0.000412226698228
-0.000359980579243
-0.000262917232068
-0.000178250236636
-0.000195565788672
-0.000267907212707
-0.000359043047029
-0.000410078338432
-0.000441996743684
-0.000460482239339
-0.00047068884472
-0.000474711977699
-0.000474935279659
-0.000474620139246
-0.000474612181164
-0.000474914412072
-0.000474715744627
-0.000470750162649
-0.000460551158515
-0.000442022046652
-0.000410053044972
-0.000358984776261
-0.000267765482266
-0.000195306609188
-0.000221740168888
-0.000272804930263
-0.000354504140831
-0.000404502780058
-0.000437160825052
-0.000456768815318
-0.000468057751368
-0.000473083513274
-0.000474664427819
-0.000475062940671
-0.000475055332464
-0.000474651160169
-0.000473083548215
-0.000468100450818
-0.000456819876025
-0.000437169756544
-0.00040446299217
-0.000354433363392
-0.000272667871387
-0.000221519821182
-0.000244501754039
-0.000271880695775
-0.00034386586741
-0.000393623351639
-0.000427973019579
-0.000449237563463
-0.000461873095507
-0.000468115508699
-0.000470744426912
-0.000471913708069
-0.000471907376748
-0.000470742382273
-0.00046813139139
-0.00046191579995
-0.00044926658256
-0.000427958383211
-0.000393578428104
-0.000343803283707
-0.000271757574786
-0.000244333269916
-0.000252490076501
-0.000261464120706
-0.000325764564071
-0.000375170925581
-0.000412070672963
-0.000435468781215
-0.000449296354215
-0.000456910238419
-0.000460653639185
-0.000462246492574
-0.000462248209125
-0.000460665153692
-0.000456934586309
-0.00044932354619
-0.00043547312486
-0.000412038373762
-0.000375118234899
-0.000325696953279
-0.000261351242271
-0.000252358463482
-0.000243323742195
-0.000242074448012
-0.000300098257748
-0.000351109845741
-0.000386415498145
-0.000412091574656
-0.000428027718179
-0.000437283699775
-0.000442156100494
-0.000444196460135
-0.000444199511006
-0.000442167493583
-0.000437299927563
-0.000428035102062
-0.000412069687247
-0.000386386356038
-0.000351050158538
-0.000300022735848
-0.000241968627606
-0.000243219123318
-0.000217184040027
-0.000214703318819
-0.000265954059351
-0.000314028322749
-0.000351121007839
-0.000375198913588
-0.000393659087162
-0.000404565935249
-0.000410163086966
-0.000412330838216
-0.000412334570663
-0.000410174546285
-0.000404577902523
-0.00039365705876
-0.000375171024619
-0.000351074967176
-0.000313969060458
-0.000265879348185
-0.00021461277713
-0.000217112094677
-0.000173056557107
-0.000179567389278