/*--------------------------------*- C++ -*----------------------------------*\
| =========                 |                                                 |
| \\      /  F ield         | OpenFOAM: The Open Source CFD Toolbox           |
|  \\    /   O peration     | Version:  3.0.1                                 |
|   \\  /    A nd           | Web:      www.OpenFOAM.org                      |
|    \\/     M anipulation  |                                                 |
\*---------------------------------------------------------------------------*/
FoamFile
{
    version     2.0;
    format      ascii;
    class       volScalarField;
    location    "5.8";
    object      epsilon;
}
// * * * * * * * * * * * * * * * * * * * * * * * * * * * * * * * * * * * * * //

dimensions      [0 2 -3 0 0 0 0];

internalField   nonuniform List<scalar> 
7968
(
0.000157038291623
0.000200772647296
0.000236093332771
0.000256915345827
0.000265300348125
0.000265481648152
0.000261101913284
0.00025438010482
0.000247735324088
0.000242780624188
0.000242768727611
0.000247714123702
0.000254357618456
0.00026108423607
0.000265475669229
0.000265305742435
0.000256933225569
0.000236117432885
0.000200796749179
0.000157051761856
0.000200760604487
0.000371893033055
0.000497374869094
0.000568668261898
0.000596203874294
0.000594827850483
0.000578149221388
0.000555366450165
0.000535329752322
0.000523585514502
0.000523548530076
0.000535237557166
0.000555239287124
0.000578015663469
0.000594719415306
0.000596136266741
0.000568651593652
0.000497394422671
0.000371928068792
0.000200781007868
0.000236067520756
0.00049734538791
0.000688195263918
0.000797577832125
0.000841860097594
0.000841872409825
0.000817838091239
0.000784999310541
0.000756465593322
0.000740096316617
0.000740036864908
0.000756311690559
0.00078477674259
0.000817589859093
0.00084165109341
0.000841700458424
0.000797495274437
0.000688175567809
0.000497363870034
0.000236087835919
0.000256873682558
0.00056861301646
0.00079755559718
0.000929203360157
0.000982240801721
0.00098103423052
0.000950645951796
0.000911236930245
0.000879191024793
0.000863128399862
0.000863066199465
0.000879015807298
0.000910932840787
0.000950286690782
0.000980697610583
0.000981978203671
0.000929036559446
0.000797474183342
0.000568595411272
0.000256888789908
0.000265247264643
0.000596151147227
0.000841862691418
0.000982280993043
0.00103575241295
0.001031024251
0.00102229849566
0.00100174263764
0.000978641345518
0.000963693726368
0.000963627586281
0.000978469586813
0.00100149085883
0.00102199145328
0.00103060252968
0.00103538913733
0.000982023017277
0.000841706638195
0.000596081856453
0.000265249515989
0.000265437716685
0.000594835272267
0.000841977188565
0.00098121381747
0.00103118130793
0.00106221361466
0.00106798358516
0.00105389020957
0.00103270787088
0.00101735427859
0.00101728520845
0.00103253477236
0.00105364485915
0.00106769665244
0.00106188424981
0.00103076476984
0.000980886734035
0.000841760846397
0.000594723125317
0.000265425783869
0.000261071963596
0.000578237836949
0.000818090265819
0.000951034432074
0.00102256298501
0.00106814120421
0.00107990535761
0.0010665451883
0.00104346922155
0.00102603806504
0.00102596951815
0.00104330053845
0.00106631130651
0.00107964191819
0.00106786669015
0.00102227230425
0.000950693150637
0.000817849126475
0.000578097085511
0.000261043781179
0.00025436532623
0.000555530557554
0.000785381239265
0.000911794928757
0.00100216130939
0.00105423069918
0.00106674483642
0.0010505880755
0.00102346048842
0.00100259246976
0.00100253063701
0.00102331447842
0.00105039493302
0.00106653677447
0.00105402524256
0.00100195283981
0.000911533528524
0.000785180264472
0.000555399179055
0.000254328094285
0.000247719975057
0.000535516120647
0.000756888119633
0.000879702468099
0.000979142777703
0.00103317773911
0.00104382758794
0.00102363077971
0.000990632818956
0.000964730379851
0.000964684309231
0.000990534852319
0.00102351852157
0.00104372597548
0.00103309298588
0.000979065782168
0.000879616534086
0.000756798381205
0.000535441712676
0.00024768691206
0.000242750880648
0.000523728568529
0.000740448218662
0.000863517993788
0.00096414423631
0.001017824826
0.00102643225432
0.00100283190305
0.000964821288404
0.000934062763191
0.00093404564923
0.000964801714241
0.00100284053743
0.00102648224731
0.00101790870572
0.000964243179722
0.000863611956079
0.00074052410899
0.000523752578855
0.000242738999694
0.000242753792157
0.000523627288342
0.000740258729466
0.000863313237259
0.000963934526996
0.00101763045861
0.00102628098697
0.00100274939254
0.000964821096086
0.000934138906637
0.000934163759101
0.000964902612998
0.00100290126953
0.00102650153513
0.00101789757981
0.000964219052444
0.000863589006993
0.000740511943946
0.000523764803809
0.00024277733071
0.000247712395682
0.000535271213052
0.000756423849943
0.000879152512606
0.000978629184281
0.00103272523015
0.00104349099677
0.00102346894224
0.000990673996996
0.000964951331421
0.000964996055887
0.000990802721783
0.00102368802615
0.00104379230163
0.00103307823486
0.000979009224274
0.000879547233787
0.000756766893581
0.000535466802398
0.000247752078852
0.000254361165834
0.000555236723192
0.000784794920456
0.000910957619968
0.00100150149781
0.00105367407058
0.00106635440258
0.0010504380196
0.0010235846045
0.00100294847842
0.00100299832029
0.00102372374384
0.00105066643694
0.00106665948023
0.00105402515805
0.00100187983097
0.000911399813525
0.00078513530822
0.000555431442598
0.000254398810062
0.000261085382806
0.000577984278575
0.000817534556142
0.000950191053813
0.00102187522008
0.00106759013428
0.00107955085318
0.00106645909011
0.00104368065881
0.00102649126669
0.00102654014
0.00104381298727
0.00106666535023
0.00107981146624
0.00106787901762
0.00102217742745
0.000950529265683
0.000817794293373
0.000578129942308
0.000261107436027
0.00026547181138
0.000594678964498
0.00084156322756
0.000980540775501
0.00103036727866
0.0010616837293
0.00106769507298
0.0010538701446
0.00103297304545
0.00101785341123
0.0010178999391
0.00103309343051
0.00105404325685
0.00106789473484
0.00106188493645
0.00103056508466
0.000980724253683
0.00084170704494
0.000594754115981
0.000265474228524
0.000265297902918
0.000596111281359
0.000841630989199
0.000981842093863
0.00103516949712
0.00103048682404
0.00102207691682
0.00100178111889
0.000978940011193
0.000964196687095
0.000964241896776
0.000979051289746
0.00100192457835
0.00102221661149
0.00103057777755
0.00103523057365
0.000981897558048
0.00084167386443
0.000596124409763
0.000265285317372
0.000256919914287
0.000568660663642
0.000797483916291
0.000928983782097
0.000981915353218
0.000980724041381
0.00095049437269
0.000911337991279
0.000879520839628
0.000863620709453
0.000863665024729
0.000879625935858
0.000911456605094
0.000950583995052
0.000980767924387
0.000981922833043
0.000928978557875
0.000797471525895
0.000568638535819
0.000256900480653
0.000236100249515
0.000497432758105
0.000688223294169
0.000797510089287
0.000841718496774
0.000841736600441
0.000817801054027
0.000785135634111
0.000756802068676
0.000740604555557
0.000740648316718
0.000756901143556
0.00078524354088
0.000817880560802
0.000841772818434
0.000841717965106
0.000797489773284
0.000688195210977
0.000497403065739
0.000236082350194
0.000200779373824
0.000371969831529
0.000497436752027
0.000568682309762
0.000596173157718
0.000594795014396
0.000578161848721
0.000555474981911
0.000535556287399
0.000523919002082
0.000523952583218
0.00053562895577
0.000555552628753
0.000578218282535
0.000594819837845
0.000596170698361
0.000568663581625
0.000497413447094
0.000371948264472
0.00020076652955
0.000157042200868
0.00020079973702
0.000236130094781
0.000256951488207
0.000265330837154
0.000265511710149
0.00026113837267
0.000254436798695
0.000247819337334
0.000242893384293
0.000242905598741
0.00024784499551
0.000254461330011
0.000261152519992
0.000265514245945
0.000265324648697
0.000256940479011
0.000236120354412
0.000200792643053
0.000157035381225
0.00019930200008
0.000321078230973
0.000425147748186
0.000495222727425
0.000533544493079
0.000548116592506
0.000547706902902
0.000539760500985
0.000531000113651
0.00052550873325
0.000525481766897
0.000530935035364
0.000539675788315
0.00054762230881
0.000548053481912
0.000533514802639
0.000495227212159
0.000425176029593
0.000321112910031
0.000199320268022
0.000321058029448
0.000406279774022
0.000496066133243
0.00055948883907
0.000596676021913
0.00061349656482
0.000616839628479
0.000612876372449
0.000607031426486
0.00060302929291
0.000603003868959
0.000606966706409
0.000612786823545
0.000616743386718
0.000613414323896
0.000596622596418
0.000559468766215
0.000496073366924
0.000406302461677
0.000321086623674
0.000425107082982
0.000496054164966
0.000587395996036
0.000654087990728
0.000694417062387
0.00071341523079
0.000717747055601
0.000713744289703
0.000707099284987
0.000702302602807
0.000702276273302
0.000707031520315
0.000713648193446
0.000717638667973
0.000713315000287
0.000694340560678
0.000654042190541
0.000587378276672
0.00049605687481
0.000425127059544
0.000495160702027
0.000559472618046
0.000654086857698
0.000724733390328
0.000768915237739
0.000791467514448
0.000799050191371
0.000798835876205
0.000794849762592
0.000791287696414
0.000791265643336
0.000794792829562
0.000798750248121
0.000798937400175
0.00079135315339
0.00076881516189
0.000724657683814
0.000654036756066
0.000559444551401
0.000495156150893
0.00053348271815
0.000596675015452
0.000694433115873
0.000768932463187
0.000818096392485
0.000848651308875
0.000867542353601
0.000874694383578
0.000874218353464
0.000871753429101
0.000871732783544
0.000874167699011
0.000874625139519
0.000867459136003
0.000848548640609
0.000817981017025
0.000768828996372
0.000694349050404
0.00059661108699
0.000533442819061
0.000548094076538
0.000613539076504
0.000713472875339
0.000791523992846
0.000848683091881
0.00089308848362
0.000921621831695
0.000934628314588
0.000936719015973
0.000934896902241
0.000934875842616
0.000936669679572
0.000934565878144
0.000921553645895
0.000893008910803
0.000848579392923
0.000791404966274
0.000713363345817
0.000613444210208
0.000548017827849
0.00054775190018
0.000616943186393
0.000717860030361
0.00079915572499
0.000867604841161
0.000921659674546
0.000957088236874
0.000973676037538
0.000976637691155
0.000974565162936
0.000974543836388
0.000976588694765
0.000973617578197
0.000957029356191
0.000921596729692
0.000867524983181
0.000799041508697
0.000717744030875
0.000616833501142
0.000547649281579
0.000539877509135
0.000613034286756
0.000713901958841
0.000798961569147
0.000874793318788
0.000934722800881
0.000973750172092
0.000991462265296
0.000994340925597
0.000991353955753
0.000991336266506
0.000994304046664
0.000991421269811
0.000973708155773
0.000934679908165
0.000874739492322
0.000798885211405
0.000713808750431
0.000612938585118
0.000539776136345
0.000531148344827
0.000607205321013
0.00070726980666
0.000794981553917
0.00087434976178
0.000936873700186
0.00097679772461
0.000994437136007
0.00099525176412
0.000990007882444
0.00098999960627
0.00099524052109
0.000994432059497
0.000976795572262
0.000936870097595
0.000874337380996
0.000794956144593
0.000707230251754
0.000607158681596
0.000531088360162
0.000525627074163
0.000603168598044
0.000702441727395
0.000791397784733
0.00087188445201
0.000935072982055
0.000974758663314
0.000991506816101
0.000990076461536
0.000982564128628
0.000982571863102
0.000990106707274
0.000991560352274
0.000974822841255
0.000935133761374
0.000871934622387
0.000791439476796
0.000702481364161
0.000603200209845
0.000525647405942
0.000525540668638
0.000603076720963
0.00070234920158
0.000791321526894
0.00087181506781
0.000935009021985
0.000974707351645
0.00099147957156
0.000990084401586
0.00098260816612
0.000982636365391
0.000990164097865
0.00099160059611
0.000974846902806
0.000935143352969
0.000871935665175
0.000791436022495
0.000702473870023
0.000603193681726
0.00052565450963
0.000530945390239
0.00060697973995
0.000707040988656
0.000794792288488
0.000874186355086
0.000936730849272
0.000976686853762
0.00099438923628
0.000995289638234
0.000990130873147
0.000990167663826
0.000995389624993
0.000994538383706
0.000976860463487
0.000936898513958
0.000874342345636
0.000794947246458
0.00070721069992
0.000607140712446
0.000531104304489
0.000539640380341
0.000612749293902
0.000713606123939
0.000798704428959
0.000874591113919
0.000934560113379
0.000973636382567
0.000991432175513
0.000994423061436
0.00099154079487
0.000991577656954
0.000994522394756
0.000991578399802
0.000973804785455
0.000934724967703
0.00087474887163
0.000798868692339
0.000713779309851
0.000612911123747
0.000539795156485
0.000547550583564
0.000616669040535
0.000717561830902
0.000798861039257
0.000867394754393
0.000921508438168
0.000956998445661
0.000973676974322
0.000976756914325
0.00097478192163
0.000974815627373
0.000976846444369
0.000973806260039
0.000957143958858
0.000921651356303
0.000867533347644
0.000799009768539
0.000717705259182
0.000616797767085
0.000547665769519
0.000547965855082
0.000613324266993
0.000713225536373
0.000791264150295
0.000848469445224
0.000892949424269
0.000921552119524
0.000934642582616
0.000936836906346
0.000935110452457
0.00093514041823
0.000936915093396
0.000934751878503
0.000921671845944
0.000893063726702
0.000848575617938
0.000791366918982
0.00071331954919
0.000613402241028
0.000548027118254
0.000533427721795
0.000596538476316
0.000694262931122
0.000768738463726
0.000817904325338
0.000848516084612
0.000867481461971
0.000874711050696
0.000874324665879
0.000871943569839
0.000871971409824
0.000874395382496
0.000874805396213
0.000867579002189
0.000848600134522
0.000817970588246
0.00076879462285
0.000694308430175
0.000596568063372
0.000533442477509
0.000495154148532
0.000559408429136
0.000653995805173
0.00072461459429
0.000768782574572
0.000791355140672
0.000798994274283
0.000798859497961
0.000794956941359
0.000791471442049
0.000791498670031
0.00079502420021
0.00079894452929
0.000799074134424
0.000791415468829
0.0007688216439
0.000724638470287
0.000654006779246
0.000559404865644
0.00049514253542
0.000425119031973
0.000496043203599
0.000587370355798
0.00065403484402
0.000694341254114
0.000713342896185
0.000717714309936
0.000713782913707
0.00070722538798
0.00070251136777
0.0007025393471
0.000707291892095
0.000713862052683
0.000717783071204
0.000713388619003
0.00069436315764
0.000654038916967
0.000587361182142
0.000496022952784
0.000425098721998
0.000321063977381
0.000406299789837
0.000496086266893
0.000559485209575
0.000596644661363
0.000613456830498
0.000616825239297
0.000612921761986
0.000607154727688
0.000603227826783
0.000603254947937
0.00060721662539
0.000612991615211
0.000616881378951
0.000613488993674
0.000596653507279
0.000559477374837
0.000496068090939
0.000406275227132
0.000321043160495
0.000199277539212
0.000321119659299
0.000425203522326
0.000495256752814
0.000533547869511
0.000548107086595
0.000547719229477
0.000539835686023
0.000531158175887
0.000525746068159
0.000525776130112
0.000531224053687
0.000539908214329
0.000547777884602
0.000548143707715
0.000533563680494
0.000495258702118
0.000425198065712
0.000321108991262
0.000199262317044
0.000250315690695
0.00044162622251
0.000606940851731
0.000720309358467
0.000785093607804
0.000813578521208
0.000821014395838
0.000821475774163
0.000823774827263
0.000827464279851
0.000827417169033
0.000823648371255
0.000821298588536
0.000820824953194
0.000813424624035
0.000785005875402
0.000720290369558
0.000606970087055
0.000441669797512
0.000250336280513
0.000441613478263
0.000529422093813
0.000638904627263
0.000721478852556
0.000773885567039
0.000801174640848
0.000811865224122
0.000814509765495
0.000815191000394
0.000815854770994
0.000815818697013
0.00081509368877
0.00081437156814
0.000811713946934
0.000801044554846
0.000773802191041
0.000721448008489
0.000638914619556
0.000529453736902
0.000441660728688
0.000606907578811
0.000638905487798
0.000722831665897
0.000790091847808
0.00083457356679
0.000858921650094
0.000869005270495
0.000870485387875
0.000868443037884
0.000866527100211
0.000866498429501
0.000868366746038
0.000870377117842
0.00086888479814
0.00085880889177
0.000834489539484
0.000790045419764
0.000722818982238
0.00063891602853
0.000606943213604
0.000720252204181
0.000721484284657
0.00079010077519
0.000848581472017
0.000890108868532
0.000916127978863
0.000932039957851
0.000938553401784
0.000938992758027
0.000937743560493
0.000937724430548
0.000938943383552
0.000938486222354
0.000931970087322
0.000916036907473
0.000890022682554
0.000848513136297
0.000790054016848
0.000721455590368
0.00072024440462
0.000785050210564
0.000773916100404
0.000834604698594
0.000890126470836
0.00093468754435
0.000970330429332
0.000993049743906
0.00100431677258
0.0010073891175
0.00100705044127
0.00100703590485
0.00100735326205
0.00100427052344
0.000992999555078
0.000970270182395
0.000934611110995
0.000890040180684
0.000834520943025
0.000773837877241
0.000784978424933
0.000813617860832
0.000801267621137
0.000858994827077
0.000916168260732
0.000970344688351
0.00101363220729
0.00104336232142
0.0010593936009
0.00106475905869
0.00106511891431
0.00106510468803
0.00106472547494
0.00105935320336
0.00104332303363
0.00101359092915
0.000970287560311
0.000916078501606
0.00085888290728
0.00080114302479
0.000813477053721
0.000821199689538
0.000812050233887
0.000869131260681
0.000932085488119
0.000993072246609
0.00104338038574
0.00107914725142
0.00109872492918
0.00110515980175
0.00110543051629
0.00110541576024
0.00110512679803
0.0010986867259
0.00107911226803
0.00104334972717
0.000993033051375
0.000932021963126
0.000869013417902
0.000811901993491
0.000821010096001
0.000821814459668
0.000814779359175
0.000870659265532
0.00093862864807
0.00100435906358
0.00105945600174
0.00109879782959
0.00111960074983
0.00112518677313
0.00112429688836
0.00112428802149
0.00112516871066
0.00111958121995
0.0010987769982
0.00105943866326
0.00100433639057
0.000938578788598
0.000870563942117
0.000814651310653
0.000821633375458
0.000824162960818
0.000815479039681
0.000868627546267
0.00093908158775
0.00100746159311
0.00106488338395
0.00110533336503
0.00112531333923
0.00112868185997
0.00112579175554
0.00112579475045
0.00112869419327
0.00112533389228
0.00110535146029
0.00106489790363
0.00100746878816
0.000939070731041
0.000868592616741
0.000815427116668
0.000824073491898
0.000827759794617
0.000816075092053
0.000866668257999
0.00093781683204
0.00100713483777
0.00106528000071
0.00110567131164
0.00112450525503
0.00112588467941
0.00112128226354
0.00112129939926
0.00112593536921
0.00112458147228
0.00110575226911
0.0010653491983
0.00100719174285
0.000937866925258
0.000866723540163
0.000816141204011
0.000827827987071
0.000827551416596
0.000815914982515
0.000866547748218
0.00093773463837
0.00100707122593
0.00106522449305
0.00110562578301
0.00112448272458
0.00112589391828
0.00112132007293
0.00112135100119
0.00112598043343
0.00112461209491
0.00110576986514
0.0010653521838
0.00100718360552
0.000937850113636
0.000866696144187
0.000816100622983
0.000827780013179
0.000823644120794
0.000815070582358
0.000868318428012
0.000938873482344
0.00100730579893
0.0010647513796
0.00110522953199
0.00112526554955
0.00112871265064
0.00112589443662
0.00112593048609
0.00112881186664
0.00112541210146
0.00110539241841
0.00106490059277
0.0010074428237
0.000939022612127
0.000868517080693
0.000815319139329
0.000823953022204
0.000821165138978
0.000814242486855
0.000870245441687
0.000938353822034
0.00100415897457
0.0010592928092
0.00109867393732
0.00111955450387
0.00112524669289
0.00112445248939
0.00112448645515
0.001125340701
0.00111969144654
0.0010988236048
0.00105943158363
0.00100429050666
0.000938502194923
0.000870446681267
0.000814490593643
0.000821464151669
0.000820589106649
0.000811503716345
0.000868693609248
0.000931802313898
0.000992858794288
0.00104321486263
0.00107902789688
0.00109868654502
0.00110523032061
0.00110560250633
0.00110563177881
0.00110531110088
0.00109880174541
0.00107915093956
0.00104332843916
0.000992967769067
0.000931923750401
0.000868860371114
0.000811702304694
0.000820812158512
0.000813139779924
0.00080079197335
0.000858585932067
0.000915849081964
0.000970118695448
0.00101346883921
0.00104324678385
0.00105934354346
0.00106479751231
0.00106524273768
0.00106526870094
0.00106486634307
0.00105943721985
0.00104334362116
0.00101355572897
0.000970201594786
0.000915942681126
0.0008586984816
0.000800914358669
0.000813258130625
0.000784715510837
0.000773544835928
0.00083426175641
0.000889828382856
0.000934452228425
0.000970158672617
0.00099292695613
0.00100424499943
0.00100738894088
0.00100712496529
0.00100714963366
0.00100745202191
0.0010043262875
0.000993006288477
0.000970224416283
0.000934506359195
0.000889881424869
0.000834317575998
0.000773593352501
0.000784742846671
0.000720028162229
0.000721217960456
0.00078983727031
0.000848327862046
0.000889876382243
0.000915934996975
0.000931903680269
0.000938472027254
0.00093898417531
0.000937809368371
0.000937835749399
0.00093904916078
0.000938551174142
0.000931975155631
0.000915983743174
0.000889904663798
0.000848346056083
0.000789848013151
0.000721213938518
0.00072000233394
0.000606751975142
0.000638729547236
0.000722645956601
0.00078988774285
0.000834355140418
0.00085871050757
0.000868834776274
0.000870387396177
0.000868436040818
0.000866608051142
0.00086663822796
0.000868507140444
0.00087046783829
0.000868897511302
0.000858742880532
0.000834360356186
0.000789876639295
0.000722623916716
0.000638694766754
0.000606705980841
0.000441494995266
0.000529315424652
0.000638784654494
0.000721317200597
0.000773675714507
0.000800938825568
0.00081165023802
0.000814365141926
0.00081513925141
0.000815893126534
0.000815925254873
0.000815210808244
0.000814438840074
0.000811697858596
0.000800949886903
0.00077365568459
0.00072128021317
0.000638739548519
0.00052926569779
0.000441445950864
0.000250203735642
0.000441561936289
0.000606865897508
0.000720177517359
0.000784891945802
0.000813332745209
0.000820785847211
0.000821332068985
0.000823737541099
0.000827524639625
0.000827564597081
0.000823821695648
0.000821414712958
0.000820838244972
0.000813346413398
0.000784873101886
0.000720142320475
0.000606823727221
0.000441518231768
0.000250166024512
0.000319948494949
0.000608000281213
0.000855823277419
0.00102821144733
0.00113458978561
0.00119446450028
0.00123391269968
0.00127557435078
0.00132251867646
0.00135625787459
0.0013561897195
0.00132232001243
0.00127527318595
0.00123356281596
0.00119416509846
0.00113440829597
0.00102815224623
0.000855846152021
0.000608048552007
0.000319969328527
0.00060801636358
0.000700551799909
0.000847388642888
0.000963786182866
0.00104203063225
0.00108740998821
0.00111298834742
0.00113227898887
0.00115084110016
0.00116389965234
0.00116384897794
0.00115069558529
0.00113206519645
0.00111275235972
0.0010872146913
0.00104191952906
0.000963762241603
0.000847423802391
0.000700609417251
0.000608087134424
0.000855827220398
0.0008474100604
0.000936995300756
0.00101270483008
0.00106356731621
0.00109168646489
0.0011045384893
0.0011092628102
0.00111144691547
0.00111288714482
0.00111284886946
0.00111133734531
0.00110910512377
0.00110436561356
0.00109153724365
0.00106346870362
0.00101267041505
0.000937013589078
0.0008474558657
0.000855893414885
0.00102819634748
0.000963819859808
0.00101272561054
0.00105970516419
0.00109487504885
0.00111853817039
0.00113534009475
0.00114175828273
0.00114228336495
0.00114123392187
0.00114121089552
0.00114222183744
0.00114167371838
0.00113525061822
0.0011184683268
0.00109478979869
0.00105964671821
0.00101270477328
0.000963826347421
0.00102821064993
0.00113460588642
0.00104209510951
0.00106361715271
0.0010948957732
0.00113031136014
0.00116064139132
0.00118128371148
0.0011905277764
0.00119135318914
0.00118952693642
0.0011895110776
0.00119131258973
0.00119047571851
0.00118123153939
0.00116060012448
0.00113027513464
0.00109482456816
0.00106354889442
0.00104204028163
0.00113453265929
0.00119461800362
0.00108755677627
0.00109178582545
0.00111856075092
0.00116064310776
0.00119826271399
0.00122451508648
0.00123633945493
0.00123722577472
0.00123483385993
0.00123481606379
0.00123718061592
0.00123628251484
0.00122446487528
0.00119823139475
0.00116061774337
0.00111851968618
0.00109168022707
0.00108743463867
0.00119443871024
0.00123430853728
0.00111326729057
0.00110470626188
0.00113537983668
0.00118127736691
0.00122452248028
0.00125459978348
0.00126717592189
0.00126682086656
0.00126328968745
0.00126326954355
0.00126677139004
0.00126711109051
0.00125453980651
0.00122448809226
0.00118125621048
0.00113533324558
0.00110458510411
0.00111310506151
0.00123405363455
0.00127618186743
0.00113267125688
0.00110948819733
0.00114180579522
0.00119051984097
0.00123639773108
0.00126728393898
0.00127859340042
0.00127567343607
0.00127014647514
0.0012701383439
0.00127565246869
0.00127856460741
0.00126724124785
0.00123637345893
0.00119051296556
0.00114177747637
0.00110939502168
0.00113253946655
0.00127596230538
0.00132308671538
0.00115121800493
0.00111167238841
0.00114234138568
0.00119138410961
0.00123736811599
0.0012670717946
0.00127586529664
0.00126949692548
0.00126155181935
0.00126156161699
0.00126952276518
0.00127589857307
0.00126708853854
0.00123738262362
0.00119140321011
0.00114235649185
0.0011116635258
0.00115121032941
0.00132305318696
0.00135656005177
0.00116412411635
0.00111302530736
0.00114127711372
0.00118959436828
0.00123503604788
0.00126363642328
0.00127044483747
0.00126167824036
0.00125207356378
0.00125209895643
0.00126174874881
0.00127054798719
0.00126373997942
0.00123511875422
0.00118966440476
0.00114136231231
0.0011131402455
0.00116429770335
0.00135679464227
0.0013561769598
0.00116384985505
0.00111283571704
0.00114115563878
0.00118950582079
0.00123495607935
0.00126356918725
0.00127040970562
0.00126168090794
0.00125210560714
0.00125214258717
0.00126178493013
0.00127057001928
0.00126375193147
0.00123510871726
0.00118963632157
0.00114131619357
0.00111306997761
0.00116419136505
0.001356642369
0.00132207093941
0.00115048887447
0.00111115933484
0.00114202261114
0.00119115919142
0.00123716512346
0.00126690101619
0.0012757715671
0.00126950051734
0.00126163224245
0.00126167353081
0.00126961620581
0.00127594889116
0.00126710046349
0.00123733769286
0.00119131226218
0.00114222079211
0.00111146524207
0.00115092033186
0.00132264779104
0.00127482580308
0.001131676735
0.00110877510225
0.00114136208498
0.00119021169354
0.00123611993267
0.00126704421799
0.00127846716877
0.00127568686566
0.00127026997217
0.00127030858758
0.00127579659917
0.00127863195516
0.00126722117431
0.00123627216674
0.00119035240163
0.0011415566811
0.0011090848161
0.00113210441567
0.0012753730649
0.00123295060325
0.00111221864931
0.0011039188903
0.00113487433085
0.00118091824909
0.00122421425857
0.00125433308654
0.00126702645766
0.00126682423127
0.00126342211215
0.00126345438517
0.0012669158132
0.00126715952082
0.00125446869088
0.00122432783782
0.00118103139823
0.00113503993647
0.00110418245408
0.00111256905211
0.00123336323168
0.00119347112941
0.00108660227224
0.00109101685342
0.00111805324654
0.00116026132306
0.00119794792126
0.00122423373509
0.00123613773152
0.00123714357593
0.00123486453345
0.00123489210832
0.00123721735822
0.00123623613601
0.0012243283147
0.00119802511483
0.00116034908617
0.00111817665972
0.00109120424827
0.00108683170688
0.00119369667489
0.00113371532223
0.00104129585954
0.00106291150379
0.00109431691032
0.00112989697686
0.00116029203026
0.00118096447183
0.00119024979508
0.00119116027323
0.00118943281099
0.00118945748555
0.00119122448934
0.00119032951458
0.00118103774511
0.00116035509596
0.00112996576385
0.00109439916192
0.00106301966143
0.00104140578766
0.00113377332292
0.00102752372447
0.000963187197148
0.001012116527
0.00105913468644
0.00109436507995
0.00111811775789
0.0011349490873
0.0011414192464
0.00114202836658
0.00114107310965
0.00114110097042
0.00114209729544
0.00114149970398
0.00113501643587
0.00111816752844
0.00109439632593
0.00105916817336
0.00101215485311
0.000963206468321
0.00102747718734
0.000855317685432
0.000846933960346
0.000936494556493
0.00101216802502
0.00106300317431
0.0010911223096
0.00110400883398
0.0011088150876
0.00111110519757
0.00111264299796
0.00111267595437
0.00111118275025
0.00110889672394
0.00110406227403
0.00109113844249
0.00106299332445
0.00101215040728
0.000936472665387
0.000846892959547
0.000855226988292
0.000607645035281
0.000700207960659
0.000846982448246
0.000963275517268
0.00104140250282
0.00108668913049
0.00111223852534
0.00113157079824
0.001150204085
0.00116334342312
0.00116337570317
0.00115027174283
0.00113162704146
0.00111225179731
0.00108665449674
0.00104133528299
0.000963198905552
0.000846905550737
0.00070012871489
0.000607547567633
0.000319711366771
0.000607698398822
0.000855415399466
0.00102764718853
0.00113383835032
0.00119354475034
0.00123290575091
0.00127456674241
0.00132152516101
0.00135530109028
0.00135533463156
0.0013215826293
0.00127459147557
0.00123287206463
0.00119345704369
0.00113371777968
0.0010275228235
0.000855298413837
0.00060759611461
0.000319635375526
0.000416577838303
0.000858186102079
0.00124168361439
0.00152570329007
0.00173000519582
0.00188201737625
0.00201934232003
0.00216635804403
0.00230490333487
0.00239194342861
0.00239186582931
0.00230471475695
0.00216604775322
0.00201892406878
0.001881636689
0.0017297806053
0.00152565020654
0.00124172932271
0.000858258461327
0.000416603882473
0.000858249636646
0.000953774540592
0.00116431007102
0.00134572377064
0.00147975079164
0.0015711491401
0.00163929717542
0.00170271817595
0.00176103236714
0.00179787980309
0.0017978271359
0.0017608781454
0.00170247651572
0.00163902629489
0.00157094429507
0.00147968023164
0.00134578114934
0.00116443526351
0.000953898991902
0.000858356296957
0.00124173576389
0.00116435581282
0.00126569897645
0.00135936599368
0.00142212348763
0.00145701038931
0.00147530890995
0.00148741126853
0.0014978982459
0.00150621570352
0.00150617245403
0.00149775570681
0.00148719559739
0.00147507555274
0.00145682947299
0.00142204411418
0.00135940658688
0.00126582486586
0.00116450067456
0.00124187147116
0.00152573769319
0.00134577387857
0.00135938742242
0.00138557658953
0.00140600145291