/*--------------------------------*- C++ -*----------------------------------*\
| =========                 |                                                 |
| \\      /  F ield         | OpenFOAM: The Open Source CFD Toolbox           |
|  \\    /   O peration     | Version:  3.0.1                                 |
|   \\  /    A nd           | Web:      www.OpenFOAM.org                      |
|    \\/     M anipulation  |                                                 |
\*---------------------------------------------------------------------------*/
FoamFile
{
    version     2.0;
    format      ascii;
    class       volScalarField;
    location    "5.8";
    object      p_rgh;
}
// * * * * * * * * * * * * * * * * * * * * * * * * * * * * * * * * * * * * * //

dimensions      [1 -1 -2 0 0 0 0];

internalField   nonuniform List<scalar> 
7968
(
5361.61811495
5361.58534152
5361.46334846
5361.30769007
5361.15530862
5361.03883743
5360.96243823
5360.92621365
5360.91459482
5360.91217216
5360.91196955
5360.91405337
5360.92536018
5360.96125141
5361.03730391
5361.1533747
5361.30546177
5361.4608554
5361.58269428
5361.61538133
5361.58537797
5361.60140033
5361.5061372
5361.35990267
5361.20889915
5361.08415761
5361.00097882
5360.96044289
5360.94622348
5360.94240825
5360.94224915
5360.94574287
5360.95964597
5360.99985741
5361.08270009
5361.20708553
5361.35776585
5361.50372494
5361.59882526
5361.58271816
5361.46349464
5361.50625703
5361.42557942
5361.28124818
5361.12275632
5360.98643827
5360.89229839
5360.84256485
5360.82186584
5360.81466412
5360.81452765
5360.82144701
5360.84187355
5360.89133117
5360.98519972
5361.1212018
5361.27929947
5361.42329361
5361.5037724
5361.46091539
5361.30803557
5361.36021737
5361.28143529
5361.1322158
5360.96720162
5360.82795809
5360.73593386
5360.69277518
5360.67912476
5360.67609129
5360.67600911
5360.67886648
5360.69234037
5360.73530165
5360.82719147
5360.96615798
5361.13061778
5361.27936188
5361.35787865
5361.30558016
5361.15582356
5361.20939809
5361.12311615
5360.96735608
5360.80490899
5360.68025735
5360.6101597
5360.59181954
5360.59912554
5360.60737602
5360.60735042
5360.59904475
5360.59165841
5360.60994304
5360.68024784
5360.80450202
5360.96614498
5361.12127165
5361.20722009
5361.15349493
5361.0395183
5361.08478993
5360.98688439
5360.8281433
5360.68021397
5360.58431444
5360.55080845
5360.57094463
5360.60901628
5360.63345909
5360.63348309
5360.60905537
5360.57097545
5360.5507392
5360.58413914
5360.67982969
5360.82699336
5360.98515775
5361.08276501
5361.03734751
5360.96315527
5361.00160343
5360.89268648
5360.7359967
5360.60995732
5360.55058174
5360.56109884
5360.6269593
5360.70152471
5360.74689405
5360.74694514
5360.70165583
5360.62708855
5360.56107895
5360.55030838
5360.6093135
5360.73480035
5360.89103136
5360.99971415
5360.96113941
5360.92678827
5360.9608915
5360.84271437
5360.69252245
5360.59124352
5360.57030112
5360.62651428
5360.74192094
5360.86405108
5360.93472381
5360.93479518
5360.86423163
5360.74208153
5360.6264537
5360.56993283
5360.5904866
5360.69131901
5360.84112862
5360.95912948
5360.92492256
5360.91496802
5360.94641851
5360.82168909
5360.67852859
5360.59821078
5360.60799488
5360.70067753
5360.8636083
5361.02365667
5361.11151549
5361.11157204
5361.02378615
5360.86366262
5360.70046623
5360.60745855
5360.59731551
5360.67727757
5360.8201461
5360.94475006
5360.91322983
5360.91244224
5360.94243683
5360.81424219
5360.67531513
5360.6063484
5360.63233647
5360.7458142
5360.93401415
5361.11122884
5361.20702941
5361.20705729
5361.11125646
5360.93389652
5360.74540172
5360.63160129
5360.60529616
5360.6739992
5360.81272786
5360.94084252
5360.91081128
5360.91238782
5360.94240782
5360.81422597
5360.67540019
5360.60651489
5360.63252222
5360.74595792
5360.93402665
5361.11106683
5361.20674135
5361.20673353
5361.11098629
5360.93373727
5360.74535953
5360.63162463
5360.60535005
5360.67404989
5360.81276481
5360.94089784
5360.91086799
5360.9148006
5360.94630275
5360.82161366
5360.67872281
5360.5986528
5360.60848859
5360.70101207
5360.86358638
5361.0231626
5361.11065949
5361.11062525
5361.02300635
5360.86319961
5360.70033411
5360.60752985
5360.59747584
5360.67743191
5360.82026892
5360.94492036
5360.91341042
5360.92650954
5360.96068198
5360.8425785
5360.69276584
5360.59185186
5360.57095337
5360.62691278
5360.74179765
5360.86326413
5360.93340973
5360.9333619
5360.86308034
5360.74139613
5360.62624986
5360.57004953
5360.59077123
5360.69160785
5360.84137647
5360.95943839
5360.92525691
5360.96282235
5361.00134162
5360.89254312
5360.73628864
5360.61077574
5360.55130929
5360.56144339
5360.62669582
5360.7005805
5360.74539052
5360.74533818
5360.70039573
5360.62633065
5360.56086691
5360.55053761
5360.60985642
5360.73528531
5360.89147403
5361.00022635
5360.96168602
5361.03929832
5361.08461334
5360.98687557
5360.82871444
5360.68204649
5360.58532306
5360.55112935
5360.57057539
5360.60795953
5360.63196853
5360.63190798
5360.60777532
5360.57024564
5360.5506338
5360.58467207
5360.68125319
5360.82781553
5360.98588884
5361.08356801
5361.0382333
5361.15581107
5361.20939218
5361.12327265
5360.96800019
5360.80623352
5360.6818027
5360.61046568
5360.59135806
5360.59801795
5360.60584287
5360.60578189
5360.59783556
5360.59104503
5360.61002434
5360.68125893
5360.80549778
5360.96713342
5361.12230546
5361.20837168
5361.15477072
5361.30826473
5361.3604257
5361.28172894
5361.13275843
5360.96798509
5360.82857153
5360.73597339
5360.69222646
5360.67799287
5360.67456434
5360.67450322
5360.67780875
5360.69192365
5360.73553562
5360.82799353
5360.96724704
5361.13188714
5361.28074648
5361.35938875
5361.30720723
5361.46395793
5361.50668963
5361.42604414
5361.28180324
5361.12331674
5360.98679842
5360.89226779
5360.84205792
5360.82084587
5360.81326306
5360.81320094
5360.82065936
5360.84173741
5360.89181648
5360.98619137
5361.12255533
5361.28090108
5361.4250324
5361.50561188
5361.46286848
5361.58596169
5361.60200592
5361.50678848
5361.36058595
5361.20949935
5361.08456801
5361.00112506
5360.96021713
5360.94557661
5360.94146234
5360.94140475
5360.94536421
5360.95987584
5361.0006197
5361.08393303
5361.20871426
5361.3596636
5361.50574633
5361.60089812
5361.58484445
5361.61868173
5361.5859784
5361.46406872
5361.3084286
5361.15592218
5361.03926282
5360.96260959
5360.92605287
5360.91409279
5360.91145832
5360.9113864
5360.91386524
5360.92568376
5360.96208178
5361.03859672
5361.1551359
5361.30751507
5361.46304721
5361.58487954
5361.61756256
5361.57389252
5361.50849614
5361.36577331
5361.19955674
5361.05539934
5360.94602329
5360.88166419
5360.85786538
5360.85576729
5360.85795024
5360.85775547
5360.85517524
5360.85690632
5360.88036597
5360.94434593
5361.0533562
5361.19716317
5361.36309717
5361.5056373
5361.57094452
5361.50855059
5361.47652991
5361.3499194
5361.19126381
5361.05477365
5360.95254699
5360.8920539
5360.87001146
5360.86785244
5360.86976583
5360.86960642
5360.86735158
5360.86920265
5360.89093358
5360.95107354
5361.05293222
5361.18902124
5361.34735562
5361.47376031
5361.50569523
5361.3659742
5361.35009079
5361.22059678
5361.05624609
5360.91576577
5360.81244217
5360.75047346
5360.72707013
5360.72293348
5360.72325599
5360.72314198
5360.72252672
5360.72642021
5360.74956752
5360.81127931
5360.91431791
5361.05429227
5361.21821707
5361.34745535
5361.36322199
5361.20000149
5361.19167135
5361.05646637
5360.88873945
5360.75162472
5360.65935542
5360.61075877
5360.60619143
5360.61548633
5360.6227181
5360.62265942
5360.61528493
5360.60585104
5360.61016684
5360.65876399
5360.7510633
5360.88732753
5361.05438517
5361.18923125
5361.19738642
5361.05609015
5361.05539419
5360.91615473
5360.75175956
5360.63170308
5360.57251845
5360.56597797
5360.59658651
5360.63420393
5360.65671111
5360.65673018
5360.63423402
5360.59661231
5360.56595379
5360.57248584
5360.63275753
5360.75103645
5360.91441202
5361.05317762
5361.05363739
5360.94687461
5360.95326307
5360.81285799
5360.65945504
5360.57243523
5360.56135111
5360.60831971
5360.69000402
5360.76651819
5360.80894961
5360.80901448
5360.7666992
5360.69025565
5360.60852159
5360.56144339
5360.57237551
5360.65853872
5360.81121464
5360.9512168
5360.94458484
5360.88255455
5360.89271479
5360.75075285
5360.61070008
5360.56549533
5360.60788455
5360.71534802
5360.85441641
5360.97237925
5361.03253257
5361.03261747
5360.97264501
5360.85478114
5360.71562441
5360.60790126
5360.56511873
5360.60958162
5360.74916961
5360.89082762
5360.88044115
5360.8585782
5360.87041147
5360.72698693
5360.60558922
5360.59556369
5360.68895847
5360.85379008
5361.03882359
5361.17745101
5361.24944407
5361.24952625
5361.17769117
5361.03910459
5360.8539798
5360.68882046
5360.59500105
5360.60448798
5360.72545854
5360.86865976
5360.85665523
5360.85623652
5360.8678832
5360.72234313
5360.61443479
5360.63276482
5360.76504034
5360.97135298
5361.17712033
5361.33598968
5361.42066248
5361.42074781
5361.33619103
5361.17729171
5360.97132358
5360.76463124
5360.63195195
5360.61320531
5360.72079006
5360.86620111
5360.85445727
5360.85824826
5360.86945405
5360.72204466
5360.62136433
5360.65516581
5360.80742775
5361.03161
5361.24904466
5361.42051852
5361.51246508
5361.51253286
5361.42064697
5361.24907423
5361.0313348
5360.80670841
5360.65407769
5360.61996525
5360.72044375
5360.86780679
5360.85658303
5360.85819717
5360.8694738
5360.72214068
5360.62156357
5360.65550947
5360.80776112
5361.03181479
5361.24907361
5361.42040304
5361.51224354
5361.51227487
5361.42043552
5361.24894537
5361.03131444
5360.8067853
5360.65419792
5360.62005976
5360.72052417
5360.86788725
5360.85664808
5360.85606539
5360.86788434
5360.72247023
5360.61495567
5360.63363267
5360.76594918
5360.97195825
5361.17719858
5361.33563174
5361.42002629
5361.42002743
5361.3355711
5361.17691988
5360.97126964
5360.7648552
5360.63226749
5360.61349114
5360.72100972
5360.86644479
5360.85466491
5360.8582723
5360.87035992
5360.72715947
5360.60625529
5360.59674346
5360.69014612
5360.85455301
5361.03884544
5361.17683459
5361.2484545
5361.24842485
5361.17671088
5361.03849501
5360.8538415
5360.68909931
5360.59546685
5360.60493447
5360.72585237
5360.86907422
5360.85701871
5360.88209462
5360.89258753
5360.75090535
5360.61118877
5360.56666898
5360.60906938
5360.71603547
5360.85426978
5360.97141296
5361.03123291
5361.03118393
5360.97126009
5360.85392134
5360.71542446
5360.60819169
5360.56561423
5360.61012985
5360.7497695
5360.89144375
5360.88097437
5360.94652797
5360.95319972
5360.81311784
5360.66025037
5360.57326176
5360.56238029
5360.60881612
5360.68965359
5360.76531442
5360.80718112
5360.80713046
5360.76514495
5360.68933648
5360.60831722
5360.5616843
5360.5724191
5360.65932343
5360.81211833
5360.95214921
5360.94548298
5361.05602063
5361.0554961
5360.91662807
5360.75303825
5360.63425638
5360.57320939
5360.5662649
5360.59608938
5360.63287652
5360.65480398
5360.65474137
5360.63269434
5360.59579217
5360.56583151
5360.57259626
5360.63354365
5360.75221995
5360.91570994
5361.05452136
5361.05498577
5361.20029283
5361.1920133
5361.05701091
5360.88969641
5360.75297451
5360.66004189
5360.61079077
5360.60553876
5360.61405585
5360.62061928
5360.62055644
5360.61387907
5360.60524858
5360.61037178
5360.65951609
5360.75232671
5360.88892568
5361.05610794
5361.19101727
5361.19925797
5361.3665849
5361.35070098
5361.22129564
5361.05707094
5360.91660587
5360.81293121
5360.75046815
5360.72644739
5360.72152473
5360.72101157
5360.7209453
5360.72134371
5360.72615288
5360.75005054
5360.81238355
5360.91592753
5361.0562592
5361.22035633
5361.34967523
5361.36552148
5361.50936584
5361.47736314
5361.35080837
5361.19215477
5361.05554073
5360.95300939
5360.89211035
5360.86956682
5360.86680112
5360.86818687
5360.868117
5360.86660153
5360.86923484
5360.89164504
5360.95240189
5361.05478616
5361.19126437
5361.349802
5361.47628536
5361.50824111
5361.57469933
5361.50937574
5361.36672805
5361.20046163
5361.05612394
5360.94641068
5360.88167056
5360.8574855
5360.85493501
5360.85680356
5360.85672663
5360.8547189
5360.85712665
5360.88117526
5360.94576199
5361.05531777
5361.19954252
5361.36569883
5361.50827003
5361.57356355
5361.47352215
5361.38032689
5361.2252489
5361.05964633
5360.9285756
5360.83908374
5360.79413643
5360.78443222
5360.78852141
5360.79174501
5360.79150856
5360.78780028
5360.78331514
5360.79279416
5360.83730586
5360.92633289
5361.05699325
5361.22228033
5361.37713487
5361.47023653
5361.38041681
5361.3500954
5361.22279559
5361.07755559
5360.96437349
5360.88706844
5360.84542088
5360.83277816
5360.83351602
5360.83563509
5360.8354542
5360.83286327
5360.83182081
5360.84422786
5360.88549314
5360.96236027
5361.07507771
5361.21994343
5361.34702796
5361.37725687
5361.22556229
5361.22305
5361.0733226
5360.89890716
5360.76253227
5360.67038998
5360.61823367
5360.59542515
5360.58734116
5360.58390146
5360.58386946
5360.58674035
5360.59463441
5360.61726633
5360.66912445
5360.76095455
5360.89672542
5361.07066987
5361.2201419
5361.22251909
5361.06028023
5361.07811029
5360.89919589
5360.70130489
5360.55552888
5360.4706212
5360.43662114
5360.42726379
5360.43310976
5360.43859557
5360.43853404
5360.43280718
5360.42685624
5360.43624637
5360.47010126
5360.55551985
5360.69980847
5360.89688781
5361.07542894
5361.05740008
5360.92952151
5360.96516379
5360.76301294
5360.55567893
5360.41419168
5360.36097634
5360.35946615
5360.38974661
5360.42589352
5360.44783769
5360.44783397
5360.42587089
5360.38972728
5360.35951061
5360.36181952
5360.42157448
5360.55550617
5360.761137
5360.96274953
5360.92683567
5360.84024289
5360.88795389
5360.67087786
5360.47066105
5360.36081038
5360.34484876
5360.39489811
5360.47591706
5360.55063331
5360.59297395
5360.59302883
5360.55076505
5360.47612166
5360.39511474
5360.34506413
5360.36149574
5360.46979781
5360.66911515
5360.8857539
5360.83775577
5360.79530787
5360.84619745
5360.61849899
5360.43620978
5360.35884788
5360.39437219
5360.50241985
5360.63823915
5360.7555032
5360.82112881
5360.82120009
5360.75573503
5360.63857547
5360.50269492
5360.39441637
5360.35852815
5360.4352793
5360.61685637
5360.84419709
5360.79304202
5360.78515277
5360.83317054
5360.59528588
5360.42654191
5360.38860664
5360.4747574
5360.63752881
5360.82734321
5360.98637059
5361.07194611
5361.07204022
5360.98662537
5360.82767064
5360.63772983
5360.47463312
5360.38802782
5360.42540106
5360.59366537
5360.83132976
5360.78318377
5360.78891553
5360.83338056
5360.58632016
5360.43181446
5360.42432145
5360.54903131
5360.75433839
5360.98593234
5361.17408739
5361.27413575
5361.2742406
5361.17430663
5360.98614429
5360.75433641
5360.54865231
5360.42349626
5360.4304865
5360.58459317
5360.83157764
5360.78709491
5360.79186067
5360.83455397
5360.58024268
5360.43637335
5360.44601948
5360.59127577
5360.81978709
5361.07132687
5361.27397451
5361.38160035
5361.3816787
5361.27420115
5361.07140153
5360.8195604
5360.59063291
5360.44491432
5360.43486737
5360.57840185
5360.83277533
5360.79013605
5360.79189028
5360.83464027
5360.58050415
5360.43663774
5360.44632169
5360.59162544
5360.82001424
5361.07135106
5361.27398566
5361.38141312
5361.38148475
5361.27408724
5361.07128163
5360.8195716
5360.59072628
5360.44503059
5360.43499557
5360.57853133
5360.8329077
5360.79027511
5360.78893768
5360.83339697
5360.58635527
5360.43229216
5360.42519604
5360.54990318
5360.75491876
5360.98597354
5361.17363248
5361.27347203
5361.273503
5361.17364195
5360.98577194
5360.75433211
5360.5489039
5360.42386075
5360.43080914
5360.58489174
5360.83194206
5360.78750672
5360.78511259
5360.83324296
5360.59552338
5360.42735161
5360.38980307
5360.47596882
5360.63825817
5360.82732432
5360.98563146
5361.07074007
5361.07073846
5360.98556801
5360.82703618
5360.63761526
5360.47496957
5360.38853312
5360.425976
5360.59419827
5360.83194141
5360.78384513
5360.79475301
5360.84613438
5360.61886493
5360.43745044
5360.36030352
5360.3956373
5360.50311347
5360.63807372
5360.75453157
5360.81957379
5360.81954868
5360.75442413
5360.63776012
5360.50251985
5360.39474814
5360.3591789
5360.43617433
5360.6176687
5360.8449723
5360.7936784
5360.83985551
5360.88799841
5360.67132988
5360.47190053
5360.36310076
5360.34612997
5360.39542353
5360.47562705
5360.54950841
5360.59133554
5360.59129884
5360.54937565
5360.47533011
5360.39492483
5360.34538593
5360.36213474
5360.47087095
5360.67030573
5360.88697085
5360.83883825
5360.92960254
5360.96545532
5360.76375774
5360.5578704
5360.42330252
5360.3629307
5360.35987607
5360.38924894
5360.42458656
5360.44581789
5360.44578886
5360.42443271
5360.3889501
5360.35940459
5360.36226162
5360.42245208
5360.55699951
5360.76287139
5360.9645197
5360.92862772
5361.06096463
5361.07879512
5360.90005849
5360.70264178
5360.55777699
5360.47160304
5360.43684076
5360.42660908
5360.4314516
5360.43568558
5360.43563207
5360.43127601
5360.42631343
5360.43641862
5360.47103558
5360.55708577
5360.70187773
5360.89919598
5361.07785912
5361.06000488
5361.22680742
5361.22420642
5361.07448142
5360.90008534
5360.76369053
5360.67105167
5360.6183291
5360.59478839
5360.58544111
5360.57922186
5360.57913793
5360.58528004
5360.59449529
5360.61790791
5360.67049534
5360.76300739
5360.89929627
5361.07358763
5361.22324021
5361.22579464
5361.3820311
5361.3516549
5361.22432173
5361.07892149
5360.96546578
5360.88771861
5360.84556326
5360.83239156
5360.83230262
5360.83328562
5360.83321117
5360.8321057
5360.83204641
5360.84506644
5360.88707406
5360.96469162
5361.07802266
5361.22333619
5361.35060579
5361.38092197
5361.4752745
5361.3820187
5361.22693647
5361.06109112
5360.92965226
5360.83967475
5360.79422288
5360.78419437
5360.78770305
5360.7904177
5360.79033449
5360.78748079
5360.78381362
5360.79370487
5360.83898824
5360.92883931
5361.06017037
5361.22591154
5361.38091998
5361.47411861
5361.25228121
5361.13516538
5360.97113148
5360.80807776
5360.68393288
5360.60295765
5360.56174266
5360.54876781
5360.53961402
5360.5316824
5360.53141146
5360.53873063
5360.54736801
5360.56072325
5360.60126735
5360.6815715
5360.80512884
5360.96784397
5361.1315935
5361.24860487
5361.1352353
5361.12215577
5361.00104541
5360.8770318
5360.78625856
5360.72666447
5360.69059542
5360.66506056
5360.63876435
5360.61809049
5360.61794131
5360.63775509
5360.66391898
5360.68945775
5360.72503302
5360.78400129
5360.87425215
5360.99784895
5361.11873596
5361.13167205
5360.97146774
5361.00140868
5360.82470239
5360.63642496
5360.48254378
5360.36876273
5360.28985764
5360.23538821
5360.19650073
5360.17205898
5360.17266958
5360.19505882
5360.23425116
5360.28868903
5360.36711291
5360.48020186
5360.63370672
5360.82166561
5360.99812434
5360.96810598
5360.80877951
5360.87775319
5360.63674197
5360.40176913
5360.22187528
5360.10201923
5360.03324795
5359.99748391
5359.98042888
5359.97238304
5359.97229824
5359.97978941
5359.9968057
5360.032352
5360.10035839
5360.21864932
5360.39897372
5360.63387155
5360.87467873
5360.80561923
5360.68501665
5360.78722256
5360.48305431
5360.22202015
5360.04451446
5359.93706416
5359.90124762
5359.90708862
5359.92715316
5359.94126871
5359.94122162
5359.92693601
5359.90679216
5359.90066255
5359.93480741
5360.03468502
5360.21860842
5360.48035028
5360.78443614
5360.68207549
5360.6043579
5360.72767716
5360.36924616
5360.10200297
5359.93673616
5359.87172257
5359.88538684
5359.944675
5360.01088306
5360.05079762
5360.0507714
5360.01087241
5359.94467529
5359.88514896
5359.87075791
5359.93426703
5360.09994777
5360.36702281
5360.72524814
5360.60165228
5360.56327999
5360.6913617
5360.29014149
5360.03288701
5359.90021282
5359.88478275
5359.95784329
5360.07966671
5360.19742414
5360.26509458
5360.2651089
5360.19749077
5360.07983657
5359.95791968
5359.88434763
5359.89896033
5360.03142382
5360.28825685
5360.6892849
5360.56081996
5360.54882155
5360.66512989
5360.23551359
5359.9968064
5359.90586605
5359.94333696
5360.07876788
5360.26275037
5360.43001933
5360.52260619
5360.52266705
5360.43009267
5360.26291599
5360.07877746
5359.94293817
5359.90499887
5359.99545688
5360.2336989
5360.66338178
5360.54704407
5360.53967296
5360.63843784
5360.19619621
5359.97936738
5359.9255595
5360.00911842
5360.19596816
5360.42954287
5360.63427907
5360.74670901
5360.74655911
5360.63435407
5360.42954181
5360.19576111
5360.00851818
5359.92454061
5359.97782371
5360.19397729
5360.63665255
5360.53795631
5360.53158118
5360.61575928
5360.15932683
5359.96918269
5359.93923474
5360.04881985
5360.26343722
5360.52237235
5360.74668397
5360.86843246
5360.86851488
5360.74681189
5360.52250576
5360.26300618
5360.04797468
5359.93802132
5359.96752558
5360.15704182
5360.61393233
5360.52988675
5360.53183768
5360.61606775
5360.1606251
5359.96943841
5359.93957432
5360.04914364
5360.26367165
5360.52246739
5360.74565306
5360.86795531
5360.86804135
5360.74597627
5360.52238851
5360.26303111
5360.04809666
5359.93817739
5359.96765664
5360.15737363
5360.61418762
5360.53019598
5360.54037023
5360.63864404
5360.19505452
5359.97949772
5359.92627492
5360.01001838
5360.196569
5360.42946198
5360.63369767
5360.74540642
5360.7452191
5360.63372336
5360.42920492
5360.195819
5360.00886554
5359.92490755
5359.97818374
5360.19424479
5360.63727397
5360.53890573
5360.5500717
5360.66577612
5360.23558372
5359.99743854
5359.90695927
5359.9444246
5360.07950611
5360.26261172
5360.42916274
5360.52116945
5360.52117507
5360.42909015
5360.26218554
5360.07863877
5359.94325655
5359.90558724
5359.99608211
5360.23440936
5360.66442357
5360.54872048
5360.56251042
5360.69147607
5360.290534
5360.03366673
5359.90073152
5359.88572353
5359.95845195
5360.07945604
5360.19638643
5360.26350142
5360.26348469
5360.19624499
5360.07899764
5359.95762612
5359.88461555
5359.89939707
5360.03237225
5360.28926275
5360.69024997
5360.56129722
5360.60407553
5360.72788753
5360.36969091
5360.10240158
5359.93620132
5359.87178149
5359.88564179
5359.94441003
5360.01001568
5360.04938503
5360.04931315
5360.00984428
5359.94399966
5359.88495264
5359.87089194
5359.93506407
5360.10125295
5360.36857158
5360.72684125
5360.60302242
5360.68556136
5360.78778261
5360.48362877
5360.22150631
5360.03697061
5359.93603186
5359.90032725
5359.90672312
5359.92619393
5359.93960936
5359.93949415
5359.92604203
5359.9063689
5359.89964643
5359.93520193
5360.03596946
5360.22051943
5360.48267334
5360.78688738
5360.68462069
5360.81026626
5360.87900621
5360.637928
5360.40254456
5360.22145305
5360.10219249
5360.03329954
5359.99629819
5359.97818379
5359.96797657
5359.96789204
5359.97804696
5359.99599526
5360.03279663
5360.10154447
5360.22066488
5360.40172018
5360.63707866
5360.87813384
5360.80939407
5360.97385728
5361.00349568
5360.82658459
5360.6379835
5360.48362861
5360.36955289
5360.29024084
5360.23528315
5360.1950373
5360.158957
5360.15876497
5360.19503607
5360.23505648
5360.28982237
5360.36898332
5360.48294043
5360.63722908
5360.82574472
5361.00257969
5360.97294324
5361.13821764
5361.12497411
5361.00363471
5360.87917072
5360.78787811
5360.72771767
5360.69106419
5360.66521955
5360.63808314
5360.61521666
5360.61513958
5360.63794951
5360.66493815
5360.69060216
5360.72710876
5360.78714429
5360.87831888
5361.0026611
5361.12398354
5361.13715687
5361.25567936
5361.13823794
5360.97408307
5360.81048268
5360.68571035
5360.60402542
5360.56210798
5360.5494601
5360.53968234
5360.53106583
5360.53099119
5360.53949037
5360.54917112
5360.56162361
5360.60339608
5360.68494621
5360.80958731
5360.97307484
5361.13717723
5361.25454789
5360.98944984
5360.85922703
5360.69419328
5360.51260913
5360.3566304
5360.22876485
5360.12685489
5360.0477868
5359.96595346
5359.9138825
5359.91352338
5359.96470326
5360.04485853
5360.1274277
5360.22730408
5360.35412543
5360.50930888
5360.69046869
5360.85521932
5360.9853026
5360.8593059
5360.81458083
5360.69274091
5360.53831121
5360.39211022
5360.25029183
5360.10230565
5359.94637255
5359.8003837
5359.70810955
5359.70754495
5359.79888854
5359.94496819
5360.10144224
5360.24874687
5360.38976845
5360.53529004
5360.68922542
5360.81072711
5360.85526789
5360.69457605
5360.69318446
5360.49355831
5360.24984839
5360.02551285
5359.83048482
5359.66252415
5359.52051695
5359.41729718
5359.34473121
5359.34286296
5359.41198393
5359.51887085
5359.66126189
5359.82868416
5360.02297645
5360.24679396
5360.49012457
5360.68944331
5360.69072327
5360.51337495
5360.53908724
5360.25018927
5359.93787579
5359.67350049
5359.46947295
5359.31943971
5359.21482808
5359.14932384
5359.11452245
5359.11405953
5359.14812434
5359.21393477
5359.31836463
5359.4676511
5359.67070565
5359.93480919
5360.24691835
5360.53561055
5360.50987982
5360.35787418
5360.39304375
5360.02602822
5359.67366767
5359.39159315
5359.15689754
5359.03770371
5359.02086731
5359.00900852
5359.01032122
5359.01014878
5359.00856309
5359.02031648
5359.03867422
5359.1569906
5359.38809102
5359.67059688
5360.02302794
5360.38996112
5360.35459561
5360.23056211
5360.2511305
5359.8309119
5359.46945402
5359.14999946
5359.00555153
5358.9432246
5358.96141211
5359.02086831
5359.06221229
5359.06209831
5359.02052379
5358.96105171
5358.94289526
5359.00456782
5359.14841874
5359.4670918
5359.82840705
5360.24855785
5360.2275311
5360.13053092
5360.10292841
5359.66279862
5359.31912394
5359.03051934
5358.94257638
5358.93862532
5359.05613647
5359.20378106
5359.28708665
5359.28696672
5359.2035173
5359.05657289
5358.93875925
5358.9417899
5359.029445
5359.31722841
5359.66065926
5360.1007689
5360.1272459
5360.04521855
5359.94591079
5359.52195956
5359.21186821
5359.01983465
5358.95988605
5359.05394258
5359.26403732
5359.48498701
5359.60599032
5359.60589697
5359.48473363
5359.26441458
5359.05414691
5358.95890748
5359.01854892
5359.21278284
5359.51976493
5359.94435771
5360.04430143
5359.96578778
5359.80196239
5359.42886099
5359.14776641
5359.00799518
5359.01871723
5359.20124717
5359.48426966
5359.76600058
5359.91988365
5359.91920158
5359.76574744
5359.48401722
5359.200744
5359.0175399
5359.00648297
5359.14854667
5359.42502496
5359.80010028
5359.96426023
5359.91485236
5359.71104797
5359.35923601
5359.11354876
5359.00904862
5359.05961344
5359.28396688
5359.60536608
5359.91930739
5360.08871426
5360.08854313
5359.91884741
5359.6048479
5359.28340703
5359.05829709
5359.00747795
5359.11472579
5359.35738993
5359.70935063
5359.9131771
5359.91532011
5359.71097772
5359.35599177
5359.11262983
5359.00921669
5359.05998065
5359.28455514
5359.60479619
5359.91785455
5360.08732651
5360.08724167
5359.91794484
5359.60424985
5359.28319782
5359.05841875
5359.00758027
5359.11479565
5359.35719248
5359.70956938
5359.91367193
5359.96762041
5359.80199932
5359.4183509
5359.1462963
5359.00845688
5359.01951869
5359.20202856
5359.48365401
5359.76485921
5359.91764392
5359.91752158
5359.76500319
5359.48335528
5359.2007951
5359.01800717
5359.00685364
5359.1487762
5359.4243933
5359.8009596
5359.9660415
5360.05113324
5359.94765052
5359.51841257
5359.21136017
5359.01994842
5358.96071717
5359.05498025
5359.26362055
5359.4836637
5359.60326976
5359.60334255
5359.48367201
5359.262567
5359.05331991
5358.95925034
5359.01891335
5359.2133373
5359.5204527
5359.94614789
5360.04954791
5360.12630542
5360.10308109
5359.66329442
5359.31706305
5359.03404516
5358.94321326
5358.93927391
5359.05530982
5359.20198937
5359.28412417
5359.28411481
5359.20193763
5359.0543783
5358.93780938
5358.94168136
5359.03465361
5359.3179271
5359.66171965
5360.10177261
5360.12503075
5360.23010827
5360.25176126
5359.83151462
5359.46972035
5359.15230594
5358.99646495
5358.94338807
5358.96102765
5359.01994809
5359.06089633
5359.06093772
5359.01986568
5358.96056696
5358.94236923
5359.00080202
5359.1524181
5359.46811882
5359.83014569
5360.25062898
5360.22896301
5360.35890161
5360.39429925
5360.02699703
5359.67384514
5359.39021425
5359.14967261
5359.03166523
5359.02071177
5359.0092565
5359.01039522
5359.01035894
5359.00905435
5359.02003972
5359.03328954
5359.15066598
5359.3881223
5359.67249067
5360.02588786
5360.39336462
5360.35798221
5360.51580737
5360.54116637
5360.25207388
5359.93914501
5359.67390762
5359.46971382
5359.3179467
5359.20020598
5359.13568832
5359.10187471
5359.10186026
5359.13558456
5359.1998188
5359.31651214
5359.46880423
5359.67284093
5359.93817809
5360.2511513
5360.54034315
5360.5149249
5360.69826256
5360.69643588
5360.49642804
5360.25225567
5360.02727117
5359.83173629
5359.6635015
5359.51821826
5359.4195574
5359.35418833
5359.35506508
5359.42090084
5359.51858781
5359.66311863
5359.83117879
5360.02655692
5360.25144939
5360.49561741
5360.69562279
5360.69741916
5360.86405404
5360.81901698
5360.69669655
5360.54164979
5360.39475162
5360.25220852
5360.10360547
5359.9483138
5359.80329634
5359.7121802
5359.71220658
5359.80336285
5359.94824274
5360.10334673
5360.25177327
5360.39410657
5360.54085223
5360.6957647
5360.81804348
5360.86298281
5360.99469721
5360.86416217
5360.69861243
5360.51624948
5360.35944782
5360.23049759
5360.12657106
5360.05137601
5359.96811452
5359.91594935
5359.91590439
5359.96798533
5360.05124972
5360.12613413
5360.22996681
5360.35875193
5360.51541056
5360.69764849
5360.86315018
5360.99364681
5360.84510774
5360.69306555
5360.50543085
5360.22532848
5359.945207
5359.66251487
5359.39430536
5359.15024397
5358.95169726
5358.8371515
5358.83690554
5358.95091806
5359.14871843
5359.39300037
5359.66034907
5359.9421628
5360.22151183
5360.50115142
5360.68846148
5360.84034239
5360.69318529
5360.58374297
5360.39182993
5360.08782141
5359.74660918
5359.37410084
5358.97915815
5358.58674113
5358.25629017
5358.06628933
5358.06613809
5358.25625304
5358.58575317
5358.97771825
5359.37199003
5359.74372273
5360.08425401
5360.3877506
5360.57920169
5360.68852197
5360.50600723
5360.39231932
5360.1254716
5359.74253416
5359.3554634
5358.98087102
5358.63241331
5358.32979534
5358.10506722
5357.98214672
5357.98243802
5358.10916626
5358.32965003
5358.63110729
5358.97870458
5359.35249633
5359.73890826
5360.121408
5360.38793758
5360.50151817
5360.2262986
5360.08865085
5359.74294051
5359.28247459
5358.85756465
5358.48693543
5358.1835841
5357.96079667
5357.82430297
5357.7604274
5357.76049511
5357.82481348
5357.96036543
5358.18240132
5358.48488045
5358.85471591
5359.2789867
5359.7390602
5360.08458413
5360.22217055
5359.94654262
5359.74755484
5359.35605581
5358.85778255
5358.21918179
5357.90380612
5357.77542512
5357.62255524
5357.57594375
5357.57910148
5357.57891076
5357.57550527
5357.62144117
5357.77413859
5357.90428657
5358.23012382
5358.85454412