/*--------------------------------*- C++ -*----------------------------------*\
| =========                 |                                                 |
| \\      /  F ield         | OpenFOAM: The Open Source CFD Toolbox           |
|  \\    /   O peration     | Version:  3.0.1                                 |
|   \\  /    A nd           | Web:      www.OpenFOAM.org                      |
|    \\/     M anipulation  |                                                 |
\*---------------------------------------------------------------------------*/
FoamFile
{
    version     2.0;
    format      ascii;
    class       volScalarField;
    location    "8";
    object      alpha.water;
}
// * * * * * * * * * * * * * * * * * * * * * * * * * * * * * * * * * * * * * //

dimensions      [0 0 0 0 0 0 0];

internalField   nonuniform List<scalar> 
7968
(
0.999999972962
0.999999972478
0.999999984935
0.999999996636
0.999999999844
1
1.00000001204
1.00000002449
1.00000002625
1.00000002666
1.00000002542
1.00000002907
1.00000002909
1.0000000272
1.0000000204
1.00000000854
0.999999999752
0.999999999337
0.999999999136
0.999999989144
0.99999997281
0.999999994498
0.999999997198
0.999999998343
1
1.00000000745
1.00000002301
1.0000000256
1.00000002431
1.00000002924
1.00000002956
1.00000002574
1.00000002895
1.00000002797
1.00000002591
1.00000001982
1.00000000463
1
0.999999996551
0.999999997333
0.999999988734
0.999999998379
0.999999998869
0.999999996084
1
1.00000001474
1.00000002014
1.00000001862
1.00000002186
1.00000001532
1.0000000152
1.00000002073
1.00000001866
1.00000002054
1.00000002027
1.00000001813
1.00000001281
1
1
0.999999998447
0.999999998884
0.999999997169
0.999999995444
1
1.00000000207
1.00000001344
1.00000001217
1.0000000147
1.00000000853
1.00000000978
1.00000001182
1.00000000987
1.00000001253
1.00000001246
1.00000001538
1.00000001795
1.00000001596
1.00000000748
1
0.999999996821
0.999999997116
0.999999997254
0.999999996766
1.00000000003
1.00000000888
1.00000001176
1.00000001233
1.00000000803
1.00000000646
1.00000000434
1.00000000202
1.00000000615
1.00000000789
1.00000001132
1.00000001147
1.0000000132
1.0000000143
1.00000001464
1.00000000839
1
0.999999998172
0.99999999831
1.00000000037
1.00000000855
1.00000001144
1.00000001287
1.00000001071
1.00000000555
1.00000000288
1.00000000217
1.00000000252
1.00000000089
1.00000000276
1.00000000501
1.00000000861
1.00000001043
1.00000001596
1.00000002128
1.00000001961
1.00000000002
0.999999998837
1.00000000874
1.0000000177
1.00000001774
1.00000001334
1.00000000969
1.00000000574
1.00000000407
1.00000000086
1.00000000097
1.00000000048
1.00000000037
1.00000000056
1.00000000195
1.00000000797
1.00000002141
1.00000002446
1.00000002504
1.00000002654
1.00000001192
0.99999999719
1.00000001951
1.00000002113
1.00000002327
1.00000001847
1.00000001854
1.00000000861
1.00000000554
1.00000000709
1.00000000018
1.00000000003
1.00000000892
1.00000000738
1.00000001057
1.00000001681
1.00000002551
1.00000003109
1.00000002895
1.0000000279
1.00000001764
1.00000001295
1.0000000264
1.00000002793
1.00000002397
1.00000002657
1.00000001832
1.00000001862
1.00000003098
1.00000001826
1.00000001538
1.00000001621
1.00000001665
1.0000000289
1.00000002147
1.00000002392
1.00000002803
1.00000003226
1.00000003559
1.00000003119
1.00000001882
1.00000002053
1.00000002439
1.00000002611
1.00000003209
1.00000002409
1.00000003259
1.00000003594
1.00000002709
1.00000002615
1.00000002587
1.00000002447
1.00000002506
1.00000002673
1.0000000304
1.00000004104
1.00000002891
1.00000003093
1.000000035
1.00000003793
1.00000001894
1.00000001986
1.00000003086
1.00000003702
1.00000002702
1.00000002828
1.00000004316
1.0000000321
1.00000003164
1.00000002878
1.00000002779
1.00000002782
1.00000002607
1.00000002794
1.00000003352
1.0000000411
1.00000003224
1.00000003604
1.00000003779
1.00000003955
1.00000002017
1.00000002218
1.00000002357
1.0000000332
1.00000003161
1.00000002937
1.00000003684
1.00000004368
1.00000002834
1.00000002442
1.00000002053
1.00000001758
1.00000001976
1.00000002598
1.00000004226
1.00000002919
1.00000003111
1.00000003529
1.00000003695
1.00000003979
1.00000001816
1.00000001916
1.00000002524
1.00000003835
1.00000003273
1.00000002654
1.00000002303
1.00000003311
1.0000000339
1.00000001643
1.00000000044
1.00000000035
1.00000001076
1.00000003028
1.00000001832
1.0000000205
1.00000002765
1.00000003497
1.00000004332
1.00000003386
1.00000001779
1.00000001849
1.00000002491
1.00000002763
1.00000002908
1.00000002502
1.00000001846
1.00000001217
1.00000001729
1.00000001226
1.00000000066
1.00000000035
1.00000000854
1.00000000093
1.00000000446
1.00000001467
1.00000002517
1.00000003487
1.00000004183
1.00000002498
1.00000000828
1.00000001971
1.00000002551
1.00000002363
1.00000003825
1.00000002554
1.00000001655
1.00000000751
1.00000000148
1.00000000045
1.00000000173
1.00000000145
1.00000000011
1.00000000036
1.00000000169
1.00000001154
1.00000002899
1.00000003352
1.00000003141
1.00000002296
1
1.00000002163
1.00000002029
1.00000002448
1.00000002172
1.00000003037
1.00000002318
1.00000001072
1.00000000383
1.00000000507
1.00000000511
1.00000000205
1.00000000395
1.00000000307
1.00000000562
1.00000001845
1.00000001949
1.00000002462
1.00000002744
1.00000001064
0.999999996298
1.00000001848
1.00000001919
1.00000002366
1.00000002496
1.00000002609
1.00000002189
1.00000002403
1.00000001423
1.00000001329
1.00000001128
1.00000000602
1.00000000919
1.00000001198
1.00000001593
1.00000001383
1.0000000208
1.0000000232
1.00000001671
1
0.999999997135
1.00000001161
1.00000001611
1.00000002231
1.00000002771
1.00000003167
1.00000003107
1.00000002536
1.0000000259
1.00000001925
1.00000001567
1.00000000956
1.00000001493
1.00000001711
1.00000001795
1.00000002235
1.00000002304
1.00000001735
1
0.999999996651
0.999999996134
1.00000000634
1.00000000932
1.00000002406
1.00000003525
1.00000003549
1.00000003939
1.00000003982
1.00000003569
1.00000003277
1.00000002279
1.00000001752
1.00000001763
1.0000000213
1.00000002639
1.00000002644
1.00000001915
1
0.999999997153
0.999999996894
0.999999995216
1
1
1.00000000231
1.00000001017
1.00000001959
1.00000002629
1.00000002398
1.00000002611
1.00000002529
1.00000002461
1.00000002125
1.00000001877
1.00000001888
1.00000001557
1.000000001
0.999999999322
0.999999999197
0.999999998725
0.999999993379
0.999999982063
0.999999969252
0.999999962903
0.999999973883
0.999999998094
0.999999998642
0.999999999282
0.999999998237
1.00000000796
1.00000001912
1.00000001733
1.00000001323
1.00000001295
1.00000001246
1
0.999999999596
0.999999994714
0.999999994301
0.999999996733
0.999999992871
0.999999984182
0.999999961889
0.999999995493
0.999999995921
0.99999999366
0.999999995573
0.999999998554
1.00000000401
1.00000001863
1.0000000263
1.00000001918
1.0000000192
1.0000000279
1.00000002021
1.00000001098
1
0.999999995902
0.999999997268
0.999999994928
0.999999997394
0.99999999626
0.999999990138
0.99999999735
0.999999995174
0.999999999498
0.999999994147
1
1.00000001792
1.00000002545
1.00000001227
1.00000001577
1.00000001549
1.0000000094
1.00000002491
1.00000001916
1.00000000203
0.99999999859
0.999999995653
0.999999996918
0.999999995889
0.999999996182
0.999999998375
0.99999999576
0.999999998486
0.999999996258
1
1.00000000735
1.00000002039
1.000000007
1.00000000672
1.00000000696
1.0000000017
1.00000000525
1.00000000432
1.00000001583
1.00000001544
1
0.999999995284
0.999999995543
0.999999997246
0.999999995828
0.999999997177
0.999999995341
0.99999999616
0.999999995843
1.00000000004
1.00000000685
1.00000000387
1.00000000323
1.00000000214
1.00000000441
1.00000000437
1.00000000205
1.00000000181
1.00000000312
1.00000001048
1.00000001232
1
0.999999995906
0.999999995629
0.999999996857
0.999999997445
0.999999996485
1
1.00000000164
1.00000000988
1.00000001095
1.00000000568
1.00000000082
1.00000000122
1.00000000167
1.00000000161
1.00000000175
1.00000000106
1.0000000018
1.00000000634
1.00000000954
1.00000001239
1
0.999999998545
0.99999999573
0.999999997843
1.00000000252
1.00000001996
1.00000002241
1.00000001104
1.00000000729
1.00000001334
1.00000001669
1.00000002555
1.00000000032
1.0000000002
1.00000002136
1.00000001814
1.00000001185
1.00000000974
1.00000000968
1.00000001774
1.00000002694
1.00000001783
0.999999999003
0.999999995828
1.00000002266
1.00000002999
1.00000002427
1.00000001937
1.00000002255
1.00000002286
1.00000003128
1.00000001172
1.0000000005
1.00000000042
1.00000001591
1.00000003528
1.00000003025
1.00000002264
1.00000002222
1.00000002765
1.00000003495
1.00000003313
1.00000001145
1.00000001639
1.00000003194
1.00000003031
1.00000002828
1.00000003152
1.00000003449
1.00000004566
1.00000002929
1.00000002825
1.00000002172
1.00000001902
1.00000003036
1.00000002891
1.00000004195
1.00000003501
1.00000003707
1.00000003382
1.00000003535
1.00000004078
1.00000002176
1.00000002257
1.00000003232
1.00000003309
1.00000003714
1.00000004299
1.0000000477
1.00000003955
1.00000003592
1.00000003541
1.00000003852
1.000000035
1.00000003468
1.00000003413
1.00000003747
1.00000004368
1.00000005485
1.00000003905
1.00000004112
1.00000003919
1.00000002655
1.0000000261
1.00000003486
1.00000003737
1.00000003723
1.0000000568
1.00000004162
1.00000003824
1.00000003705
1.00000003672
1.0000001436
1.00000014285
1.00000003524
1.00000003503
1.00000003769
1.00000004813
1.00000005715
1.00000004179
1.00000004448
1.00000004567
1.000000025
1.00000002477
1.00000003458
1.00000003588
1.00000003469
1.0000000462
1.00000004917
1.0000000338
1.00000002885
1.00000002704
1.0000000316
1.00000002015
1.00000002389
1.00000002679
1.00000004115
1.00000005738
1.0000000404
1.00000003909
1.00000004387
1.00000004397
1.00000002299
1.00000002561
1.00000003157
1.00000003359
1.00000003032
1.00000002741
1.00000003992
1.00000003822
1.00000002355
1.00000000639
1.00000000024
1.0000000001
1.00000000734
1.00000002607
1.00000004391
1.00000003118
1.00000002936
1.00000003495
1.00000004065
1.00000004244
1.00000001348
1.00000001841
1.00000002718
1.00000002667
1.00000002677
1.00000001984
1.00000001256
1.00000001936
1.00000001892
1.00000002032
0.999999999763
0.999999999895
1.00000001964
1.00000002987
1.00000001256
1.00000000969
1.00000002124
1.00000002993
1.00000003518
1.0000000412
1
1.00000000149
1.0000000121
1.00000002426
1.00000002246
1.00000001088
1.00000000687
1.00000000635
1.00000001089
1.00000000126
1.00000000188
1.00000000136
1.00000000577
1.00000000095
1.00000000456
1.00000000596
1.00000001297
1.00000002101
1.0000000337
1.00000001333
0.999999996297
1
1
1.00000000291
1.00000001794
1.00000001593
1.00000001122
1.0000000078
1.00000000255
1.0000000027
1.00000000316
1.00000000348
1.00000000137
1.00000000142
1.00000000572
1.00000001109
1.00000001396
1.00000000853
1.00000000435
0.999999999737
0.999999995663
0.999999995217
0.999999995552
1
1.00000000157
1.00000002062
1.00000001717
1.00000001208
1.00000000706
1.00000000324
1.00000000312
1.00000000284
1.00000000452
1.0000000049
1.00000001314
1.00000001644
1.00000000171
1
0.999999995012
0.999999995011
0.999999997862
0.999999996819
0.9999999979
0.999999997249
1
1.00000000907
1.0000000214
1.00000002092
1.00000001726
1.00000000887
1.00000000885
1.00000000964
1.00000001059
1.0000000187
1.00000001909
1
1
0.99999999579
0.999999995512
0.99999999618
0.999999998219
0.999999999999
0.999999998344
0.999999995848
0.999999998766
1
1.00000001539
1.00000002232
1.00000002215
1.00000002233
1.00000001503
1.00000001577
1.00000001728
1.00000001479
1
1
0.999999994922
0.99999999497
0.999999995247
0.999999997973
0.999999994927
0.999999996963
0.999999997802
0.999999995655
0.999999996703
0.99999999681
1
1.00000000693
1.00000001058
1.00000000922
1.00000001017
1.0000000072
1.00000000118
1
0.99999999669
0.999999995493
0.999999996031
0.999999995352
0.999999997154
0.999999997771
0.999999980806
0.999999954864
0.9999999553
0.999999963302
0.999999987185
0.999999996673
0.999999997872
0.999999995741
0.999999994802
0.999999997833
0.999999996032
0.999999997501
0.999999996944
0.999999996185
0.999999997405
0.99999999746
0.999999995405
0.999999996445
0.99999999223
0.999999983815
0.999999983027
0.999999955288
0.999999986943
0.999999994632
0.999999995198
0.999999994975
0.999999995716
0.999999994457
1
1
1
1
1
1
0.999999995831
0.999999996876
0.99999999838
0.999999998076
0.999999998327
0.999999995902
0.999999996326
0.999999991243
0.999999994547
0.999999996721
0.99999999329
0.999999993498
0.99999999367
1
1
1.00000000563
1
1
0.999999999999
0.999999999969
1
0.999999994327
0.999999994767
0.99999999729
0.999999995039
0.99999999561
0.999999994479
0.999999998167
0.999999997821
0.999999996715
0.999999995839
0.999999993752
1
1
1
1.00000000134
1.00000000186
1.00000000406
1
1.00000000004
0.999999999939
1
0.999999995206
0.999999995283
0.99999999532
0.999999996459
0.999999996057
0.99999999827
0.99999999569
0.999999996588
0.999999997938
0.999999996535
1.00000000034
1.00000000043
1.00000000018
1.0000000012
1.0000000016
1.00000000124
1.00000000016
1
1.0000000001
0.999999999949
0.999999999958
0.999999995766
0.999999996197
0.99999999658
0.999999997603
0.999999997408
0.999999994502
0.999999995413
0.999999999762
1.00000000035
1.00000000057
1.00000000432
1.00000000868
1.0000000191
1.00000000213
1.00000000072
1.00000003015
1.00000001737
1.00000000333
1.00000000021
0.999999999925
0.999999999984
0.999999995504
0.99999999529
0.999999997687
0.99999999679
0.999999995887
1
1.00000000002
1.00000001108
1.00000002719
1.00000003765
1.00000004618
1.00000001617
1.00000000179
1.00000000017
1.00000002643
1.00000004472
1.0000000381
1.00000002438
1.00000001263
1.00000000367
1
0.999999996407
0.999999998581
0.999999994889
1.00000001622
1.00000002762
1.0000000275
1.00000003432
1.00000003651
1.00000003551
1.00000002316
1.00000000322
1.00000000033
1.00000000041
1.00000000953
1.00000002637
1.00000003822
1.00000004235
1.00000003699
1.00000002721
1.00000002805
1.00000002109
0.999999998128
1.00000001115
1.00000003055
1.00000003377
1.00000004068
1.00000004311
1.00000005482
1.00000004029
1.00000004199
1.00000003787
1.00000002474
1.00000002196
1.00000002712
1.00000003848
1.00000003948
1.00000004999
1.00000004441
1.00000004471
1.00000003947
1.00000003482
1.00000001908
1.00000002856
1.00000003606
1.0000000415
1.00000004368
1.00000005717
1.0000000489
1.00000004704
1.00000001526
1.00000011108
1.00000023192
1.00000022933
1.00000009765
1.00000004996
1.00000004712
1.00000004736
1.00000005506
1.0000000559
1.00000004615
1.000000043
1.00000002497
1.00000003329
1.00000003821
1.00000003825
1.00000005735
1.0000000464
1.00000004388
1.00000004646
1.00000005202
1.00000019352
1.00000026482
1.00000026838
1.00000017087
1.00000004828
1.0000000465
1.00000004907
1.00000005708
1.00000005903
1.00000004611
1.00000004301
1.00000002449
1.00000002765
1.00000003448
1.00000003489
1.00000004785
1.00000004829
1.00000003851
1.0000000359
1.00000004052
1.00000013207
1.0000001618
1.00000015057
1.00000006216
1.00000003395
1.00000003881
1.00000005322
1.00000005752
1.00000004532
1.00000004034
1.00000004027
1.00000001671
1.00000000739
1.00000002387
1.00000002865
1.00000002852
1.00000003079
1.00000004338
1.00000003273
1.00000001966
1.00000000623
1.00000000061
1.00000000044
1.00000000431
1.0000000218
1.0000000371
1.00000004711
1.00000003701
1.00000003254
1.00000003418
1.0000000325
1
0.999999996212
1
1.00000000236
1.00000000559
1.00000000983
1.00000001967
1.00000003913
1.00000003914
1.00000001147
0.999999999363
0.999999999385
1.00000001487
1.00000004851
1.00000004967
1.00000002972
1.00000001247
1.00000001401
1.00000001723
1.00000000511
0.999999996701
0.999999995339
0.99999999583
0.999999995822
0.999999999709
1
1.0000000003
1.00000000498
1.00000001876
1.00000002972
1.00000000004
1.00000000058
1.00000002955
1.0000000144
1.00000000566
1.00000000044
1.00000000017
0.999999999974
0.99999999581
0.999999995158
0.999999995328
0.99999999678
0.99999999786
0.999999996234
0.999999996149
0.999999999821
0.999999999976
1.00000000016
1.00000000053
1.00000000136
1.00000000214
1.00000000241
1.0000000006
1.00000000012
1.00000000026
1.0000000001
0.999999998061
0.99999999731
0.999999994338
0.99999999486
0.999999995023
0.999999996552
0.999999996519
0.999999999562
0.999999996415
0.999999997105
1
1.00000000157
1.00000000266
1.00000000139
1.00000000669
1.00000000573
1.00000000268
1.00000000192
1
0.999999999941
0.999999998759
0.999999999429
0.999999993697
0.999999995028
0.999999996722
0.999999995098
0.999999998891
0.999999997506
0.999999999371
0.999999997295
1
1.00000000173
1.00000000836
1.00000001131
1.00000000876
1.0000000082
1.00000001147
1
1
0.999999998098
0.999999998689
0.999999994741
0.999999995789
0.999999998794
0.999999995555
0.999999992248
0.999999997613
0.999999995296
0.999999998218
0.999999996698
0.999999995557
1
1.00000000553
1.0000000035
1.00000000569
1.00000000405
1
0.999999999091
1
0.999999998916
0.999999995976
0.999999994527
0.999999995383
0.999999996065
0.99999999333
0.999999995383
0.999999997789
0.999999996484
0.999999994324
0.999999996797
0.999999995431
0.999999994962
0.999999995323
1
0.99999999827
0.999999997398
0.999999997057
0.999999996826
0.999999994144
0.999999997979
0.99999999651
0.999999994311
0.999999995044
0.999999994419
0.999999979649
0.999999951693
0.999999953741
0.999999959536
0.999999970378
0.999999997264
0.999999997183
0.999999998539
0.999999996149
0.999999996494
0.999999996053
0.99999999777
0.999999995982
0.99999999705
0.999999998565
0.999999997536
0.999999995713
0.999999995061
0.999999985359
0.999999983054
0.999999983027
0.999999953435
0.999999975302
0.999999997394
0.999999995874
0.999999996573
0.999999995421
0.999999994459
0.999999995479
0.999999998563
0.999999996031
0.999999997615
0.999999999971
0.999999996455
0.999999992679
0.999999997841
0.999999997835
0.999999997411
0.999999997376
0.999999999062
0.999999990286
0.999999997524
0.999999991775
0.999999993485
0.999999995436
0.999999992733
0.999999996133
0.999999999097
0.999999999992
1
1.00000000014
1.00000000003
0.999999999954
0.999999999903
0.999999999731
0.999999994005
0.999999998643
0.99999999497
0.999999996883
0.999999997063
0.999999995955
0.999999997763
0.999999994017
0.999999996192
0.999999994482
0.999999997689
1
1.00000000004
1.00000000018
1.00000000007
1.00000000032
1.0000000009
0.999999999969
1.00000000004
0.999999999493
0.999999999731
0.999999997455
0.999999997294
0.999999996287
0.999999997112
0.99999999879
0.9999999976
0.999999996525
0.999999994701
0.999999996364
0.999999998348
1.00000000047
1.00000000091
1.00000000169
1.00000002073
1.00000000094
1.00000000137
1.00000001538
1.00000000094
1.00000000062
0.999999999018
0.999999999937
0.999999999392
0.999999993117
0.999999995948
0.999999996954
0.999999997625
0.999999996873
0.999999995429
0.99999999962
0.999999998765
1.0000000026
1.00000001993
1.00000003267
1.00000000484
0.999999998269
0.999999999133
1.00000000933
1.00000002483
1.00000002368
1.0000000005
1.00000000012
0.999999998653
0.99999999835
0.999999992437
0.999999997484
0.99999999802
0.999999992695
0.999999994056
1.0000000005
1.00000001361
1.00000002956
1.00000002825
1.00000001967
1.00000000638
0.999999999405
0.999999999333
1.00000001203
1.00000002103
1.00000002789
1.00000002682
1.00000000157
0.999999999703
0.999999999232
0.999999997769
0.999999997165
0.999999994593
0.999999995
1.00000001149
1.00000004052
1.00000003995
1.00000004082
1.00000003184
1.00000002073
1.00000000679
1.00000000588
1.00000000649
1.00000001332
1.00000002583
1.00000002691
1.00000002838
1.0000000337
1.00000004168
1.00000000038
0.99999999706
0.999999997175
1
1.00000002693
1.0000000486
1.00000004415
1.0000000543
1.00000005213
1.00000005467
1.00000004948
1.00000005612
1.00000010424
1.00000005059
1.00000005272
1.00000005375
1.00000005525
1.00000005117
1.00000005219
1.00000005378
1.00000004514
1.00000002595
1
1.0000000231
1.00000003839
1.0000000442
1.00000005494
1.0000000535
1.0000000615
1.00000002408
1.00000000329
1.00000019935
1.00000034916
1.0000003504
1.00000018827
1.00000001174
1.00000007001
1.00000006522
1.00000006105
1.00000005762
1.00000004853
1.00000003947
1.0000000176
1.00000001523
1.00000003361
1.00000004731
1.00000004602
1.00000005079
1.00000005669
1.00000006361
1.00000007636
1.00000018471
1.00000036972
1.0000003727
1.00000019287
1.00000001062
1.00000006717
1.00000006367
1.00000005873
1.00000006001
1.00000004719
1.00000003861
1.0000000143
1
1.00000001447
1.00000003311
1.00000004521
1.00000003709
1.0000000431
1.00000004556
1.00000009059
1.00000010806
1.00000005407
1.00000005568
1.00000008325
1.00000006141
1.00000004939
1.00000005341
1.00000005516
1.00000005265
1.0000000398
1.00000002401
1
0.999999993415
0.999999994025
1.00000000001
1.00000000534
1.00000003414
1.00000002371
1.00000001921
1.00000001784
1.00000000602
1.00000000425
1.00000000365
1.00000000381
1.0000000189
1.0000000273
1.00000004194
1.0000000431
1.00000003016
1.0000000034
1
0.999999996416
0.999999995837
0.999999996971
1
1.00000000004
1.0000000002
1.00000000164
1.00000001163
1.00000001549
1.00000000524
0.999999998585
0.999999998681
1.00000000537
1.0000000186
1.00000003339
1.00000004003
1.00000001954
1.00000000014
0.99999999971
0.999999995271
0.999999997189
0.999999994486
0.999999996551
0.999999996187
0.999999999367
1.00000000027
1.00000000002
1.0000000029
1.00000002038
1.0000000062
0.999999998869
0.99999999898
1.00000000432
1.00000003693
1.00000002503
1.00000000068
1.00000000037
0.999999997868
0.99999999715
0.999999994811
0.999999995099
0.999999994577
0.999999997483
0.999999999045
0.999999995695
1
1.00000000009
1
1.00000000098
1.00000001867
1.00000000065
1.00000000102
1.00000002399
1.00000000236
1.00000000023
1.00000000012
1
0.999999996731
0.999999995546
0.999999994581
0.999999995402
0.999999993643
0.999999996514
0.999999996997
0.999999997946
0.999999997615
0.999999999998
1
1
1.00000000004
1.00000000068
1.00000000049
1.00000000018
1
1.00000000008
0.999999999984
0.999999992819
0.999999997129
0.999999993909
0.999999995321
0.999999996052
0.999999996094
0.99999999921
0.999999998844
0.999999999163
0.999999998709
0.999999995643
1
1
1
1.0000000001
1.00000000003
1.00000000004
1
0.999999999932
0.999999993214
0.999999994508
0.999999997156
0.999999996433
0.999999995295
0.999999995214
0.999999994523
0.999999998247
0.999999997683
0.999999996613
0.999999995096
0.999999996894
0.999999995604
0.999999998383
1
0.999999999723
1
0.999999999509
0.999999998715
0.999999996648
0.999999998195
0.999999998201
0.999999997573
0.999999997129
0.99999999131
0.999999983833
0.999999994316
0.999999994655
0.99999999415
0.999999994862
0.99999999478
0.999999996566
0.999999995095
0.999999995672
0.999999996411
0.999999999455
0.999999996033
0.999999999336
0.999999997717
0.9999999949
0.999999996371
0.999999994219
0.999999995583
0.999999995839
0.999999981575
0.999999979468
0.999999951656
0.999999951693
0.999999964604
0.999999982287
0.999999997564
0.999999996167
0.999999996205
0.999999995615
0.999999995756
0.999999997612
0.9999999963
0.999999994355
0.999999995568
0.999999997702
0.999999995389
0.999999997631
0.999999997432
0.999999995239
0.999999993836
0.999999991964
0.999999951771
0.999999981966
0.999999997179
0.999999996869
0.999999992453
0.999999993448
0.999999994194
0.999999994241
0.999999992817
0.999999996838
0.999999995303
0.999999990453
0.999999994967
0.999999992163
0.999999993584
0.999999997013
0.99999999739
0.999999997088
0.999999998789
0.99999999874
0.999999998033
0.999999998401
0.999999997369
0.999999992982
0.999999991635
0.999999996034
0.999999996781
0.999999995611
0.999999999651
1.00000000029
1.00000000025
0.999999999443
0.999999995984
0.999999990884
0.99999999307
0.999999995874
0.999999997244
0.999999996854
0.999999997552
0.999999999116
0.99999999491
0.999999994821
0.999999995833
0.999999996066
0.999999999462
1
1.0000000003
0.999999995949
1.00000000079
1.00000000236
1.00000000082
0.999999993506
0.999999992903
0.99999999087
0.999999997101
0.999999996269
0.999999998148
0.999999995116
0.999999993384
0.99999999912
0.999999996673
0.999999994662
0.999999994444
0.999999996888
0.999999993835
0.999999987194
0.99999999807
1.00000001935
1.00000001255
1.00000000651
1.00000000997
1.00000001901
1.00000001475
1.00000000178
0.999999996195
0.999999998427
0.999999991773
0.999999993977
0.999999995585
0.999999999113
0.999999995358
0.999999996936
1.00000000071
0.999999986682
0.999999978348
1.00000000415
1.00000000478
1.00000000538
1.00000001881
0.999999998999
1.00000000216
1.00000000426
1.00000000407
1
1.00000000099
0.999999999663
0.999999995481
0.999999988618
0.999999993169
0.999999992989
0.999999996006
0.999999990954
0.999999992832
0.999999997641
1.00000000083
1.00000000109
1.00000001347
1.00000001367
1.00000000714
1.00000000751
1.00000000919
1.00000001014
1.00000001599
1.00000001004
1.00000000001
1.0000000022
0.999999990117
0.999999988711
0.999999990557
0.999999997516
0.999999993253
0.999999989149
0.999999995115
1.00000000488
1.00000001616
1.00000003729
1.00000005221
1.00000005891
1.00000000995
1.00000000174
1.00000000001
1.00000001453
1.0000000453
1.00000004883
1.0000000018
1.00000000242
1.00000000177
0.999999992241
0.999999992949
0.999999994761
0.999999991898
1
1.00000001479
1.00000004853
1.00000000041
1.00000007787
1.00000008716
1.00000005149
1.00000000089
1.00000000002
1.00000000002
1.00000007779
1.00000008897
1.00000009561
1.00000007924
1.0000000172
1.00000003413
1.00000000949
0.999999996199
0.99999999715
0.999999989039
1.00000001392
1.00000004084
1.00000005355
1.00000006754
1.000000075
1.00000000315
1.00000000111
1.00000004017
1.00000048915
1.0000004618
1.00000000002
1.00000000073
1.00000003368
1.00000009773
1.00000007826
1.00000006231
1.00000004973
1.00000002367
0.999999993408
0.999999999995
1
1.00000002531
1.00000004903
1.0000000637
1.0000000845
1.00000003958
1
1.00000004564
1.00000039409
1.00000036925
1.00000004072
1.00000000001
1.00000001676
1.0000000932
1.00000008381
1.00000006066
1.00000004226
1.00000001616
0.999999995802
0.99999999578
0.999999990851
1.00000000043
1.00000000708
1.0000000196
1.0000000553
1.0000000697
1.00000009823
1.00000008553
1.00000000002
1.00000000002
1.00000002648
1.00000006945
1.0000000795
1.00000007565
1.00000006596
1.00000004614
1.00000000076
0.999999996458
0.999999996096
0.999999997226
0.999999993957
0.999999999706
1.00000000094
1.00000000043
1
1.00000000728
1.00000001512
1.00000000435
1.00000000023
1.00000000011
1.00000000219
1.00000002837
1.00000003642
1.0000000262
1.00000001797
1.00000000703
0.999999996474
0.999999998353
0.999999998088
0.999999996999
0.999999995948
0.999999995055
0.999999995144
0.99999999699
1.0000000027
1
1.00000000515
1.00000000271
1.00000000542
1.00000000511
1.00000000308
1.00000000644
1
1.00000000048
1.00000000151
0.999999994425
0.999999993297
0.999999993103
0.999999995906
0.999999996147
0.999999995096
0.999999995614
0.999999996932
1.00000000001
0.999999771927
1.0000000063
1.00000000018
1.00000000156
1.00000000163
1.00000000097
1.00000000728
1.0000000007
1.00000000198
0.999999973258
1.00000000014
0.99999999451
0.999999993927
0.999999995362
0.999999996905
0.999999997432
0.999999994969
0.999999995013
0.999999995939
0.999999995098
0.99999995255
1.00000000727
1.00000001776
1.00000001873
1.00000000355
1.00000000445
1.00000001525
1.00000001367
1.00000000761
1.00000000007
1
0.999999994968
0.9999999968
0.999999996738
0.999999996855
0.999999997311
0.999999998908
0.999999997276
0.999999996366
0.999999993068
0.999999992192
1
1.00000000023
1.00000000187
1.00000000063
1.00000000097
1.00000000127
1.00000000012
1
0.999999998127
0.99999999311
0.999999996927
0.999999996061
0.999999995512
0.999999996375
0.999999992815
0.99999999883
0.999999996671
0.999999998356
0.999999994722
0.999999992201
0.999999994162
0.999999999994
1
1.00000000014
1.00000000009
1.00000000003
0.99999999991
0.999999990448
0.99999999113
0.99999999034
0.999999997158
0.999999994435
0.999999992567
0.99999999336
0.999999993404
0.999999993396
0.99999999712
0.999999997783
0.999999993739
0.999999992262
0.999999994538
0.999999995148
0.999999993969
0.999999997095
0.999999994132
0.999999990551
0.999999993736
0.999999996586
0.999999997122
0.999999996966
0.999999995331
0.999999996057
0.999999990513
0.999999980595
0.99999998542
0.99999999283
0.999999994566
0.999999997201
0.999999994103
0.999999993059
0.9999999941
0.999999993814
0.999999998746
0.999999997158
0.999999996782
0.999999993031
0.999999994568
0.999999994729
0.999999996756
0.999999996993
0.999999989172
0.999999987367
0.999999980453
0.999999979468
0.999999951815
0.999999963079
0.999999979792
0.999999996921
0.999999997747
0.999999996638
0.999999994389
0.999999994019
0.999999993464
0.999999996932
0.999999991645
0.999999994689
0.999999989034
0.999999996644
0.999999996989
0.999999997233
0.999999997174
0.999999997074
0.999999997597
0.999999998116
0.999999963608
0.999999997709
0.99999999735
0.999999997431
0.999999993433
0.999999995394
0.999999993165
0.999999992134
0.999999993974
0.999999997288
0.999999991873
0.999999990009
0.999999996259
0.999999994621
0.999999994758
0.999999995113
0.999999994861
0.999999997299
0.999999998502
0.99999999854
0.999999998193
0.999999997119
0.999999997704
0.999999994386
0.999999993804
1.00000000001
0.999999998293
0.999999990912
0.999999989852
0.999999993858
0.999999990011
0.999999987874
0.999999993802
0.9999999977
1
0.999999996018
0.999999996398
0.999999992054
0.999999998363
0.999999998452
0.999999993876
0.999999997767
0.999999995471
0.999999999976
0.999999998828
0.999999999709
1.00000000001
0.999999990703
0.999999997294
1.00000000585
1.00000001023
0.999999988484
0.999999990666
1
1.00000000063
0.999999999975
0.999999997477
0.999999997827
0.99999999303
0.99999999768
0.999999992952
0.999999998272
0.999999997909
1
1
0.999998145982
0.999999984651
1.00000002159
1.00000002644
1.00000000621
1.00000000205
1.0000000256
1.00000001681
0.999999985429
0.999997446315
1
1
0.999999997167
0.999999991609
0.999999995924
0.999999994329
0.999999995086
1.00000000001
1.00000000277
0.999997061804
0.999999823198
1.0000000065
1.00000000319
1.00000000273
1.00000000189
0.999999998298
1.00000000182
1.0000000002
1.00000000081
0.999999833609
0.999996737084
1.00000000011
0.999999999984
0.999999990573
0.999999992659
0.999999992856
0.999999992345
0.999999993947
0.999999991199
1.00000000273
1
1
1.00000003988
1.00000000899
1.00000000009
1