/*--------------------------------*- C++ -*----------------------------------*\
| =========                 |                                                 |
| \\      /  F ield         | OpenFOAM: The Open Source CFD Toolbox           |
|  \\    /   O peration     | Version:  3.0.1                                 |
|   \\  /    A nd           | Web:      www.OpenFOAM.org                      |
|    \\/     M anipulation  |                                                 |
\*---------------------------------------------------------------------------*/
FoamFile
{
    version     2.0;
    format      ascii;
    class       volVectorField;
    location    "8";
    object      ddt0(rho,U);
}
// * * * * * * * * * * * * * * * * * * * * * * * * * * * * * * * * * * * * * //

dimensions      [1 -2 -2 0 0 0 0];

internalField   nonuniform List<vector> 
7968
(
(0.743194955081 0.741592719262 -1.06742780735)
(1.99073358963 0.818427054257 -1.02599842396)
(2.73176837934 0.851316133389 -0.779601354283)
(3.10582704 0.847317079692 -0.630792229588)
(2.97090799652 0.792087107141 -0.311124851691)
(2.74669850523 0.73552735474 -0.248384217366)
(2.24806743172 0.701078213681 -0.158509561399)
(1.62578022179 0.706498350701 -0.106123167351)
(0.962858235197 0.742535628692 -0.0855262495064)
(0.312686847548 0.789970485409 -0.0995924325796)
(-0.307286368995 0.790025637799 -0.0994312527396)
(-0.958139734998 0.742589703993 -0.0850526840062)
(-1.6224066468 0.706169623104 -0.105157471175)
(-2.24670825219 0.700348459985 -0.157310289481)
(-2.74774346818 0.734660286602 -0.247266472233)
(-2.97280438902 0.791193311984 -0.310185818921)
(-3.1090152035 0.846501576084 -0.629782887984)
(-2.73446361477 0.850684975426 -0.779157132045)
(-1.99300537491 0.817728267193 -1.02588234408)
(-0.744262747593 0.740842968729 -1.06741006903)
(0.820113587566 1.98532769637 -1.02549641082)
(2.03754890314 2.03247998536 -0.963766514269)
(2.70963463667 2.06257024553 -0.740110737915)
(3.078415691 2.07562606031 -0.60974533049)
(2.99594649851 2.00973056571 -0.260156826352)
(2.76533221636 1.83562378432 -0.159705901789)
(2.3145310453 1.72679641947 0.0517975686306)
(1.68351822592 1.63809148697 0.240939765326)
(0.985861289212 1.58533199251 0.333773596298)
(0.318647018817 1.59542229935 0.362496923545)
(-0.313270031632 1.5951169526 0.362881061351)
(-0.981216015451 1.58434999054 0.334970911172)
(-1.68050595631 1.63631922325 0.242809532894)
(-2.313767499 1.7246455882 0.0536959983537)
(-2.76664716628 1.83364850632 -0.157973561958)
(-2.99773377715 2.00783800644 -0.258514107236)
(-3.08180708421 2.0743094431 -0.608615318245)
(-2.71220302577 2.06160699499 -0.739538694786)
(-2.0396641673 2.03149251066 -0.963443247789)
(-0.821138547647 1.98436243232 -1.02592374605)
(0.852975929424 2.72251478715 -0.779091965624)
(2.06744570453 2.70126767651 -0.73999231653)
(2.72166616146 2.71384632683 -0.48744306665)
(3.04136877807 2.65877551568 -0.351740313586)
(3.01907642727 2.47905493921 -0.0416778095479)
(2.78097772907 2.13438273506 0.100775086586)
(2.40910574758 1.86125185536 0.33585762155)
(1.84427281739 1.61400036639 0.601109508973)
(1.15593474413 1.44445345032 0.802108647299)
(0.399193075056 1.36951088729 0.864799895166)
(-0.393848915471 1.36895983993 0.865026276145)
(-1.15170588533 1.44291749014 0.803152079581)
(-1.84188034102 1.61171502529 0.602667069186)
(-2.40875636715 1.85874633205 0.337189877569)
(-2.78233337009 2.13234250767 0.101731409481)
(-3.02074041663 2.47778519698 -0.0402192182531)
(-3.04456843858 2.65814947269 -0.351086160268)
(-2.72408317876 2.71361427967 -0.487288118513)
(-2.06938762145 2.70104278175 -0.740116781163)
(-0.85398546416 2.7222756422 -0.779758790411)
(0.849074339938 3.09363998242 -0.630499375911)
(2.08043452182 3.06752277369 -0.609182089955)
(2.66614028378 3.03126601599 -0.35135156517)
(2.91234355085 2.90285609195 -0.217266265619)
(2.86177447717 2.61308966456 0.0512837491394)
(2.5984075856 2.11680975932 0.161242145556)
(2.27730223743 1.68918534807 0.326725752623)
(1.79850084924 1.26490768298 0.517660179635)
(1.15492287589 0.959569117383 0.697331175968)
(0.398502241071 0.782133551553 0.785970522445)
(-0.393686966581 0.78146164367 0.78617440026)
(-1.1510694473 0.957772711915 0.697975795395)
(-1.7962947603 1.26273339235 0.518615916667)
(-2.27673610309 1.68720840691 0.327664009416)
(-2.59921012729 2.11554207375 0.161598703062)
(-2.86290418791 2.61298956272 0.0523009738238)
(-2.91497559215 2.90355816171 -0.217012596878)
(-2.66815359755 3.03248157295 -0.351529223437)
(-2.08185539621 3.06876055242 -0.609725976684)
(-0.849725838087 3.09462362951 -0.63114556757)
(0.794112603286 2.95611717769 -0.311483701056)
(2.01474425851 2.98203764672 -0.259519293841)
(2.48638276222 3.00625146892 -0.0406936491624)
(2.62231013561 2.85001384818 0.0519620524129)
(2.5257242412 2.51461493878 0.216463770856)
(2.23859868706 1.92551757891 0.260659704597)
(1.95732115203 1.36838850189 0.3502634818)
(1.54147382169 0.826179126105 0.487633145777)
(1.0109813367 0.420890651768 0.461874943043)
(0.352444860762 0.208504749028 0.462629606237)
(-0.347767550711 0.20799552684 0.462631544677)
(-1.0070945241 0.419629320841 0.461828854261)
(-1.53872626399 0.824689613029 0.488201556163)
(-1.95596311315 1.36745734028 0.350680034309)
(-2.23836896951 1.92536846766 0.260394769283)
(-2.52609478563 2.51589901835 0.217079690818)
(-2.62408509347 2.85211581126 0.0518728510026)
(-2.48759866218 3.00916621324 -0.0411325707281)
(-2.01537132853 2.98525642771 -0.2603018022)
(-0.794355359636 2.9589833126 -0.312302359889)
(0.737797411775 2.73058404318 -0.24893152976)
(1.84107277625 2.74971574074 -0.159020476582)
(2.14198461127 2.76652311171 0.101877490512)
(2.12612730633 2.58514210703 0.162197500626)
(1.93649267048 2.22623462784 0.261107204358)
(1.64774137586 1.63566450207 0.174922634436)
(1.42049323575 1.07828375931 0.173606065148)
(1.12575567855 0.549452707772 0.234761480858)
(0.726531002366 0.148632049962 0.322043722985)
(0.257636858583 -0.0236682542045 0.200709465252)
(-0.252527158019 -0.0237729168397 0.200056975772)
(-0.72209911592 0.148069413139 0.322762528381)
(-1.12254700854 0.549201789306 0.235444741743)
(-1.4186391055 1.07896369391 0.173951071204)
(-1.64706295215 1.63742834809 0.174679900103)
(-1.93600949668 2.22914424796 0.261383940616)
(-2.12707709049 2.58916227579 0.162002547741)
(-2.14262635445 2.7713828906 0.101487988751)
(-1.84155029093 2.75459074177 -0.159421387106)
(-0.737889965727 2.73477331725 -0.249585947661)
(0.703473067297 2.23149776405 -0.159818085949)
(1.73255317709 2.29762598633 0.0517668725751)
(1.86937128438 2.39323642118 0.336853285834)
(1.69903137638 2.26267173538 0.327875562608)
(1.37953279122 1.94384687597 0.351333004198)
(1.09038457556 1.40749775096 0.174204713347)
(0.908906351246 0.896063337533 0.106078776825)
(0.714970534718 0.403501183682 0.132211324907)
(0.490316101753 0.069489265978 -0.0535723506774)
(0.171704271183 -0.127053621438 -0.0357490847972)
(-0.165561416364 -0.127033534452 -0.035796401057)
(-0.484785270246 0.0695612375733 -0.0534688239821)
(-0.710604622301 0.404386580508 0.133134571697)
(-0.905952429839 0.898332720636 0.106425391847)
(-1.08860798155 1.41113513008 0.174154081913)
(-1.37800549726 1.94871513203 0.351819712818)
(-1.69889175401 2.26860946588 0.327954077103)
(-1.86912361153 2.39983066257 0.336629727447)
(-1.73256833878 2.30398110418 0.0514779705445)
(-0.703351895091 2.23682268294 -0.160369183483)
(0.708946148709 1.61041231804 -0.108096200155)
(1.64417180821 1.66684875913 0.239811623378)
(1.62297968118 1.82806343721 0.601345207346)
(1.27582173004 1.78314430643 0.518576979402)
(0.838065618832 1.52732860613 0.489073632478)
(0.562025113513 1.11222070552 0.23581608517)
(0.416473799473 0.701828222022 0.13244224558)
(0.338909943849 0.325781891422 -0.0811954650915)
(0.232489477409 0.0328709784897 -0.0933836257299)
(0.0836061747307 -0.108465445243 -0.103747801768)
(-0.0761772475184 -0.108223812467 -0.103806604859)
(-0.225528506724 0.0337497379128 -0.0936199344868)
(-0.332980195936 0.327559115517 -0.0808035670179)
(-0.412083709307 0.705489994821 0.133369714776)
(-0.559030161725 1.11758094757 0.236309879844)
(-0.835587825299 1.53395204859 0.489878309961)
(-1.27493391423 1.79068169155 0.518999734949)
(-1.62239647559 1.8359010543 0.601818998809)
(-1.64422866844 1.67417111004 0.239946115596)
(-0.708900091743 1.61668019194 -0.108579813048)
(0.74495067092 0.949922212092 -0.0872427321741)
(1.59174727766 0.97165455574 0.331590612304)
(1.45412610379 1.14118832731 0.801632492798)
(0.971632170966 1.14027982579 0.697474371528)
(0.433804370772 0.996881798788 0.463748355919)
(0.162077992579 0.71345259087 0.322531841449)
(0.0837025228631 0.477877077287 -0.054008144102)
(0.0458337775409 0.220517669208 -0.0936402754209)
(0.0354143921595 0.0239900345056 -0.133649493301)
(0.0137122047897 -0.0623042092334 -0.168684151297)
(-0.00528356125149 -0.0618416469817 -0.168771877698)
(-0.0274241511012 0.0253950479357 -0.133852707051)
(-0.0389229659697 0.22313435546 -0.0937113644321)
(-0.0782574927881 0.482407142613 -0.0535315188834)
(-0.158303137262 0.719838547059 0.323726512609)
(-0.431019062982 1.00452970292 0.464573244557)
(-0.970676125916 1.14848126424 0.698281750818)
(-1.45385421808 1.14941970812 0.802172559497)
(-1.59221085548 0.979316858708 0.331836687844)
(-0.745137075245 0.95689184714 -0.0877667125944)
(0.792471166645 0.303186556091 -0.101905712147)
(1.60195655877 0.307939840777 0.360693099155)
(1.3789999204 0.387313416272 0.864239484077)
(0.794325542045 0.386155876677 0.785254339336)
(0.221941058318 0.340475250184 0.463040999688)
(-0.0107540951549 0.246275433166 0.207775302058)
(-0.112661056853 0.161713462986 -0.0372187742338)
(-0.0945385395995 0.0750127367848 -0.10506119225)
(-0.0505953916111 0.00632445338092 -0.169113997848)
(-0.0169461943993 -0.0240299471768 -0.214118319184)
(0.0263461196786 -0.0233457676655 -0.214188350543)
(0.0595090862113 0.00829828258511 -0.169215419378)
(0.102331126746 0.0783275501147 -0.104951515045)
(0.118696325846 0.166747440488 -0.036635592079)
(0.0148364805996 0.252940477536 0.209124519916)
(-0.219350033325 0.348271934453 0.46469273358)
(-0.794076817419 0.394434390106 0.786337865275)
(-1.37950681244 0.395527427315 0.864578329299)
(-1.60288666981 0.31582105073 0.360579546065)
(-0.792806783271 0.310721072102 -0.102227920928)
(0.792331167619 -0.312878699747 -0.101905502564)
(1.60136003464 -0.320620120622 0.360941582207)
(1.37792024119 -0.402333643454 0.864091258475)
(0.79294647748 -0.402777481135 0.785026331353)
(0.220983835977 -0.356411287113 0.462261947602)
(-0.0108316875642 -0.260098195916 0.204928143501)
(-0.112884795657 -0.171671909423 -0.0373901868059)
(-0.0946500525181 -0.0799966752746 -0.105067054855)
(-0.0504141425795 -0.0069985260887 -0.169080613717)
(-0.0164268740787 0.0258307012297 -0.214151514907)
(0.027079640187 0.0266749359622 -0.214165582034)
(0.0605037741406 -0.00458368030476 -0.169046320525)
(0.103468496492 -0.0760893172029 -0.104808682768)
(0.119742767325 -0.166245416193 -0.0365765807495)
(0.0155601189774 -0.253332201389 0.207993133036)
(-0.21845545207 -0.348660341025 0.464542914741)
(-0.793340283003 -0.394451975632 0.78629156338)
(-1.37897737625 -0.393868855011 0.864438702417)
(-1.60259950891 -0.312190074849 0.360489787549)
(-0.792762479774 -0.304525361173 -0.102266683848)
(0.74461834579 -0.95950931559 -0.0875027987501)
(1.59015846579 -0.984418952777 0.332696705353)
(1.4512821103 -1.15617143432 0.80180472917)
(0.96848279734 -1.15630688747 0.696785187442)
(0.431747409302 -1.01206912601 0.461249244454)
(0.161377784165 -0.726429364232 0.322104071349)
(0.08329429684 -0.487279002911 -0.0540508889866)
(0.0463012850489 -0.225500475035 -0.0938393686792)
(0.0362007526001 -0.0249121152745 -0.133368374441)
(0.0151601894622 0.0638093026736 -0.168144434688)
(-0.00321191320948 0.0647308610494 -0.16810926648)
(-0.0247798467253 -0.0223172076652 -0.133237011982)
(-0.0361372280622 -0.221383066193 -0.0933161079473)
(-0.0754375021024 -0.481872893343 -0.0529054827815)
(-0.156004317736 -0.719995448315 0.32431732973)
(-0.428665912349 -1.00468225972 0.463972610698)
(-0.968573248766 -1.14796235519 0.698357763403)
(-1.45231525155 -1.14717955063 0.802115468612)
(-1.5913003893 -0.975023014563 0.331817232089)
(-0.744981378384 -0.950178616469 -0.0876820272255)
(0.708156952178 -1.61927427631 -0.1076520707)
(1.64192265505 -1.67932318348 0.240870903022)
(1.6197658248 -1.84223631658 0.601490969525)
(1.27298413107 -1.79765409513 0.51753811727)
(0.836462763044 -1.54021422784 0.487185345915)
(0.562574302758 -1.12365135497 0.234876149828)
(0.418036804669 -0.710295733191 0.133357165169)
(0.340673727585 -0.330755253646 -0.0803436172241)
(0.234335758185 -0.0347618566379 -0.0923790434643)
(0.0860098395335 0.107922597018 -0.102936523044)
(-0.0728209004267 0.108753770535 -0.102879899044)
(-0.22159179116 -0.0324544735688 -0.0922336903053)
(-0.329244260315 -0.32710791837 -0.0796406404159)
(-0.408770740211 -0.70561900415 0.135674503538)
(-0.556061058443 -1.11813482645 0.237387602092)
(-0.83228588879 -1.53386310695 0.490130305239)
(-1.27189203472 -1.78983032589 0.519272935393)
(-1.61987750475 -1.83312046392 0.602175718613)
(-1.64254432123 -1.6692007694 0.240436782979)
(-0.70843999192 -1.60921186059 -0.108039903283)
(0.702303248656 -2.23945539228 -0.159365750038)
(1.73015997448 -2.30896701998 0.0523395675433)
(1.86684566041 -2.405614577 0.336399515713)
(1.69749143601 -2.27465243164 0.32684913436)
(1.37948818747 -1.95416147285 0.349528817902)
(1.09292882054 -1.41689906324 0.172996591188)
(0.912909248374 -0.903478906114 0.106297241164)
(0.719426758239 -0.408388351474 0.134317400316)
(0.494506881542 -0.0731693752949 -0.0518445714419)
(0.175766102764 0.124581335075 -0.034442842)
(-0.161244731303 0.125187288317 -0.0343818043723)
(-0.480446412748 -0.0712909146069 -0.0514465694874)
(-0.706826776028 -0.405507739773 0.13617920061)
(-0.902706741779 -0.899801608075 0.108452700997)
(-1.08535347689 -1.41245586987 0.175117008169)
(-1.37404382522 -1.9488617514 0.351989711013)
(-1.6949389138 -2.26762485737 0.32845823298)
(-1.86560427392 -2.39700577938 0.337274645752)
(-1.72991813384 -2.29899181713 0.0524180822099)
(-0.702278208123 -2.22913431285 -0.159599767863)
(0.73665779269 -2.73780111581 -0.248836191598)
(1.83908960113 -2.75935494386 -0.158857976792)
(2.14070481149 -2.77669728514 0.101299374025)
(2.12628599279 -2.59454846836 0.161071607069)
(1.93797134848 -2.23401859744 0.259346157513)
(1.65188153771 -1.64297781136 0.173570845512)
(1.42623075088 -1.08438219542 0.173693656768)
(1.13208096584 -0.554346881859 0.236476624676)
(0.732495711888 -0.15281787262 0.325347650769)
(0.262740513512 0.0204772261873 0.211100344857)
(-0.247205014526 0.020780700978 0.210639618045)
(-0.717543034774 -0.151609258583 0.32610166151)
(-1.1187154792 -0.552210087136 0.238059800064)
(-1.41525714317 -1.08144419731 0.175449602286)
(-1.64338445238 -1.63923658521 0.175009057321)
(-1.93135583725 -2.22939368048 0.261013853814)
(-2.12230190871 -2.5881828633 0.162327082362)
(-2.13817162765 -2.76885392241 0.102103000295)
(-1.83786940867 -2.75010604537 -0.158560768944)
(-0.736231477638 -2.72786932605 -0.248861808934)
(0.793421987316 -2.96194105337 -0.31111326612)
(2.01374200451 -2.98935947275 -0.259218912518)
(2.48649425533 -3.01388076539 -0.040713999029)
(2.62405352584 -2.85678199452 0.0518153711327)
(2.52883426082 -2.52012169946 0.216199558452)
(2.2435958478 -1.93021760312 0.260359977257)
(1.96368169923 -1.37233262605 0.351108200043)
(1.54832284437 -0.829937841326 0.489397964552)
(1.01695193691 -0.425598674328 0.465928480541)
(0.358245449704 -0.214408943691 0.465448382338)
(-0.341875265521 -0.214135836003 0.465550286619)
(-1.00131374562 -0.424740809933 0.465844182111)
(-1.53418903975 -0.828331527104 0.490561313704)
(-1.95181472311 -1.36988036415 0.352209292929)
(-2.23391433574 -1.92681428779 0.260880286358)
(-2.52088487863 -2.5159216319 0.217053382558)
(-2.61868244695 -2.85104835328 0.0524108151213)
(-2.48273311768 -3.00686183802 -0.0403430437468)
(-2.01174896029 -2.98112622951 -0.258954601493)
(-0.792756399726 -2.95304228862 -0.310978417445)
(0.848672414938 -3.09788144809 -0.629917392539)
(2.08070527141 -3.07308077056 -0.6088058975)
(2.66755239442 -3.03738554852 -0.351238836956)
(2.91544125457 -2.90857031116 -0.217136485852)
(2.86606664482 -2.61786705838 0.0514481178739)
(2.60433633243 -2.12109114793 0.161605981642)
(2.28416011859 -1.69310939677 0.327768572629)
(1.80542645747 -1.26933569393 0.518977323424)
(1.16137078274 -0.965616738886 0.69828019601)
(0.404612854284 -0.789745303691 0.786468838584)
(-0.387456920613 -0.789532590579 0.7866091782)
(-1.14473537793 -0.964847067502 0.698821922668)
(-1.79035430224 -1.26778739663 0.519896890044)
(-2.2713053964 -1.69063962006 0.32882409159)
(-2.59366307641 -2.11766984434 0.162293146504)
(-2.85701655201 -2.61375465596 0.0525291892803)
(-2.90899948672 -2.90320850288 -0.216407674086)
(-2.66276193431 -3.03103563956 -0.350742415807)
(-2.07792370849 -3.06590057202 -0.608269508057)
(-0.847687162725 -3.09024105803 -0.629417911793)
(0.853020158254 -2.72531255274 -0.778364905541)
(2.06868469019 -2.70505094085 -0.739524204305)
(2.72400519435 -2.71807776707 -0.48752217274)
(3.04538825843 -2.66260393417 -0.351770772475)
(3.02441000917 -2.48213573418 -0.0415288532899)
(2.78753510392 -2.13722593063 0.101281113132)
(2.416058446 -1.86384980261 0.336701219054)
(1.85098093867 -1.61721733387 0.602073636049)
(1.1621021806 -1.44890235532 0.802690929266)
(0.405190304952 -1.37498358211 0.86509400827)
(-0.387461907167 -1.37483733439 0.865181230215)
(-1.14480095805 -1.44823442818 0.803173368406)
(-1.83511701368 -1.61577303285 0.603173865636)
(-2.40244957306 -1.86148956194 0.337859429569)
(-2.77620341006 -2.13410655081 0.102175957765)
(-3.01459108085 -2.47852713984 -0.0402549019142)
(-3.03838591872 -2.65812659424 -0.350949114932)
(-2.7186751344 -2.71293626103 -0.486946887225)
(-2.06563751137 -2.6994639921 -0.738903094864)
(-0.852016349939 -2.71949321297 -0.777658731242)
(0.819973414415 -1.98692107192 -1.02343610593)
(2.03870780425 -2.03452525798 -0.962943857495)
(2.71200262579 -2.06510229189 -0.740366967086)
(3.082378777 -2.07770009443 -0.61008894179)
(3.00137492969 -2.0111864438 -0.260433388944)
(2.77145768048 -1.83722452167 -0.159338977609)
(2.32072131638 -1.72852137267 0.0523072985927)
(1.6894702811 -1.64038850055 0.241384519012)
(0.991811605338 -1.58852322962 0.333669564057)
(0.324856161503 -1.59933967366 0.362167004435)
(-0.306788713481 -1.59918845179 0.362300885303)
(-0.974055453372 -1.58798746584 0.334266671628)
(-1.67297923519 -1.63921799832 0.242676092986)
(-2.3064685906 -1.72666807443 0.0538101055739)
(-2.75961285059 -1.83488379575 -0.157992659694)
(-2.99099442924 -2.008511656 -0.25881019833)
(-3.07515723098 -2.0746119348 -0.608686733804)
(-2.70654466274 -2.06180918709 -0.739364233514)
(-2.03574951774 -2.03113733554 -0.96197497488)
(-0.819167825539 -1.98362092016 -1.02252588664)
(0.743000092314 -0.741646624489 -1.06541690205)
(1.9916276831 -0.818622927954 -1.02412213673)
(2.73348229132 -0.851843018625 -0.779826191088)
(3.10887624949 -0.847616817517 -0.630962434043)
(2.97532230411 -0.792264020411 -0.311490537553)
(2.75147482161 -0.735719112015 -0.248654322004)
(2.25291551649 -0.701414705623 -0.15867534365)
(1.63094522916 -0.707245960457 -0.106179016846)
(0.968360701012 -0.743677391147 -0.08548627012)
(0.318659675488 -0.791398731057 -0.0998230245034)
(-0.300474360335 -0.791448926307 -0.0997464391642)
(-0.950507679623 -0.743721108862 -0.0851014825026)
(-1.61427379717 -0.70702504137 -0.105348679575)
(-2.23829615182 -0.70073260474 -0.157547471164)
(-2.7394504987 -0.734678985526 -0.247509983039)
(-2.96506362979 -0.791117473304 -0.310173959075)
(-3.10163880638 -0.846287469196 -0.629499020526)
(-2.72811348766 -0.850565743958 -0.77871809525)
(-1.9888518715 -0.817513902774 -1.02315509706)
(-0.742404786762 -0.74079559549 -1.06465840194)
(0.582133236807 0.580325627656 -4.4731996092)
(1.35520260645 0.55984647707 -4.05653917557)
(1.84767219511 0.757254450792 -3.22978189288)
(1.76559597429 0.886368980369 -2.53258368689)
(1.45391486713 0.91343703668 -1.97838068252)
(1.12641656872 0.925003483007 -1.42910344858)
(0.681411245344 0.925790038689 -1.03269657253)
(0.297159517687 0.941919816013 -0.855002882578)
(0.0690688022022 0.974075555958 -0.845862280747)
(-0.00796679425633 1.04793639943 -0.901576823073)
(0.0133822581907 1.04776005207 -0.900594312919)
(-0.0645328992595 0.973631590997 -0.843085061616)
(-0.294456892909 0.941084919328 -0.850295659771)
(-0.680939218541 0.924804633877 -1.02690847939)
(-1.12788537966 0.923978500408 -1.42290365649)
(-1.45654953694 0.912652524475 -1.97298819012)
(-1.76838719327 0.886031087379 -2.52817612049)
(-1.85053900073 0.757021651949 -3.22651266164)
(-1.35709949223 0.559504529153 -4.05369297937)
(-0.583901339874 0.579271164837 -4.47170998847)
(0.562226292315 1.34768845304 -4.05521971191)
(1.33108769744 1.32486102441 -3.21819572458)
(1.86411678775 1.63255783071 -2.38518359066)
(1.97558253369 1.98117498633 -1.69822085017)
(1.80331569477 2.15983199628 -1.13806326749)
(1.50013405934 2.19977098503 -0.61178405052)
(1.06228954675 2.15787450626 -0.15585588659)
(0.58683797885 2.05556253363 0.172347495884)
(0.24314097391 1.87996138266 0.334379650061)
(0.0671869706119 1.79813771376 0.401752521617)
(-0.0629075201371 1.79769563934 0.402588431145)
(-0.239628463581 1.87911091134 0.33683149301)
(-0.584933002781 2.05399392878 0.176328911103)
(-1.06237223728 2.15612865913 -0.151122921498)
(-1.50202723745 2.19833647551 -0.607314698076)
(-1.80621413043 2.15895565853 -1.13437517067)
(-1.97858273822 1.9810980699 -1.69566110317)
(-1.86667362969 1.63290025683 -2.38362722162)
(-1.33311677443 1.32530215543 -3.21686217954)
(-0.563106313045 1.34771335384 -4.05564317032)
(0.759300044252 1.83667317157 -3.22885582661)
(1.63802341154 1.85425629898 -2.38500118741)
(2.25669820288 2.24756390309 -1.4359610976)
(2.40848373733 2.6009071734 -0.731576530046)
(2.28419722022 2.72249868856 -0.193683022702)
(2.02630506817 2.6461434794 0.302636062367)
(1.64895203338 2.45781131493 0.789106639849)
(1.16639052284 2.23228192929 1.24365221272)
(0.663544274017 2.04820899276 1.63483824505)
(0.213456482111 1.92042514944 1.7680836231)
(-0.20977938838 1.91976715679 1.76868107153)
(-0.660613223523 2.04650555982 1.63626872745)
(-1.16525853913 2.2299950234 1.24536021106)
(-1.6493630522 2.45575327974 0.791936823753)
(-2.02820696839 2.64491286668 0.305225558243)
(-2.28696628985 2.72242122636 -0.191720407212)
(-2.41135510467 2.60191084521 -0.730612570717)
(-2.25901734234 2.24917903799 -1.43618518453)
(-1.64006260758 1.8558380594 -2.3852524308)
(-0.760270344986 1.8375855839 -3.23023405794)
(0.887936482906 1.75091411309 -2.53194089081)
(1.98681204288 1.96248775494 -1.69695324213)
(2.60929941941 2.39640627103 -0.730723730812)
(2.73378392725 2.72260161063 -0.0862420977274)
(2.58885476539 2.7469667017 0.359179755216)
(2.30221818586 2.54731124887 0.731141082054)
(1.91966001016 2.19846322372 1.10938408212)
(1.45382764346 1.82720567328 1.50799336392)
(0.90453592354 1.55236251003 1.85200460963)
(0.307055753939 1.39544651492 2.03033504058)
(-0.303687735686 1.39484690859 2.03081676244)
(-0.901799047599 1.55053087508 1.85337485583)
(-1.45219859029 1.82522804121 1.50964562297)
(-1.91955403196 2.19708389494 1.1111133482)
(-2.30354944059 2.54708084622 0.732452351507)
(-2.59112895251 2.7488742018 0.360014799236)
(-2.7362713632 2.72530094249 -0.0859765462737)
(-2.61136827246 2.39978423764 -0.73167780085)
(-1.98803541716 1.96585272669 -1.69868877122)
(-0.88893521229 1.75350127327 -2.5338477819)
(0.914785511343 1.43733851969 -1.97750497695)
(2.16483441365 1.78725556349 -1.1362326388)
(2.73024048592 2.26941727981 -0.192018170891)
(2.75742967462 2.57508995377 0.360057281324)
(2.54955898167 2.53652825131 0.67012338638)
(2.24249973721 2.23508544969 0.843991054185)
(1.86345014714 1.80196176255 1.01382255469)
(1.43479134514 1.34117142592 1.22460444421)
(0.903539972939 0.970878130825 1.54197919128)
(0.313802516484 0.779579810868 1.67834896687)
(-0.310006324036 0.779149397653 1.67872254868)
(-0.900418986372 0.969764800482 1.54295414508)
(-1.43278904625 1.34006406435 1.22556303128)
(-1.86279427788 1.80169006926 1.01454373957)
(-2.24242167291 2.2362964392 0.84444116015)
(-2.55087269213 2.53940663253 0.669723226646)
(-2.75977482626 2.57953398704 0.359702400855)
(-2.73195305814 2.27479361121 -0.193254710995)
(-2.16591556787 1.79296111213 -1.13821928697)
(-0.915288576949 1.44183560517 -1.97971473154)
(0.926397204454 1.1074228398 -1.42900657343)
(2.204418365 1.48135442909 -0.61033095818)
(2.65368045382 2.00911994419 0.304647411596)
(2.55749534985 2.2863323051 0.732654953063)
(2.2477509859 2.22743829722 0.844663138482)
(1.9136355019 1.89896972187 0.816239969056)
(1.57043273561 1.45476652792 0.785145279189)
(1.20194082543 1.00089846473 0.819671428435)
(0.778570978449 0.6364123208 0.912675011912)
(0.272831955154 0.415508030143 1.10728406669)
(-0.268239347497 0.415202974651 1.10796690188)
(-0.774718724597 0.635946970394 0.913187264128)
(-1.19903583618 1.00092224103 0.820095317232)
(-1.568685199 1.45596879378 0.785336466557)
(-1.9130214532 1.90186119659 0.816204200445)
(-2.24793963366 2.23157574326 0.844565892941)
(-2.5581930282 2.29264822628 0.73218938752)
(-2.65475873625 2.01670294151 0.303476167093)
(-2.20537421602 1.48932836072 -0.611971220824)
(-0.92656440498 1.11416185448 -1.43056511533)
(0.927557904255 0.6612648997 -1.03574692901)
(2.16238669803 1.0416434305 -0.156175865315)
(2.46565592379 1.62997588659 0.790645395439)
(2.20887246109 1.90241026866 1.11110586721)
(1.81463737828 1.84712606661 1.0149135465)
(1.4693414211 1.55454740575 0.785612758621)
(1.17473952787 1.15902626662 0.591776380158)
(0.902117892272 0.768681199142 0.505705025324)
(0.582095597524 0.446486554666 0.601249183118)
(0.206399184749 0.275934817125 0.620576437995)
(-0.200527230939 0.275941275911 0.620810080887)
(-0.576993902543 0.446950914121 0.601463095633)
(-0.897923337194 0.769930219582 0.506089350878)
(-1.17164680869 1.16175289339 0.591950927855)
(-1.46737840942 1.55915980642 0.785618478175)
(-1.8135150942 1.85373086683 1.01499150394)
(-2.20842517201 1.91053011945 1.11104004984)
(-2.46595599928 1.63967822412 0.789950476376)
(-2.16316956389 1.05147892193 -0.157123673329)
(-0.927366390977 0.669708246627 -1.03628019357)
(0.943793420961 0.278295145355 -0.860978564334)
(2.05947909299 0.56633924083 0.169328906685)
(2.24071469821 1.14734791979 1.24294637702)
(1.83850491333 1.43665759631 1.50915233101)
(1.35422181533 1.41828521361 1.22545197446)
(1.0157259255 1.18584622049 0.820069530557)
(0.784494901773 0.886458238328 0.505780978686)
(0.591986189522 0.576452841578 0.389237513586)
(0.387828360755 0.3277891033 0.323877709471)
(0.138782443293 0.20234583411 0.288176336915)
(-0.131384195523 0.20262966638 0.288256560373)
(-0.381150740263 0.328884426367 0.324161128751)
(-0.586359406455 0.578798368847 0.389881268471)
(-0.780060306541 0.890529581455 0.506369175099)
(-1.0125212994 1.19189475841 0.82076934349)
(-1.35202615141 1.42622273896 1.22644785811)
(-1.8370356363 1.44593937941 1.50990468456)
(-2.2406133843 1.15797572932 1.24330480491)
(-2.06068156382 0.577003729003 0.169082622558)
(-0.943643619629 0.287457882094 -0.861139201715)
(0.976076102471 0.0519880425859 -0.853839099958)
(1.88310915015 0.226095387749 0.329073574814)
(2.05710629097 0.647278863574 1.63375975305)
(1.56418109478 0.888681098722 1.85158858593)
(0.984090439387 0.88825925341 1.54148636122)
(0.651793151941 0.763467884857 0.911637191127)
(0.462413738194 0.567771684941 0.601755286712)
(0.343292908986 0.374266368365 0.323561348593)
(0.231576769478 0.218276702602 0.165583955251)
(0.0863938993496 0.141466744084 0.0887818403437)
(-0.0776951281914 0.141956346338 0.088794807678)
(-0.223555680937 0.219887374578 0.165839846662)
(-0.336395376823 0.377370836629 0.324332357921)
(-0.456950517812 0.572810931136 0.602993308474)
(-0.647752495257 0.770399244901 0.913458890709)
(-0.981515199858 0.896958727949 1.5439623131)
(-1.56273424544 0.898583130442 1.85364184521)
(-2.05725477649 0.657625877009 1.63446910809)
(-1.88463925107 0.236711423201 0.328967634003)
(-0.976189339303 0.0618001455292 -0.854400489231)
(1.05078234162 -0.0213460337767 -0.910569368502)
(1.80350448601 0.0544902322319 0.396906608274)
(1.92888155388 0.200341852253 1.76488763131)
(1.40651137428 0.293667328653 2.02804229412)
(0.79252284044 0.301120499286 1.67636474478)
(0.431594128638 0.261021528083 1.10074058626)
(0.293089161243 0.195700429314 0.618321392739)
(0.218252405184 0.129340707487 0.28685957145)
(0.154663465902 0.0777435076894 0.0880970569733)
(0.0607496404734 0.052486182448 -0.0092995606415)
(-0.0509089323719 0.0531760575079 -0.00927457808565)
(-0.145531971214 0.0798388960261 0.0884162024186)
(-0.210300987244 0.132967993769 0.28785754907)
(-0.286731150723 0.201081269197 0.62037409036)
(-0.427089990828 0.268158678746 1.10369578677)
(-0.789886762136 0.309899753685 1.67997202579)
(-1.40574053612 0.303696014105 2.03112785372)
(-1.92961740764 0.210821678821 1.7663303285)
(-1.80481956851 0.065164701692 0.396219311387)
(-1.05132392114 -0.010793552283 -0.912151116165)
(1.05020931966 0.00661510032773 -0.908932488745)
(1.80300102802 -0.0721388975323 0.397365994193)
(1.92792797071 -0.219822897003 1.76467580524)
(1.40550437852 -0.313429079027 2.0275194986)
(0.791737903293 -0.318844843212 1.67581945806)
(0.430759208783 -0.275510635018 1.10199000746)
(0.292534186021 -0.206380414741 0.618653939871)
(0.218067964769 -0.135710730842 0.287279386387)
(0.154766975422 -0.0805486211015 0.0886595733465)
(0.061226329457 -0.0529110370139 -0.00878275550345)
(-0.0501132863735 -0.0520566435248 -0.00862522891274)
(-0.144435360731 -0.0780590309366 0.0893676993705)
(-0.209076271686 -0.131702569204 0.288902011534)
(-0.285472412716 -0.200871588762 0.621374410555)
(-0.425889462721 -0.268561541428 1.10503638603)
(-0.78895913562 -0.31050971279 1.68039069033)
(-1.40494663308 -0.30386286447 2.03133993811)
(-1.92907389172 -0.209556173082 1.76645160554)
(-1.80459892549 -0.0615455297748 0.396392667677)
(-1.05130672822 0.0179106824418 -0.911848778658)