/*--------------------------------*- C++ -*----------------------------------*\
| =========                 |                                                 |
| \\      /  F ield         | OpenFOAM: The Open Source CFD Toolbox           |
|  \\    /   O peration     | Version:  3.0.1                                 |
|   \\  /    A nd           | Web:      www.OpenFOAM.org                      |
|    \\/     M anipulation  |                                                 |
\*---------------------------------------------------------------------------*/
FoamFile
{
    version     2.0;
    format      ascii;
    class       volScalarField;
    location    "0.4";
    object      alpha.air;
}
// * * * * * * * * * * * * * * * * * * * * * * * * * * * * * * * * * * * * * //

dimensions      [0 0 0 0 0 0 0];

internalField   nonuniform List<scalar> 
7968
(
1.50734315036e-48
1.40641701657e-43
4.63150962246e-39
7.06538454455e-38
1.58643817193e-36
7.51352161952e-36
2.26923198859e-35
4.20864579161e-35
8.03881802459e-35
1.1756802048e-34
1.30761616814e-34
1.10935709443e-34
7.80299775597e-35
6.73438924227e-35
3.94724053775e-35
1.28269235162e-35
2.58465131206e-36
3.03928430486e-37
4.65792280385e-39
3.49229440507e-44
2.16110943977e-43
4.84387545823e-38
2.08783721323e-36
3.09734168436e-35
1.79111852528e-34
8.29272864604e-34
2.8115144704e-33
8.08012447369e-33
1.48721668388e-32
1.96419917483e-32
2.40440325769e-32
2.11436560376e-32
1.63470242678e-32
1.12535523558e-32
4.14989255124e-33
1.31150209044e-33
3.85503175023e-34
5.2256115095e-35
3.86823494342e-36
4.24050966613e-39
6.59305905373e-39
3.07683585811e-36
4.73288029772e-35
4.28687254981e-34
4.40547656167e-33
4.88018262609e-32
2.66858671627e-31
5.46410212019e-31
6.17730140705e-31
4.85482359385e-31
4.67034740604e-31
5.5339861863e-31
4.36980642988e-31
2.62097186906e-31
7.90111912428e-32
1.81898513982e-32
3.33916653522e-33
7.50458814185e-34
6.42652556485e-35
3.38535452987e-37
1.70021239442e-37
3.34406083232e-35
3.94664356885e-34
1.20422897528e-32
2.51415002938e-31
1.52225386902e-30
3.26290219253e-30
3.62517733333e-30
2.585786489e-30
1.21478511077e-30
9.45816830141e-31
1.07052174761e-30
1.06271360357e-30
1.01314509426e-30
6.60072419683e-31
2.30809869503e-31
2.90617478866e-32
3.4390685483e-33
4.71340568678e-34
2.84438971316e-36
1.4584835815e-36
1.83323688594e-34
5.72880662886e-33
2.59342261955e-31
2.86205085172e-30
8.36929009611e-30
6.971056742e-30
9.38507826302e-31
5.06387476072e-32
1.40762298202e-32
3.54095399964e-33
3.45737520637e-33
9.33528187977e-33
1.44133644582e-31
1.06104301079e-30
7.22987279018e-31
1.99559962188e-31
1.78891074146e-32
1.25985259695e-33
1.09910771863e-35
6.45449268028e-36
6.91808997342e-34
4.83412337246e-32
1.38814791493e-30
8.21453729579e-30
5.15724130782e-30
4.35728920396e-32
2.58241688912e-33
6.80773428701e-34
3.39626567089e-34
1.49268247842e-34
3.30721571036e-35
2.14810016172e-35
1.75736224219e-34
3.66259323409e-33
6.28374228669e-31
3.898195377e-31
5.73044201849e-32
3.00378976995e-33
2.37924351997e-35
1.39440366207e-35
2.12808660017e-33
1.92512307272e-31
2.91601548202e-30
5.56890512178e-30
1.74398263167e-32
1.34756615504e-34
7.22392883885e-35
2.25574546725e-34
8.89736492617e-35
9.63143206803e-35
6.66061975979e-35
1.46954594356e-37
2.64262814737e-36
1.22670821956e-35
5.24477470839e-33
2.91591964866e-31
9.58838148673e-32
6.00148599327e-33
1.94927302812e-35
2.04351402996e-35
5.19385536458e-33
3.81556310797e-31
2.65008061231e-30
3.69690828819e-31
9.74592695899e-34
2.19253938022e-35
7.29239986981e-34
1.40471971462e-34
7.53829824422e-34
4.34054178103e-34
1.30796596756e-36
7.91621919714e-36
2.18994595044e-38
3.64053765308e-37
5.46706790176e-35
7.08772683591e-32
9.22798709609e-32
6.44954954986e-33
9.4595036963e-36
2.54306044035e-35
8.58959537486e-33
3.82079282571e-31
1.4046857655e-30
7.80388139618e-33
1.21177905094e-34
1.8013235924e-34
2.14088631333e-34
1.29170666536e-36
2.65955173163e-36
1.42120976351e-36
5.12094693257e-38
2.69597422561e-36
5.18675850344e-39
7.78547372345e-38
4.65808904315e-36
4.33775538055e-33
5.0099946427e-32
5.4858072032e-33
5.08379328453e-37
3.45337821296e-35
1.26870564006e-32
3.44301913402e-31
5.83592471178e-31
1.20357185415e-33
9.77816263826e-35
1.93760804282e-34
3.05621212875e-34
1.14963884327e-36
7.059716114e-39
3.60626142363e-39
9.33446789352e-37
1.55723803464e-35
3.1004427907e-36
7.84007611646e-37
1.70277949595e-36
1.15147131794e-33
3.22737589891e-32
5.30350101437e-33
1.04700757228e-40
3.05204792623e-35
1.33849297801e-32
2.5471528515e-31
3.3127936962e-31
5.10464948853e-34
2.88421857728e-35
1.22385379922e-34
3.88184516373e-34
9.91900383972e-37
1.85307357658e-39
4.36335289097e-41
1.53083522453e-38
7.44473157294e-36
4.96733180539e-37
5.85104368724e-37
9.8428396211e-37
5.72369598003e-34
2.18130699769e-32
4.69756214404e-33
2.23699621946e-43
2.9105270419e-35
1.14944735417e-32
3.21224608765e-31
4.83288780765e-31
8.19617470626e-34
2.83515917715e-35
3.16415640449e-35
1.07817534377e-36
3.76506272654e-38
2.60216935339e-37
1.21325524895e-38
3.49808449242e-39
1.55073812874e-38
9.86532852386e-39
1.11211401887e-37
1.34447690105e-36
8.39013714225e-34
2.92715402934e-32
4.64550247092e-33
8.00528264828e-39
2.7380275724e-35
8.8560742809e-33
2.83062003329e-31
6.56453660302e-31
2.8680108779e-33
9.009105512e-36
4.25254719253e-38
4.94311003247e-36
3.23362770314e-36
2.83864940151e-34
5.35269354678e-36
6.79687597207e-38
1.13967973359e-37
7.43580577971e-39
1.62295861977e-38
1.01413451401e-35
4.99075966484e-33
4.29160604237e-32
4.62287136801e-33
3.1540516552e-37
2.53520900046e-35
5.75981096068e-33
1.94305554821e-31
1.04814274207e-30
1.36183000876e-31
1.80770093947e-34
1.36467363796e-36
9.10695304546e-38
3.35065897461e-39
1.26870113042e-36
3.72100156395e-37
1.02099707867e-38
7.02491719961e-39
2.74626008339e-38
8.57700170336e-37
3.55802275248e-34
5.10985547879e-32
3.98628244951e-32
3.65441383778e-33
7.19828711412e-36
1.77063849004e-35
2.33935341889e-33
6.45073228084e-32
6.95880574523e-31
1.26433182778e-30
9.53470279705e-33
3.18419799994e-35
9.96147403483e-37
2.68746663239e-38
3.81408271049e-37
2.70555744878e-37
2.33698970492e-37
2.39056189239e-38
7.22134900928e-37
7.46168196202e-35
1.03527492747e-32
1.07702058217e-31
2.64081829826e-32
2.2035025563e-33
1.13510975839e-35
7.37401294448e-36
8.58843181935e-34
1.43592519894e-32
1.97154158211e-31
9.89516524781e-31
1.04843648349e-30
1.20540870985e-32
1.38931548939e-34
6.84804644696e-36
2.23419587172e-36
1.18088056875e-36
1.79047346592e-36
1.17350024386e-35
1.57048445366e-34
7.53345588025e-33
1.12674731429e-31
6.93984603969e-32
1.12403012799e-32
1.18574090023e-33
9.74399684276e-36
1.28893269422e-36
2.45588076399e-34
2.15810690653e-33
2.08365512738e-32
1.87135119434e-31
4.63625590781e-31
3.95335216035e-31
1.23032400892e-31
6.25775181972e-33
1.58307574913e-33
6.53560043284e-34
1.00559149364e-33
3.87685499315e-33
3.35302404385e-32
8.6600927861e-32
6.06063957999e-32
1.63840475998e-32
3.30152269083e-33
6.23476038289e-34
2.66926971377e-36
1.47614820906e-37
4.3554152373e-35
4.58271997485e-34
2.1814065483e-33
1.34384930061e-32
4.65755757688e-32
9.36888911049e-32
1.03720186409e-31
5.82793040514e-32
4.04006285916e-32
2.98256483202e-32
3.32985487269e-32
3.8176081532e-32
3.87367829932e-32
2.49326622895e-32
9.95861205395e-33
3.57307455927e-33
8.06013327841e-34
1.01004548054e-34
4.61188579575e-37
2.14418098844e-39
2.96443304176e-36
4.95610585246e-35
2.78884527613e-34
9.93202457988e-34
2.337034968e-33
4.85207360764e-33
5.63633153036e-33
6.19449461163e-33
6.28731083114e-33
5.88372635586e-33
4.58543366188e-33
3.85875615333e-33
3.26196165205e-33
2.78299049902e-33
1.16495717828e-33
6.1463455502e-34
1.58474093736e-34
9.93936229642e-36
1.27916894418e-38
1.77308879462e-44
2.35401559263e-39
1.91741672864e-37
1.64166762519e-36
7.03132045507e-36
1.5099223735e-35
1.59271706834e-35
8.41935822813e-36
3.47621987336e-37
7.98247065827e-41
3.19855522207e-43
1.09335483312e-41
1.65224199504e-37
6.02326264738e-36
1.06936634931e-35
9.93944043684e-36
3.35948271809e-36
5.10465850129e-37
1.78386655104e-38
1.86933075164e-43
7.01918582496e-46
7.01252540513e-39
1.73268050863e-34
2.60006402291e-33
5.74362103401e-32
2.98366302282e-31
9.78296663527e-31
2.11662673213e-30
4.71680888876e-30
7.82371114778e-30
9.00128879646e-30
7.10324711285e-30
4.40364814562e-30
3.11254107986e-30
1.52674426346e-30
4.47601983134e-31
8.37792663316e-32
9.9001713323e-33
2.13033817349e-34
8.56779768168e-40
8.3859064206e-39
1.13712531186e-33
3.69218769383e-32
4.9067490561e-31
2.76387920601e-30
1.21397073065e-29
4.07473339704e-29
1.17642188901e-28
2.21411939797e-28
3.08828863599e-28
3.64058090851e-28
3.15628411078e-28
2.34255807571e-28
1.53614603605e-28
5.72434664997e-29
1.80486625656e-29
5.42190522819e-30
7.84799247518e-31
7.23409329375e-32
1.91430140415e-34
2.42725519755e-34
5.33234293145e-32
6.47019557211e-31
5.3104522584e-30
4.76165667378e-29
4.48885222239e-28
2.42080528358e-27
5.21877512598e-27
6.32414477212e-27
5.27297569015e-27
5.14689695443e-27
5.93257340351e-27
4.46240137624e-27
2.51438408398e-27
7.48043108449e-28
1.80631649048e-28
3.6230985661e-29
8.99517975454e-30
9.53202667881e-31
1.0967263141e-32
6.06929515144e-33
5.31229579801e-31
4.92345563999e-30
1.12059208007e-28
2.12414083387e-27
1.35338448838e-26
3.19688711376e-26
4.30520934281e-26
3.71351433635e-26
1.98421285889e-26
1.60228474587e-26
1.74943471257e-26
1.52077223871e-26
1.18823512432e-26
6.67342088431e-27
2.10171549033e-27
2.72553072587e-28
3.74535649695e-29
6.52344376664e-30
9.5971151067e-32
5.44980467835e-32
2.84368227833e-30
6.06788759482e-29
2.20142919007e-27
2.53831912993e-26
1.02756184958e-25
1.34429409734e-25
4.03855054684e-26
5.24579646676e-27
2.11377486516e-27
5.68562223336e-28
4.94572916428e-28
9.34773415961e-28
4.88772053204e-27
1.892118638e-26
8.05697274271e-27
1.88513693996e-27
1.7969808454e-28
1.75896803024e-29
4.29674171406e-31
2.68492261428e-31
1.03434210671e-29
4.47087246596e-28
1.2598912354e-26
1.02951573844e-25
1.38678973354e-25
6.58961194353e-27
4.91352489051e-28
2.22739211173e-28
1.33680928524e-28
4.9474710643e-29
9.92428238679e-30
3.08323005045e-30
1.10139294668e-29
3.54010562977e-28
1.29677389189e-26
4.47931219197e-27
5.87045266969e-28
4.3571255311e-29
1.1683444512e-30
6.80581780176e-31
3.19904998675e-29
1.83715677097e-27
3.02069246557e-26
1.15393586221e-25
2.83549834483e-27
2.9777895972e-29
2.11016945447e-29
4.24451154665e-29
1.70601377109e-29
1.65624880807e-29
1.0694233482e-29
2.62737229968e-32
3.54486079328e-31
1.91916743628e-30
3.71114830588e-28
4.54848390099e-27
1.1135418557e-27
8.95036914824e-29
1.50520065021e-30
1.22458311262e-30
7.7304269558e-29
3.92513463812e-27
3.40292572592e-26
2.0907087067e-26
1.85803603887e-28
7.67418625214e-30
1.55568359879e-28
2.81474749286e-29
1.29618549989e-28
7.21741820138e-29
2.77918267405e-31
1.16225538399e-30
3.0889542065e-33
5.4884056492e-32
5.03988299754e-30
1.71694353453e-27
1.27327685171e-27
1.11364395274e-28
1.68144736466e-30
1.97821592113e-30
1.32393638828e-28
4.2847051607e-27
2.36800933287e-26
1.14522672276e-27
3.11932109907e-29
3.69288991516e-29
5.76883580317e-29
2.48187255322e-31
4.81142177071e-31
2.2545639504e-31
6.92942136754e-33
3.65494908985e-31
7.65263022394e-34
1.18814131293e-32
3.19717113525e-31
1.85477546056e-28
8.26492274189e-28
1.09526321396e-28
1.39193796282e-30
3.40356140988e-30
2.02167680204e-28
4.07108587801e-27
1.11694252659e-26
1.85587308543e-28
2.46597286951e-29
3.95978268383e-29
7.54942691644e-29
3.14192318578e-31
1.57987645559e-33
5.86278144316e-34
1.2609668431e-31
3.15503720329e-30
3.97533326862e-31
1.12696494867e-31
2.19877329779e-31
7.37998302266e-29
5.98126549874e-28
1.17389808416e-28
1.09145804059e-30
3.27709104674e-30
2.10261068714e-28
3.11871938456e-27
6.68715760819e-27
6.32895316731e-29
8.13878576624e-30
2.50797154175e-29
8.96151705589e-29
2.4720124336e-31
4.36621169459e-34
7.63982603748e-36
2.51699880344e-33
9.13216536199e-31
6.73287503112e-32
7.30046145887e-32
1.64914717829e-31
3.93555377534e-29
4.27818365896e-28
1.06012959446e-28
7.03681816287e-31
2.66423660509e-30
1.80853766807e-28
3.80649742551e-27
9.4826460076e-27
1.16943514906e-28
8.44271385809e-30
7.19389025153e-30
3.34013002055e-31
5.84711093372e-33
3.32891595573e-32
2.41903356849e-33
4.33831570218e-34
1.57962739963e-33
2.30217835498e-33
1.23425337289e-32
1.73511860553e-31
5.36402780467e-29
5.52728981705e-28
9.82986795732e-29
8.13221037334e-31
1.93282538013e-30
1.31268601832e-28
3.16245629417e-27
1.05916827881e-26
3.54923949799e-28
1.97454313292e-30
1.15709787416e-32
1.3316548349e-30
4.74397518467e-31
3.15123724309e-29
6.49859537618e-31
8.9021789858e-33
1.27524088064e-32
7.38945254032e-34
4.82190981806e-33
1.86463671533e-30
2.03288667351e-28
7.19277272441e-28
9.14506318789e-29
8.57057351202e-31
1.35480742692e-30
8.20438515821e-29
2.00829892854e-27
1.33352731982e-26
5.46158924414e-27
1.90850296987e-29
4.22756161857e-31
2.13394891023e-32
4.64068455088e-34
1.54999601865e-31
4.61552901571e-32
3.91983982281e-33
6.14574984586e-34
7.36412041457e-33
2.85645774892e-31
4.728020801e-29
1.16200185547e-27
5.79783680387e-28
6.60493422323e-29
1.15854889956e-30
7.52562601473e-31
3.35762328542e-29
6.38568376534e-28
7.50918095067e-27
2.14747094406e-26
9.42652347411e-28
4.8383204494e-30
3.94206891324e-31
5.51426843706e-33
1.45675402026e-31
9.91127659243e-32
5.17123658875e-32
8.66148332405e-33
3.3997845441e-31
1.60906918586e-29
4.00439457465e-28
1.72459293104e-27
3.37382993891e-28
3.79317329573e-29
8.55098778153e-31
2.80269042343e-31
1.23290241217e-29
1.45559996668e-28
1.8805024809e-27
1.14611214254e-26
2.16092094518e-26
8.44961562958e-28
2.28444275069e-29
5.11466895824e-31
2.2398514127e-31
1.87393797554e-31
2.55217260384e-31
2.61813367215e-30
2.00975822804e-29
2.97087521797e-28
1.98000529829e-27
8.50343072264e-28
1.35162540022e-28
1.87058330193e-29
4.90718439384e-31
4.46660976498e-32
3.55860812684e-30
2.41589959481e-29
1.99164810908e-28
1.81499223228e-27
5.48602518246e-27
6.25649337698e-27
2.90841063099e-27
2.68889802504e-28
9.73723910749e-29
4.77642881855e-29
6.06890451998e-29
1.57820759335e-28
7.92278824014e-28
1.40713906076e-27
7.46658445386e-28
1.86245193823e-28
4.02541494268e-29
9.28998868101e-30
1.12079455455e-31
5.12767043099e-33
6.70652262942e-31
5.65504364805e-30
2.44079707121e-29
1.37331604258e-28
4.98820251816e-28
1.12301897991e-27
1.43619336637e-27
9.5769311347e-28
7.40968043942e-28
5.86859125244e-28
6.27714882255e-28
6.43188433342e-28
5.61513000862e-28
3.16396790092e-28
1.20809620627e-28
4.30043527666e-29
1.02807821374e-29
1.63761188257e-30
1.78611985705e-32
1.06933505027e-34
5.73796832364e-32
7.51581740891e-31
4.04831742868e-30
1.42052785844e-29
3.44182275549e-29
7.55189136299e-29
9.8599818205e-29
1.19843119642e-28
1.31551447851e-28
1.28187041471e-28
9.90904857976e-29
7.78786373497e-29
6.00220966799e-29
4.61059712848e-29
1.84243295789e-29
9.14115066557e-30
2.44359626421e-30
1.93287659122e-31
7.01866396633e-34
4.78160220359e-40
1.14199859967e-34
6.54233987323e-33
5.84879653515e-32
2.83831605999e-31
7.79518236115e-31
1.25001527285e-30
1.54897834099e-30
1.51536952012e-30
1.35245842301e-30
7.67643390304e-31
7.37044959473e-31
1.01835590147e-30
1.12141165467e-30
8.50720138606e-31
5.05590514764e-31
1.39552006147e-31
1.98352680059e-32
9.57536223689e-34
2.78958096092e-41
6.99058740951e-41
1.47707896948e-34
2.77371856834e-30
3.90487054837e-29
7.92836382928e-28
4.21601820427e-27
1.39560840855e-26
3.19686841753e-26
7.61779800373e-26
1.33665168526e-25
1.55258516606e-25
1.18215866238e-25
7.00269045158e-26
4.42083989845e-26
1.98251362164e-26
5.63316689079e-27
1.05493117385e-27
1.30928431707e-28
3.96108793799e-30
1.01989581052e-35
1.76160875226e-34
1.28784289321e-29
3.18813174951e-28
3.70671047088e-27
1.97893839335e-26
8.06409057584e-26
2.64957565949e-25
7.64289505862e-25
1.47514420666e-24
2.16191912764e-24
2.46334768394e-24
2.10829595226e-24
1.50887619381e-24
9.43144937924e-25
3.55805788545e-25
1.13006851461e-25
3.56240667031e-26
5.64414663669e-27
6.40489129061e-28
3.61188732403e-30
3.84510471642e-30
4.49414261112e-28
4.37787289489e-27
3.18171181863e-26
2.40789682582e-25
1.90450195441e-24
9.80801408152e-24
2.208928039e-23
2.86003636251e-23
2.54708048227e-23
2.52690695013e-23
2.82081472121e-23
2.02960452345e-23
1.08380635989e-23
3.28765447019e-24
8.51332616734e-25
1.86704417368e-25
5.2158736113e-26
6.78639210571e-27
1.46972163068e-28
8.77955613154e-29
4.02722651553e-27
2.96906331889e-26
4.87372030132e-25
7.94953590681e-24
5.16912658315e-23
1.31367206666e-22
2.14360247659e-22
2.35146953041e-22
1.48695995149e-22
1.25875045345e-22
1.32633313003e-22
9.54017050896e-23
6.00571947949e-23
2.95281844882e-23
8.60834170077e-24
1.2102081761e-24
1.92914682987e-25
4.18567531848e-26
1.25595209695e-27
7.79763895617e-28
2.04831155101e-26
2.99263191169e-25
8.25597001779e-24
9.4034396796e-23
5.22293165512e-22
1.10173705436e-21
9.83147922878e-22
4.36751886616e-22
2.95291143099e-22
1.14959883382e-22
1.10640685633e-22
9.83381198832e-23
1.05048850428e-22
1.50668632713e-22
3.88235790879e-23
7.98943424326e-24
8.49568530515e-25
1.11330546205e-25
5.92976998441e-27
3.9462310792e-27
6.98854838535e-26
1.89485050904e-24
4.89794131491e-23
5.34354292739e-22
1.59714946861e-21
3.7599342967e-21
6.16169662749e-21
5.23853039509e-21
3.41877675098e-21
2.24731390993e-21
1.20926501498e-21
3.69433059094e-22
1.54066270148e-22
5.32234579291e-23
1.22135925658e-22
2.26125519603e-23
2.76056889043e-24
2.83083279363e-25
1.76753190267e-26
1.07001920127e-26
2.14584240177e-25
7.83583098491e-24
1.31091046402e-22
9.99866580601e-22
2.84727290954e-21
6.46305561621e-21
2.05039507854e-20
3.45381298451e-20
2.49036783419e-20
2.1426533026e-20
1.74613932965e-20
3.52493121812e-21
1.08817983761e-21
1.13075864366e-22
2.26674339094e-23
3.16031697689e-23
5.84396705261e-24
5.97749437036e-25
2.88357385042e-26
2.11429039811e-26
5.14848570794e-25
1.78872793911e-23
1.82174772284e-22
7.55489723641e-22
5.66507628204e-21
1.67409558537e-20
8.83957917144e-20
6.47559706778e-20
1.00318244655e-19
7.1099340725e-20
3.06124960864e-20
1.65484663116e-20
1.26419707771e-21
1.00578238461e-22
4.0960921669e-24
1.97720603197e-23
7.93075807163e-24
8.55146174131e-25
4.41298614841e-26
3.85164733526e-26
9.13576785686e-25
2.12716474014e-23
1.78759511354e-22
1.95819375379e-22
3.00187488121e-21
2.81922858853e-20
5.43532798477e-20
1.07194127935e-21
7.83000468577e-22
7.0540909837e-22
3.71643699492e-22
1.01216395374e-20
1.30936263413e-21
1.45369150312e-22
1.36085883395e-25
4.6158583877e-24
6.21335143906e-24
9.65502711702e-25
5.56070518497e-26
7.28041892147e-26
1.43407700101e-24
2.13526971999e-23
1.00924001216e-22
7.4826893254e-23
2.29363699277e-21
2.74860382361e-20
8.00242181749e-20
7.47380692256e-22
4.14755896391e-24
2.87937906797e-24
3.2301287348e-22
4.71904735853e-20
6.54373403919e-21
2.00553259604e-22
1.76251066513e-25
2.70046851719e-24
5.11668942222e-24
1.14685204469e-24
6.81213519421e-26
7.27132318482e-26
1.4729613486e-24
1.70364711407e-23
6.50438355734e-23
2.63716951444e-23
1.34246405454e-21
2.63025305511e-20
7.22594933406e-20
6.11284138291e-22
2.12206116273e-24
8.15695182311e-25
2.60752729218e-22
3.58483705899e-20
5.02294934776e-21
1.06024999952e-22
1.79217676856e-25
1.6339376942e-24
3.98746109535e-24
1.05958762562e-24
5.57923325995e-26
5.52061729028e-26
1.27055050227e-24
2.01825603818e-23
8.86893728987e-23
5.67260511978e-23
1.62364817203e-21
2.44438380504e-20
2.37661171269e-20
1.91551853059e-22
2.44540460712e-22
1.52896926525e-22
2.07237638768e-23
1.38569711912e-21
2.40977626169e-21
4.87196342954e-23
1.60476984098e-25
2.14554743079e-24
4.90326981139e-24
9.16416633494e-25
4.87266196991e-26
3.55196303622e-26
8.75344706399e-25
1.58988167644e-23
7.53697346761e-23
7.18509677933e-23
6.5845188257e-22
5.12818133692e-21
2.52893201382e-20
8.79535226133e-21
3.5070979548e-20
3.10702309216e-20
2.76142947968e-21
7.44329166291e-21
4.27740385859e-21
3.89559605341e-23
1.25082219601e-24
4.64170495913e-24
5.62653150239e-24
8.00717490015e-25
3.41338944089e-26
2.15167975451e-26
5.24445319869e-25
9.41487739607e-24
7.3439204604e-23
1.36596414045e-22
5.33917049235e-22
3.40054350246e-21
5.51602635011e-21
8.81667990415e-22
6.15891392513e-21
3.89417368805e-21
2.899712266e-21
2.63110370295e-21
1.02824741671e-21
8.02023746502e-24
4.68758269713e-24
1.31092368454e-23
3.96062643698e-24
5.32505959491e-25
3.00807102901e-26
1.06481417053e-26
2.16349119322e-25
2.93814046304e-24
3.59443123937e-23
1.55361107332e-22
1.37055592721e-22
3.11735634728e-22
5.90989704354e-22
2.94000757541e-23
1.22514173534e-22
6.13841447132e-23
4.93686788347e-23
4.18245206156e-23
8.99731297198e-24
4.5849676694e-24
9.11402932311e-24
1.29067269145e-23
2.0341087138e-24
2.90020155258e-25
1.6521817043e-26
3.83823857296e-27
8.04432460491e-26
6.92964689944e-25
8.10410775354e-24
5.77933030991e-23
2.01448696758e-22
4.78198071243e-23
1.07421003909e-23
3.81101346213e-25
4.04994532396e-25
2.62343211582e-25
2.88688251549e-25
1.05255389474e-24
2.1572610844e-24
6.93624931719e-24
1.60623708213e-23
4.84143473338e-24
7.6989042e-25
1.33165365113e-25
7.8747280291e-27
6.03507672437e-28
2.41018466462e-26
1.28353187319e-25
8.99378465334e-25
7.93075808914e-24
2.88768712274e-23
4.35287203997e-23
3.28835053038e-23
6.68281471475e-24
3.39841535898e-24
2.04370754539e-24
2.16876127961e-24
3.76312098194e-24
9.46877024386e-24
1.07628770148e-23
4.28276980949e-24
1.00685300776e-24
2.31413489519e-25
6.33460749595e-26
1.68808725107e-27
7.23697583351e-29
4.93351720953e-27
3.38166603694e-26
1.29099329131e-25
6.59490055758e-25
2.47467769426e-24
6.15064894571e-24
9.024613949e-24
7.22853623739e-24
6.33435889152e-24
5.488280901e-24
5.57939636453e-24
5.08817460757e-24
3.7978123126e-24
1.89343198491e-24
6.93854675561e-25
2.4376892082e-25
6.24639344954e-26
1.25706026748e-26
2.67191060362e-28
2.1528863581e-30
5.25600010162e-28
5.48018550953e-27
2.74661844952e-26
9.17641228024e-26
2.27053725132e-25
5.2122036968e-25
7.64510929961e-25
1.01864697192e-24
1.20769506918e-24
1.22892366397e-24
9.41274749368e-25
6.96890859329e-25
4.91479926828e-25
3.38560359748e-25
1.30987466752e-25
6.22339984171e-26
1.76700185617e-26
1.75421212887e-27
1.44966448889e-29
6.91879696655e-36
2.31770477531e-30
9.22129935213e-29
8.02585604336e-28
4.01787373528e-27
1.22859362854e-26
2.4114343432e-26
4.02897243924e-26
5.85201254455e-26
7.82931101575e-26
6.14926656643e-26
4.7813070523e-26
4.12077237348e-26
2.98877906289e-26
1.67178966855e-26
8.13838831798e-27
2.07527379168e-27
2.98035355301e-28
1.92550518201e-29
2.80411611777e-38
9.13316470409e-39
1.82403969132e-30
2.63054048885e-26
3.33427956834e-25
5.90828203108e-24
3.02268062176e-23
9.44945250827e-23
2.18143107921e-22
5.28043630023e-22
9.49077846119e-22
1.09922950764e-21
8.2216161971e-22
4.82647522166e-22
2.86901504405e-22
1.23781811167e-22
3.63778903072e-23
7.27967746295e-24
9.83618420904e-25
4.21294925085e-26
8.39124305654e-33
2.157803886e-30
9.13888470051e-26
1.71603148174e-24
1.70678692554e-23
8.30099997123e-23
3.02995359085e-22
9.6050046789e-22
2.72412743577e-21
5.36464073932e-21
8.15691515931e-21
9.0229812346e-21
7.64824769015e-21
5.34512430916e-21
3.20922659574e-21
1.23940348086e-21
4.02815574054e-22
1.37826573557e-22
2.47218513452e-23
3.44369670936e-24
3.88509647085e-26
3.60618431383e-26
2.35668577478e-24
1.85498744191e-23
1.15601319991e-22
7.08522106916e-22
4.6608512098e-21
2.17537449317e-20
5.00792362231e-20
6.87152750343e-20
6.56851753699e-20
6.61498431927e-20
7.14079782988e-20
4.95756657699e-20
2.56616546208e-20
8.36363907777e-21
2.37842618444e-21
5.69271171127e-22
1.83178710368e-22
2.94203940972e-23
1.1154857209e-24
7.19637689212e-25
1.85865947752e-23
1.0859038695e-22
1.24498701892e-21
1.64136555829e-20
1.03503651059e-19
2.7254710907e-19
5.28081928837e-19
7.99885877836e-19
6.42862272002e-19
5.8637374649e-19
5.93265423525e-19
3.18553635589e-19
1.6045369226e-19
7.07409481456e-20
1.98249630518e-20
3.20620629616e-21
5.8728275766e-22
1.56327694271e-22
8.87875995544e-24
5.99333244213e-24
8.62960540974e-23
8.5409363827e-22
1.69999381488e-20
1.76722255556e-19
1.30009121536e-18
4.56331854375e-18
9.54057497638e-18
1.0187623314e-17
1.15703871708e-17
7.27149449679e-18
7.19353161743e-18
4.7295750949e-18
1.95308778945e-18
6.98052104977e-19
1.01104467226e-19
1.90313366044e-20
2.36412040529e-21
3.99741262246e-22
4.07685241189e-23
2.94210521095e-23
2.66013871736e-22
4.57536541153e-21
9.95633283848e-20
1.36159362291e-18
7.57220622331e-18
2.58048479872e-17
3.8619678759e-17
4.3428336052e-17
4.26726658696e-17
3.65629438316e-17
2.46758889101e-17
1.42544966779e-17
1.19412395204e-17
3.26673734304e-18
6.84958700553e-19
6.23639689724e-20
7.42674308458e-21
1.02231180661e-21
1.21293798989e-22
7.83318275179e-23
7.9624067759e-22
1.82354053266e-20
2.86392605068e-19
4.04830770693e-18
2.24886430244e-17
2.80485008101e-17
5.2085411556e-17
8.43296194248e-17
8.00315440852e-17
7.65163138308e-17
6.34669305442e-17
2.33545473718e-17
1.55610377268e-17
1.1503690696e-17
2.04514755909e-18
1.22052749885e-19
1.70028027166e-20
2.20091341823e-21
2.24471045727e-22
1.58102960685e-22
1.8835447866e-21
4.34643207657e-20
4.68463594901e-19
9.09596132921e-18
3.85167299503e-17
4.63976254427e-17
1.26415115663e-16
1.10252362119e-16
1.83186562519e-16
1.48425225723e-16
8.31600112164e-17
5.47213080395e-17
1.9069346622e-17
1.20235440007e-17
3.47440469506e-18
1.41258601147e-19
2.69558901015e-20
3.5481162607e-21
4.01432464797e-22
3.07460769937e-22
3.44116009646e-21
5.5706887735e-20
7.31436146665e-19
9.12752086786e-18
3.33475897312e-17
7.55247914044e-17
9.69167809053e-17
5.92451923591e-18
5.56443678893e-18
8.58529603298e-18
3.51147869979e-18
4.31808753166e-17
2.06524354632e-17
1.70681969656e-17
2.42376145586e-18
1.08237178317e-19
2.54545597462e-20
4.52233236364e-21
6.06772506407e-22
6.02038125216e-22
5.49888772487e-21
5.87212812063e-20
5.76561655876e-19
7.42386985439e-18
3.62555102643e-17
8.80576170237e-17
1.40473282411e-16
5.57887764385e-18
5.87306710626e-20
8.81349792262e-20
5.43827487764e-18
1.49704598217e-16
5.76511910249e-17
2.57109679856e-17
2.68617932077e-18
1.01202585832e-19
2.38299053479e-20
5.85071138807e-21
8.53671634342e-22
6.13573400264e-22
5.5972053286e-21
4.91998979786e-20
4.16356230077e-19
5.72653408183e-18
3.08395052517e-17
9.42898260219e-17
1.4635644377e-16
7.67701000659e-18
5.96810483664e-20
6.28324922562e-20
4.83458985974e-18
1.34021393484e-16
4.91099428878e-17
2.15733609721e-17
2.77263839649e-18
7.90525466081e-20
2.07091237475e-20
5.52059876231e-21
7.45968291985e-22
4.49150642462e-22
4.84701540841e-21
5.68761376081e-20
5.20291873356e-19
6.75334685862e-18
3.11007466458e-17
8.65823254553e-17
6.95617510545e-17
1.85642152665e-18
3.58507597283e-18
2.96228173947e-18
6.29818234976e-19
1.76058469184e-17
2.5690245393e-17
1.13158405238e-17
2.01797635156e-18
1.43426285685e-19
2.4144519809e-20
4.48161992276e-21
6.0410950457e-22
2.70915161353e-22
3.21023224537e-21
4.30694429045e-20
2.82908603115e-19
5.58510554281e-18
2.0550878541e-17
3.3470139219e-17
7.53984082233e-17
3.61725214214e-17
1.10759538008e-16
1.18092635993e-16
2.05805396892e-17
4.33639734393e-17
3.81348451702e-17
1.32367691779e-17
2.46273183133e-18
1.24868055067e-19
2.46395932672e-20
3.71711250753e-21
3.80229839624e-22
1.52354012108e-22
1.85570354803e-21
2.43808351586e-20
2.11141958751e-19
2.36794559215e-18
2.22600714872e-17
3.23098542623e-17
3.79745651137e-17
2.07582857672e-17
5.71592774033e-17
4.2479279931e-17
2.92621165998e-17
2.93783356828e-17
2.43706755201e-17
1.01638652126e-17
1.68342363016e-18
9.80770516056e-20
1.54706160591e-20
2.31959054953e-21
2.77964639017e-22
7.20565715502e-23
7.76071823422e-22
7.76866342e-21
9.41873554818e-20
5.79743151235e-19
5.45998134672e-18
1.66488368164e-17
2.40188503555e-17
1.44119715645e-17
2.73284838194e-17
2.24312415832e-17
1.3996066341e-17
1.73879585115e-17
1.0473200426e-17
3.30594977737e-18
2.62496295572e-19
5.71277654518e-20
7.10707594871e-21
1.2097596733e-21
1.34362116233e-22
2.71406793715e-23
2.97234489952e-22
1.92488397544e-21
1.97039284097e-20
1.58498798188e-19
1.08489175376e-18
2.33581615948e-18
4.00933682322e-18
3.58248941413e-18
2.73405959933e-18
3.11283712739e-18
2.05673829837e-18
2.59285913809e-18
1.36117433808e-18
2.32615319286e-19
7.68489230634e-20
1.60341334429e-20
2.56359114658e-21
5.31173095447e-22
5.92313080272e-23
4.4733367377e-24
9.61121159803e-23
4.01781736325e-22
2.41033073337e-21
1.95126335857e-20
8.4266502689e-20
1.60583244129e-19
2.21505897582e-19
1.5176170687e-19
1.15691469387e-19
9.44525476408e-20
9.86704902483e-20
1.17833665771e-19
7.88403475367e-20
4.88276759543e-20
1.43184515723e-20
3.22203643021e-21
7.77981250173e-22
2.46033018879e-22
1.30673672027e-23
5.81267663241e-25
2.20899871947e-23
1.22594316306e-22
4.02539019938e-22
1.85922216242e-21
7.06560726591e-21
1.88568583228e-20
3.10473658737e-20
2.97141792476e-20
2.94689813952e-20
2.82742519682e-20
2.75596247279e-20
2.25265631841e-20
1.45980903449e-20
6.55808902922e-21
2.32985219792e-21
8.06765818174e-22
2.24610699129e-22
5.75433020389e-23
2.17008571164e-24
2.47447664332e-26
2.92083750351e-24
2.43332541661e-23
1.09710941638e-22
3.34254224731e-22
8.30660877216e-22
1.95907269951e-21
3.18912937721e-21
4.58144650707e-21
5.76942439216e-21
6.09731222988e-21
4.6589727365e-21
3.30549980485e-21
2.16794603943e-21
1.35515167486e-21
5.19838716048e-22
2.41411753628e-22
7.51404928146e-23
9.50693268759e-24
1.6039836459e-25
5.74483168952e-33
2.66136212989e-26
7.35035609265e-25
5.93083499694e-24
2.83821200424e-23
8.72205122267e-23
1.88426402e-22
3.62648835456e-22
6.16709528515e-22
9.34636900257e-22
8.2176273802e-22
6.09051158058e-22
4.51703420558e-22
2.78582057542e-22
1.36095916527e-22
6.11060853155e-23
1.58273944696e-23
2.42757063361e-24
2.06845338884e-25
2.81381914212e-30
3.37760363366e-33
1.53881570451e-26
1.69737366537e-22
1.85317218467e-21
2.69069206637e-20
1.23781648468e-19
3.40541914644e-19
7.63875704398e-19
1.81389940705e-18
3.25005331799e-18
3.70571442393e-18
2.76457749787e-18
1.66458025478e-18
9.64059318452e-19
4.16575982173e-19
1.34427258636e-19
3.11313586814e-20
4.77931928269e-21
2.94233822865e-22
8.31128297257e-29
1.80230145647e-26
4.53260729697e-22
6.32358405448e-21
5.20931113933e-20
2.16705380014e-19
6.7908630795e-19
2.02843787443e-18