/*--------------------------------*- C++ -*----------------------------------*\
| =========                 |                                                 |
| \\      /  F ield         | OpenFOAM: The Open Source CFD Toolbox           |
|  \\    /   O peration     | Version:  3.0.1                                 |
|   \\  /    A nd           | Web:      www.OpenFOAM.org                      |
|    \\/     M anipulation  |                                                 |
\*---------------------------------------------------------------------------*/
FoamFile
{
    version     2.0;
    format      ascii;
    class       volScalarField;
    location    "0.4";
    object      epsilon;
}
// * * * * * * * * * * * * * * * * * * * * * * * * * * * * * * * * * * * * * //

dimensions      [0 2 -3 0 0 0 0];

internalField   nonuniform List<scalar> 
7968
(
0.0633032494684
0.0641919704788
0.0645531979459
0.0646355745019
0.0646494152492
0.0646511530181
0.0646510303256
0.0646502966124
0.0646493658898
0.0646483855694
0.0646475377601
0.0646474588248
0.0646483308315
0.0646492582631
0.0646497859772
0.0646483669272
0.0646348261518
0.0645526501591
0.0641917356983
0.0633032816804
0.0641921233756
0.0724122772004
0.0759120427305
0.0768214291843
0.0769990353115
0.0770264565191
0.0770287302985
0.0770273180175
0.0770255111351
0.0770241461159
0.0770234828821
0.0770237531389
0.0770249826359
0.0770265453949
0.0770251117807
0.07699900049
0.0768227004316
0.0759143405621
0.0724151136096
0.0641926994159
0.064553508277
0.0759120555241
0.0815513860873
0.08324245711
0.0836234324593
0.0836909171326
0.0836988870653
0.0836973496326
0.0836946302584
0.0836927626908
0.0836919826451
0.0836924155013
0.083694147706
0.083695880682
0.0836890302281
0.0836229368324
0.0832439028647
0.0815540890673
0.0759152543803
0.0645544732552
0.0646359299377
0.0768216013033
0.0832424195959
0.0852863772408
0.0857743696651
0.0858654024648
0.0858757047038
0.0858729551715
0.0858691426597
0.0858666339666
0.0858654263691
0.0858661854327
0.0858683547117
0.0858708248585
0.0858614303012
0.0857725642164
0.0852865864289
0.0832445169868
0.0768243004911
0.064637140109
0.0646498068188
0.0769991106939
0.0836230606509
0.085774165204
0.0862970466575
0.086394364226
0.0864036428222
0.086398712304
0.0863961018559
0.0863950788573
0.0863945266528
0.086394459477
0.0863948603252
0.0863960782409
0.0863876190132
0.0862922927827
0.085772136919
0.0836234866734
0.0770007919769
0.064650950904
0.064651570343
0.0770260919251
0.0836905791182
0.0858646968923
0.0863939153886
0.0864905593124
0.0865015161449
0.0865028535711
0.0865020526167
0.0865011942842
0.0865006399991
0.0865005496013
0.0865005726288
0.0864988192106
0.0864826366751
0.0863862067853
0.0858597180961
0.0836883508611
0.0770264085652
0.0646525650344
0.0646513018249
0.0770279400396
0.0836977700795
0.0858743281335
0.0864027120848
0.0865011059148
0.0865178052082
0.0865191370487
0.0865177794838
0.0865165141728
0.0865157965276
0.0865159332049
0.08651639338
0.0865150019827
0.0864981694513
0.0863930051067
0.0858670802933
0.0836933296654
0.0770266467824
0.0646521199193
0.0646505270157
0.0770261228502
0.0836953714416
0.0858709001913
0.0863971465394
0.0865020743501
0.0865186954665
0.0865193091617
0.0865169855739
0.0865151531227
0.0865142306703
0.0865147088098
0.0865158771202
0.0865150628076
0.0864988912673
0.086392473949
0.0858613407274
0.0836888808636
0.0770231592364
0.0646511004372
0.0646494728581
0.0770236370717
0.0836918356393
0.0858660034921
0.0863945017105
0.0865009383792
0.0865168377072
0.0865165050322
0.0865129691893
0.0865102790186
0.0865091318653
0.0865102563501
0.0865123967446
0.0865126928038
0.0864972845421
0.0863909493987
0.0858551475955
0.0836839014941
0.0770195631304
0.0646498110921
0.0646483193691
0.0770217546619
0.0836893827953
0.0858626513513
0.0863933834744
0.086499841323
0.0865152157216
0.086514214399
0.0865096450685
0.086505973699
0.0865044491592
0.0865063015196
0.0865095439911
0.0865106789841
0.0864958689906
0.0863897635301
0.0858525695387
0.0836803508395
0.0770169624058
0.064648527628
0.0646473284287
0.0770208382282
0.0836883187181
0.0858612777156
0.0863928065487
0.086499189802
0.0865143896207
0.0865131533352
0.0865080587245
0.0865041204869
0.0865020104636
0.0865041233014
0.0865078211362
0.0865094594966
0.0864950020541
0.0863891478365
0.0858517510178
0.0836789313549
0.0770155302612
0.064647328573
0.0646471182011
0.0770214048858
0.0836894109949
0.0858627279482
0.0863929627285
0.0864993055221
0.0865146682164
0.0865136908153
0.0865090219336
0.0865053687794
0.0865035125171
0.0865051030509
0.0865084172788
0.0865098252314
0.0864952147204
0.0863894776642
0.0858521914548
0.083679810248
0.0770158257319
0.0646465862783
0.0646481202293
0.0770230830053
0.0836918577682
0.0858659096094
0.0863935387264
0.0864996363362
0.0865153674024
0.0865150843182
0.0865112691659
0.0865086818191
0.0865072565489
0.086508171502
0.0865105450425
0.0865112600175
0.0864960510031
0.0863902616709
0.0858544632885
0.0836830726585
0.0770181288206
0.0646478204887
0.0646491667474
0.0770251293886
0.0836943044674
0.0858693748172
0.0863950997406
0.0864982338009
0.0865143392753
0.0865146028957
0.0865117827351
0.0865098901381
0.0865088031391
0.0865093875848
0.086511101931
0.0865111126999
0.0864953232451
0.0863897947599
0.0858592653793
0.0836868211977
0.0770211857228
0.0646491544677
0.0646497784934
0.0770240942728
0.0836879914018
0.0858606376283
0.0863872784251
0.0864825554344
0.0864978668141
0.0864986387274
0.0864967317743
0.086495360959
0.0864945360478
0.0864949254308
0.0864959063213
0.0864952735578
0.0864794043413
0.0863766421494
0.0858519534837
0.083681813097
0.0770209852287
0.0646500114299
0.0646483779082
0.0769980851894
0.0836219527932
0.0857716745734
0.0862918826579
0.0863864790201
0.0863930992053
0.0863924926999
0.0863908068386
0.0863896326056
0.0863889989183
0.0863894416521
0.086390165268
0.0863896540577
0.0863764569849
0.0862831018172
0.085764847926
0.0836170894249
0.0769958984083
0.0646488051399
0.0646348711562
0.0768217602994
0.083242809762
0.0852857207712
0.0857716466459
0.0858597508094
0.0858672470474
0.0858619624592
0.0858552219952
0.0858526722858
0.0858516767749
0.0858522824193
0.0858544456289
0.0858588546146
0.0858517228717
0.0857647991014
0.0852802405482
0.0832388473157
0.0768202636968
0.0646353121764
0.0645527007869
0.0759133068495
0.0815529832516
0.0832434437578
0.0836227313934
0.0836881042236
0.0836933827505
0.0836891880126
0.0836842319841
0.0836808225716
0.0836791067549
0.0836799169716
0.0836830703954
0.083686553069
0.0836817187299
0.0836170245187
0.0832388953258
0.0815497521424
0.0759120805984
0.0645530890234
0.0641918649218
0.0724143246381
0.0759143183304
0.0768233784889
0.0769999967674
0.0770260166673
0.0770264066979
0.0770231072979
0.0770195130631
0.0770169160849
0.0770154568527
0.077015848766
0.0770180974537
0.0770210878726
0.0770209092928
0.0769958797511
0.0768203127473
0.0759120552419
0.0724133652405
0.0641920867356
0.0633033746354
0.0641926104771
0.0645542519717
0.0646368553794
0.0646506621276
0.0646522516884
0.0646518637891
0.0646508326824
0.0646495500335
0.0646482813754
0.0646470860327
0.0646466026654
0.0646478977627
0.0646492402201
0.0646500672557
0.0646488588463
0.064635386995
0.0645531452907
0.0641920514049
0.0633035649043
0.0641989882257
0.0724068616191
0.0758975236564
0.0768040996555
0.0769811614237
0.0770086311537
0.0770116248148
0.0770109671384
0.0770097107547
0.0770085104783
0.0770076200369
0.0770076164724
0.0770084501267
0.0770092355611
0.0770065989277
0.0769793681405
0.0768025233403
0.075896000709
0.0724054999989
0.0641986371164
0.0724076402365
0.0648827491478
0.0649627388542
0.0650245364912
0.065038042486
0.0650412864732
0.0650424230879
0.0650430642011
0.0650434959217
0.0650437367549
0.0650438006852
0.0650436838802
0.065043401336
0.0650428921012
0.0650418311797
0.0650386031405
0.0650250700508
0.0649631649948
0.06488298472
0.0724087566434
0.0758984613734
0.0649626790912
0.0638424075661
0.0635100095153
0.0634200223236
0.0634019506314
0.0633995942234
0.063399770703
0.0634001546191
0.0634004157873
0.0634005048213
0.0634004042133
0.0634001577406
0.0634000674567
0.0634024374428
0.063420449364
0.0635103334094
0.0638425690405
0.0649626042382
0.0758989563352
0.076805152669
0.065024457812
0.0635099708877
0.0630094132515
0.0628643796063
0.062832722973
0.0628278665921
0.0628278010104
0.0628283165317
0.0628286968114
0.0628288106834
0.0628286551069
0.0628282951032
0.0628284271262
0.0628332664802
0.0628648521536
0.0630097318143
0.0635101160352
0.0650243441671
0.0768057801791
0.0769820938208
0.0650379410469
0.0634199718951
0.062864366719
0.0626987589052
0.0626616571307
0.0626559685718
0.0626561020551
0.0626573445986
0.0626582813117
0.06265857884
0.0626581249921
0.0626570934551
0.0626567395965
0.0626623532295
0.0626993277113
0.0628647669208
0.0634201824716
0.0650378568398
0.0769827386527
0.0770096230027
0.0650411375236
0.0634019114231
0.0628326906304
0.0626616441932
0.0626233444603
0.0626184725993
0.0626204337602
0.0626228219087
0.0626242614895
0.0626247065338
0.0626240159738
0.0626222925788
0.0626205699263
0.0626245266827
0.0626623906214
0.062833220524
0.0634021982749
0.0650410869501
0.077009994418
0.0770123549199
0.0650422376903
0.0633995537938
0.0628278430799
0.062655964054
0.062618538542
0.0626156557375
0.062618721001
0.0626219087631
0.0626237214179
0.062624233244
0.0626232641127
0.0626209183475
0.0626182757261
0.062621018661
0.0626569792912
0.0628285067269
0.0633999233558
0.065042191288
0.0770125170632
0.077011483153
0.0650428764644
0.0633997388744
0.062827810805
0.062656140361
0.0626206098116
0.062618847877
0.0626227012621
0.0626265858248
0.0626286984992
0.0626292633962
0.0626280711663
0.0626251529665
0.0626218258025
0.0626235835959
0.0626583651503
0.0628286254064
0.063400174514
0.0650428004852
0.0770113071786
0.0770100601308
0.0650432735946
0.0634001613501
0.0628283832455
0.0626576066194
0.062623154956
0.0626222224335
0.0626267005676
0.0626312981855
0.0626336977737
0.0626342991879
0.0626328189426
0.0626293963365
0.0626253869392
0.0626263903017
0.0626604418892
0.0628292921199
0.0634006366204
0.065043194922
0.0770095475294
0.0770085961228
0.0650435042155
0.0634004532879
0.0628288118848
0.062658696816
0.0626247188961
0.062624158481
0.0626289386796
0.0626339141771
0.0626364018216
0.0626369592555
0.0626354813582
0.0626317944585
0.0626275290131
0.0626281802204
0.062661827465
0.0628299695292
0.0634009448603
0.0650434243995
0.0770077244551
0.0770074297042
0.0650435472823
0.0634005364042
0.0628289398641
0.0626590627627
0.0626252102215
0.0626247181961
0.0626295460889
0.0626345848296
0.0626369466708
0.0626376149086
0.062636269389
0.0626326835933
0.0626283899355
0.0626289143597
0.0626623330587
0.0628302819577
0.063401051844
0.0650434633043
0.0770061892951
0.077007398259
0.0650434227808
0.063400401196
0.062828718583
0.0626584636733
0.0626244104543
0.0626237108921
0.0626283590178
0.062633255756
0.0626357748254
0.0626365267759
0.0626352483153
0.0626318351933
0.0626276789749
0.0626283323127
0.0626617926762
0.0628299515784
0.0634009108936
0.0650433421095
0.0770059937579
0.0770084871068
0.0650431516266
0.0634001074709
0.062828286337
0.0626572549152
0.062622536253
0.062621286451
0.0626254162929
0.0626298705862
0.0626321492359
0.0626329927959
0.0626319751546
0.0626289519138
0.0626251763688
0.0626263444324
0.0626603236143
0.0628292384121
0.0634005755388
0.0650430929494
0.0770075996586
0.0770095334062
0.0650426583399
0.0633999832969
0.0628283625208
0.0626566938082
0.0626206053434
0.0626184444334
0.0626219412376
0.0626257990574
0.0626278761531
0.0626287565196
0.0626279214127
0.062625283229
0.0626220134862
0.0626239871966
0.0626589461477
0.0628292067208
0.0634003964348
0.0650425924974
0.0770090454251
0.0770070012065
0.0650416264443
0.063402357271
0.0628331977963
0.0626622830278
0.0626244484454
0.062620997956
0.0626235451428
0.0626265989628
0.0626283645531
0.0626291692592
0.0626284911871
0.0626264282277
0.0626240176982
0.0626271433094
0.062663323465
0.0628338429208
0.0634026803386
0.0650415201079
0.0770068783876
0.0769798316109
0.0650384243474
0.0634203721171
0.0628647769977
0.062699247899
0.0626623143442
0.0626569313459
0.062658234374
0.0626603885153
0.0626617788302
0.0626624016775
0.0626618371452
0.062660415184
0.0626590173011
0.062663350753
0.0626999991428
0.0628652855056
0.0634206031574
0.0650382922594
0.0769797296748
0.0768030124651
0.0650249299953
0.0635102740873
0.0630096878704
0.0628647036825
0.06283313922
0.0628284254785
0.0628285488401
0.0628292304377
0.0628299214897
0.0628302757238
0.0628299627214
0.0628292762337
0.0628292337062
0.0628338662922
0.0628652916275
0.0630100836965
0.0635104288218
0.0650247073367
0.0768028897156
0.0758964861816
0.0649630562065
0.0638425317929
0.0635100879941
0.0634201339554
0.0634021417558
0.0633998619287
0.0634001068352
0.0634005916551
0.0634009073338
0.0634010372473
0.0634009064214
0.0634005971858
0.0634004053764
0.0634026920685
0.0634206013103
0.0635104238482
0.0638426710276
0.064962783497
0.0758959560082
0.0724060099724
0.064882923157
0.0649625682301
0.06502428708
0.0650377793349
0.0650410077181
0.0650421182193
0.0650427170208
0.0650431256317
0.0650433743937
0.0650434365491
0.0650433099891
0.0650430611809
0.0650425541966
0.065041468853
0.0650382401445
0.0650246547163
0.0649627394186
0.0648826357535
0.0724052737355
0.0641989285072
0.0724086747712
0.0758986965622
0.076805323606
0.0769821993421
0.0770094806489
0.0770120601095
0.0770108841708
0.0770090968835
0.0770072565591
0.0770057633723
0.0770057918893
0.0770074846047
0.0770089286552
0.077006813136
0.0769797025746
0.0768029071731
0.0758959753797
0.0724053269626
0.0641985908342
0.0645670235321
0.0759039359025
0.0815288350345
0.0832149910711
0.0835951315853
0.0836635815079
0.0836727910105
0.0836726439157
0.0836712094029
0.0836699022778
0.0836691392271
0.0836691721782
0.0836698419024
0.0836699333299
0.0836607924191
0.0835926418278
0.0832126780302
0.0815264844758
0.0759013872577
0.0645654806215
0.0759049336186
0.0649656284369
0.0638462194562
0.0635147671255
0.0634256906245
0.0634085971901
0.0634072574313
0.0634083364001
0.0634094575772
0.0634101961867
0.063410439123
0.0634101777315
0.0634094370794
0.0634085833985
0.0634100448756
0.0634270378677
0.0635159089335
0.063847016987
0.0649657287761
0.0759038196996
0.081529876666
0.0638461022422
0.060305480507
0.0590872309288
0.0587270809089
0.0586434729698
0.0586288397513
0.0586276193438
0.0586282938005
0.0586288882577
0.0586291091556
0.0586289274206
0.0586285917378
0.0586299971037
0.0586446395807
0.0587281216686
0.059088029581
0.0603059636027
0.0638459936847
0.0815281634612
0.0832161338018
0.0635145040715
0.0590870922777
0.0574705141627
0.0569635740942
0.0568374701531
0.0568131386518
0.0568101226673
0.056810521025
0.0568110475684
0.0568112353321
0.0568110564014
0.0568109521026
0.0568140975182
0.0568383976869
0.0569643438345
0.0574710585697
0.0590874038766
0.0635144334457
0.0832149609509
0.0835961994989
0.0634253562332
0.0587268684794
0.0569634907923
0.0563956319253
0.0562505090586
0.056221775351
0.0562181472873
0.0562188893398
0.0562197406059
0.0562200256923
0.0562196751293
0.0562192593109
0.05622278502
0.0562514250091
0.0563963446158
0.0569639890625
0.0587271905301
0.0634254112759
0.0835954222826
0.0836646743671
0.063408184007
0.0586432093012
0.0568373463496
0.0562504707469
0.056099332938
0.0560696419096
0.056066719569
0.056068414407
0.0560698792866
0.0560703506173
0.0560697552952
0.0560687285628
0.0560717135528
0.056100756946
0.0562513582601
0.0568379842067
0.0586436975554
0.0634084462645
0.0836637980595
0.0836736616038
0.0634067895359
0.0586285864476
0.0568130233914
0.0562217295642
0.0560696875542
0.0560404606341
0.0560385539077
0.0560416184708
0.0560439137215
0.0560445612893
0.0560434699411
0.0560414064796
0.0560434958117
0.0560720360527
0.0562230059345
0.0568138442348
0.058629232548
0.0634071555416
0.0836727351496
0.0836731885316
0.0634078672239
0.0586273969722
0.0568100512912
0.0562181888846
0.0560668851458
0.0560386532792
0.0560383385394
0.0560432661631
0.056046530733
0.0560472775642
0.0560453946467
0.0560417081602
0.0560423256389
0.0560698056875
0.0562201717372
0.0568110842157
0.0586281859138
0.0634083352761
0.0836719386568
0.0836714130056
0.0634090160769
0.058628151441
0.0568105610538
0.0562191313851
0.0560687084651
0.0560418018899
0.0560433081968
0.0560502180269
0.0560544076901
0.0560551822695
0.0560524048214
0.0560468915185
0.056045739126
0.0560719033187
0.0562214401218
0.056811740819
0.0586290132345
0.063409516642
0.083669833521
0.0836697265989
0.0634097604637
0.0586288086131
0.0568111962913
0.0562201312521
0.0560702270375
0.0560440941431
0.0560465778382
0.0560544947885
0.0560591179498
0.0560599005792
0.0560567619276
0.0560503311355
0.0560482342952
0.0560736243586
0.0562226126343
0.0568125270631
0.0586296872873
0.0634102520876
0.0836678512269
0.0836686820196
0.0634099936031
0.0586290416731
0.05681142057
0.0562204712819
0.0560706772002
0.0560446839251
0.056047271891
0.0560552629776
0.0560598697144
0.0560607249704
0.0560576587575
0.056051266705
0.0560490889343
0.0560742892283
0.056223045638
0.0568128111928
0.0586299052443
0.0634104550765
0.0836664540794
0.0836689257052
0.0634096599097
0.0586287809237
0.0568111637263
0.0562199853118
0.0560698890039
0.0560433962444
0.0560452431842
0.0560524627421
0.0560568109285
0.0560577565201
0.0560551302471
0.0560496034513
0.0560481322072
0.0560737185653
0.0562225989807
0.0568124887576
0.0586296117848
0.0634101132475
0.0836666701608
0.0836700185175
0.0634088608144
0.05862834688
0.0568109345017
0.0562194128869
0.056068705649
0.0560412071598
0.0560414507945
0.0560469164798
0.0560503827638
0.0560513747051
0.0560496196726
0.0560457764802
0.0560457556387
0.0560723322778
0.0562217727714
0.0568120143497
0.0586290586045
0.0634093132436
0.0836683671974
0.0836704497156
0.0634080086296
0.0586296776508
0.0568139609367
0.0562227880646
0.0560716112021
0.0560432929622
0.0560420785779
0.0560457768706
0.0560483084741
0.0560492335801
0.0560481763229
0.0560457539933
0.05604701959
0.0560745781268
0.0562246146819
0.0568148301762
0.0586302529512
0.0634083589417
0.0836693806926
0.0836614731085
0.0634095175682
0.0586443041658
0.0568382146038
0.0562513301534
0.0561006598448
0.0560719308654
0.0560697004146
0.0560719959349
0.0560737199623
0.0560744440034
0.0560737812345
0.0560723414965
0.0560745917797
0.0561028028998
0.0562524343708
0.0568388876937
0.0586447375515
0.0634097143981
0.0836608913506
0.0835934392419
0.0634265565491
0.0587278053206
0.056964164607
0.0563962285658
0.0562512566071
0.056222911474
0.0562200435215
0.0562214376108
0.0562226333384
0.0562231633927
0.0562227126731
0.0562219000833
0.0562247203089
0.0562524673878
0.0563970761052
0.056964731854
0.058728139568
0.0634266578877
0.0835927707946
0.083213469268
0.0635155380208
0.0590877838402
0.0574709180817
0.0569638857561
0.0568378732528
0.0568137378994
0.0568109657681
0.056811671721
0.0568124784192
0.056812848241
0.0568125544865
0.0568120907841
0.0568148881754
0.0568389157629
0.0569647318701
0.0574715168585
0.0590881132607
0.0635154768105
0.0832126024481
0.0815272842451
0.0638467622104
0.0603057997487
0.0590873068257
0.0587271017466
0.0586435946084
0.0586291309162
0.0586280701056
0.0586289375474
0.0586296212893
0.0586298945494
0.0586296216678
0.0586290910138
0.0586302769143
0.0586447383966
0.0587281184433
0.0590880880054
0.0603062647349
0.0638466574827
0.0815258174246
0.0759021583523
0.0649656434891
0.0638459208997
0.0635143453763
0.0634252903828
0.0634082806631
0.0634070272538
0.0634081775345
0.0634093864078
0.063410117557
0.0634103810723
0.063410056003
0.0634092536945
0.0634082971352
0.0634096268869
0.0634265630881
0.0635153812807
0.0638465885972
0.0649655992677
0.0759005568346
0.0645659684678
0.0759038828767
0.0815280458155
0.0832146255515
0.0835949558879
0.0836633538706
0.0836722201663
0.0836715165449
0.0836693429732
0.083667397158
0.0836660398282
0.0836663771717
0.0836681071539
0.0836691109874
0.0836606949404
0.0835926330621
0.0832124944639
0.0815257321444
0.075900552489
0.0645648192528
0.0646558595427
0.0768156850319
0.0832201238547
0.085258565465
0.0857466250015
0.0858399129032
0.0858535429668
0.085853766011
0.0858522843718
0.0858509379558
0.0858501888178
0.0858501208084
0.0858506805366
0.0858500982545
0.0858366571998
0.0857435771178
0.0852555553945
0.0832168092876
0.0768121757178
0.0646533225439
0.0768168077205
0.0650289053116
0.0635159316522
0.0630171968945
0.0628739846175
0.0628442594551
0.0628413680082
0.06284313512
0.0628450893976
0.0628463836643
0.0628468035242
0.0628463424913
0.0628450773595
0.0628437511394
0.0628466950905
0.0628762725073
0.0630190682398
0.0635172123635
0.0650290807349
0.0768142660894
0.0832212781674
0.0635157423651
0.0590895907072
0.0574743607459
0.0569686056707
0.0568436055504
0.0568203056354
0.0568181727406
0.0568192284452
0.0568201614911
0.0568204741288
0.056820150235
0.0568196521772
0.0568221363774
0.0568455285596
0.0569704047214
0.0574758706864
0.0590906919598
0.063515946925
0.0832181185548
0.0852597571834
0.0630168216366
0.0574741547154
0.0553422427249
0.0546353902037
0.0544478831534
0.0544088139644
0.0544031280954
0.0544034231054
0.0544041691752
0.0544044278673
0.0544042081384
0.0544043347555
0.054410101798
0.0544491001985
0.0546365164631
0.0553432601942
0.0574750385966
0.0630172158063
0.0852573126159
0.0857477248449
0.0628734573813
0.056968248863
0.0546352289625
0.0538401594534
0.0536223896393
0.0535749003879
0.0535675447743
0.0535681179801
0.0535692690188
0.0535696478846
0.0535692442471
0.0535692246774
0.0535764379374
0.0536234539312
0.0538409023677
0.0546359641499
0.0569690965774
0.0628741279308
0.0857459349567
0.0858408754609
0.0628436013977
0.0568431194534
0.0544476142666
0.0536223883664
0.0533934831436
0.05334336826
0.0533367231292
0.0533389417443
0.0533410928471
0.0533415574405
0.053340293065
0.0533388130109
0.0533456138585
0.0533950265938
0.0536230988362
0.0544483217171
0.0568441152915
0.062844583076
0.0858391032066
0.0858542362151
0.0628406019816
0.0568197474823
0.0544085526513
0.0535750175154
0.0533434381516
0.0532941188136
0.053290705202
0.0532970614104
0.053301386749
0.0533018585496
0.0532984322564
0.0532929685215
0.0532967838832
0.0533456199526
0.0535760209853
0.0544092772679
0.0568208880985
0.0628418093351
0.0858521842783
0.0858541123274
0.0628422716054
0.0568175871303
0.0544029375633
0.0535676809562
0.0533367517496
0.0532906422844
0.0532936206291
0.053307385965
0.053315311428
0.053315738526
0.053308637425
0.0532958414307
0.0532934961692
0.053339342372
0.0535692609416
0.0544037033451
0.0568188511242
0.0628436707046
0.0858515208115
0.0858520354226
0.0628443101474
0.0568187470879
0.0544032629054
0.053568171939
0.0533388334801
0.0532968556013
0.0533072348539
0.0533293161258
0.0533410210089
0.0533414396107
0.0533305239911
0.0533094580607
0.0532998699476
0.053341780181
0.0535701985809
0.0544042209081
0.0568199979142
0.0628456727618
0.0858491198462
0.0858502758953
0.0628456437811
0.0568198063363
0.0544040049683
0.0535691758349
0.053340797858
0.053301011205
0.0533150287061
0.053340946646
0.0533544816632
0.0533549189107
0.0533422503437
0.0533174811547
0.0533043971711
0.0533442125182
0.0535716232749
0.0544052080247
0.0568209730939
0.0628469334403
0.0858471385897
0.0858493326523
0.0628460584717
0.0568201864852
0.0544042458444
0.0535693799673
0.0533410480837
0.0533012904273
0.0533152968874
0.0533412097149
0.0533547688618
0.0533552541818
0.0533426602975
0.0533180467798
0.0533051415439
0.0533449595948
0.0535722078009
0.054405587181
0.0568212518625
0.0628472898864
0.0858460922084
0.0858496768926
0.0628454783133
0.0568197950749
0.0544038834192
0.0535686671243
0.0533394558042
0.0532975719474
0.0533079530749
0.0533301042817
0.0533419411654
0.0533425464895
0.0533318866109
0.0533112266172
0.0533020261505
0.0533438498435
0.0535718081662
0.0544052533038
0.0568207553974
0.0628466700547
0.0858466655866
0.0858507200908
0.0628440915476
0.0568191674689
0.0544038904342
0.0535684107359
0.0533377441597
0.0532918975678
0.053294998484
0.0533089725788
0.0533171530199
0.0533179210152
0.0533111997809
0.0532988368598
0.0532966772362
0.053342192393
0.0535714389154
0.0544049818044
0.0568199375918
0.0628451803346
0.0858485890102
0.0858506957871
0.0628427180726
0.0568215301851
0.0544096938455
0.0535756939976
0.0533446234993
0.0532957910139
0.0532926834515
0.0532994213985
0.0533040837232
0.0533050156591
0.0533019864463
0.0532966538716
0.0533001992739
0.0533484345514
0.0535780448736
0.0544103721862
0.0568221446367
0.0628435992695
0.0858493887606
0.0858374720739
0.0628457395682
0.0568448780061
0.0544487548842
0.0536230280854
0.0533944549326
0.0533450557334
0.053338865197
0.053341504589
0.0533439483653
0.0533447770358
0.0533436523781
0.0533419613688
0.0533482519491
0.0533970000039
0.0536242117983
0.0544491896263
0.056845394226
0.06284647446
0.0858367011299
0.0857444908176
0.0628754241849
0.0569697986161
0.0546361771516
0.0538406643738
0.0536228813365
0.0535758874789
0.0535691764244
0.0535701577525
0.0535714729022
0.0535720384432
0.0535715470649
0.0535711193116
0.053577798549
0.053624150565
0.0538413505723
0.0546366220626
0.0569702464252
0.0628759294075
0.0857438512251
0.0852564472232
0.0630184555214
0.0574753875059
0.0553429487511
0.0546357356627
0.0544480888209
0.0544090957288
0.0544036104534
0.0544041881933
0.0544051426223
0.0544055740416
0.0544052285771
0.054404960588
0.0544104063327
0.0544492463405
0.0546366300922
0.0553436223158
0.0574758926529
0.0630187117855
0.0852555993579
0.0832177631795
0.0635167951387
0.0590903536951
0.0574747849219
0.0569688650204
0.0568438602563
0.0568206377348
0.0568185966928
0.0568198522597
0.0568208896144
0.0568213131883
0.0568209040416
0.0568201199575
0.056822276265
0.056845438906
0.056970228203
0.0574758606632
0.059091091515
0.0635169716926
0.0832161925915
0.07681300474
0.0650289551521
0.0635157965354
0.0630170008293
0.0628738681838
0.0628442433749
0.0628415047575
0.0628433687136
0.0628454921436
0.0628467550549
0.0628472542941
0.0628466666712
0.0628451921089
0.0628435892009
0.0628463754849
0.0628758027694
0.0630185786624
0.0635168663217
0.0650291604499
0.07681139028
0.0646539319201
0.0768142719312
0.0832180106282
0.0852570738396
0.0857454927973
0.0858387733993
0.0858517345704
0.0858511734476
0.0858486130936
0.0858467019795
0.0858456032614
0.0858461798554
0.0858480218982
0.0858488434412
0.0858362928338
0.0857435514182
0.085255383436
0.0832160304296
0.0768113438323
0.0646524110464
0.0646767419128
0.0769979323917
0.0836058961872
0.0857527546816
0.0862779052221
0.086380297486
0.0863952857991
0.0863956362927
0.086394230477
0.0863929670931
0.0863921405804
0.0863918384215
0.0863920040608
0.0863911240913
0.0863760152953
0.0862740709539
0.0857492841946
0.0836022509873
0.0769939584413
0.064673053858
0.0769991186683
0.0650433685067
0.0634271879491
0.0628743633043
0.0627118380241
0.0626781939924
0.0626761573483
0.0626794319465
0.0626827089422
0.0626847632362
0.0626854252606
0.0626846641107
0.062682678567
0.0626800590598
0.0626822813204
0.0627154397949
0.0628771814329
0.0634290626783
0.0650437889718
0.0769957214946
0.0836071004664
0.0634269296388
0.0587304513381
0.0569699700037
0.0564049970124
0.0562626191544
0.0562362863573
0.0562345238192
0.0562365713908
0.0562382683454
0.0562388146903
0.0562382882804
0.0562372882984
0.0562393948708
0.0562656506796
0.0564077721417
0.056972326298
0.0587322379997
0.0634275868535
0.0836032190636
0.0857538577688
0.0628738883391
0.0569697114267
0.0546388010042
0.0538458316797
0.0536298909029
0.0535840498163
0.0535779170975
0.0535792910773
0.0535810461031
0.0535816377537
0.0535812971647
0.053581149101
0.0535874545296
0.0536324891028
0.0538476251333
0.054640443224
0.0569713527841
0.062875012321
0.0857506532081
0.086278890633
0.0627111458696
0.0564044938707
0.0538456800015
0.0529497266157
0.0526972440608
0.0526414923744
0.0526342848123
0.0526370060328
0.052639652973
0.0526402106947
0.0526389706788
0.0526375766935
0.0526449730046
0.0526996158638
0.0529508185444
0.0538467350176
0.056406180873
0.0627129687013
0.0862759628192
0.0863810673385
0.0626772559188
0.0562618899206
0.0536301121314
0.0526979437173
0.0524326628198
0.0523759985551
0.052373926838
0.0523834390793
0.0523894878618
0.052389936477
0.0523850709434
0.0523768884433
0.0523791650857
0.0524345320763
0.0526981959783
0.0536304200972
0.0562637337013
0.0626797283451
0.0863776140808
0.0863955825709
0.0626749392342
0.0562355081115
0.0535847912792
0.0526427967511
0.0523765861873
0.0523275817613
0.0523415101037
0.0523693477224
0.0523841287655
0.0523843511644
0.0523704222373
0.052344025929
0.0523306241068
0.05237834939
0.052642617082
0.0535843768525
0.0562372920631
0.0626778715881
0.0863915478187
0.0863953485009
0.0626781359416
0.0562337954968
0.0535786035603
0.0526353643514
0.0523744341788
0.0523416101966
0.052385411011
0.0524468130975
0.0524763585099
0.0524762189091
0.0524468685041
0.0523867018995
0.0523441386354
0.0523762333396
0.052635396994
0.0535780479519
0.0562354197732
0.0626812765099
0.0863905806436
0.0863930078304
0.0626815780439
0.0562358580593
0.0535792931778
0.0526371330963
0.0523832842061
0.0523691590953
0.0524467504807
0.0525454095059
0.0525896047289
0.0525892651427
0.0525446656086
0.0524467439559
0.052370814153
0.0523850799382
0.0526377395548
0.0535791643234
0.0562373766398
0.0626846862221
0.0863878748785
0.0863910875653
0.0626839027586
0.0562375517528
0.0535802255426
0.0526387294013
0.0523886470973
0.0523837162824
0.0524764433455
0.052589972655
0.0526408046681
0.0526403238027
0.0525888716454
0.0524762099523
0.0523854915763
0.0523911341525
0.0526404139555
0.0535809015985
0.0562390059866
0.0626867976604
0.0863861216241
0.0863899654954
0.0626846550072
0.0562380895179
0.0535802530233
0.0526385641175
0.0523885848458
0.0523837216925
0.0524763060636
0.0525896581272
0.0526404650308
0.0526399669839
0.0525886742844
0.052476811584
0.0523868986618
0.0523926885424
0.052641754706
0.0535818512131
0.0562395036871
0.0626873042415
0.0863854556243
0.0863904339178
0.0626836068637
0.0562373160152
0.053579294865
0.0526365823744
0.0523830382401
0.0523691844803
0.0524465720542
0.0525447863234
0.0525887653021
0.0525886456685
0.0525448628959
0.0524493578833