/*--------------------------------*- C++ -*----------------------------------*\
| =========                 |                                                 |
| \\      /  F ield         | OpenFOAM: The Open Source CFD Toolbox           |
|  \\    /   O peration     | Version:  3.0.1                                 |
|   \\  /    A nd           | Web:      www.OpenFOAM.org                      |
|    \\/     M anipulation  |                                                 |
\*---------------------------------------------------------------------------*/
FoamFile
{
    version     2.0;
    format      ascii;
    class       volVectorField;
    location    "0.4";
    object      U_0;
}
// * * * * * * * * * * * * * * * * * * * * * * * * * * * * * * * * * * * * * //

dimensions      [0 1 -1 0 0 0 0];

internalField   nonuniform List<vector> 
7968
(
(-4.81058806635e-05 -4.68981186594e-05 2.69894444652e-05)
(5.61724675407e-06 -3.6017282823e-05 -4.82769106272e-05)
(0.000114315871856 -3.1001588469e-05 -6.65235949294e-05)
(0.000209522612728 -2.39063723125e-05 -6.2001711764e-05)
(0.000276947951393 -1.50691458812e-05 -5.46456154534e-05)
(0.000314504207861 -2.9096392524e-06 -4.65322440725e-05)
(0.000317404411552 6.78494132265e-06 -4.00899280462e-05)
(0.000285467687974 1.63215341642e-05 -3.23489795933e-05)
(0.000227073480954 2.38091093731e-05 -2.67148146237e-05)
(0.000148557292237 2.86031637617e-05 -2.35682626944e-05)
(5.87366433468e-05 3.0106322969e-05 -2.25672337934e-05)
(-3.01663911403e-05 2.83692875286e-05 -2.3939292344e-05)
(-0.000106862247434 2.40374530325e-05 -2.78048282128e-05)
(-0.000162605293367 1.59657343586e-05 -3.43732065156e-05)
(-0.00018874690373 7.34990641597e-06 -4.33415120332e-05)
(-0.000180503494504 -3.06206179443e-06 -5.1773229189e-05)
(-0.000138878326374 -1.05358809795e-05 -6.12031057782e-05)
(-6.69038490312e-05 -1.60288551141e-05 -6.64651164033e-05)
(1.44814046639e-05 -2.50795099401e-05 -5.44737249004e-05)
(6.77624697683e-05 -4.09123715717e-05 1.34227756762e-05)
(-3.8546019539e-05 1.16481338708e-05 -4.84626226673e-05)
(2.38660576608e-05 3.24438310612e-05 -0.000112403891919)
(0.0001310581634 4.91128628805e-05 -0.000131303785184)
(0.000227635094947 6.97549304807e-05 -0.000128052997229)
(0.00029939448414 9.67859967224e-05 -0.000120618854566)
(0.000337086436404 0.000128380441235 -0.000113090592457)
(0.000336690794682 0.00015868353172 -0.000104586843172)
(0.000301473959461 0.000186332569569 -9.69529730533e-05)
(0.000237518026723 0.000207623180493 -9.0195895631e-05)
(0.000152293017477 0.00022094407095 -8.62989388943e-05)
(5.51992654345e-05 0.000225719788873 -8.52618248515e-05)
(-4.04649204595e-05 0.000220129659164 -8.7094719704e-05)
(-0.000124253103857 0.000207161843316 -9.21084646404e-05)
(-0.00018533101865 0.000186431110715 -0.000100041079909)
(-0.000214896263614 0.000160830300314 -0.000109822329403)
(-0.000206646992266 0.000131539102229 -0.000120021090701)
(-0.00016043503319 0.000106972827153 -0.000129977650819)
(-8.39391955721e-05 8.84801225393e-05 -0.000135137894187)
(3.8757575848e-06 7.25560547393e-05 -0.000121152790553)
(5.89296019186e-05 5.79305705155e-05 -5.82326855701e-05)
(-3.447430707e-05 0.000127291306775 -6.67588967104e-05)
(3.93609519305e-05 0.000148410070979 -0.000130542719713)
(0.000157952224523 0.000174997062381 -0.000149236477819)
(0.000263968329216 0.000211454735311 -0.000144806676123)
(0.000340670878892 0.00025702051909 -0.000133910887805)
(0.000379550356238 0.000308920316903 -0.000120416321895)
(0.000376803510251 0.000358567008722 -0.000108036643322)
(0.000334582723842 0.000403219399432 -9.67464596538e-05)
(0.000260403367806 0.000439099911302 -8.64515866694e-05)
(0.000163922878544 0.000460971426252 -8.06307322199e-05)
(5.38802265399e-05 0.000468346862191 -7.91859096467e-05)
(-5.42200052407e-05 0.000460745977877 -8.14983700214e-05)
(-0.00014791560597 0.000438491391524 -8.90464031558e-05)
(-0.000218326483468 0.000404604723355 -0.000100337289117)
(-0.000254860752275 0.000361373491936 -0.00011441342579)
(-0.000247389145329 0.000317343755548 -0.000129760339792)
(-0.000196017615012 0.000272288429108 -0.000144641401507)
(-0.000111657012733 0.000238175219781 -0.000150972604995)
(-1.32922865122e-05 0.000211620548808 -0.000136368538256)
(4.98285193545e-05 0.000194854416788 -7.04911608166e-05)
(-2.72919952588e-05 0.00022550954717 -6.09843601696e-05)
(5.90188710281e-05 0.000250478480976 -0.000127264410625)
(0.000193231615654 0.000286346670493 -0.00014380835344)
(0.000312555376576 0.000336237312675 -0.000134456769228)
(0.000399426659396 0.000396344072547 -0.000116096720159)
(0.000440389542713 0.000462948634272 -9.62098254901e-05)
(0.000432128794605 0.000526534316417 -7.5698991007e-05)
(0.00038258725128 0.000581215103489 -5.80176304352e-05)
(0.000295330389985 0.000625120314468 -4.44698784613e-05)
(0.000181131336232 0.000652286157598 -3.70000501557e-05)
(5.41138283885e-05 0.000661300430127 -3.43493296913e-05)
(-7.17319904851e-05 0.000652499286239 -3.8371890481e-05)
(-0.000182459924945 0.00062598383485 -4.72729959789e-05)
(-0.000265342972156 0.000583980078564 -6.30031306556e-05)
(-0.000305965920158 0.000531408970845 -8.38830667907e-05)
(-0.000300359230279 0.000473611695627 -0.000107567189319)
(-0.000244504953209 0.000416398365998 -0.000128759460107)
(-0.000146492004023 0.00037073870951 -0.000141407413186)
(-3.34443499336e-05 0.000333748495916 -0.000128334333317)
(4.24735997084e-05 0.000313422070641 -6.12539003692e-05)
(-1.78235667175e-05 0.000299139333013 -5.32033417306e-05)
(8.63107060502e-05 0.000326179942546 -0.000119062896841)
(0.000239665497777 0.000369170985554 -0.000131397544662)
(0.000373843022956 0.000426378386963 -0.000115310566155)
(0.000467679936039 0.000494279975746 -8.91618144995e-05)
(0.000509963391434 0.000566273758263 -6.01055931998e-05)
(0.000495232785696 0.00063457833549 -3.23662494045e-05)
(0.000433295650302 0.000694311508189 -7.18804973306e-06)
(0.00033154251854 0.000741691771114 1.1888067445e-05)
(0.000200093606275 0.000771240589936 2.34753526774e-05)
(5.40260727054e-05 0.000782198842961 2.75150083752e-05)
(-8.96959130688e-05 0.000772385166716 2.18463928375e-05)
(-0.00021673429051 0.000743805982605 7.52466865145e-06)
(-0.000313347335793 0.000699736191718 -1.34638172518e-05)
(-0.000365776934348 0.000643885627163 -4.19638356066e-05)
(-0.000363010732171 0.000580216054286 -7.32655592611e-05)
(-0.000299175668109 0.000517673148614 -0.000103780680132)
(-0.000191725281456 0.000463638755761 -0.000124012007975)
(-6.19206956041e-05 0.000423176449388 -0.000115036294426)
(3.36959246886e-05 0.000397939321935 -4.88201637155e-05)
(-8.80808458607e-06 0.000339405389706 -4.43077103346e-05)
(0.000116618647484 0.000365939415498 -0.00010943433491)
(0.000289725284743 0.000411028354718 -0.000118604628597)
(0.000437281114603 0.000467678601606 -9.44557826727e-05)
(0.000539319579028 0.000538130161544 -5.96728453074e-05)
(0.00058071664282 0.000608440538752 -2.30178662638e-05)
(0.000560211328995 0.000675034714393 1.17502248486e-05)
(0.000489750001097 0.000735483424427 4.2668779638e-05)
(0.000372304402445 0.000782609914595 6.74216987402e-05)
(0.000221660739068 0.000811450811379 8.19649173855e-05)
(5.52352248351e-05 0.000823503045153 8.68498144219e-05)
(-0.000110187435869 0.000814549183419 7.95525534671e-05)
(-0.000255186934822 0.000785710340233 6.13675731928e-05)
(-0.000365343280305 0.000742586992256 3.4783952753e-05)
(-0.000425560878525 0.000686540440669 1.64311053314e-06)
(-0.000426566560495 0.000625880199275 -3.81899386838e-05)
(-0.000360639608864 0.000564178348396 -7.6257790263e-05)
(-0.000238216911368 0.000506696339351 -0.000104448999918)
(-9.07906868161e-05 0.000467384324781 -0.000100990323001)
(2.21544917969e-05 0.00044172415456 -3.59535496784e-05)
(1.02513213216e-06 0.000342181936177 -3.57977266219e-05)
(0.000147477664388 0.000368505000304 -9.99394176988e-05)
(0.000338454762094 0.000408322141046 -0.000104658196991)
(0.000500649606952 0.000462608891339 -7.32523805495e-05)
(0.000608408424411 0.000526021281129 -3.18709404448e-05)
(0.000646870933354 0.000588542169151 1.18305535146e-05)
(0.000622306129619 0.000651146524246 5.32532661855e-05)
(0.000540909114784 0.000704235321966 8.8566039096e-05)
(0.000407535820403 0.000745915240139 0.000118073544354)
(0.000240992895602 0.000771404655274 0.000134286304705)
(5.71073749133e-05 0.000782965556821 0.000139125769051)
(-0.000127536681066 0.000776290707035 0.00013014729265)
(-0.0002887540202 0.000752587052453 0.000109434970331)
(-0.000412552113334 0.000715860340188 7.96601250191e-05)
(-0.000482474322653 0.000667510878658 4.07045596486e-05)
(-0.000485265922071 0.000609778776586 -4.93186397605e-06)
(-0.000417844347334 0.000555181517527 -5.12042958778e-05)
(-0.000286259921636 0.000502578910493 -8.55507025646e-05)
(-0.000119875595127 0.000463619508699 -8.68199325436e-05)
(1.21166140663e-05 0.000441950842596 -2.3236806238e-05)
(1.20045283783e-05 0.000312923099444 -2.75131986734e-05)
(0.000174546205139 0.000334036826971 -9.14939589826e-05)
(0.000381723400796 0.000365541728865 -9.16956505359e-05)
(0.000554730932352 0.000414071231815 -5.51099128506e-05)
(0.000665208093937 0.000463562519134 -6.20253760325e-06)
(0.00070581976336 0.000517226317557 4.2596845688e-05)
(0.000675914029159 0.000569307863336 8.81906613192e-05)
(0.000584529038011 0.000612230862325 0.000125679393924)
(0.0004394650097 0.000646309138097 0.000156831217304)
(0.000258687219424 0.000668901075347 0.000173477275042)
(6.01025015071e-05 0.000679772761431 0.000179102600342)
(-0.000140591135362 0.000676991914406 0.000170383206065)
(-0.000315640040436 0.000660341804312 0.00014799915702)
(-0.000450426892872 0.00062994814183 0.000117458614492)
(-0.000531592080361 0.000591162519525 7.36750328548e-05)
(-0.00053876165273 0.000542761439309 2.44282058119e-05)
(-0.000467364294467 0.000495859394293 -2.81723648909e-05)
(-0.000328055812192 0.00045267893373 -6.82276122121e-05)
(-0.000146591473018 0.000419148710733 -7.34370377307e-05)
(3.27416254513e-06 0.000402405630452 -1.17918637928e-05)
(1.84074955858e-05 0.000251806124027 -2.10208588284e-05)
(0.00019451636471 0.000264888611121 -8.32913783067e-05)
(0.000417124135989 0.000288882655024 -8.03322001973e-05)
(0.000598431060937 0.000324061501748 -3.95604402621e-05)
(0.000711504569365 0.000359794938924 1.50335400014e-05)
(0.000752586034892 0.000399171870821 6.8962322457e-05)
(0.000717309246979 0.000435341390452 0.000119789090611)
(0.000617912599918 0.000465947406169 0.000156804342857)
(0.00046418872539 0.000492118264046 0.000194127695258)
(0.000274429246065 0.000508314101111 0.000212284008363)
(6.51831282071e-05 0.00051883730423 0.000219013513535)
(-0.000146981945619 0.000519559043244 0.000207196736738)
(-0.000335809575334 0.000510600125678 0.000184683945925)
(-0.000481756761453 0.000489863719083 0.000150292015196)
(-0.000569617651384 0.000462608403597 0.000101477772497)
(-0.000580421490862 0.000428201539326 4.91712580642e-05)
(-0.0005075367237 0.000393096149133 -9.045712264e-06)
(-0.000361944091729 0.0003614519801 -5.38613041101e-05)
(-0.000168241327249 0.000338178431046 -6.23131529917e-05)
(-3.94245161138e-06 0.000328005998592 -2.30443645205e-06)
(2.30922669149e-05 0.000168366240062 -1.67443803579e-05)
(0.000208827318645 0.000174359865767 -7.82760534079e-05)
(0.000440071288388 0.000187154888443 -7.33797091894e-05)
(0.000625455258165 0.000205004289775 -3.0061710369e-05)
(0.000740248854857 0.000224495557646 2.78128826645e-05)
(0.000781347771805 0.000245410976104 8.40752013508e-05)
(0.00074270965507 0.000264986852579 0.000136569148822)
(0.000641321273462 0.000281863258487 0.000173383526299)
(0.000481829375166 0.000299569397769 0.000213503110226)
(0.000285397640981 0.00030960688203 0.000231059273736)
(7.13460095367e-05 0.00031892794841 0.000236579742579)
(-0.000148837126159 0.000322631511396 0.000229676634868)
(-0.000345349801187 0.000320714128657 0.000206785813016)
(-0.000498468703402 0.000312030020582 0.00017131141809)
(-0.000593228478336 0.000298085710521 0.000120620289759)
(-0.000608122590496 0.00027865724218 6.55371101902e-05)
(-0.000533821818103 0.000258557779969 3.85068999885e-06)
(-0.000382771454991 0.000241378332547 -4.4338047762e-05)
(-0.000181504233308 0.000229776702226 -5.60489122803e-05)
(-8.87253201849e-06 0.000227868565426 3.23950154375e-06)
(2.50589188105e-05 7.34262450851e-05 -1.54818419373e-05)
(0.000213645795968 7.03653843152e-05 -7.69294516743e-05)
(0.000447663756082 6.97785294337e-05 -7.1142502757e-05)
(0.000635691092443 7.00409576412e-05 -2.6848781678e-05)
(0.000751864193836 7.15802366637e-05 3.21488605622e-05)
(0.000793073195945 7.38658006583e-05 8.91164563441e-05)
(0.00075380412258 7.66818979801e-05 0.00014212045904)
(0.00065253304255 8.04433203011e-05 0.000179450421604)
(0.000491950758787 8.66883703526e-05 0.000219621207584)
(0.000293794688672 9.39222644885e-05 0.000236184645351)
(7.82123165041e-05 0.000100428546533 0.000244803686775)
(-0.000145197646471 0.000105767368404 0.000240283181467)
(-0.000346421475836 0.000109867454429 0.000218192891822)
(-0.000504419684626 0.000111163002848 0.000181957956173)
(-0.000602972275463 0.000109596940284 0.000130186552113)
(-0.000619844137785 0.000107212739431 7.17529110968e-05)
(-0.000544674935074 0.000105269990567 7.61174731655e-06)
(-0.000391457976007 0.000104212662376 -4.14447441402e-05)
(-0.000186985171346 0.000105205929229 -5.37078548352e-05)
(-1.07565763232e-05 0.000113337752465 5.27050980972e-06)
(2.31296734746e-05 -2.01241486176e-05 -1.80095351783e-05)
(0.000208877907188 -3.18850216407e-05 -7.97122284834e-05)
(0.000440409811546 -4.5371960638e-05 -7.53539014639e-05)
(0.00062727730986 -6.27017589414e-05 -3.19740309217e-05)
(0.000744082416904 -7.88412632499e-05 2.53797630649e-05)
(0.000786460112179 -9.68228532155e-05 8.15574568681e-05)
(0.000749306876496 -0.000110912847262 0.000134127353519)
(0.00065136395081 -0.000122340479729 0.000171759761998)
(0.000495338117353 -0.000127551243257 0.000210948494661)
(0.00029916022188 -0.000127342518361 0.000233993483349)
(8.32021523071e-05 -0.000124010667577 0.000244254519981)
(-0.000139395550077 -0.000117375335857 0.000237352459016)
(-0.000339962585977 -0.000107842084184 0.000214210711131)
(-0.000498735706588 -9.57965786259e-05 0.000177249361508)
(-0.000597179697068 -8.33172919221e-05 0.000126369837615)
(-0.000612432566128 -6.62888658035e-05 6.68164742105e-05)
(-0.000536866401877 -5.05220958466e-05 4.67734054419e-06)
(-0.000384559882474 -3.3704402432e-05 -4.44096719256e-05)
(-0.000181679128096 -1.85497602321e-05 -5.54114244308e-05)
(-8.43764199092e-06 -2.41686577915e-06 2.5277622692e-06)
(1.8904106258e-05 -0.000100030203515 -2.29317462321e-05)
(0.000195504495193 -0.000120292291984 -8.60078132793e-05)
(0.000418336802266 -0.000144114039944 -8.42933212529e-05)
(0.00060236157927 -0.000177389593393 -4.29837375997e-05)
(0.000717791818853 -0.000210008992766 1.04939627822e-05)
(0.000761025978373 -0.000245921345037 6.32514803963e-05)
(0.000728286224617 -0.000277393026003 0.000113328712174)
(0.000635913139104 -0.000302805491036 0.000151160814872)
(0.000486977922521 -0.000320043633136 0.000189333289776)
(0.000297365489586 -0.000328360861288 0.000210493590455)
(8.81939646986e-05 -0.000328757875366 0.000221579226501)
(-0.000129024247803 -0.000322116692892 0.000216237314947)
(-0.000324843011517 -0.00030701562155 0.000193097992225)
(-0.000479877714405 -0.000285064141261 0.000156476958702)
(-0.000573493000371 -0.000255466126265 0.000108097919123)
(-0.000587104155801 -0.000220629331154 4.97920883251e-05)
(-0.00051237562185 -0.000187169975566 -7.84760711675e-06)
(-0.000362424870774 -0.000154542509865 -5.45227157206e-05)
(-0.000169216926731 -0.000127896162802 -6.29487762926e-05)
(-5.86380986112e-06 -0.000102377486967 -2.18208522238e-06)
(1.07225680938e-05 -0.000156866638642 -3.06859011373e-05)
(0.000175323381206 -0.000183191126765 -9.48474399703e-05)
(0.000385635813826 -0.000216148435423 -9.67234472233e-05)
(0.000561659342331 -0.000261809651403 -6.05290424862e-05)
(0.000675602696131 -0.000309283375333 -1.20197611642e-05)
(0.000719107203428 -0.000359174403011 3.63071758876e-05)
(0.000692419383555 -0.000406092898492 8.13117003646e-05)
(0.000608711463392 -0.000443673597103 0.000117764007438)
(0.000469800692785 -0.000473393923835 0.000153263844578)
(0.000290470653495 -0.00048877974936 0.000173982879262)
(8.94620901538e-05 -0.000493553088576 0.000185178541556)
(-0.000117645568413 -0.000486007915969 0.000178734190847)
(-0.000302900016638 -0.000465462052116 0.000156728210322)
(-0.000447171952854 -0.000432951975299 0.000123491570128)
(-0.000532787071734 -0.00039039731279 7.70270413774e-05)
(-0.000544234159153 -0.000340461813911 2.35794606336e-05)
(-0.000471346616574 -0.000291893960908 -2.94887992916e-05)
(-0.000329529607498 -0.000245527301002 -6.96067537575e-05)
(-0.000147496504808 -0.000209765313992 -7.42560855214e-05)
(2.81281068384e-06 -0.00017506732243 -1.27475778029e-05)
(2.72666213627e-06 -0.000182786748832 -4.06428099232e-05)
(0.000150026057773 -0.000212465068323 -0.00010578479407)
(0.000343002777139 -0.000252892811659 -0.000111967787812)
(0.000509646581534 -0.000302793059227 -8.28145699023e-05)
(0.000620486008165 -0.000363801165471 -4.18020385994e-05)
(0.000664237548224 -0.000421267311238 8.66551194325e-07)
(0.000643775254849 -0.000478134531503 4.13482952495e-05)
(0.00056860382506 -0.00052588818517 7.40461343613e-05)
(0.00044189316654 -0.00056482382471 0.000104244790909)
(0.000277233288177 -0.000586923458574 0.000122128190195)
(9.0974533142e-05 -0.000595277541105 0.000132796546952)
(-0.000100930290951 -0.000586922463203 0.000127113298776)
(-0.000271777876787 -0.000560822363313 0.00010774037272)
(-0.00040480127645 -0.000520131663031 7.74718450539e-05)
(-0.000481040730354 -0.000468687477609 3.67894078107e-05)
(-0.000488730346355 -0.000410073917533 -9.33813759419e-06)
(-0.000418262923986 -0.000348943182534 -5.46655024668e-05)
(-0.000285801432778 -0.000296581696288 -8.79505254374e-05)
(-0.000120916974932 -0.000252152049611 -8.74779688106e-05)
(1.22068777456e-05 -0.000214911228341 -2.46775816524e-05)
(-6.81112124862e-06 -0.000174125985797 -4.8728646911e-05)
(0.000121540335019 -0.000204877598715 -0.000116097329583)
(0.000299550849078 -0.000245201047381 -0.000127216468206)
(0.00045124813185 -0.000297310538535 -0.000105693940599)
(0.00055718808006 -0.00035980043091 -7.25918425432e-05)
(0.000604758141693 -0.000424331916504 -3.86874829372e-05)
(0.000587746845128 -0.000483900375709 -4.86109024446e-06)
(0.000521957889506 -0.000534989480598 2.2886208849e-05)
(0.000408711105267 -0.000577310789251 4.98050090517e-05)
(0.000259990671184 -0.00060317851672 6.47843509417e-05)
(8.94693102023e-05 -0.000613815991116 7.24805593253e-05)
(-8.31509574596e-05 -0.000604778575911 6.71553188742e-05)
(-0.000236055228413 -0.000577538378784 5.06951949538e-05)
(-0.0003549850637 -0.000533696285437 2.45459892274e-05)
(-0.000422721488813 -0.000478432280758 -9.18271258804e-06)
(-0.000424620536124 -0.000413420867457 -4.60609861704e-05)
(-0.000358841766812 -0.000350056567938 -8.2886424229e-05)
(-0.00023953408631 -0.000296496651764 -0.000107276531234)
(-9.12222482148e-05 -0.000251371335893 -0.000101827993094)
(2.06996891586e-05 -0.000212899538488 -3.78977236347e-05)
(-1.45308296019e-05 -0.000131725282866 -5.85279574088e-05)
(9.73920661312e-05 -0.000158149510802 -0.000126097273441)
(0.000255611532384 -0.000193121791953 -0.00014154289258)
(0.000395634673116 -0.00024089720886 -0.000127045797505)
(0.000493457697021 -0.000295735918441 -0.000103104205666)
(0.000540042890459 -0.000358071186896 -7.63726752889e-05)
(0.000532995200279 -0.00041552162617 -5.13451152919e-05)
(0.000475043952935 -0.000465892274285 -2.96585148075e-05)
(0.000373550395582 -0.000506175689447 -9.52583370192e-06)
(0.000240618179736 -0.000531666622916 2.27092446748e-06)
(8.93454626069e-05 -0.000541923583015 7.96011131007e-06)
(-6.45967396343e-05 -0.000532451821583 4.58690051671e-06)
(-0.000200584133801 -0.000506448903392 -7.84377024147e-06)
(-0.000305546477347 -0.000463853233887 -2.81439667877e-05)
(-0.000360602774865 -0.000410324182156 -5.4071248763e-05)
(-0.000360326822497 -0.000349745872243 -8.2663829664e-05)
(-0.000302357571361 -0.000293162954724 -0.000108771282949)
(-0.000194899869605 -0.000243667779828 -0.000125276227524)
(-6.52991242919e-05 -0.00020567559251 -0.000115681246408)
(2.94346061685e-05 -0.000169137596817 -4.92019437707e-05)
(-1.95288558026e-05 -6.12536224007e-05 -6.3158938087e-05)
(7.96531416277e-05 -8.19003192664e-05 -0.000130573302156)
(0.000222288032792 -0.000109231871984 -0.000147717065136)
(0.000349055558732 -0.00014446987743 -0.000139058931821)
(0.000439722344393 -0.000188277971721 -0.000122629171378)
(0.000484637156318 -0.000235816826724 -0.000104193814497)
(0.000479559531122 -0.000283486662295 -8.60556207711e-05)
(0.000430967785516 -0.000325563614852 -6.90372594706e-05)
(0.000342689000869 -0.000359474934413 -5.5023941215e-05)
(0.000224111975469 -0.000379949084765 -4.57964850532e-05)
(8.86985396995e-05 -0.000387850826337 -4.16984103908e-05)
(-4.74054372644e-05 -0.000380225918753 -4.42165887791e-05)
(-0.000166891329732 -0.000358236714041 -5.40767887867e-05)
(-0.00025804074498 -0.000323683800096 -6.82038840013e-05)
(-0.000307586601711 -0.0002801030818 -8.73108151041e-05)
(-0.000306378611184 -0.000233530364657 -0.000106555190745)
(-0.000252746037163 -0.000188428967511 -0.000125126506588)
(-0.000159578495375 -0.000153022970414 -0.000135572002822)
(-4.60470847093e-05 -0.000124201701543 -0.000123591073538)
(3.50216932326e-05 -9.25414351551e-05 -5.78011273812e-05)
(-2.79702725414e-05 2.00197782964e-05 -5.09966566523e-05)
(6.50782985492e-05 6.54457466836e-06 -0.000117026579762)
(0.000196422138577 -1.09741214854e-05 -0.000133164236523)
(0.000315348391102 -3.18615936076e-05 -0.000125783376863)
(0.00040059923612 -5.74839345061e-05 -0.000113098113477)
(0.000443692353275 -8.88026076711e-05 -0.000100702122507)
(0.000442548449921 -0.000117954146608 -8.66039095211e-05)
(0.000398739302743 -0.000143772635151 -7.35584798565e-05)
(0.000319420218167 -0.000165963359367 -6.25642977687e-05)
(0.000213206032677 -0.000178930065243 -5.59912493925e-05)
(9.07693429074e-05 -0.000184092226078 -5.32923283349e-05)
(-3.2260980947e-05 -0.000178470485666 -5.48966872057e-05)
(-0.000140143737902 -0.000165467700851 -6.19880491372e-05)
(-0.000222385015288 -0.000143427780317 -7.30266478147e-05)
(-0.000264098830335 -0.000116992741746 -8.62155581763e-05)
(-0.000261236889505 -8.68024766401e-05 -0.00010094027273)
(-0.000214713918504 -6.04373721639e-05 -0.000115252750117)
(-0.000130996574887 -4.09444515247e-05 -0.000123319203569)
(-2.84391697539e-05 -2.34670591911e-05 -0.000111401224375)
(4.2685660636e-05 2.02527949711e-06 -4.64331919301e-05)
(-4.23397155933e-05 7.06660499849e-05 1.73941043965e-05)
(5.3343899517e-05 6.0350755615e-05 -5.4632799944e-05)
(0.000184250711118 5.05118200287e-05 -6.71651578306e-05)
(0.000301172772814 4.28909053585e-05 -5.82508352957e-05)
(0.000381998850937 3.40387992059e-05 -4.74919287966e-05)
(0.000424416191005 2.24670667221e-05 -3.46914219829e-05)
(0.000426088562285 1.24772495527e-05 -2.23112021612e-05)
(0.00038589824919 3.20674645923e-06 -1.06028085696e-05)
(0.000312464654049 -4.17022235052e-06 -1.36701527844e-06)
(0.000213010603754 -8.79913404976e-06 3.92388640485e-06)
(9.83602818816e-05 -1.08670699844e-05 6.11388636553e-06)
(-1.68880068769e-05 -9.0058976916e-06 4.35828194875e-06)
(-0.000116965463565 -4.97407975824e-06 -1.21107626857e-06)
(-0.000191932351316 2.95764340737e-06 -1.07602146088e-05)
(-0.000230656636854 1.28640271225e-05 -2.23084104227e-05)
(-0.000227127561543 2.20754416371e-05 -3.67477010653e-05)
(-0.000182739430635 3.1134051073e-05 -4.87749904819e-05)
(-0.000103580547696 3.70539946845e-05 -5.77654508213e-05)
(-6.07913751276e-06 4.44522478266e-05 -4.64357725686e-05)
(5.77582680805e-05 6.06718134331e-05 3.0481531832e-05)
(-3.87846257207e-05 -3.64441603199e-05 4.89024723445e-05)
(3.11647142398e-05 -1.63069714258e-05 -0.000122964183393)
(0.00013529193175 -5.01884480393e-06 -0.000166135066235)
(0.00023015962433 6.66142768567e-06 -0.000160122534851)
(0.000298827316259 1.96207339845e-05 -0.000144924290823)
(0.000335119713971 3.47770605152e-05 -0.000125395535862)
(0.000336286090493 4.98440433556e-05 -0.000107264939116)
(0.000301680337766 6.20827471693e-05 -8.82391762288e-05)
(0.000237078017375 7.2908475976e-05 -7.30196661268e-05)
(0.000151948541344 7.98209775837e-05 -6.33137257385e-05)
(5.53944305515e-05 8.19481440341e-05 -6.02336947477e-05)
(-4.06041327258e-05 7.9432193822e-05 -6.47939914684e-05)
(-0.00012455396145 7.28199102994e-05 -7.56016832552e-05)
(-0.00018707840095 6.16709484866e-05 -9.30045646456e-05)
(-0.000216752985053 5.00002469468e-05 -0.000115311410754)
(-0.000210067857656 3.52330232694e-05 -0.000138540760776)
(-0.000167389514492 2.38238436986e-05 -0.000160828075386)
(-9.18655998662e-05 1.27583520956e-05 -0.000171904972347)
(-7.67916286831e-06 -2.42463953973e-06 -0.000135237320983)
(5.55865728613e-05 -2.56487088854e-05 4.02267252475e-05)
(-2.05917655465e-05 3.99831431157e-05 -0.000122456955672)
(5.6386533956e-05 6.81332118377e-05 -0.00025650656056)
(0.000156587598303 9.17609172735e-05 -0.000299428120252)
(0.000250442209635 0.000120558814808 -0.000298740110591)
(0.000320881384767 0.000155964056997 -0.00028188303568)
(0.000357803202172 0.000195575722784 -0.000260006017595)
(0.000356485500463 0.00023425476059 -0.000236458664163)
(0.000318546858547 0.000268489167167 -0.000214373208745)
(0.00024969899724 0.000295788338505 -0.000196533080776)
(0.000158168311505 0.000312769311439 -0.000185259473361)
(5.46047768809e-05 0.000318376393332 -0.000181890692055)
(-4.81924501468e-05 0.000311862238137 -0.000186969977923)
(-0.000138646977392 0.000294615386486 -0.000200370458676)
(-0.000205587835366 0.000268198378979 -0.000221133395231)
(-0.000239115007756 0.000235525042432 -0.000247959649699)
(-0.000233454495431 0.000198962895303 -0.000276610458263)
(-0.000189272040591 0.000165245171821 -0.000301237539958)
(-0.000115629719557 0.00013749206829 -0.000309030157667)
(-3.11909718198e-05 0.000112564229676 -0.000271675613449)
(3.44225421553e-05 8.79256849863e-05 -0.000131953190011)
(-9.79438387193e-06 0.000154115887708 -0.000165374269383)
(7.91817912803e-05 0.000176538559608 -0.000298142735661)
(0.000188874166924 0.000209030109589 -0.000339887325712)
(0.000290087290589 0.000253870587435 -0.000334378730266)
(0.000365699113615 0.000309281069341 -0.000307541577579)
(0.000403480543784 0.000370216266883 -0.000272289252009)
(0.000398838776341 0.000429323115079 -0.00023566668396)
(0.000354278734629 0.000481763913389 -0.000202213720372)
(0.000275181209101 0.000523185958134 -0.000175012977959)
(0.000171128327385 0.000548795075288 -0.000158246905692)
(5.41380270343e-05 0.00055723659128 -0.000153449974022)
(-6.18462321469e-05 0.000547758043788 -0.000161000584541)
(-0.000163795435113 0.000521753062004 -0.000180770681338)
(-0.000240305153412 0.000481885063397 -0.00021162130099)
(-0.000280357409398 0.000431495584724 -0.000251135850448)
(-0.000276531328823 0.00037672023633 -0.000293478823555)
(-0.000228944906694 0.000323304262146 -0.000329639566761)
(-0.0001493628295 0.000279243960846 -0.000343175795147)
(-5.64819090041e-05 0.000245595670713 -0.000306646506606)
(1.88426172396e-05 0.000223388864728 -0.000165911991928)
(5.77306079795e-07 0.000253763314967 -0.000157304984295)
(0.000106957085617 0.000276164508281 -0.000295334758676)
(0.000233396491003 0.000315823846695 -0.000332058992641)
(0.000347601977461 0.000373269324848 -0.000313822821681)
(0.000431046265196 0.000443305026101 -0.000268707847652)
(0.000470049531001 0.00051861368828 -0.000213501841051)
(0.000460402901761 0.000591237841034 -0.000157510265341)
(0.000405957448575 0.0006550878985 -0.00010769073477)
(0.000312082196999 0.000704882851279 -6.73332536092e-05)
(0.000189875467556 0.000735918020829 -4.28555411819e-05)
(5.37180732721e-05 0.000746210792287 -3.59823270295e-05)
(-8.11870998597e-05 0.000735017412351 -4.75325925491e-05)
(-0.00020003454037 0.000703812710099 -7.59875693611e-05)
(-0.000290162210017 0.000656442236987 -0.000120505416807)
(-0.000338459179292 0.000595443935616 -0.000177724597537)
(-0.000337135415742 0.000528225826632 -0.000240058132862)
(-0.000285198855101 0.000461876447191 -0.000295415327992)
(-0.00019413865082 0.000406038907729 -0.000323399380861)
(-8.54163494255e-05 0.000365699860212 -0.000292761203133)
(7.09822658648e-06 0.000344696667893 -0.000147698424758)
(1.43022463782e-05 0.000328601214642 -0.000138815978456)
(0.000142404552085 0.000351633854946 -0.000275729861172)
(0.000288703806894 0.000395612205802 -0.000302455140664)
(0.000417637873259 0.000459553745141 -0.000266402397508)
(0.000508341875406 0.000536194520292 -0.000199628236619)
(0.000547375579963 0.000616455918529 -0.000122416083669)
(0.000531250961467 0.000692683449825 -4.63533258345e-05)
(0.00046444392125 0.000759441385999 2.02173996863e-05)
(0.000353520017743 0.000812610436765 7.50761414881e-05)
(0.000211189449831 0.00084576390217 0.00010801811584)
(5.32965089675e-05 0.000857306395176 0.0001167996398)
(-0.000102889980638 0.000845800224881 0.000100642522352)
(-0.000239926317259 0.000812917955746 6.19308542437e-05)
(-0.000345500731273 0.000763556110483 3.31979145351e-06)
(-0.000405245519978 0.000700979935354 -7.13951142136e-05)
(-0.00040778759823 0.000630259831531 -0.000154674102149)
(-0.00035138130594 0.000559052212471 -0.000232415148734)
(-0.000248285041008 0.000497362984574 -0.000279241732726)
(-0.000120873750196 0.000453860212501 -0.000260096283235)
(-5.65739519788e-06 0.000431232567374 -0.000117767438938)
(2.74000998661e-05 0.000368709577049 -0.000117425187786)
(0.000180193425339 0.00039114914276 -0.000250502248179)
(0.000347525251139 0.000435782641624 -0.000265318763553)
(0.000491132478251 0.000499679836833 -0.000210221731993)
(0.000588041272997 0.00057568992768 -0.000121934154248)
(0.000625251459585 0.000652871351933 -2.53921405253e-05)
(0.00060178997341 0.000725770578908 6.75718938692e-05)
(0.000524418094445 0.000789425605114 0.000149527629079)
(0.000397304683449 0.000841205995861 0.000216981983115)