/*--------------------------------*- C++ -*----------------------------------*\
| =========                 |                                                 |
| \\      /  F ield         | OpenFOAM: The Open Source CFD Toolbox           |
|  \\    /   O peration     | Version:  3.0.1                                 |
|   \\  /    A nd           | Web:      www.OpenFOAM.org                      |
|    \\/     M anipulation  |                                                 |
\*---------------------------------------------------------------------------*/
FoamFile
{
    version     2.0;
    format      ascii;
    class       volScalarField;
    location    "3.6";
    object      epsilon_0;
}
// * * * * * * * * * * * * * * * * * * * * * * * * * * * * * * * * * * * * * //

dimensions      [0 2 -3 0 0 0 0];

internalField   nonuniform List<scalar> 
7968
(
0.000527413777272
0.000619502044811
0.000693720704861
0.000740255025018
0.000766372021977
0.000778679705393
0.000782425393743
0.000781513959896
0.000778907911279
0.000776577775087
0.000776652550683
0.000779080940619
0.000781760863606
0.000782746368516
0.000779073220275
0.000766831370241
0.000740736189164
0.000694153660408
0.000619805001293
0.000527533869971
0.0006195391632
0.00104906603856
0.00136944639733
0.00156849810597
0.00167886458974
0.00172853361484
0.00174209240122
0.00173821227223
0.00173033099834
0.00172515621977
0.00172511744366
0.00173024084277
0.00173818387522
0.00174225968084
0.00172897685387
0.00167961407878
0.00156942345348
0.00137038508297
0.00104974072596
0.000619764522718
0.000693888497027
0.00136966993526
0.0018813749384
0.00220376320279
0.00238526207291
0.00246904206973
0.00249364712407
0.00249035805875
0.00248054584638
0.0024740915644
0.00247384689793
0.00247991728015
0.00248965671531
0.00249320957504
0.00246904417294
0.002385691343
0.00220450733769
0.00188222604147
0.00137030751688
0.000694115232056
0.000740477291886
0.00156890721624
0.00220391879496
0.00260270824275
0.00282208029459
0.00291661917746
0.00293846323561
0.0029283872101
0.00291352935652
0.00290492831401
0.00290440688356
0.00291212566582
0.00292674609184
0.00293721963799
0.00291600982505
0.00282198831909
0.00260296938041
0.00220438048506
0.00156927400097
0.000740610375045
0.000766632979371
0.00167918831844
0.00238537026885
0.00282193557759
0.00304868505051
0.00313433768679
0.00317711860166
0.00319023850095
0.00318681359466
0.0031817930133
0.00318132719797
0.00318563059028
0.00318887928236
0.00317607636248
0.00313351455714
0.00304842203562
0.00282190516907
0.00238545880089
0.00167924809341
0.000766636209793
0.000778941629496
0.0017287663624
0.00246886626216
0.00291597550914
0.00313368332186
0.00326768249563
0.00333055905691
0.00334499573133
0.00333977305714
0.00333321984031
0.00333261323746
0.00333825185252
0.00334329128396
0.00332936920814
0.00326714683461
0.00313380856815
0.00291615032097
0.00246890692342
0.00172874356689
0.000778857419717
0.000782648938878
0.00174207205417
0.00249295362511
0.00293697742515
0.00317631349292
0.0033300782766
0.00339230359663
0.00339986235068
0.00338805227175
0.00337771928815
0.00337693438766
0.00338610200312
0.00339771172478
0.00339091504888
0.00332962852017
0.00317645057314
0.00293775734984
0.00249327076273
0.00174208665849
0.000782538169967
0.000781664365949
0.00173787676112
0.00248914693941
0.00292616128578
0.00318899630859
0.00334409028683
0.00339944372695
0.00339702160038
0.00337640238843
0.00336082943003
0.00335988481178
0.00337407769001
0.0033944413174
0.0033978062427
0.00334365535374
0.00318935333273
0.00292751547454
0.00248984232697
0.00173807703979
0.000781575449269
0.000778960770208
0.00172971951244
0.00247900278249
0.0029110004589
0.00318540068752
0.0033388069485
0.00338764919152
0.0033764202647
0.00334674303158
0.00332499043916
0.00332392767954
0.00334417319507
0.00337351448601
0.00338571676266
0.00333825092724
0.00318583310405
0.00291262805541
0.0024799702625
0.00173010190675
0.000778908948138
0.000776497990861
0.00172434237005
0.00247243422327
0.00290263074466
0.00318051394244
0.0033325237194
0.00337769666719
0.00336121153032
0.00332526217886
0.00329849439165
0.00329738152795
0.00332255214513
0.00335808613064
0.00337550995692
0.00333179508799
0.00318087920075
0.00290416175239
0.00247348599108
0.00172480109879
0.000776455783589
0.000776404647966
0.00172417374146
0.00247219119856
0.00290232613543
0.00318023729065
0.00333222563692
0.00337735160175
0.00336078462437
0.00332471701109
0.00329783143717
0.00329670428598
0.00332197549923
0.00335762662726
0.00337513507822
0.00333146656067
0.00318056169911
0.00290377937126
0.00247315690394
0.0017245615031
0.000776325800008
0.000778764508119
0.00172924482873
0.00247830037998
0.00291009351208
0.00318461155984
0.00333796973457
0.00338670257925
0.00337529241921
0.00334538221788
0.00332343503094
0.00332233261349
0.00334273471086
0.00337231171875
0.00338469458952
0.00333732914849
0.00318492730705
0.00291149913393
0.00247903654137
0.0017294422831
0.000778633620432
0.000781427609842
0.00173716172773
0.00248804931098
0.00292470696183
0.00318775950633
0.00334278310595
0.00339798796804
0.00339534449243
0.00337449875192
0.00335876112943
0.00335778342772
0.00337210960373
0.00339269084661
0.0033962528439
0.00334222027329
0.00318793586263
0.00292572938235
0.00248841166586
0.00173710244107
0.000781240994982
0.000782418867276
0.00174124586262
0.00249162360246
0.00293513780513
0.00317470629843
0.00332841000983
0.0033904634691
0.00339779980059
0.00338578305563
0.0033753213219
0.00337451284101
0.00338377981893
0.00339557085557
0.00338895053503
0.00332778268507
0.00317459452302
0.00293550507543
0.00249153999282
0.0017409528363
0.000782204729919
0.000778760560264
0.00172800305497
0.00246754910405
0.00291404491829
0.00313124054625
0.0032656898955
0.00332849932955
0.00334272551231
0.00333731846488
0.0033306554865
0.00333002280199
0.00333572789669
0.00334090772131
0.00332713704665
0.00326489688379
0.0031309478071
0.00291374535867
0.00246714262803
0.00172762732661
0.000778576889144
0.000766531088556
0.00167859233969
0.00238430394585
0.00282025558888
0.00304629919897
0.00313147908014
0.00317488661239
0.00318781441867
0.00318419148349
0.0031790737474
0.00317857352741
0.00318290243238
0.00318628010962
0.00317358765142
0.00313020328464
0.00304554092345
0.0028197173501
0.00238393868341
0.00167833917611
0.000766447562465
0.000740466933297
0.00156860181211
0.00220329016834
0.0026015614422
0.00282026216079
0.00291415672648
0.00293543776694
0.0029249293475
0.0029097652645
0.00290117504593
0.00290059526776
0.00290816632453
0.00292295964856
0.00293376444535
0.00291305769834
0.00281965604286
0.00260132006367
0.00220331753619
0.00156867713347
0.000740521483496
0.000693936626037
0.0013696608315
0.00188121297596
0.00220324070772
0.00238422669309
0.00246747614665
0.00249160748054
0.00248795146476
0.00247787171632
0.00247125947528
0.00247094468989
0.00247703516425
0.00248691838793
0.0024907524563
0.00246701402481
0.00238417617752
0.00220353433776
0.00188170142564
0.00137005120336
0.00069410514328
0.000619624243846
0.00104923093473
0.00136959522088
0.0015684582973
0.00167850952052
0.00172783510884
0.00174108862573
0.00173695440116
0.00172887694877
0.00172356993647
0.00172347585597
0.00172862950109
0.00173668060039
0.00174095483363
0.0017279499985
0.00167890241787
0.00156908555359
0.00137028416377
0.00104973017416
0.000619809667535
0.000527449997157
0.000619591325399
0.000693830845336
0.000740339609936
0.000766386931045
0.000778603488644
0.000782259866072
0.000781264021315
0.000778583358396
0.000776187613822
0.000776231693255
0.000778686774139
0.000781417729616
0.000782476578932
0.000778893478201
0.000766749279191
0.00074073989215
0.000694200979887
0.000619850255246
0.000527550420131
0.000609150105437
0.000985138346341
0.00127983844688
0.00147237863944
0.00158746603224
0.00164798438887
0.00167322940654
0.00167888404954
0.00167674003648
0.00167397542439
0.00167396429473
0.00167671450321
0.00167888699186
0.00167330502078
0.00164815005176
0.00158770957988
0.00147264619929
0.00128006100065
0.000985282437861
0.000609339765459
0.000985165055603
0.00119889600794
0.00145475174469
0.00163587936367
0.00174923108599
0.00181193839526
0.00184104705446
0.00185085904312
0.00185212972371
0.00185131704327
0.0018512904731
0.00185206253083
0.00185079029297
0.00184101418078
0.00181195575736
0.00174929236313
0.00163595882922
0.00145482321741
0.00119893221241
0.000985148695832
0.00128003393733
0.00145483029253
0.00173389804685
0.00194023927216
0.00207244485051
0.00214664970963
0.00218149318044
0.00219352802952
0.00219534433449
0.00219452985065
0.00219444169211
0.00219511048378
0.00219323212943
0.00218121169456
0.00214641219963
0.00207223746894
0.00194004815799
0.00173373169511
0.00145469495683
0.00127984321112
0.00147272458584
0.00163602501438
0.00194029599629
0.00217033229366
0.00231983092792
0.00240495599172
0.00244630743326
0.00246164997732
0.00246488332645
0.00246462798192
0.00246450139927
0.00246451560475
0.00246118398789
0.00244585245227
0.00240455379261
0.00231945064641
0.00216995345214
0.00193994538883
0.00163572705744
0.00147231952434
0.0015879016641
0.0017493894892
0.00207249652693
0.00231981166812
0.00248224117528
0.0025781249006
0.00263289256865
0.00265850332984
0.00266713523457
0.00266879209143
0.00266868597801
0.00266686312956
0.00265815558898
0.0026325345458
0.00257774945161
0.0024818608631
0.002319398837
0.00207207206016
0.00174898392791
0.0015872862446
0.00164840159112
0.00181203926146
0.00214661166906
0.00240481815287
0.00257802915324
0.00269320350892
0.00276050226954
0.00279272690259
0.00280428063619
0.00280687433509
0.00280677342784
0.00280403884506
0.00279241906815
0.00276018068679
0.00269290764819
0.00257777508483
0.00240453309357
0.0021462542872
0.00181163451851
0.00164768171953
0.00167352141236
0.00184102172934
0.0021812908189
0.00244597924459
0.00263274812068
0.00276046380695
0.0028350903277
0.00287046995903
0.00288278946988
0.00288531049163
0.0028852003346
0.00288254469412
0.00287016096842
0.0028347342213
0.00276017894283
0.00263256549734
0.00244590259233
0.00218110059575
0.00184071687702
0.00167283860628
0.00167898637128
0.00185067557376
0.0021931535322
0.00246115306668
0.00265828377058
0.00279267398953
0.00287049056401
0.00290615306777
0.0029174899161
0.00291907542776
0.00291893559873
0.00291718174223
0.00290578638207
0.00287007163555
0.00279235731917
0.00265816388616
0.00246125447943
0.00219314099176
0.00185051714049
0.001678429254
0.00167663310239
0.00185179846932
0.00219484316715
0.00246429225425
0.00266686721605
0.00280422200433
0.00288280674214
0.00291748914098
0.00292694671681
0.00292692617006
0.00292674933065
0.00292654326058
0.00291703063934
0.00288231079797
0.00280384977834
0.00266676912945
0.00246448785924
0.00219495335066
0.00185176604603
0.00167621059674
0.00167367560921
0.00185087281464
0.00219397052046
0.00246408922359
0.00266852015192
0.00280681888035
0.00288533612924
0.00291909555986
0.00292696281043
0.00292560686022
0.00292539308481
0.0029264866105
0.00291855438604
0.00288476846387
0.00280639959414
0.00266840762131
0.00246425491951
0.00219412024183
0.00185089601527
0.00167331775094
0.00167352696694
0.00185077893848
0.00219386194063
0.00246397348962
0.00266841572817
0.00280672058239
0.00288524100098
0.00291899865107
0.00292685450043
0.0029254861661
0.00292526752267
0.00292637207826
0.0029184529888
0.00288466850477
0.00280629458797
0.00266829084518
0.00246411775708
0.00219398223939
0.00185076665754
0.00167312002389
0.00167622426199
0.00185153083949
0.00219452906282
0.00246394760212
0.00266656930137
0.00280395094077
0.00288254978509
0.00291723113265
0.00292666525143
0.00292662038619
0.00292644112011
0.00292625629059
0.00291676045466
0.00288203403131
0.00280355359477
0.00266643339013
0.00246407679312
0.00219455836538
0.00185140502074
0.00167567735356
0.00167839232357
0.00185026908535
0.00219266364579
0.0024606056633
0.00265782098043
0.0027922648096
0.00287011036657
0.00290577623456
0.00291710168842
0.00291866319122
0.00291852070047
0.00291678419073
0.00290538896053
0.00286965706888
0.00279190126227
0.00265763699158
0.00246060537286
0.0021925306276
0.00184997811321
0.00167766661281
0.00167285084572
0.0018405390926
0.00218068132411
0.00244527333417
0.0026321412127
0.00275993713067
0.00283461595779
0.00287001010259
0.00288232148243
0.00288482469531
0.00288471113194
0.00288206321214
0.0028696734673
0.00283421154655
0.00275958439846
0.0026318660041
0.00244506112458
0.00218033950739
0.00184007569773
0.00167197637873
0.00164776991776
0.00181155778297
0.00214596180649
0.00240402639904
0.00257723516054
0.00269253445124
0.00275990497805
0.00279215001507
0.00280369857517
0.00280628078195
0.0028061746797
0.00280343880524
0.00279180471107
0.0027595193646
0.00269214339453
0.00257684749604
0.00240357483391
0.00214542758321
0.00181097705949
0.00164684979971
0.00158740927148
0.00174897612728
0.00207188667424
0.00231902051782
0.00248133225405
0.00257723804554
0.00263211257552
0.00265772869731
0.00266634203008
0.00266799148143
0.00266787513547
0.00266603677195
0.00265732183138
0.00263166257128
0.00257672543692
0.00248077945317
0.00231841588003
0.00207126910175
0.00174838820758
0.00158659538975
0.00147242940946
0.00163573140057
0.0019397985035
0.00216964014019
0.00231897161844
0.00240397452173
0.00244523314526
0.00246051318411
0.002463696407
0.00246350052096
0.00246335732176
0.00246328722291
0.00245994812019
0.0024446390948
0.00240340050471
0.00231839596759
0.00216905554552
0.00193924762425
0.00163525074441
0.00147183431049
0.00127992537714
0.00145466279229
0.00173354765009
0.00193970847141
0.00207174175482
0.00214579365084
0.00218050727697
0.00219244129895
0.00219417812614
0.00219331937316
0.0021932062011
0.00219386985542
0.00219202447004
0.0021800670129
0.0021453704335
0.00207133259022
0.00193931324268
0.00173318814299
0.00145435516098
0.00127957070514
0.000985196054633
0.00119881972917
0.00145453598835
0.00163551688604
0.00174870913174
0.00181125866346
0.00184022674828
0.00184992155613
0.00185109806426
0.0018502198762
0.00185016416182
0.0018509473747
0.00184972145257
0.00184002947503
0.00181109243636
0.00174857838974
0.00163540966176
0.00145443416372
0.0011987044139
0.000985060195254
0.00060920177556
0.000985073114894
0.0012796926047
0.00147212235569
0.00158704431078
0.00164736582223
0.00167241871395
0.00167790074521
0.00167561040091
0.0016727399086
0.00167268787183
0.00167547287384
0.00167773448355
0.00167229287182
0.00164731834615
0.00158707745311
0.00147219584051
0.00127974652452
0.000985095491458
0.000609372099986
0.000673668993658
0.00125034814621
0.00171424631202
0.00202576207146
0.00221861739489
0.00232595427666
0.00237655233727
0.00239436957998
0.00239742321406
0.00239653136818
0.00239639589326
0.00239705258624
0.00239386171663
0.00237600055255
0.00232541396349
0.00221811081655
0.00202528609098
0.00171381130676
0.00125007390641
0.000673920477533
0.00125039015283
0.00143601764774
0.00172280816776
0.00193886644356
0.00208265126948
0.00216906154912
0.00221501297313
0.00223576420154
0.00224328658989
0.00224524019841
0.00224520018182
0.00224317611839
0.00223560762818
0.00221482192314
0.00216883525418
0.00208238362475
0.00193855886329
0.0017224803251
0.00143568199406
0.00124985452285
0.00171449175196
0.00172285776306
0.00196956187691
0.00217221879265
0.00231246928989
0.00239893540441
0.00244599937396
0.00246795208927
0.00247632143221
0.00247861087876
0.00247853723142
0.00247612263452
0.00246766443742
0.00244564023155
0.00239850768175
0.00231195757008
0.00217163402383
0.00196896335069
0.00172228417989
0.0017134192649
0.00202623165519
0.00193897146153
0.00217225470301
0.00237521031643
0.00251974182978
0.00261112277832
0.00266230942729
0.00268744077566
0.00269809627139
0.00270124682276
0.00270116024124
0.0026978876509
0.00268713326882
0.00266187516431
0.0026106106245
0.0025191191688
0.0023744774694
0.0021714827107
0.00193820898068
0.00202471309659
0.00221922886688
0.00208278194805
0.00231250689313
0.00251973360619
0.00267091373543
0.00277015225313
0.00282848884958
0.00285823943406
0.00287074155517
0.00287459304109
0.00287449619498
0.0028704903977
0.00285784677557
0.00282804104251
0.00276971593222
0.00267035793982
0.00251902479515
0.00231170174292
0.00208191602939
0.00221735253666
0.00232655073677
0.00216915048041
0.00239891482721
0.00261104145134
0.00277008964395
0.00287769001644
0.00294267013088
0.00297643136441
0.00299065619709
0.00299502435019
0.00299490615583
0.00299033727013
0.00297581711724
0.00294189045492
0.00287713815188
0.00276969453656
0.00261049174558
0.0023982068885
0.00216829909074
0.00232451519126
0.0023769674511
0.0022149867773
0.00244586554908
0.00266211887424
0.00282837802965
0.00294278151591
0.00301273562089
0.00304892561902
0.00306382271799
0.003068177719
0.00306801957954
0.00306337796398
0.00304796096972
0.00301128822875
0.00294175816526
0.00282800226486
0.0026617634836
0.00244533204939
0.00221426249847
0.00237501298028
0.0023945117084
0.00223558425407
0.00246770276636
0.00268722389091
0.00285819252127
0.00297690730522
0.00304945781397
0.00308617890497
0.00310048484066
0.00310415504876
0.00310394447087
0.00309986588585
0.00308489629403
0.00304748752389
0.00297533735916
0.00285768856718
0.0026869762756
0.00246733328619
0.00223503764798
0.00239278893367
0.00239728633489
0.00224295290457
0.00247597435016
0.00269783695058
0.00287077497784
0.0029914056947
0.00306474096526
0.00310093121781
0.00311394064184
0.00311659430904
0.00311635225714
0.00311318795032
0.00309943845209
0.00306250406531
0.00298955074509
0.00287016436963
0.00269763838393
0.00247571555959
0.00224256085462
0.00239581131838
0.00239618078622
0.00224478692552
0.00247820027338
0.00270093306552
0.00287465958349
0.0029958807272
0.00306927632467
0.00310485216024
0.00311689293053
0.00311877071935
0.00311848695924
0.00311606534939
0.00310325053054
0.00306692039825
0.00299393005771
0.00287400981251
0.0027007678515
0.00247798691833
0.00224446587861
0.00239483491381
0.00239595423572
0.00224468738028
0.00247810965523
0.00270085336134
0.00287459467346
0.00299583384477
0.00306925445549
0.00310485005548
0.00311690196363
0.00311878630926
0.00311849633142
0.00311606959262
0.00310324847001
0.00306689983513
0.00299388363134
0.00287393703709
0.00270067336922
0.00247787113528
0.00224432759713
0.00239454399587
0.00239662898773
0.00224266069769
0.00247570797492
0.00269760630783
0.00287058550461
0.00299127737988
0.00306468395358
0.00310092727403
0.00311395825413
0.00311662136377
0.00311638449575
0.00311321283669
0.00309943416379
0.00306243962387
0.0029894102672
0.00286994806072
0.00269736802554
0.00247538103839
0.00224216841134
0.00239499219923
0.00239350127774
0.00223513050979
0.00246727644532
0.0026868454709
0.00285788346156
0.00297671462739
0.00304938676313
0.00308620164961
0.0031005493549
0.00310422703832
0.00310401941186
0.00309993130977
0.00308491140902
0.00304739697329
0.00297510825114
0.00285732869011
0.00268652905064
0.00246680562991
0.00223444338358
0.00239155869761
0.0023757533408
0.00221443044835
0.00244530716701
0.00266156376929
0.0028279257474
0.00294248473511
0.00301261623852
0.00304893095927
0.0030638874202
0.00306825209693
0.00306809553628
0.00306343602883
0.00304794901471
0.00301113267294
0.0029414042299
0.00282747350897
0.00266110669955
0.00244464386481
0.00221353799887
0.00237354216566
0.00232531795569
0.00216856634651
0.00239827543487
0.00261035892455
0.00276946787597
0.00287719516914
0.00294233074121
0.00297622078402
0.00299050278689
0.00299488025092
0.00299476065382
0.00299017308279
0.00297557688024
0.00294149704717
0.00287656471834
0.00276896917302
0.0026096787662
0.00239741174452
0.00216752590912
0.00232299944436
0.00221815035627
0.00208223866133
0.00231184235332
0.00251896843519
0.00267012197028
0.00276942710829
0.00282784230632
0.00285766758487
0.0028701961061
0.00287403844793
0.00287393382446
0.0028699192303
0.00285722751741
0.00282731833695
0.00276888453032
0.00266943183315
0.00251810123748
0.00231085909088
0.00208116962751
0.00221597698718
0.00202542739095
0.00193851793511
0.00217162205655
0.00237442743883
0.00251886821813
0.00261020973398
0.00266139214731
0.00268661493027
0.00269726276234
0.00270034148026
0.00270024013639
0.00269699925876
0.00268623650156
0.00266084861572
0.00260955779629
0.00251808072841
0.00237351115992
0.00217065479473
0.00193754663552
0.00202361312675
0.00171400408424
0.00172250636172
0.00196900186386
0.00217147959287
0.00231159407019
0.00239795973214
0.00244494958992
0.0024668548292
0.00247517069739
0.00247740910798
0.00247731264147
0.00247490501913
0.00246645840365
0.00244444490658
0.00239735899764
0.00231089081461
0.00217069370073
0.00196820133884
0.00172173165475
0.00171266764295
0.00125021287806
0.00143573946176
0.00172232067314
0.00193819163498
0.00208180330388
0.00216805468587
0.00221386778395
0.00223450488936
0.0022419299841
0.00224381381389
0.00224374116136
0.00224172640185
0.00223419912288
0.00221348966711
0.00216761918304
0.00208131720053
0.00193766754636
0.00172178952173
0.00143521949592
0.00124948564487
0.000673729103095
0.00125001041943
0.00171362970191
0.00202489301428
0.00221745744665
0.0023244813388
0.00237478723262
0.00239235806774
0.00239521101643
0.00239418053622
0.00239398948019
0.00239468507288
0.00239160723564
0.00237394091313
0.00232362190674
0.00221662775947
0.00202410979333
0.00171292583422
0.00124954208599
0.000673967003499
0.000716297644284
0.00143527626696
0.00202177734225
0.00242257780372
0.00267715978445
0.00282485037294
0.00290029567409
0.0029325171364
0.00294332316796
0.00294581460361
0.00294554393051
0.00294256263294
0.00293141145893
0.0028989638523
0.00282337499553
0.0026756357326
0.00242111651204
0.00202052112828
0.00143451158511
0.00071663960831
0.00143536503351
0.00161444515138
0.00193626359308
0.00218623091913
0.00235808397092
0.0024658553441
0.00252687012578
0.00255733917314
0.00257039079605
0.00257479545401
0.00257475349893
0.00257027340288
0.00255716360922
0.00252661604602
0.00246548123657
0.00235756111417
0.00218556808949
0.00193552276204
0.00161367813272
0.00143419477213
0.0020221156444
0.00193631349313
0.00218114634629
0.00239426684583
0.00254792385778
0.00264728131107
0.00270509167395
0.00273493383465
0.00274805749676
0.00275253760148
0.00275246921895
0.00274787298188
0.00273466489937
0.00270473309365
0.00264678078656
0.00254722799242
0.00239337587945
0.00218014687943
0.00193525222768
0.00201992493106
0.00242320422018
0.00218633811714
0.00239429949998
0.00259260137091
0.00274096045027
0.00283959498116
0.00289837715789
0.00292996958303
0.00294384785873
0.00294856058208
0.00294845107617
0.00294355485298
0.00292946435202
0.0028977226148
0.00283896398731
0.00274023105496
0.00259162985586
0.00239317127718
0.00218508474746
0.00242020655021
0.00267798618303
0.0023582233671
0.00254796181836
0.0027409514371
0.00288967464515
0.00299152571913
0.00305285643359
0.00308525816645
0.00309955482857
0.00310432012522
0.0031041332399
0.00309900754644
0.00308416795508
0.00305135416873
0.00299021689065
0.0028888303549
0.00274010414057
0.00254687835321
0.00235690653932
0.00267437204285
0.00282567583668
0.00246595302223
0.00264726504668
0.00283951574839
0.00299163297076
0.00309639799827
0.0031600507108
0.00319337893076
0.00320773984052
0.00321227188173
0.00321196329067
0.00320676289882
0.00319131703265
0.00315700127983
0.00309353798861
0.00299004660189
0.00283879337599
0.00264635857397
0.00246471021347
0.00282178483498
0.00290087114477
0.0025268305044
0.00270495272714
0.00289831937861
0.00305356226843
0.003160996414
0.00322615578578
0.00325955455927
0.00327328863172
0.00327723168806
0.0032768110867
0.00327188478071
0.00325646389497
0.00322132760914
0.0031562251318
0.0030506595053
0.00289744969527
0.00270429096948
0.00252578731
0.00289711301738
0.00293269291585
0.00255710287996
0.00273465118239
0.0029301163293
0.00308676738302
0.00319566420044
0.00326115944925
0.0032937834554
0.00330636956035
0.00330942781109
0.00330895480891
0.0033047123697
0.00329005858706
0.00325517647829
0.00318945187026
0.00308277942898
0.00292893157996
0.00273420466634
0.00255631611642
0.0029293416354
0.00294309251395
0.00256995177221
0.00274765769777
0.0029441147144
0.0031015638829
0.00321090060959
0.00327603318169
0.00330761577016
0.00331885155014
0.00332091637088
0.00332044768703
0.00331713622195
0.00330368823264
0.00326964066604
0.00320413911265
0.00309714018018
0.00294280341986
0.00274734566533
0.00256938581965
0.00294018958121
0.00294530432198
0.00257420041742
0.00275206957424
0.00294885999916
0.00310653332778
0.0032158391361
0.00328056078641
0.00331134506688
0.00332160151099
0.00332293675375
0.0033224508606
0.00331986803091
0.003307354842
0.00327405464076
0.0032089529146
0.00310201120519
0.00294752984776
0.00275180541533
0.00257373889593
0.00294264619454
0.00294497995812
0.00257409101472
0.00275198558125
0.00294879812151
0.00310650286663
0.00321584655784
0.00328060652246
0.0033114140434
0.00332168110626
0.00332302250816
0.00332252806469
0.00331993936131
0.00330742144941
0.00327410117352
0.00320896287468
0.00310197503939
0.00294745393401
0.00275169474195
0.00257358389718
0.00294223427091
0.00294212100427
0.00256962014026
0.00274740316099
0.0029439275852
0.00310147393146
0.00321093612654
0.00327618691368
0.00330784045848
0.00331909806313
0.00332117113004
0.00332070267846
0.00331738182219
0.00330390715908
0.00326978697339
0.00320416742395
0.00309703051501
0.0029425763631
0.00274702100874
0.00256893981073
0.00293900589173
0.00293115793589
0.00255657676145
0.00273423345363
0.00292980800172
0.00308663463727
0.003195768202
0.00326147896641
0.00329424347166
0.00330688185614
0.00330994725511
0.00330947258486
0.00330521845748
0.00329050744878
0.00325547894834
0.00318952492798
0.00308260538572
0.00292855722657
0.00273368515503
0.00255563151826
0.0029275236935
0.00289897097861
0.00252616761183
0.00270438738749
0.00289785900854
0.0030533393014
0.00316110783683
0.00322659407488
0.00326020091258
0.00327401340661
0.00327796498027
0.003277541536
0.00327259359866
0.00325708460535
0.00322172847323
0.00315628064265
0.00305036637835
0.00289689572528
0.00270359570834
0.00252493368702
0.00289487796203
0.00282367880445
0.00246522591167
0.00264657698875
0.00283886625314
0.00299118974912
0.0030962919341
0.00316029651405
0.00319386869786
0.00320831648232
0.00321285723891
0.00321254320566
0.00320731559659
0.00319176050807
0.00315718097533
0.00309335023737
0.00298950444207
0.00283802008922
0.00264551056375
0.00246376466556
0.00281940533248
0.00267615482656
0.00235749936599
0.002547189108
0.00274013695834
0.00288892633818
0.00299099601499
0.00305259173466
0.00308517895089
0.00309953558915
0.00310430012891
0.00310410183462
0.00309895206948
0.00308402606866
0.00305100228197
0.00298958058867
0.00288795433869
0.0027391333378
0.00254591622824
0.00235594228396
0.00267212532685
0.00242173257267
0.0021856668133
0.00239349017094
0.00259168102976
0.00274000232977
0.002838662496
0.00289752796832
0.00292920108335
0.00294308381123
0.00294777146704
0.00294764653567
0.00294274284273
0.00292861431011
0.00289676178472
0.00283789111556
0.00273910565103
0.00259051679645
0.00239214471292
0.0021841599966
0.00241831244274
0.00202110308591
0.00193571725377
0.00218034570218
0.00239329975827
0.00254685266944
0.00264614676885
0.00270391100021
0.00273370360664
0.00274676998666
0.00275120222423
0.00275110914921
0.00274651234962
0.00273331337067
0.00270339258888
0.00264545641477
0.0025459451021
0.00239218170059
0.00217911086613
0.00193440816171
0.00201853830527
0.00143486536027
0.00161390422646
0.00193546939691
0.0021852249121
0.00235689770793
0.00246450784525
0.0025253793858
0.00255572263679
0.00256866141877
0.00257298656205
0.00257290574747
0.00256843319935
0.00255536524677
0.00252489799431
0.00246387972402
0.00235610808279
0.00218429455557
0.00193447670495
0.00161291004501
0.00143344954452
0.00071637612667
0.00143457036608
0.0020205480877
0.00242089169115
0.00267498523185
0.00282217762517
0.00289717612821
0.00292903992362
0.00293956604673
0.00294187279227
0.00294152275811
0.00293858429902
0.00292758183574
0.00289541817404
0.00282023949844
0.00267299037364
0.00241898066489
0.00201890914527
0.00143355733809
0.000716710444339
0.000746644963431
0.00158062149154
0.00226422094524
0.00273696633067
0.00304396158592
0.00322849486867
0.00332869842289
0.00337655642936
0.00339650202471
0.00340321462534
0.0034028802065
0.00339555836271
0.00337519257551
0.00332697258396
0.00322639866246
0.00304165843906
0.00273473314973
0.00226232055641
0.00157948531884
0.000747121460089
0.00158080471028
0.00175084213948
0.00210232124332
0.00238060225035
0.00257551746964
0.00270068176365
0.00277390935486
0.00281217364737
0.00282965122353
0.0028360174214
0.00283602008619
0.00282967509678
0.00281224286617
0.00277395958401
0.00270057766616
0.00257513571645
0.0023799020988
0.00210137119839
0.00174973652716
0.00157902020345
0.00226473387887
0.00210239836264
0.00235213639191
0.00257767498917
0.00274377979532
0.00285374750774
0.0029197983875
0.00295510664678
0.00297145652446
0.00297741181417
0.00297736649989
0.00297134414255
0.0029548863724
0.00291947131516
0.00285341662788
0.00274327259585
0.00257680941102
0.00235098945006
0.00210101511165
0.00226142824441
0.00273785087224
0.00238074875171
0.00257772013665
0.0027779659548
0.00293176455557
0.00303637067309
0.00310042481399
0.00313484607934
0.00315053682508
0.00315608376331
0.0031559088768
0.00315001482574
0.00313377746853
0.00309893327386
0.00303495796041
0.00293078520715
0.00277712824733
0.00257656639079
0.00237928483023
0.00273333544483
0.00304512314288
0.00257569679572
0.00274383655384
0.00293179044621
0.00308084116856
0.00318410142881
0.00324653654354
0.00327952174568
0.00329422278714
0.00329911428356
0.00329874177502
0.00329297550191
0.00327688940479
0.00324254317577
0.00318006932666
0.00307830718408
0.00293063502583
0.00274287404299
0.00257431948227
0.00303965728785
0.00322966945269
0.00270079240581
0.00285375499833
0.00303673379433
0.00318493350344
0.00328695939883
0.00334795550349
0.00337911832077
0.00339240981944
0.00339643640149
0.00339587556543
0.0033903949994
0.00337471965306
0.00334088743549
0.00327907344914
0.0031793534794
0.00303446580864
0.00285295256677