/*--------------------------------*- C++ -*----------------------------------*\
| =========                 |                                                 |
| \\      /  F ield         | OpenFOAM: The Open Source CFD Toolbox           |
|  \\    /   O peration     | Version:  3.0.1                                 |
|   \\  /    A nd           | Web:      www.OpenFOAM.org                      |
|    \\/     M anipulation  |                                                 |
\*---------------------------------------------------------------------------*/
FoamFile
{
    version     2.0;
    format      ascii;
    class       surfaceVectorField;
    location    "3.6";
    object      Uf;
}
// * * * * * * * * * * * * * * * * * * * * * * * * * * * * * * * * * * * * * //

dimensions      [0 1 -1 0 0 0 0];

internalField   nonuniform List<vector> 
22672
(
(0.0012619419267 0.00039682909522 -0.00114146893784)
(0.000399861569789 0.00125639848362 -0.00114321550625)
(0.00080393386262 0.000799316574503 -0.00251834915894)
(0.00306647802765 0.000144906865121 -0.00112302467287)
(0.0018700995096 0.000901809980105 -0.00180358571983)
(0.00246693262349 0.000759948270326 -0.00270635527977)
(0.00487028058015 0.000113805591074 -0.0010040622052)
(0.00408034843561 0.000896896600322 -0.00201239656925)
(0.0044917479791 0.000865635420856 -0.00270070792578)
(0.00622321270618 0.000276901025133 -0.000849619233534)
(0.00586012917227 0.00121096091595 -0.00198530719794)
(0.00611879664758 0.0011554857722 -0.00256390085784)
(0.0068497098393 0.00059011334229 -0.000714656756745)
(0.00698220630356 0.00178886739242 -0.00190867970093)
(0.00712434685146 0.00158940213551 -0.00241537145528)
(0.00664442103039 0.000943200632526 -0.000616520971708)
(0.00720711500649 0.00249924287852 -0.00182972015492)
(0.00726991832597 0.00209429133087 -0.00229396046173)
(0.00569582433462 0.00127194106962 -0.000553400781707)
(0.00658952670338 0.00316068828499 -0.00177682361898)
(0.00662409918231 0.00253529497951 -0.00221209801183)
(0.00413238727877 0.00154672582056 -0.00051898054983)
(0.00522430326633 0.00373133617278 -0.00174927428798)
(0.00524767257734 0.00292739478749 -0.00216790642376)
(0.00216910607973 0.00171732503449 -0.000507350183586)
(0.00333351799746 0.00412712676163 -0.00174973196121)
(0.00334906837334 0.00319906546177 -0.00216385487453)
(1.5517780338e-05 0.00177508433111 -0.000505010175641)
(0.00115259368603 0.00432661514941 -0.0017585788425)
(0.00115862186041 0.00333592063674 -0.00217303941949)
(-0.00214132325085 0.00171914700921 -0.000506264916522)
(-0.00112272071901 0.00432923731385 -0.00175836966835)
(-0.00112747269092 0.00333771075556 -0.00217241319413)
(-0.0041137829633 0.00154951204261 -0.000516956540434)
(-0.00331169609035 0.00413420685504 -0.0017489273938)
(-0.00332558781857 0.00320396602364 -0.00216176893034)
(-0.00568922205827 0.0012744479589 -0.000551104198339)
(-0.00521535915685 0.00374052735475 -0.00174845732642)
(-0.00523666326866 0.00293385767344 -0.00216511466096)
(-0.00664874820557 0.000945152616195 -0.000614853386052)
(-0.00659425095288 0.00316964056176 -0.00177711544314)
(-0.00662670165258 0.00254183722283 -0.0022101444925)
(-0.00686176098662 0.000591493531673 -0.000715062875432)
(-0.00722218440499 0.00250782810402 -0.00183241867788)
(-0.00728335280848 0.0021013114606 -0.00229484786264)
(-0.00623674601703 0.00027848790317 -0.000853370387746)
(-0.0070021878853 0.00179696723516 -0.00191607905807)
(-0.00714446249696 0.00159643205489 -0.00242201618005)
(-0.00487990210948 0.0001173065722 -0.0010112612139)
(-0.00587736772219 0.00122085816729 -0.00199718014998)
(-0.00613817848687 0.00116396915076 -0.00257773723903)
(-0.00306899151163 0.000151620221558 -0.00113301235052)
(-0.00408947797199 0.000910405492811 -0.00202837517501)
(-0.00450488665978 0.000876425738981 -0.00272135369142)
(-0.00125885827803 0.000408983122182 -0.00115256414525)
(-0.00186700379026 0.00092059127721 -0.00181963667153)
(-0.00247001400903 0.000773987493249 -0.00273076768955)
(-0.000394380923358 0.00128342218126 -0.00115135796934)
(-0.000802640588398 0.000818586017036 -0.00254231219368)
(0.000903391810636 0.00186627757239 -0.00180533228825)
(0.000147261736724 0.00306414913508 -0.0011304978625)
(0.000759466273863 0.00246108866238 -0.00271115157902)
(0.00297167048632 0.00177993248654 -0.00269295761622)
(0.00178038103497 0.00297608844211 -0.00269426709007)
(0.00249762937756 0.00250026221139 -0.00414256620597)
(0.00513079358521 0.00214856465966 -0.002993641562)
(0.00446484268517 0.00338245564555 -0.00326382246177)
(0.00471918522795 0.00289107643984 -0.0046446903448)
(0.00671544688494 0.00292219901161 -0.00304436766534)
(0.00658070128246 0.00432389845205 -0.00332337393288)
(0.00646093743851 0.00368697937 -0.00469759779913)
(0.00743957577316 0.00395013066915 -0.00302374309911)
(0.00787045023566 0.00566939832179 -0.0032311861163)
(0.00749375100055 0.00477485761706 -0.00460466570779)
(0.00722958321949 0.00501827819364 -0.00299002280219)
(0.00812710471551 0.00717564473473 -0.00310102680765)
(0.00764588728425 0.00596519081065 -0.00446641454626)
(0.00616373179838 0.00596325952839 -0.00297269712525)
(0.00738210524501 0.00857565665646 -0.00299582581027)
(0.00692732279569 0.00706240269304 -0.00434912220417)
(0.00445127350357 0.00668792242047 -0.00298002569937)
(0.0058152226363 0.00972715216681 -0.00294363396137)
(0.0054669284256 0.00796341647467 -0.00428336389721)
(0.00232831925479 0.00713308044469 -0.00300096062013)
(0.00369003526043 0.0105228505286 -0.00294321687679)
(0.00348057904641 0.00858613812162 -0.00427277787061)
(1.45422685238e-05 0.00728441989104 -0.00301193833521)
(0.00127212437014 0.0109246816657 -0.00295951491314)
(0.00120272446312 0.00890147154048 -0.00428430134267)
(-0.00230339936675 0.00714133647645 -0.00300103214562)
(-0.00123750773511 0.0109311178199 -0.0029589256887)
(-0.00116984001263 0.00890709674443 -0.00428395519115)
(-0.00443797612212 0.00670204511901 -0.00298042817978)
(-0.00366613784144 0.0105403273596 -0.00294139701046)
(-0.00345702586163 0.00860171015851 -0.00427156498345)
(-0.00616548218602 0.00597966097235 -0.00297446857122)
(-0.00580844585699 0.00975062093767 -0.00294209834623)
(-0.00545883162874 0.00798488855036 -0.0042826132613)
(-0.0072448733117 0.00503470591923 -0.00299468073497)
(-0.00739261459021 0.00860011516156 -0.00299668755)
(-0.00693593228614 0.00708578333068 -0.00435111270517)
(-0.00746293541962 0.00396635498578 -0.00303343486052)
(-0.00814959199573 0.00719982907475 -0.0031063653427)
(-0.00766775792725 0.00598936829468 -0.00447397046233)
(-0.00673917499008 0.0029396469369 -0.00305988882031)
(-0.00789717335656 0.00569435017693 -0.0032430392446)
(-0.0075228625594 0.00480036255695 -0.0046211767208)
(-0.00514768513723 0.00216972844677 -0.0030142941111)
(-0.00660337418215 0.00435234199161 -0.00334149270594)
(-0.00648975644003 0.00371557928839 -0.00472300899842)
(-0.00297600954084 0.00180700026038 -0.00271499949602)
(-0.00447654684414 0.00341690160457 -0.00328675573343)
(-0.00474057634922 0.00292440470462 -0.00467821041838)
(-0.000897308099469 0.00190120987347 -0.00181843049562)
(-0.00177500792835 0.00301763695197 -0.00271421365189)
(-0.00250504185992 0.00253947982489 -0.0041757913866)
(-0.00013842456072 0.00311291165529 -0.00113256995433)
(-0.000759757784817 0.00250752347369 -0.00272682951671)
(0.00089845341986 0.0040866858622 -0.00201943266431)
(0.000116369023243 0.00488029406098 -0.00101442857005)
(0.000863867121958 0.00449551596151 -0.00271460687705)
(0.00337560018414 0.00447635928313 -0.00326513193562)
(0.00214806567151 0.00514712622042 -0.00299718903847)
(0.00288544234875 0.00473160794111 -0.00464819257621)
(0.0059724281574 0.00543916359293 -0.00359355483265)
(0.00542519802454 0.00599276469463 -0.00359338669565)
(0.00546296127576 0.00547987281138 -0.00520714388418)
(0.00784295498516 0.00692712854539 -0.00351019238384)
(0.00797497559338 0.00752110332714 -0.00345338717574)
(0.00743554821431 0.00678284122277 -0.0050677371364)
(0.00866011425263 0.00871451465338 -0.00330846982484)
(0.00947445894791 0.00952764447961 -0.00307660841631)
(0.00855642209831 0.00846053903853 -0.00467540963053)
(0.00836259333235 0.0105110486445 -0.00310682981573)
(0.00970846621302 0.0116962432475 -0.00265876076615)
(0.00866565199852 0.0102572540042 -0.00422308101873)
(0.00707988253291 0.0120766428683 -0.00296676264639)
(0.00874038620535 0.013693811436 -0.00231344664346)
(0.00778742417978 0.0119119773487 -0.00383544727757)
(0.00507689318426 0.0132632086682 -0.00290682513879)
(0.00682417734542 0.0153130374202 -0.00210201583407)
(0.00609927957118 0.0132565925192 -0.00358290002747)
(0.00264348314505 0.0139919200964 -0.00290177116981)
(0.00429853841635 0.0164256591887 -0.00202098546743)
(0.00386168581309 0.0141855124237 -0.00346940481306)
(2.04179626847e-05 0.0142405839174 -0.00290650226664)
(0.00147853956055 0.0169865312124 -0.00200851445062)
(0.00133342059173 0.0146567892951 -0.00343879396636)
(-0.00260854674985 0.0140071274428 -0.00289929055355)
(-0.00142805870408 0.0169961214764 -0.00200578285023)
(-0.00128666985255 0.0146660973524 -0.00343605297461)
(-0.00505837236056 0.0132892973059 -0.00290306717691)
(-0.00426347496119 0.0164519181978 -0.00201308038419)
(-0.00382790577933 0.0142113037892 -0.00346178399956)
(-0.007081488597 0.0121072762354 -0.00296431732501)
(-0.00681338466755 0.015347839382 -0.00209332184508)
(-0.0060865384442 0.0132915107557 -0.00357412520763)
(-0.00838049987034 0.0105422684576 -0.00310837215773)
(-0.0087520237984 0.0137292408137 -0.00230816872428)
(-0.0077958331819 0.0119494448332 -0.00383014056614)
(-0.00868624062089 0.00874629527972 -0.00331596972679)
(-0.00973307834919 0.0117304198155 -0.00265950119385)
(-0.00868909773941 0.01029527991 -0.00422487843332)
(-0.00786866475681 0.00696185871705 -0.00352464313024)
(-0.00950187079856 0.00956327906282 -0.00308410536739)
(-0.00858708061329 0.00850078734417 -0.00468653524978)
(-0.00598972586922 0.00547956432376 -0.00361395432828)
(-0.00799688810707 0.00756242327846 -0.00346785559237)
(-0.00746597430992 0.00682811559486 -0.00508905346485)
(-0.0033786394552 0.00452383564998 -0.00328596988931)
(-0.0054348763409 0.00604188953788 -0.00361283407986)
(-0.0054858332502 0.00553170373518 -0.0052361121607)
(-0.00088987939989 0.00414075018002 -0.00202835311061)
(-0.00213911546309 0.00520405618043 -0.00301239084882)
(-0.00289312653621 0.00479009375736 -0.00467522350604)
(-0.000104557285271 0.00494254349586 -0.00100890995324)
(-0.000863836204828 0.00455955694693 -0.0027195431734)
(0.00121185916811 0.00588004923015 -0.00199218494421)
(0.000279987083116 0.006245016463 -0.000859097196291)
(0.00115349233038 0.00613472019937 -0.00257658881588)
(0.00431601269858 0.00660642855477 -0.0033254437985)
(0.00292210382827 0.00674587711543 -0.00304630892004)
(0.00368016355187 0.00648535421348 -0.00470291086948)
(0.00749874942482 0.00800419645603 -0.00345321903873)
(0.00691310153999 0.00787789688477 -0.003508873502)
(0.00676415552021 0.00746467014512 -0.00506787400398)
(0.00973861072944 0.0100195061305 -0.00301980320821)
(0.00998906552495 0.00977758889986 -0.00301796794088)
(0.0090774606958 0.00910945873097 -0.00449635039894)
(0.0106475358348 0.0123621739984 -0.00242689935762)
(0.0117309114935 0.0121888805772 -0.00219803348128)
(0.0103263140207 0.0111834215605 -0.00357016335807)
(0.0101792142254 0.0146819724704 -0.00186537759388)
(0.0119030274098 0.0147482058376 -0.00133225579594)
(0.0103485210104 0.0133788218173 -0.00258364222277)
(0.00853789814023 0.0166874842849 -0.00144869983115)
(0.0106186166265 0.017080196334 -0.000611802509259)
(0.00920642774884 0.0153889319063 -0.0017450697557)
(0.00607153765753 0.0181964795326 -0.00121617616271)
(0.00822134354969 0.0189575071764 -0.000136164072879)
(0.00714445231577 0.0170102932245 -0.00117811086803)
(0.00314421176693 0.0191182909595 -0.00112772874824)
(0.00514391857158 0.0202426752616 9.12188998422e-05)
(0.00449072744794 0.0181231066955 -0.000889693687417)
(3.05297779691e-05 0.019432282756 -0.00110779503421)
(0.00176630694536 0.0208901227518 0.00016378196065)
(0.00154818855225 0.0186866746355 -0.000789916285545)
(-0.00309165871531 0.0191382865302 -0.00111957268088)
(-0.00169359767966 0.0209014283547 0.000169735070468)
(-0.00148000436639 0.0186983413179 -0.000783129278256)
(-0.00604312309677 0.0182304342459 -0.00120333505236)
(-0.00509334271729 0.0202732524261 0.000107984815036)
(-0.00444139182591 0.0181551208364 -0.00086988505711)
(-0.00853725938144 0.0167260556648 -0.00143717324435)
(-0.00820549581524 0.0189973620249 -0.000117085469173)
(-0.00712507669866 0.0170531652561 -0.00115540522188)
(-0.0101981576758 0.0147192932749 -0.0018592977604)
(-0.0106321627875 0.0171178915145 -0.000598824269304)
(-0.00921413745739 0.0154325575621 -0.00172777391832)
(-0.0106737632096 0.0123989872647 -0.00242763683446)
(-0.0119295455953 0.0147817800597 -0.00132820411414)
(-0.0103722330263 0.0134205432154 -0.00257577822002)
(-0.00976209809029 0.0100602249489 -0.00302731782952)
(-0.0117564251664 0.0122230770491 -0.0022007739811)
(-0.010355381005 0.0112268583506 -0.003571488945)
(-0.00751245211957 0.00805253967109 -0.00346673534395)
(-0.0100062585358 0.00981913911551 -0.0030262435987)
(-0.00910502953828 0.00915958317252 -0.00450639129504)
(-0.00431472335585 0.00666317449394 -0.00333925503937)
(-0.00691746323301 0.00792930789634 -0.0035212238148)
(-0.00678421680324 0.00752329786008 -0.0050851822996)
(-0.00119942557597 0.00594304310618 -0.00199294769145)
(-0.00290816668503 0.00680579929387 -0.00305351164273)
(-0.0036850088748 0.00655159661527 -0.00471708335959)
(-0.000265217081339 0.00630958427389 -0.000845178102889)
(-0.00115154624012 0.00620562384404 -0.00256649710767)
(0.00179140701431 0.00701410563341 -0.00191322117212)
(0.00059488806892 0.00688217620047 -0.00072408614524)
(0.00158792576802 0.00715292147569 -0.0024285725221)
(0.00566274431456 0.00790948713116 -0.00322973862353)
(0.00395286402936 0.00748026189899 -0.00302378355437)
(0.00476913396483 0.00753013021327 -0.00460572682947)
(0.00950627386517 0.00951894236282 -0.00307362240414)
(0.00870376586657 0.00870752990882 -0.0033048737072)
(0.00844271414215 0.00859802358765 -0.00467316586753)
(0.0121486671074 0.0117794868766 -0.00219619821395)
(0.0123347505823 0.0107013338081 -0.00242073323247)
(0.0111515856301 0.0103725187009 -0.00356613984414)
(0.0131356043242 0.0143718907866 -0.0011033899196)
(0.0143232921524 0.0131941399294 -0.00109898891382)
(0.0125410105623 0.0125897601445 -0.00199219691263)
(0.012442582797 0.0169159391576 -7.86807113212e-05)
(0.0143914993828 0.0158021937059 0.000267102975856)
(0.0124431253035 0.0149213599882 -0.000360965746794)
(0.0103553134522 0.0191004068886 0.000700733249011)
(0.0127371784185 0.0181511862936 0.00139883088609)
(0.0109727901664 0.0170466407513 0.00101628026357)
(0.00731813464136 0.0207407136614 0.00117123098968)
(0.0097941127758 0.0200382219805 0.00215945390319)
(0.00845072213218 0.0187555493414 0.00195646421955)
(0.00377739503515 0.021743869181 0.00138272960874)
(0.00609316482211 0.021328641772 0.0025386708439)
(0.00528227348665 0.0199276901415 0.00245477136564)
(4.27984357335e-05 0.0220859935398 0.00144131206533)
(0.00208839961 0.0219768135709 0.00266927275969)
(0.00181974934264 0.020522360402 0.00264790085636)
(-0.00370422395789 0.0217657473019 0.00139729256638)
(-0.00199177174972 0.0219885430997 0.00267861068713)
(-0.00172789631522 0.0205350941953 0.00265989879137)
(-0.00727877272693 0.0207771140532 0.00119423439822)
(-0.00602661866997 0.0213604573019 0.00256474558343)
(-0.00521626720195 0.0199623001909 0.00248733123316)
(-0.0103543448223 0.0191391272435 0.000721263505875)
(-0.00977560922674 0.0200785332394 0.00218871783889)
(-0.00842614327493 0.0188007747411 0.00199438532524)
(-0.0124647859682 0.0169495444614 -6.77306230482e-05)
(-0.0127562517787 0.0181851987374 0.00141576139419)
(-0.0109833962918 0.017088356918 0.00104311652538)
(-0.0131619648298 0.0144024027552 -0.00110134126078)
(-0.0144216128178 0.0158281020839 0.000270087224221)
(-0.0124692652413 0.0149572784651 -0.000349162055722)
(-0.0121673974554 0.0118138110497 -0.00219969975027)
(-0.0143457273096 0.0132186025691 -0.00110305002227)
(-0.0125674566806 0.012625328174 -0.00199011420153)
(-0.00951312278352 0.00956248735993 -0.00308073206955)
(-0.0123442790438 0.0107335152128 -0.0024266740638)
(-0.011173095847 0.0104154642204 -0.00356867640209)
(-0.00565530725324 0.00796269422884 -0.00323548041817)
(-0.0087004392252 0.00875064624741 -0.00331167065505)
(-0.00845678499217 0.00865096572625 -0.00467918615)
(-0.00177500789349 0.00707410726813 -0.00190574205417)
(-0.00393311664759 0.00753223211105 -0.00302508304731)
(-0.00476937476314 0.00759140444943 -0.00460677237388)
(-0.000577194154497 0.00693939332971 -0.000703698037777)
(-0.00158377637916 0.00721901445565 -0.00240484610541)
(0.00250461444031 0.00724839792644 -0.00183464852749)
(0.000949135603736 0.00668403125394 -0.000625583105067)
(0.00209504412092 0.0073089805399 -0.00230647367388)
(0.00717390717661 0.00817633230016 -0.00309891863804)
(0.00502498908329 0.00727832276568 -0.00298994474228)
(0.0059628258962 0.00769194521646 -0.00446735659849)
(0.0116803542979 0.00976480562899 -0.00265198453553)
(0.0105060897749 0.00841782114061 -0.00309990923007)
(0.0102440256387 0.00871719180073 -0.00421673989943)
(0.0147122786193 0.0119660794704 -0.00132352393235)
(0.0146610794859 0.0102412365151 -0.0018527073259)
(0.013351826389 0.0104060531978 -0.00257182708404)
(0.0157447033311 0.0144579037204 0.00027150398163)
(0.0168712996645 0.0125106397617 -6.34121614897e-05)
(0.0148750318788 0.0125058898709 -0.000348923414272)
(0.0147851283734 0.0168622787102 0.00174461457327)
(0.016796531877 0.0148541573517 0.00175227488023)
(0.0146333167289 0.0146970608486 0.00190761314688)
(0.0122188605937 0.018907692406 0.00285755154027)
(0.0147697459645 0.0169434532794 0.00322878471394)
(0.0128159012442 0.0166782976837 0.00377400266428)
(0.00858602129899 0.0204396706301 0.00352689375741)
(0.0112904990381 0.0186324864832 0.00421959793635)
(0.00981103095973 0.0182700258471 0.0050385756717)
(0.00441542646087 0.0213718655574 0.00382521399485)
(0.00698575902148 0.0197939975745 0.00471099541899)
(0.00610254304496 0.0193607813984 0.00570523768224)
(5.45614392432e-05 0.02168851051 0.00390657138149)
(0.00238818294046 0.0203758359358 0.0048766151176)
(0.00209886186816 0.0199118546577 0.00596183794276)
(-0.00432279832558 0.0213934291083 0.00384606370418)
(-0.00226949842423 0.0203868042892 0.00488897936258)
(-0.00198447660393 0.0199245018188 0.00597909006295)
(-0.00853833181229 0.0204752826729 0.0035592290241)
(-0.00690504430807 0.0198233406143 0.0047455543048)
(-0.00602204979027 0.0193953774857 0.00575263841689)
(-0.0122216976032 0.018943286097 0.0028832157272)
(-0.0112726191801 0.0186698561184 0.00425722030503)
(-0.00978632543668 0.0183143827458 0.00509202917909)
(-0.0148136976677 0.0168886959946 0.00175357924146)
(-0.0147982461149 0.016972582214 0.00324463615199)
(-0.0128348228184 0.0167143993145 0.00380460203518)
(-0.0157717313982 0.0144778659276 0.000268378462735)
(-0.0168325787057 0.0148730743341 0.00174808358373)
(-0.0146647596875 0.0147235383428 0.00191304616558)
(-0.0147247672098 0.0119884145556 -0.0013300243358)
(-0.0168911400868 0.0125255087429 -7.51202516173e-05)
(-0.0148990015593 0.0125296321158 -0.000353887901809)
(-0.0116781000671 0.00979640954173 -0.0026576126493)
(-0.0146618815487 0.0102625217092 -0.00186157360966)
(-0.0133652536196 0.0104362264588 -0.00257569587182)
(-0.00715888140078 0.00821796235027 -0.0031012732842)
(-0.0104940968722 0.00844916399252 -0.00310512205037)
(-0.0102498916965 0.00875723584932 -0.00421776589172)
(-0.00248352744221 0.00729713367344 -0.00182303903092)
(-0.0049991701467 0.00731872233168 -0.0029877526209)
(-0.00595706196154 0.00774017353975 -0.00446188192579)
(-0.000929161107078 0.00672978608476 -0.000601704581277)
(-0.00208773810536 0.00736172420234 -0.00227394761269)
(0.00316828712361 0.00663617838194 -0.00178087931986)
(0.00127875970705 0.00573909352497 -0.000561939088961)
(0.00253668400129 0.00666901696934 -0.00222335184744)
(0.00857910033035 0.00743606033128 -0.00299093533432)
(0.00597312778833 0.00621473731387 -0.00297084787808)
(0.00706353262174 0.00697830561519 -0.00434722895696)
(0.0136847355172 0.00880035650833 -0.00230063202045)
(0.0120766133217 0.00713516478279 -0.00295616769843)
(0.0119043944507 0.00784245518619 -0.00382297868614)
(0.017050532093 0.0106844331596 -0.000592595555045)
(0.0166726448257 0.0085970584806 -0.00142896902305)
(0.0153686943088 0.00926612235793 -0.00172161713853)
(0.0180969205081 0.0128064654035 0.00141735873711)
(0.0190600786359 0.0104176169929 0.000727081475308)
(0.0170052511012 0.0110368871774 0.00104663658779)
(0.0168750186233 0.0148398454536 0.0032364450209)
(0.0188438749022 0.0122807572001 0.0028791348663)
(0.0166163925683 0.0128823408144 0.00379530453785)
(0.0138648764028 0.0165757867825 0.00459083111002)
(0.0165057689821 0.0139257844565 0.00459844115496)
(0.0144814546708 0.0145481818861 0.00602781303144)
(0.00969613974081 0.0178885249347 0.00540369959792)
(0.0125625431676 0.0152656532478 0.0057676508454)
(0.0110365760502 0.0158990531884 0.0075355703083)
(0.0049690346427 0.018687009118 0.00576239654173)
(0.00774788683071 0.0161910281182 0.00628008256245)
(0.00683821930943 0.0168317025536 0.00833007216917)
(6.48646608348e-05 0.0189567649937 0.00585902309869)
(0.00264467728944 0.0166458463076 0.00641750421327)
(0.00234803847153 0.017301829496 0.00863415358045)
(-0.0048595303169 0.0187055878697 0.0057884699632)
(-0.0025078133525 0.0166547657803 0.00643107691245)
(-0.00221384311097 0.0173127418017 0.0086564237696)
(-0.00964230069275 0.0179197034969 0.00544354558574)
(-0.00765511106223 0.0162142106931 0.00631695576725)
(-0.00674529744847 0.0168611802447 0.00839188792797)
(-0.0138746725727 0.0166071867899 0.00461864072982)
(-0.0125448621771 0.0152969454911 0.00581188539939)
(-0.011014818891 0.0159382686577 0.0076052691967)
(-0.0169128515097 0.0148618746624 0.00323914049426)
(-0.0165438302381 0.0139518187093 0.00461217349023)
(-0.0145122396654 0.014579404869 0.00605892947044)
(-0.018127067498 0.0128205890403 0.00140458486938)
(-0.0188867942245 0.0122970740202 0.00286714438853)
(-0.0166551264261 0.0129025404741 0.00379020345111)
(-0.0170578048864 0.0106986398844 -0.000606669525484)
(-0.0190792388909 0.0104286983552 0.000706791682144)
(-0.0170280047067 0.0110530120313 0.0010275330813)
(-0.0136737547675 0.00882162708213 -0.00230908301074)
(-0.0166668019298 0.00861181960329 -0.00144307205559)
(-0.01537477294 0.00928611336561 -0.00173336746549)
(-0.00855649922819 0.00746605328949 -0.00299160138708)
(-0.0120577610602 0.00715690772174 -0.00296258113492)
(-0.0119022833673 0.00787003655269 -0.00382502624486)
(-0.0031436337475 0.00667329316993 -0.00176641817126)
(-0.00594276458065 0.00624354748828 -0.00296701100091)
(-0.00705221836373 0.0070128955885 -0.00433772598737)
(-0.00125754678702 0.00577347165665 -0.000536920440698)
(-0.0025274257469 0.00670844458607 -0.00218734504778)
(0.00374073912401 0.00527184992179 -0.00175190764718)
(0.00155446572346 0.00417562145337 -0.000526750551297)
(0.0029297084647 0.00529434633818 -0.00217726776673)
(0.00973367690659 0.00586744021969 -0.00293608024219)
(0.00669879556227 0.00450014502656 -0.00297634627611)
(0.00796633434603 0.00551745283819 -0.00427834493416)
(0.0153081036914 0.00687840635983 -0.00208450470104)
(0.0132647891539 0.00512634273026 -0.00289388438264)
(0.0132524245775 0.00615051864412 -0.003565603)
(0.0189318982036 0.00827671218904 -0.000109291992698)
(0.0181834713783 0.00611962395393 -0.00119235254994)
(0.0169942310695 0.00719598904082 -0.00114635733843)
(0.0199868436419 0.00984866120092 0.0021888576045)
(0.0207010186513 0.00736379985582 0.00120257305571)
(0.0187178707978 0.00850180803683 0.00199887468215)
(0.018564981185 0.0113425754356 0.00424113100036)
(0.020374953996 0.00862643139474 0.00355391123325)
(0.0182104705828 0.00986109325859 0.00507619088273)
(0.0152054491946 0.0126126336927 0.00577526089034)
(0.0178170099991 0.00973151850949 0.00541691019644)
(0.0158329612211 0.0110837868471 0.00755379931859)
(0.0105981484528 0.0135909102175 0.00664403380993)
(0.0135416287635 0.010631393491 0.00664201194958)
(0.0120345902099 0.0120797738863 0.00924155954675)
(0.00542529751473 0.0142058046466 0.00693519023398)
(0.00834265712365 0.0112672883454 0.00708741654137)
(0.00744721860348 0.0127812779653 0.0100965864289)
(7.2611339729e-05 0.0144169885248 0.00698955802703)
(0.00284346160987 0.0115870948649 0.00720334859641)
(0.0025564379727 0.0131356884316 0.0104114294005)
(-0.00530256693929 0.01421999964 0.0069595627165)
(-0.00269333493891 0.0115934110393 0.00721744631925)
(-0.00240579694961 0.0131437925643 0.0104365212757)
(-0.0105367595427 0.0136143065601 0.00668529558091)
(-0.0082397807213 0.0112829304888 0.00712320922644)
(-0.00734202344062 0.0128018931428 0.0101654590803)
(-0.0152187273961 0.0126379508445 0.0058054181598)
(-0.0135212630126 0.0106536249567 0.00668685696529)
(-0.0120108034312 0.0121087826511 0.00932527470807)
(-0.0186105323772 0.0113623625355 0.0042401773845)
(-0.0178600470075 0.00975350475693 0.00543210986322)
(-0.0158717906819 0.0111099348149 0.00759010668651)
(-0.0200203428219 0.009861536523 0.0021693512013)
(-0.0204228612074 0.0086416933201 0.00353899304164)
(-0.0182556126076 0.00987777528041 0.00506517988428)
(-0.0189370108355 0.00828819286071 -0.000129610847967)
(-0.0207207732673 0.00737444668135 0.00117737525253)
(-0.0187407009843 0.00851485828704 0.00197090704098)
(-0.0152922295475 0.00689378041707 -0.00209657017978)
(-0.0181744302139 0.0061320010083 -0.00121052366137)
(-0.0169961546187 0.00721062873504 -0.00116497997683)
(-0.00970676126992 0.00588832799508 -0.00293799074875)
(-0.0132424383967 0.00514230087974 -0.00290213374503)
(-0.0132455630829 0.00616943111458 -0.00357088629121)
(-0.00371395448141 0.0052982683927 -0.00173751327035)
(-0.00666617024016 0.00452059059194 -0.00297338007496)
(-0.00795209664327 0.00554089480158 -0.00426988313898)
(-0.00153246896107 0.00420068081665 -0.000501845213503)
(-0.00291936937362 0.0053217541842 -0.00214118797772)
(0.00413663095649 0.00337856828543 -0.00175118918023)
(0.00172514081994 0.00221040366762 -0.000514425749369)
(0.00320122724819 0.00339394894259 -0.00217141227704)
(0.0105290592062 0.00373680179117 -0.00293415041656)
(0.0071426203411 0.00237327580744 -0.00299592717881)
(0.00858820194057 0.00352723303353 -0.00426555688274)
(0.0164199197808 0.00434261089345 -0.00200173223154)
(0.0139912195346 0.00268591837306 -0.002888300342)
(0.0141806733339 0.00390545361353 -0.00345043311645)
(0.0202153172676 0.00518348718904 0.000119512498465)
(0.0191021596733 0.00318067523554 -0.00110447838321)
(0.0181056303677 0.00452936370637 -0.000856445154924)
(0.0212744206312 0.00612650063717 0.00256762668446)
(0.021700087582 0.00380790140612 0.00141121669239)
(0.0198875655254 0.00531524757192 0.0024967984729)
(0.019722472734 0.00701214567714 0.00472969042934)
(0.021302469698 0.0044381063775 0.00384584343256)
(0.0192971265757 0.00612917243199 0.00574027526496)
(0.0161289458744 0.00777021741625 0.00628366125568)
(0.0186124537711 0.00498554003633 0.00576702917289)
(0.0167618972781 0.00685815185987 0.00833950568551)
(0.011233937475 0.00836421297704 0.00708539468102)
(0.0141576744094 0.00543961595528 0.00692666633459)
(0.0127365819503 0.00746409529231 0.0100867833537)
(0.00575506025845 0.00873190291907 0.0073555749038)
(0.00871187087176 0.00576921872016 0.0073535976826)
(0.00787216513242 0.0078879213661 0.0109769404694)
(7.80167006354e-05 0.00885365797014 0.00743123688863)
(0.00296446356218 0.00593253574995 0.00749581691741)
(0.00269862045041 0.0080952338345 0.0113315921699)
(-0.00562249773376 0.00873951926642 0.00738109282919)
(-0.00280596496433 0.00593539364908 0.00750957766219)
(-0.00253550819344 0.00809957465118 0.0113585180853)
(-0.0111659281247 0.00837848034406 0.00712477061082)
(-0.00860080301694 0.00577778870808 0.00738958403177)
(-0.00775611397735 0.00789948347196 0.0110485571688)
(-0.0161408133661 0.00778843532035 0.0063135486687)
(-0.0141326688327 0.0054526563176 0.0069706117112)
(-0.0127065948651 0.00748205834228 0.0101758398285)
(-0.0197716178929 0.00702879750919 0.00473092552036)
(-0.0186558465769 0.00499989476708 0.00578690609762)
(-0.0168023497866 0.00687706485758 0.00838440272304)
(-0.0213098148784 0.00613896181324 0.00254701709287)
(-0.0213525401195 0.00445007939495 0.003833063056)
(-0.0193452408039 0.00614296294309 0.00572980075213)
(-0.0202199781703 0.00519455982206 9.64624391232e-05)
(-0.0217204621493 0.00381759241864 0.00138533681049)
(-0.0199103800634 0.00532672837169 0.00246700638221)
(-0.0164023219301 0.00435531556825 -0.00201608722662)
(-0.0190921989022 0.00319185108737 -0.00112423828137)
(-0.018105947558 0.0045414704459 -0.000877521987939)
(-0.0105004290226 0.00375222269246 -0.00293752307124)
(-0.0139677734745 0.00269838907584 -0.00289755484755)
(-0.0141718817479 0.00391931540262 -0.0034580043222)
(-0.00410896198504 0.00339765720856 -0.00173771201812)
(-0.00710925695159 0.00238829362745 -0.00299393927077)
(-0.00857299445828 0.00354364571186 -0.0042592016626)
(-0.00170285930662 0.00222846601593 -0.00049000822896)
(-0.00319060742967 0.00341325993262 -0.00213677050827)
(0.00433479135617 0.00119420585759 -0.00175916374795)
(0.00178257460299 5.47303448881e-05 -0.000511668323468)
(0.00333707723264 0.00120041804075 -0.00217911582336)
(0.0109277000495 0.00131355282304 -0.00295007710425)
(0.0072915766387 5.62380031205e-05 -0.00300614085198)
(0.00890047413899 0.00124498340941 -0.00427586751211)
(0.0169756745809 0.00151490375635 -0.00199104649367)
(0.0142358189267 5.86989034221e-05 -0.0028936900238)
(0.0146473000078 0.00137083894703 -0.00342075095341)
(0.0208575099953 0.00179560789784 0.000187225810713)
(0.0194109476009 6.27495801815e-05 -0.00108792595638)
(0.0186634898908 0.00157787285068 -0.000763905511784)
(0.0219169537209 0.00210998066683 0.00268943344049)
(0.0220366057867 6.82405967217e-05 0.00146330260321)
(0.0204760870156 0.00184168051809 0.00268022061595)
(0.0203001218263 0.00240269933039 0.0048831821761)