/*--------------------------------*- C++ -*----------------------------------*\
| =========                 |                                                 |
| \\      /  F ield         | OpenFOAM: The Open Source CFD Toolbox           |
|  \\    /   O peration     | Version:  3.0.1                                 |
|   \\  /    A nd           | Web:      www.OpenFOAM.org                      |
|    \\/     M anipulation  |                                                 |
\*---------------------------------------------------------------------------*/
FoamFile
{
    version     2.0;
    format      ascii;
    class       surfaceVectorField;
    location    "3.2";
    object      ddt0(Uf);
}
// * * * * * * * * * * * * * * * * * * * * * * * * * * * * * * * * * * * * * //

dimensions      [0 1 -2 0 0 0 0];

internalField   nonuniform List<vector> 
22672
(
(0.000230048723736 1.92702517407e-05 -0.000140310124158)
(2.38464954309e-05 0.00022202107191 -0.000140732803759)
(0.000163485767815 0.000158528470835 -0.000453039141945)
(0.000621903110009 -7.42474127214e-05 -0.000131731226998)
(0.000333601995405 0.000111578152889 -0.000342682907271)
(0.000535548582418 0.00013886482471 -0.000504511869455)
(0.00102794489453 -0.000113087092768 -8.62542098953e-05)
(0.000843853848006 7.82531436896e-05 -0.000393010189048)
(0.000993837481781 0.000149800312133 -0.00048536510243)
(0.00132980690712 -0.000105159353404 -2.39556958849e-05)
(0.00123836261134 0.000107704254373 -0.000356180569834)
(0.00134463620521 0.000192798417548 -0.000410565575858)
(0.00146330821553 -5.59618916892e-05 3.35187297928e-05)
(0.0014823795135 0.000193323643367 -0.000299188225947)
(0.00155700882075 0.000264369766686 -0.0003277664269)
(0.00141059728894 6.04635761096e-07 7.61413401833e-05)
(0.00151432858608 0.000307336032244 -0.000244093474051)
(0.00156416199038 0.000351885711875 -0.000255536443948)
(0.0012134664822 5.44629010584e-05 0.000104429185495)
(0.00138381941903 0.000399450182104 -0.000203985607131)
(0.00142415676717 0.000412066728991 -0.0002032229416)
(0.000890497388656 0.000107691457846 0.000121626701039)
(0.00110295833072 0.000488840409913 -0.000175226088082)
(0.00113429448134 0.00047752011077 -0.000166777898999)
(0.000488226834584 0.000141522241988 0.000128335221672)
(0.000718349496878 0.000552702032708 -0.000161639005798)
(0.000738713405078 0.000524363786444 -0.000151333363963)
(4.96311727409e-05 0.000153017455449 0.000130282818767)
(0.000279146082594 0.000585040774071 -0.000157332679171)
(0.000286781910803 0.000548011255912 -0.000147326812864)
(-0.000390920940773 0.000141802248323 0.000129936750728)
(-0.000178978554199 0.00058566601049 -0.000156584572677)
(-0.000184592972111 0.000548519271012 -0.000145974688776)
(-0.000798420811913 0.000107713187414 0.000124841700028)
(-0.000622745527325 0.000553714157694 -0.000159392636814)
(-0.00064076179955 0.00052532401247 -0.000147093307589)
(-0.00112886760634 5.38417406986e-05 0.000109028065629)
(-0.00101469052343 0.000489337352158 -0.000171616722081)
(-0.00104353737923 0.000478361577414 -0.000159883688333)
(-0.00133476402994 -6.62009691196e-07 8.17791015587e-05)
(-0.001304621105 0.000398962889378 -0.000199454516385)
(-0.00134255161095 0.000412479141106 -0.000194343070912)
(-0.00139759573271 -5.75374700203e-05 3.96221964381e-05)
(-0.00144486475694 0.000306412946398 -0.000239164516603)
(-0.0014924218055 0.000352187592648 -0.000245360368864)
(-0.0012750793439 -0.000106492765951 -1.79838959561e-05)
(-0.00142392757174 0.000192566580966 -0.000294865481039)
(-0.00149710968546 0.000265290681485 -0.000317581845588)
(-0.000985346029228 -0.000113530055875 -8.09254575144e-05)
(-0.00119106774268 0.000108060773376 -0.000352745472217)
(-0.00129695009641 0.000194741166787 -0.000401201434371)
(-0.00059250343527 -7.33238154734e-05 -0.000127080814264)
(-0.000808878181693 8.04480770891e-05 -0.000390778260565)
(-0.000959660576242 0.000153078711034 -0.000477798652159)
(-0.000215775118914 2.19596125426e-05 -0.000136026594769)
(-0.000311136306644 0.00011529753948 -0.000340217711294)
(-0.000515265520305 0.000143144525754 -0.000497901175083)
(-1.57449126911e-05 0.00022688545252 -0.00013623992983)
(-0.000157125875723 0.000163351568303 -0.000447131304815)
(0.000118893780662 0.000322520669694 -0.000343105586872)
(-6.98877917928e-05 0.000607862622379 -0.000133324605227)
(0.000143090095686 0.000524099651088 -0.000505744441295)
(0.000576332905586 0.000269310678552 -0.000603961869321)
(0.000279699754376 0.000563247941075 -0.000604480190079)
(0.00053378602714 0.000523455152804 -0.000910130247443)
(0.00106333257942 0.000303669999177 -0.000662936548987)
(0.000883761550373 0.000596070256777 -0.000741835172161)
(0.00102215832881 0.000577328073293 -0.00100576812966)
(0.00140356201603 0.000413565839266 -0.000631413099895)
(0.00132847422022 0.000714881989058 -0.000710800899935)
(0.00137253540871 0.000692510948424 -0.000948274286615)
(0.00154234770701 0.000568746875333 -0.00057680042979)
(0.00157971162586 0.000898044128089 -0.000635850774426)
(0.00155991153596 0.000852797009551 -0.000844323864132)
(0.00148631667874 0.000722410687818 -0.000524220421365)
(0.00160996763129 0.00110125390324 -0.0005605099883)
(0.00156125162643 0.00102150167322 -0.000738694208676)
(0.00126252002476 0.000853382989814 -0.000483640880708)
(0.00145260176478 0.00127503927888 -0.000503000512835)
(0.00140092760578 0.00116382479363 -0.000652610583407)
(0.00092039274904 0.000956813723046 -0.000458491794919)
(0.00114903540688 0.00142254379569 -0.000466049243075)
(0.00110774484488 0.0012840538934 -0.000592402696147)
(0.000502931108863 0.00102124563752 -0.000447306906641)
(0.000744728909621 0.00152883515168 -0.00044843961631)
(0.000720159717961 0.00136973334297 -0.000559480098633)
(5.0813273648e-05 0.00104347939173 -0.000444200070614)
(0.000288537645319 0.00158319014997 -0.000443486527023)
(0.000280818961332 0.00141290184488 -0.000546783098732)
(-0.00040434591197 0.00102292891878 -0.000445913960219)
(-0.000185679105073 0.00158539304853 -0.000442251012586)
(-0.00017688478643 0.00141493303359 -0.000545240599614)
(-0.000828146081265 0.000958556832257 -0.000455851058923)
(-0.000648259614624 0.00153233608677 -0.000445874665589)
(-0.000621441100143 0.00137277634642 -0.000555441463184)
(-0.00117888468026 0.00085423800468 -0.000480099304095)
(-0.00106129843957 0.00142554776473 -0.000462333488792)
(-0.00101720992465 0.00128703352085 -0.000586136033891)
(-0.00141244177602 0.000722463262148 -0.000520398134546)
(-0.00137471638398 0.00127658602129 -0.00049886060887)
(-0.0013202984365 0.00116604975431 -0.000644959049695)
(-0.00147902323557 0.000568846363887 -0.00057365219408)
(-0.00154206797524 0.0011023093007 -0.000556437238313)
(-0.0014911800264 0.0010238334814 -0.000730694806772)
(-0.00135106974385 0.000414749267855 -0.0006296270573)
(-0.00152219141722 0.000900026648572 -0.000633274218878)
(-0.00150139870909 0.000856458505079 -0.000837562843925)
(-0.00102231931966 0.000307014382228 -0.000662598275268)
(-0.001281566981 0.000719362970631 -0.000709823271889)
(-0.00132623206523 0.000698623159299 -0.000943207104875)
(-0.000547392589668 0.000274851258662 -0.000603915157596)
(-0.00084863220541 0.000603818383999 -0.000741866164019)
(-0.00098896686468 0.00058623529213 -0.00100264696251)
(-0.000103768577618 0.000329201981884 -0.000340431046355)
(-0.000256358403949 0.000572906322804 -0.000603654766926)
(-0.000513317624123 0.000533783105536 -0.000906887631645)
(7.93859524946e-05 0.000616980079565 -0.000127869436106)
(-0.000135709376058 0.000533459665038 -0.000498057902077)
(8.53595648895e-05 0.000828059708149 -0.000394699208434)
(-0.000108798348916 0.00101001600757 -8.87375030591e-05)
(0.00015376716404 0.000977396795519 -0.000488365191441)
(0.000608568810826 0.00086884348299 -0.000742353492919)
(0.000313579419611 0.00104641445387 -0.000664256235736)
(0.000587030160589 0.0010071137259 -0.00100718881858)
(0.00115590997426 0.000985118615575 -0.000789699523109)
(0.000999403201981 0.00113964487468 -0.000790405280765)
(0.00111025469734 0.00109608194817 -0.0010916731054)
(0.00152019728844 0.00117360142457 -0.000715238574465)
(0.00148780522312 0.00132422264707 -0.000705906539646)
(0.00146473597751 0.00125389476083 -0.000974380954025)
(0.00165443112436 0.00139762653254 -0.000619560332935)
(0.00174321932234 0.00156770987016 -0.000574948870459)
(0.00163526278319 0.00145451215013 -0.000804724214933)
(0.0015765985685 0.00161202276514 -0.000539290079769)
(0.00175385773797 0.00182172732081 -0.000458632458906)
(0.00161552597574 0.00166158537844 -0.000643595834326)
(0.00132843955303 0.00179344634471 -0.000485408875201)
(0.00156476397283 0.00204185253371 -0.000375612203217)
(0.00143243061724 0.00184196202779 -0.000519764390618)
(0.000962007894437 0.00193551576883 -0.000455997064466)
(0.00122827014584 0.00222487359854 -0.000326428838093)
(0.00112360374791 0.00199175484193 -0.000437141255887)
(0.000522471125162 0.00202596915688 -0.000444619236693)
(0.000791086235422 0.00235837327235 -0.000303173709771)
(0.000726481365777 0.00210061161955 -0.000391310280069)
(5.31472095145e-05 0.00205829303198 -0.000441537468995)
(0.000305192534654 0.00242612863146 -0.00030120775675)
(0.000283371173844 0.00214991969259 -0.000374888070079)
(-0.000422449612056 0.00202999256826 -0.000442211717957)
(-0.000197856341743 0.00243078906616 -0.000295479238307)
(-0.000176304555042 0.00215791889187 -0.000370935018458)
(-0.00086985442057 0.00193997390935 -0.000452357095458)
(-0.000693869196248 0.00236432903122 -0.000298567781767)
(-0.000627734720874 0.00210651615921 -0.000385527128197)
(-0.00124586479654 0.00179687529962 -0.000481094793566)
(-0.00114154399664 0.00223010247878 -0.000320960857066)
(-0.0010340396491 0.00199729539782 -0.000429321982801)
(-0.00150374615729 0.00161438510095 -0.000534899712636)
(-0.00148842106952 0.00204480136041 -0.000370317515582)
(-0.00135300431189 0.00184620495473 -0.000511115689149)
(-0.00159128254964 0.00140039222413 -0.000616059263111)
(-0.00168648953918 0.00182349126982 -0.000453898976422)
(-0.00154596129674 0.00166554811259 -0.000634718294841)
(-0.0014668328819 0.00117872727437 -0.000713470433466)
(-0.00168436205659 0.00157090061505 -0.000571536772419)
(-0.00157583233459 0.00146024961563 -0.000797043762645)
(-0.00111327829647 0.000993826897249 -0.00078909116064)
(-0.00143843483332 0.00133139260129 -0.000703396203667)
(-0.00141665658147 0.00126335316191 -0.00096827564623)
(-0.000578195919436 0.000880483536317 -0.000741605773349)
(-0.000961813651628 0.00115106991166 -0.00078826024897)
(-0.00107526375386 0.00110950941724 -0.00108625227936)
(-6.91039072171e-05 0.000840032843784 -0.000391093156676)
(-0.00028841136398 0.00106008416849 -0.000661357068635)
(-0.000565096614182 0.00102259839225 -0.00100151514166)
(0.000119558320667 0.00102187662629 -8.13581618474e-05)
(-0.000145304480347 0.000991280970754 -0.000477907901078)
(0.000114486783434 0.00121958478438 -0.00035829453036)
(-0.000100984122154 0.00130947289651 -2.65598046979e-05)
(0.000196605866551 0.00132479103578 -0.000414514363014)
(0.000726752662006 0.00131064657854 -0.000712308023581)
(0.000423347553219 0.00138420999358 -0.000633345538946)
(0.000701817329332 0.00135409382124 -0.000950587098436)
(0.0013399048794 0.00147076640574 -0.000706612297302)
(0.00118780182406 0.00150223244831 -0.000716531832875)
(0.00126757165896 0.00144732562708 -0.000976272531602)
(0.00172954452719 0.00170373807812 -0.000565616835641)
(0.00172049737862 0.00171254793338 -0.000566046415738)
(0.0016322870644 0.00161556631632 -0.000778622251143)
(0.00185131989538 0.00196747658766 -0.00041402099643)
(0.00198025779924 0.00197729320221 -0.000370338888026)
(0.00178763163882 0.00182678849205 -0.000532260651668)
(0.00173943770875 0.00221722549659 -0.000294954582354)
(0.00196551891502 0.00224835450692 -0.000203392745565)
(0.00173855959561 0.0020431497815 -0.000315983541914)
(0.0014527531528 0.00243046934773 -0.00021663216611)
(0.00173831886229 0.00248144157536 -8.21426512928e-05)
(0.00152340248842 0.00223390726395 -0.000154514945112)
(0.00104573823958 0.00259887023914 -0.000173605483399)
(0.00135925439432 0.00267808892466 -4.44945971327e-06)
(0.00118553925444 0.00239344472341 -4.8149065078e-05)
(0.000562595924535 0.00270824652279 -0.000159762229829)
(0.00087388828736 0.00282626341042 3.92873339702e-05)
(0.000755072308512 0.00251132122262 1.30825580109e-05)
(5.78338348421e-05 0.00274758119013 -0.000155149526063)
(0.00033523416425 0.0029098599669 5.33391455404e-05)
(0.000294028312798 0.00257519103058 1.88342990434e-05)
(-0.00046135024764 0.00271250943429 -0.000151835302117)
(-0.000223169967772 0.00291015335552 6.02187511482e-05)
(-0.0001780828043 0.00257778401057 3.78315099874e-05)
(-0.000953885059584 0.00260487265472 -0.000167171543375)
(-0.000774758986557 0.00283184459264 4.6883593866e-05)
(-0.000660658216057 0.00251787343468 2.34425721311e-05)
(-0.00137181066914 0.00243526671333 -0.000210183579081)
(-0.0012739698516 0.00268416243532 3.82384482182e-06)
(-0.00109824330253 0.00240044315442 -3.72195214974e-05)
(-0.00166773503705 0.00222001118756 -0.000289316779368)
(-0.00166457544966 0.00248420902935 -7.53329179828e-05)
(-0.00144622171404 0.00223863966105 -0.000144193939839)
(-0.00178717806932 0.00197022354181 -0.000409376485731)
(-0.00189891338756 0.0022488528677 -0.000198083654606)
(-0.00166945180692 0.00204640869635 -0.000306576425685)
(-0.00167308608141 0.00170941717438 -0.00056146254262)
(-0.00191899828436 0.00197877829571 -0.000365744962923)
(-0.00172598536949 0.00183144157977 -0.000523026568144)
(-0.00129370428784 0.00148100139861 -0.000702565291997)
(-0.00166694929175 0.00171866016404 -0.000560560991438)
(-0.00158035414969 0.00162461646198 -0.000768552164088)
(-0.000693460788739 0.00132445369468 -0.000708011544257)
(-0.00114632222621 0.0015133838196 -0.000710593759516)
(-0.00122880112535 0.00146121238786 -0.000965656089428)
(-9.6431598563e-05 0.00123342178751 -0.000351622073807)
(-0.000395725857501 0.00139809263594 -0.000626583205766)
(-0.000677126647555 0.00137065708889 -0.000939459643179)
(0.000112805640356 0.00132103702682 -1.67201442201e-05)
(-0.00018678282073 0.0013395711599 -0.000398941324417)
(0.000200199978297 0.00146176185935 -0.000301610813283)
(-5.13545566755e-05 0.00144122811844 3.05118600305e-05)
(0.000268137630581 0.0015353633057 -0.000332225687315)
(0.000910452464592 0.00156051856233 -0.00063756934824)
(0.00057944290841 0.00152168055445 -0.000579240740645)
(0.000862273881905 0.00153948144068 -0.000847970416477)
(0.00158348696777 0.00172570844624 -0.000575965951312)
(0.00141314295028 0.00163563961831 -0.000620792298304)
(0.00146856966456 0.00161625803316 -0.000806795289125)
(0.00199382656698 0.00196415043616 -0.000370768468123)
(0.00198554812509 0.00183501550702 -0.000413987340355)
(0.0018436341347 0.00177021888299 -0.000533456119282)
(0.00210152640912 0.00223470133692 -0.00015971063716)
(0.00225093490452 0.00208714620818 -0.000158393208471)
(0.00198424646724 0.00196793471859 -0.000218682774755)
(0.00195410224084 0.00249237340178 9.41918549664e-06)
(0.00220566489571 0.00233922184943 6.09596265519e-05)
(0.00190497785528 0.00217416272703 5.48031833062e-05)
(0.00162631616348 0.00271445814961 0.000130040055104)
(0.0019399463769 0.00255701180096 0.000219033038543)
(0.00165823658253 0.00236076173063 0.000249757476401)
(0.00117182179112 0.0028947988614 0.000208443357655)
(0.00151630283575 0.00274544019515 0.000327698002824)
(0.00128907139315 0.00252113377749 0.000384011047736)
(0.000634194517944 0.00301737250067 0.000252388709339)
(0.00097674030206 0.00289358957509 0.000396050133315)
(0.000830228402078 0.00264448882142 0.000466661580277)
(5.72696987254e-05 0.00306217789534 0.000268707422751)
(0.000372261470998 0.00297765756882 0.000430047256282)
(0.00032111769686 0.00272232163874 0.000505298510038)
(-0.000527823151859 0.00302118498666 0.000258937647131)
(-0.000256521086515 0.00297894520067 0.000434835037346)
(-0.000208157554355 0.00271917790866 0.00051271348773)
(-0.00107924246069 0.00290148686689 0.000217878982063)
(-0.000875118295123 0.00290040387545 0.000407015209911)
(-0.000730301298892 0.00265143147505 0.000479934469579)
(-0.00154796169687 0.00271913298944 0.00013867450592)
(-0.00143376699739 0.00275248597222 0.000338762068785)
(-0.00120422973698 0.00252893449278 0.000398391865905)
(-0.00188475587872 0.0024935156515 1.5900206779e-05)
(-0.00187053507437 0.00255892261804 0.000225632180469)
(-0.00158513685151 0.0023645830375 0.000260971996404)
(-0.00203679583863 0.00223466916851 -0.000154452131799)
(-0.00214067934733 0.00233726437754 6.46479197792e-05)
(-0.00183766210713 0.00217519470994 6.30678714145e-05)
(-0.00193353545854 0.00196673038959 -0.000364843411742)
(-0.00218709822512 0.00208497643913 -0.000154893961432)
(-0.00192043845627 0.00196924422997 -0.000210038992797)
(-0.00153264466115 0.0017333665809 -0.000568589458956)
(-0.00192678327226 0.00183725244304 -0.000407385168922)
(-0.0017869171778 0.00177588309975 -0.000520681275506)
(-0.000873515437708 0.00157237848052 -0.000629165421025)
(-0.00136680661256 0.00164330200318 -0.000611727378237)
(-0.00142500389359 0.00162712272048 -0.000791333892963)
(-0.000180433112446 0.0014740646365 -0.000291681276179)
(-0.000548993586498 0.00153228522775 -0.000568826008078)
(-0.000834297912184 0.00155336498073 -0.000830827222815)
(6.41291479606e-05 0.0014500174735 4.23803335223e-05)
(-0.000257020324093 0.00154783803134 -0.000312178671081)
(0.000315417099134 0.00149250880966 -0.000247118067332)
(5.68459976736e-06 0.00138708223632 7.25335136648e-05)
(0.000356470672858 0.00154134003639 -0.000261260639901)
(0.00111558141003 0.00158998821562 -0.00056246369071)
(0.000734691567226 0.00146441892595 -0.000527025179674)
(0.00103225340465 0.00153958132881 -0.000742913286925)
(0.0018400335851 0.00173639217217 -0.000458813687348)
(0.00163000850036 0.00155673514948 -0.000540381811653)
(0.00167758168119 0.00159557843749 -0.000645785141359)
(0.00226678530025 0.00195087268182 -0.000201612080703)
(0.00223829852441 0.00172243549562 -0.00029295319034)
(0.00206223550246 0.00172119413965 -0.000314911479932)
(0.00235409777051 0.00219252926293 6.22770552408e-05)
(0.00251048956304 0.00193978228625 1.42571710827e-05)
(0.00219152007283 0.00189017647431 5.85357045204e-05)
(0.00217034006005 0.00241567551676 0.000270573479598)
(0.00242908885928 0.00215671597949 0.00027346232456)
(0.00208338033853 0.00206945705193 0.000363734416428)
(0.00179935702817 0.0026086988252 0.000416690986264)
(0.0021287181098 0.0023422492366 0.000450577356474)
(0.00180894722313 0.00223566502232 0.000582054280998)
(0.00129776717548 0.00277135937775 0.000515304778484)
(0.00166446197652 0.00251024240293 0.000577130643862)
(0.00140780457492 0.00238374309655 0.000731924103746)
(0.000704018315646 0.00288490547075 0.000573708680257)
(0.0010730221209 0.00265030360988 0.000666753189822)
(0.000909194246423 0.00250111992999 0.000831211664435)
(5.94513696048e-05 0.00292712851748 0.000596174870876)
(0.000406408776537 0.00273114872018 0.000714612798062)
(0.000349325426018 0.0025699565289 0.000884771712171)
(-0.000593872199786 0.00288963854378 0.000582912600126)
(-0.000287325209087 0.00273359861078 0.0007206218768)
(-0.000235442333562 0.00257221711902 0.000892576026798)
(-0.0012062575774 0.00277894274991 0.000527898296633)
(-0.000969995312121 0.00265807400108 0.000681058170381)
(-0.000809516074928 0.00250954660956 0.00084955633002)
(-0.00172574970998 0.0026134308623 0.000425719743333)
(-0.00158629421029 0.00251821004322 0.000590762914195)
(-0.001328630983 0.00239249427487 0.000750061568127)
(-0.00210450989907 0.00241509606887 0.000274379893469)
(-0.00206537525686 0.00234393844789 0.000454989751774)
(-0.00174236785168 0.00223828370982 0.000591587532849)
(-0.00228926248664 0.00218934579372 6.42060901461e-05)
(-0.0023666017287 0.00215356861013 0.000272765128044)
(-0.00201894927663 0.00206795293756 0.000367476639242)
(-0.00220225974714 0.00194942513054 -0.000197435718612)
(-0.0024444652073 0.00193568803343 1.41617612453e-05)
(-0.00212589867252 0.0018882164464 6.18075696441e-05)
(-0.00178351510138 0.00173953809309 -0.000450523088203)
(-0.0021743461977 0.00172147383666 -0.000287459270314)
(-0.00200028082554 0.00172274273149 -0.000303722719582)
(-0.00107427069901 0.00159714050662 -0.000551387965291)
(-0.00157874010894 0.00156025695649 -0.000529950046922)
(-0.00162860065668 0.00160183126493 -0.000627850400454)
(-0.000293590892247 0.00150025497755 -0.000234764398377)
(-0.000701274797383 0.0014705481194 -0.000514296676421)
(-0.00100056163861 0.00154847587455 -0.000721747477232)
(7.78632799788e-06 0.00139209014608 8.55061506262e-05)
(-0.000343574450537 0.00154876564684 -0.000237926949757)
(0.000408367670768 0.00136046343328 -0.000207373598677)
(5.98208742297e-05 0.00118847423005 0.000100523945298)
(0.000416789387974 0.00139987709273 -0.000209501326127)
(0.00129159520305 0.00143096943375 -0.000504943300616)
(0.000867033575289 0.00123864400829 -0.000486731907672)
(0.00117597279252 0.00137751881823 -0.000657278415965)
(0.00206336552429 0.00154558079915 -0.000374521314644)
(0.00181381384941 0.00130620169833 -0.000486281306804)
(0.00186048836806 0.00141064088761 -0.000521423525538)
(0.0025026775656 0.00172187872501 -7.70839385538e-05)
(0.00245449558317 0.00143263107648 -0.000212947398107)
(0.00225604994061 0.00150413743752 -0.000150428292385)
(0.00257356248694 0.00192534537281 0.000225442440402)
(0.00273466122803 0.00160779488466 0.000138584652809)
(0.00238026583918 0.00164142724073 0.000259057785842)
(0.00235618951382 0.00211484930373 0.000453466201435)
(0.00262305397374 0.00178115995158 0.000424899335983)
(0.00225009212826 0.00179420487137 0.000589397411939)
(0.00194738552106 0.00228222852788 0.000611017014072)
(0.00229587866027 0.00192913399564 0.000614112287374)
(0.00195559275922 0.00194204327698 0.000816628672218)
(0.00140645510446 0.00242908810268 0.0007285790552)
(0.00179527625533 0.00205930211475 0.00076215977098)
(0.00152532965696 0.00206785208367 0.000984744486172)
(0.000764260382193 0.00253330115437 0.000807657307626)
(0.00115991086267 0.00217342792614 0.000871481623047)
(0.000987180510155 0.00217469379184 0.00111036908091)
(6.05567592438e-05 0.00257143103402 0.000839059803986)
(0.000438589942099 0.00223938934537 0.00090173878081)
(0.00037735769874 0.00223843051604 0.00118587375951)
(-0.000651949979775 0.00253829698848 0.000818767447055)
(-0.000316055376807 0.00224090311038 0.000907296730203)
(-0.00026236879213 0.00224102688895 0.00119574359966)
(-0.0013168788057 0.00243724059691 0.000743922787943)
(-0.00105556247235 0.00218052389204 0.000885427345628)
(-0.000888839403715 0.00218281137555 0.00113425310051)
(-0.00187963634164 0.00228772560537 0.000620032922636)
(-0.00172120604372 0.00206695452136 0.00077863367963)
(-0.00145310507897 0.00207632610218 0.00100785367191)
(-0.00229491194064 0.0021146061826 0.000453374986349)
(-0.00223888706177 0.00193135559736 0.000616810175735)
(-0.00189696791703 0.00194435834778 0.000824022029022)
(-0.00250931683813 0.00192168123006 0.000222720799143)
(-0.00256359545663 0.00177863968442 0.00042009102205)
(-0.0021889730246 0.00179178679168 0.000587435576805)
(-0.00243512212152 0.00171868020014 -7.58617904568e-05)
(-0.00266762541442 0.0016034896459 0.000134957589117)
(-0.00231330270302 0.00163829886872 0.000257209966132)
(-0.00200205475801 0.00154558538509 -0.000366886229033)
(-0.00238690001284 0.00143010371253 -0.000208951960127)
(-0.00218980291141 0.00150313806528 -0.000142339490059)
(-0.00124646031235 0.00143413179115 -0.000492858758052)
(-0.00175899224358 0.00130670640645 -0.000475662905603)
(-0.00180685666766 0.00141313162445 -0.000503314290187)
(-0.000384976069942 0.00136453151986 -0.000194026127418)
(-0.000831546499358 0.0012410636762 -0.000473138186913)
(-0.00114118028835 0.00138209227503 -0.000634264989171)
(-4.60564792491e-05 0.00119045590787 0.00011362209207)
(-0.000403042724485 0.00140367560736 -0.000185230818435)
(0.000498578408133 0.00107769683337 -0.000178834363697)
(0.000113466732489 0.000863745349842 0.00011744394038)
(0.000482570712781 0.00110826741311 -0.000173401306417)
(0.00144081324955 0.00112483995495 -0.00046806991386)
(0.000971333302471 0.000894257613729 -0.00046187751589)
(0.00129715803471 0.00108201627934 -0.000597547084907)
(0.00224887438484 0.0012055280141 -0.000324707390267)
(0.00195748089262 0.000936763120201 -0.000457194812137)
(0.00201227479982 0.00109883546727 -0.000438815320366)
(0.00270118324827 0.00133749344354 2.72119325504e-06)
(0.00262419342636 0.0010213272991 -0.000169252309819)
(0.00241772166857 0.0011626115647 -4.21728596893e-05)
(0.00276336217944 0.00149437057965 0.00033804154839)
(0.00291522669267 0.00114616026651 0.000218131562628)
(0.00254230889724 0.00126605884485 0.000396785577389)
(0.002524826541 0.00164180710386 0.000585545421921)
(0.00278524306039 0.00126986067389 0.00052565286015)
(0.00239931775294 0.00138549581045 0.000745144806724)
(0.00207811944211 0.00177167878198 0.000765255044282)
(0.00244141155903 0.00137655897711 0.000734167784767)
(0.00208141463705 0.00150315700326 0.000992147278593)
(0.00150123271866 0.00188817668827 0.000905062338827)
(0.00191180067302 0.00146899360457 0.000903476777886)
(0.00161872080279 0.00159611433226 0.00115745731005)
(0.000815130418443 0.00198221018436 0.000965563096231)
(0.00124660764311 0.00155242074876 0.000966858672045)
(0.00105615542322 0.00168374217979 0.00129510159273)
(6.20526175971e-05 0.00202151317435 0.000969975707027)
(0.000467783295353 0.00160541345481 0.000989796749024)
(0.000405024454731 0.00174085074762 0.0013736899983)
(-0.000700499040526 0.0019874268468 0.000973956628776)
(-0.000342225762996 0.00160666026371 0.000993330986652)
(-0.00028781030129 0.00174220184261 0.00138347504361)
(-0.00141234508645 0.0018970501281 0.000920138237315)
(-0.00113908779576 0.00155920662396 0.00098113847571)
(-0.000957610474203 0.00169204596963 0.00132141140701)
(-0.0020148804732 0.00177788737702 0.000775410932729)
(-0.00184091095775 0.00147650473629 0.000919984608059)
(-0.00155103033577 0.00160479840077 0.00118395015113)
(-0.00246788554754 0.00164309803288 0.000583526211436)
(-0.00238921638359 0.00137973546677 0.000737103313142)
(-0.0020287155706 0.00150667818522 0.000998725562849)
(-0.00270045055207 0.00149204996793 0.000332327812024)
(-0.00272846481526 0.00126893553768 0.000519506616894)
(-0.00234105210746 0.00138414637189 0.000739098996554)
(-0.00263243810255 0.0013342924597 1.86741944733e-06)
(-0.00284853563838 0.00114283319137 0.000213169954207)
(-0.00247468462941 0.00126346626074 0.000391224518141)
(-0.0021848089875 0.00120386583136 -0.000317728636697)
(-0.00255493269776 0.00101812633899 -0.000166119287393)
(-0.00234883792738 0.00116023639592 -3.6455371936e-05)
(-0.00139362131435 0.00112515170917 -0.000455942334464)
(-0.00190065435264 0.000935476868551 -0.000446569686011)
(-0.00195577704228 0.00109883278082 -0.000421083408713)
(-0.000474412504176 0.00107868076034 -0.000165489967425)
(-0.000934832235618 0.000894314361969 -0.000448358816704)
(-0.00126087635165 0.00108332322129 -0.000574400001883)
(-9.95050393813e-05 0.000863709693589 0.000130300407933)
(-0.000468455722929 0.00110895063757 -0.000149317504845)
(0.000562855412121 0.000690945833416 -0.000165599211814)
(0.000147509738697 0.000459895880617 0.000123770188443)
(0.000529469842235 0.000710625942444 -0.000158431057136)
(0.00154810255954 0.000717711931048 -0.000451002414167)
(0.0010361336605 0.00047479875638 -0.000451077728212)
(0.00138323426417 0.000691975583708 -0.00056541418963)
(0.00238370027988 0.000764409113394 -0.000301739731688)
(0.00204869403049 0.000494670165141 -0.000446418957025)
(0.00212247194278 0.000698925678643 -0.000393743608514)
(0.00284811488288 0.000845950137765 4.6158059554e-05)
(0.00273288555206 0.000534986917378 -0.000152682882382)
(0.00253537460935 0.000733226547993 2.04902326081e-05)
(0.00290982065971 0.000945556773083 0.000405742874388)
(0.00303519853239 0.000602765772861 0.000260234152224)
(0.0026637319377 0.000800377111833 0.000478392670417)
(0.00266275021963 0.00103853698188 0.000674275222996)
(0.00289600641972 0.000668207648483 0.000581458263938)
(0.00251452861049 0.000876705334219 0.000842887422506)
(0.00219052141189 0.0011220286483 0.000872389518371)
(0.00254220649946 0.00072559613859 0.000809994196949)
(0.00218582946177 0.000952504512922 0.00111424124331)
(0.00158480272457 0.00120546721806 0.000965273111104)
(0.0020028179559 0.000772440326277 0.000958574690792)
(0.00170556066412 0.00101851704662 0.00128999548373)
(0.000871102837359 0.00127038872244 0.000991092324837)
(0.00131197901564 0.000825570166629 0.000985153477348)
(0.00112232889248 0.00108187370635 0.00142534496579)
(6.29692913138e-05 0.00129261716703 0.00101315202865)
(0.000488680438559 0.000855982870517 0.00103648225735)
(0.000425977321628 0.00111539112464 0.00154058144093)
(-0.000752693012398 0.00127324205058 0.00100051283359)
(-0.000360731339468 0.000858062331336 0.00104050722707)
(-0.000305621264296 0.00111724397632 0.00154727677407)
(-0.00149591702597 0.00121066787867 0.000980984846454)
(-0.00120209680514 0.000828268365342 0.00100123758863)
(-0.00101913108769 0.00108714590489 0.00145909067243)
(-0.00213020310854 0.00112619587714 0.000881676988472)
(-0.00193334642018 0.000776228568248 0.000974324499343)
(-0.00164003040183 0.00102564520933 0.00132283048527)
(-0.00260888419182 0.00103921802246 0.0006730837186)
(-0.00249259711726 0.000725914028364 0.000813111298332)
(-0.00213749778423 0.000955218889078 0.00112462970439)
(-0.00284840874055 0.000943709829669 0.000400348759077)
(-0.00284071340833 0.000666720025096 0.000575416846962)
(-0.00245877026957 0.000875986556396 0.000837291191545)
(-0.00277997232716 0.000842808380088 4.51832473665e-05)
(-0.00296933798858 0.00059944336062 0.000255284939273)
(-0.00259700918698 0.000797902268893 0.000472824661838)
(-0.00231800830853 0.00076185584354 -0.000294960336707)
(-0.00266299189197 0.000531132500663 -0.000151940512475)
(-0.00246569236926 0.000726509305008 2.3936735929e-05)
(-0.00149970249522 0.000716501258834 -0.000438986168251)
(-0.00199050015448 0.000492439186579 -0.000435864429417)