/*--------------------------------*- C++ -*----------------------------------*\
| =========                 |                                                 |
| \\      /  F ield         | OpenFOAM: The Open Source CFD Toolbox           |
|  \\    /   O peration     | Version:  3.0.1                                 |
|   \\  /    A nd           | Web:      www.OpenFOAM.org                      |
|    \\/     M anipulation  |                                                 |
\*---------------------------------------------------------------------------*/
FoamFile
{
    version     2.0;
    format      ascii;
    class       surfaceVectorField;
    location    "3.2";
    object      Uf_0;
}
// * * * * * * * * * * * * * * * * * * * * * * * * * * * * * * * * * * * * * //

dimensions      [0 1 -1 0 0 0 0];

internalField   nonuniform List<vector> 
22672
(
(0.00115256350432 0.000382085397024 -0.00107219423925)
(0.000381483134973 0.0011536855573 -0.00107378509916)
(0.000728885079962 0.000728052970683 -0.00230625338488)
(0.00278303938043 0.000167096032027 -0.00105668285845)
(0.00170824860427 0.00084182481564 -0.00165027804159)
(0.00222352523888 0.000694497744391 -0.00247230514831)
(0.00440957854326 0.000151115141252 -0.000956922304813)
(0.00369845641771 0.000849293151597 -0.00183952304497)
(0.00404963327574 0.000794741266834 -0.00247583540173)
(0.00563168804121 0.000310494030882 -0.000829519618001)
(0.00530813239259 0.00115085858114 -0.00183033060358)
(0.00552492586212 0.00106709607405 -0.00237296911161)
(0.00620043460272 0.000603088250583 -0.000720086180453)
(0.00632545126521 0.00169379105545 -0.00178066454929)
(0.00643855008184 0.00147235390495 -0.00226253636534)
(0.0060177333568 0.000932899675462 -0.000641234668737)
(0.00653734237357 0.00235788427848 -0.00172803523073)
(0.00658108607663 0.00194224866021 -0.00217517953717)
(0.00515338802857 0.00123957713981 -0.000591248823704)
(0.00597541507414 0.00298286775267 -0.00169458989208)
(0.00599429747598 0.00236015975685 -0.00211851702078)
(0.00372889571427 0.00149209887551 -0.000565209775903)
(0.00473036550291 0.00351731286076 -0.00168152441638)
(0.00474142984837 0.00272617713446 -0.00209281393531)
(0.00193962089247 0.00164834961862 -0.000557113402545)
(0.00300506948351 0.00388680366541 -0.00168941036339)
(0.00301261608487 0.00297888860178 -0.00209752209342)
(-2.35318071305e-05 0.00170119204381 -0.000555841042707)
(0.00101371852046 0.00407276964853 -0.00170101287427)
(0.00101673821638 0.00310605128077 -0.00210961136589)
(-0.00198902093062 0.00164992977787 -0.000556839632651)
(-0.0010631632875 0.00407512567986 -0.00170114818733)
(-0.00106575547906 0.00310765528752 -0.00210963343092)
(-0.00378432331679 0.00149450180733 -0.000564929399811)
(-0.00305965979208 0.00389305140914 -0.00168990305874)
(-0.00306650845556 0.00298317748772 -0.00209774929836)
(-0.00521588070149 0.00124173429903 -0.000591590725361)
(-0.00479337897597 0.00352548357678 -0.00168288685157)
(-0.00480344430019 0.00273186801992 -0.00209393017966)
(-0.00608476591448 0.000934644121786 -0.000642986630566)
(-0.00604602065828 0.00299084433229 -0.00169782983524)
(-0.00606389328237 0.00236590998582 -0.00212196641989)
(-0.0062675054007 0.000604251716848 -0.000724517766571)
(-0.00661113490551 0.00236540712411 -0.00173424339904)
(-0.00665439766791 0.00194848239882 -0.00218267734639)
(-0.0056912405075 0.000311616096374 -0.000837740866087)
(-0.00639554923951 0.00170041641284 -0.00179183635335)
(-0.00650971360871 0.00147807726699 -0.00227669243246)
(-0.0044549716834 0.000153753801729 -0.000968811971871)
(-0.00536595785426 0.00115869176249 -0.00184613605472)
(-0.00558546039297 0.00107379299102 -0.00239497251703)
(-0.00281004298061 0.000172428478858 -0.00107148577947)
(-0.00373739934503 0.000859933491836 -0.00185941405804)
(-0.00409268771535 0.000803158200869 -0.00250487509862)
(-0.00116187335186 0.000392263669082 -0.00108818173712)
(-0.00172387522631 0.000857207529042 -0.00167060270611)
(-0.00224475335807 0.000705844075101 -0.00250539222604)
(-0.000382730515601 0.00117701941717 -0.00108692612834)
(-0.000733713341114 0.000744579712295 -0.00233890462822)
(0.000837048397813 0.00171408448378 -0.0016518689015)
(0.000165881551282 0.0027932358023 -0.00106349200375)
(0.000690403043307 0.00222754207007 -0.0024766036837)
(0.00270299664272 0.00164625714427 -0.00243311822811)
(0.00163727291888 0.00271964477637 -0.00243413696453)
(0.00225064428661 0.00226291097655 -0.0037437730071)
(0.00465206136957 0.00199972454404 -0.00271293134374)
(0.00406485010841 0.00311182893719 -0.00295078005762)
(0.00426212831164 0.00263017106587 -0.00421160360348)
(0.00609134423932 0.00272881675059 -0.00278147553487)
(0.00599119977423 0.00400637071224 -0.00302782988594)
(0.00585290076557 0.00337931863955 -0.00429479571799)
(0.0067568545517 0.00369474416924 -0.00278861359956)
(0.00717471638042 0.00528016542026 -0.00297175747034)
(0.0068052639 0.00440316832508 -0.00425188280127)
(0.00657132457112 0.00470240861104 -0.00278139045407)
(0.00741938256504 0.00670741113051 -0.00287751941462)
(0.00695689042845 0.00552681241786 -0.00416399246357)
(0.00560136321256 0.0055960352582 -0.00278486548476)
(0.00674138769058 0.00804090998902 -0.00280005760692)
(0.00630653668853 0.00656856084891 -0.0040880743242)
(0.00403568751069 0.00627946156709 -0.00280572500387)
(0.00530360323662 0.00913501450328 -0.00276643914408)
(0.00497138742892 0.00742196045346 -0.00405201803628)
(0.00209262048928 0.00669844611001 -0.00283330983512)
(0.00335121115404 0.00988842874846 -0.00277571800375)
(0.00315147450293 0.00801009681035 -0.00405855003098)
(-2.53024316123e-05 0.00684066455157 -0.0028463200189)
(0.00112943286546 0.010268108822 -0.00279548226715)
(0.00106304332919 0.00830752867646 -0.00407740961957)
(-0.00214621328339 0.00670581030174 -0.00283421161342)
(-0.0011756179886 0.0102738063286 -0.00279532453849)
(-0.00111162288065 0.00831254981445 -0.00407776608365)
(-0.00409726225397 0.00629208408597 -0.00280786051049)
(-0.00340484941467 0.0099038373453 -0.00277542448017)
(-0.00320645096729 0.00802390038222 -0.00405973728549)
(-0.00567251403875 0.00561078133303 -0.00278912596145)
(-0.0053692635173 0.00915593200809 -0.00276726697934)
(-0.00503699791784 0.00744116258692 -0.00405520135893)
(-0.00664923224713 0.00471703408985 -0.00278908660372)
(-0.00681789509476 0.00806282151326 -0.00280387733484)
(-0.00638249103133 0.00658952288245 -0.00409526758945)
(-0.00683481431773 0.00370868618669 -0.00280156198582)
(-0.0075005538638 0.00672868842273 -0.00288626894425)
(-0.00703866427493 0.00554807941655 -0.00417771068438)
(-0.00616063134056 0.00274318517988 -0.00280023154198)
(-0.00725167038594 0.00530128589912 -0.00298698863432)
(-0.0068854807494 0.00442478884858 -0.00427506564849)
(-0.00470433964878 0.00201674896401 -0.00273673814089)
(-0.0060546536919 0.0040296290368 -0.00304926008009)
(-0.00592285488202 0.00340276827259 -0.00432724323166)
(-0.00273169929642 0.00166830538931 -0.00245853098468)
(-0.00410658207278 0.00313961129134 -0.00297710596271)
(-0.00431343262212 0.00265707985322 -0.00425233367283)
(-0.000843543190259 0.00174373563822 -0.00166934709733)
(-0.00165095300125 0.00275382320138 -0.00245798329124)
(-0.0022765942933 0.00229522919608 -0.00378478951054)
(-0.000164285242407 0.002835098376 -0.00107092161237)
(-0.000697384137078 0.00226777039592 -0.00250163582537)
(0.00084457734565 0.00371971438532 -0.00184576006677)
(0.000150143733427 0.0044369243621 -0.000966081098807)
(0.00078941280282 0.00406871267152 -0.00248827126511)
(0.0030929402609 0.00409102035698 -0.00295179879403)
(0.00198998177075 0.00468548263632 -0.00271564072311)
(0.00261506322251 0.00428952751258 -0.00421420583149)
(0.00545667639957 0.0050081178037 -0.00326567859982)
(0.00497972784034 0.00549389376918 -0.00326507202518)
(0.00496969845859 0.0050013436421 -0.00474580417521)
(0.00717349377883 0.00642341791766 -0.00321811182141)
(0.00732423583303 0.00695132197774 -0.00316419857675)
(0.00679047915446 0.00624221375309 -0.00466176928147)
(0.00793467670437 0.00812504624186 -0.0030606632854)
(0.00871712155269 0.00886515674099 -0.00284525762665)
(0.00783835233088 0.00784175409376 -0.00434617201317)
(0.00767049864109 0.00984019119811 -0.00289618656746)
(0.00894727331227 0.0109377768066 -0.00247841447911)
(0.00795560619885 0.00955828653851 -0.00396618243858)
(0.00649298188195 0.0113368411606 -0.00278163126624)
(0.0080583635204 0.012852883333 -0.00216955192212)
(0.00715466752551 0.0111434751261 -0.00363444870929)
(0.00464559855813 0.0124683628001 -0.00273643214397)
(0.00628318297554 0.014402415702 -0.00198036766487)
(0.00559760014939 0.0124293896816 -0.00342000801056)
(0.00239994111077 0.013161149159 -0.00273789043579)
(0.00394205326805 0.0154627972019 -0.00191085135902)
(0.00352962119131 0.0133143864511 -0.00332870044625)
(-2.02546885031e-05 0.0133969330296 -0.00274448678675)
(0.00132952244969 0.0159960686862 -0.00190123265617)
(0.00119255282449 0.0137632764668 -0.00330775460599)
(-0.00244489501005 0.0131745265189 -0.00273653740524)
(-0.00136178300266 0.016004480225 -0.00189927916404)
(-0.00122865535717 0.0137713670684 -0.00330602717313)
(-0.00470260170822 0.012491461925 -0.00273483094901)
(-0.00398574900957 0.0154857024384 -0.00190546000783)
(-0.00357525078455 0.0133368291315 -0.00332415663129)
(-0.00656418163731 0.0113642005799 -0.00278201835273)
(-0.00634508077358 0.0144333116211 -0.00197475975931)
(-0.00565880877352 0.0124604244546 -0.00341580325395)
(-0.00775116962372 0.00986791173185 -0.00290105967536)
(-0.00813601653147 0.0128846091478 -0.00216772099756)
(-0.00723054378297 0.0111769595616 -0.00363480816162)
(-0.00801583089647 0.00815252188341 -0.00307169559274)
(-0.00903095428621 0.010967962522 -0.00248292145162)
(-0.00803930624148 0.00959179830557 -0.00397462508703)
(-0.00724550600702 0.00645237865357 -0.00323601717243)
(-0.00879582334617 0.00889552424864 -0.00285665686539)
(-0.00792098366283 0.00787618000291 -0.00436457790424)
(-0.00551024748756 0.00504099161697 -0.00328962790191)
(-0.00738830562161 0.00698529980146 -0.00318282564778)
(-0.00686316785448 0.00627975741622 -0.00469094551392)
(-0.00312098866174 0.00412968987062 -0.00297655826926)
(-0.0050206325102 0.00553368415518 -0.00328907962594)
(-0.00502350395649 0.00504362393234 -0.00478334956004)
(-0.000848938318511 0.00376498196982 -0.00185955780628)
(-0.00200082845874 0.00473215365029 -0.00273582836995)
(-0.00264201733763 0.0043376443305 -0.00425040123206)
(-0.000146019787925 0.00448991874675 -0.000966768947155)
(-0.000796528452533 0.00412327213536 -0.00250377434333)
(0.00114564034976 0.00534724202092 -0.00183596175515)
(0.000310132079484 0.00567456296586 -0.000837474834194)
(0.00106161903023 0.00556062516601 -0.00238328475408)
(0.00398670232295 0.00603588817664 -0.00302891395426)
(0.00271959206507 0.00614269452465 -0.00278201115559)
(0.00336319816736 0.00589681438349 -0.00429827939371)
(0.00691230851968 0.00737216676931 -0.00316359200212)
(0.00639503255992 0.00722891852812 -0.00321576685682)
(0.00620897458683 0.00683881784902 -0.00466063452878)
(0.00899020472951 0.00929949478897 -0.00279134438199)
(0.00925044870111 0.00904930917796 -0.00278911782817)
(0.00836765278499 0.0084186444673 -0.00417588417723)
(0.0098489991992 0.0115433172623 -0.00226300882036)
(0.0108852753016 0.0113614739037 -0.00205074936731)
(0.00955034924508 0.0104118128823 -0.00335510906256)
(0.00942731135558 0.0137700637056 -0.00175177983377)
(0.011063634578 0.0138199460023 -0.00125340873452)
(0.00959233144863 0.0125249215846 -0.00246047503927)
(0.00790522547558 0.0156957305766 -0.00136828832075)
(0.00987237065485 0.0160653622509 -0.000582262296585)
(0.00853954793918 0.0144623643483 -0.00169038283611)
(0.00560884305179 0.0171405755125 -0.00115478687992)
(0.0076313882149 0.0178682019305 -0.000138572142304)
(0.00661883198732 0.0160218598909 -0.00116939015576)
(0.00288491951157 0.0180199309006 -0.00107419357941)
(0.00475600598489 0.0190965174531 6.9933538021e-05)
(0.00414511982184 0.0170880467711 -0.000909780933519)
(-1.13989282891e-05 0.0183182979107 -0.00105602503347)
(0.00160562311246 0.0197117027104 0.000135263308939)
(0.00140287138776 0.0176259133585 -0.00081929990572)
(-0.00291428789062 0.0180374594878 -0.00106820176663)
(-0.00161817266074 0.019721651545 0.000139858801114)
(-0.00141968383827 0.0176361075244 -0.000814269518471)
(-0.00565655956404 0.0171705032235 -0.00114538881813)
(-0.00478568577687 0.0191232845919 8.29122784815e-05)
(-0.00417607504275 0.0171160061161 -0.000895302985285)
(-0.00797416738395 0.0157300423732 -0.00136046240414)
(-0.00768826031831 0.0179034360857 -0.00012372980517)
(-0.00667304739718 0.016059757517 -0.00115251594119)
(-0.00950924293846 0.013803187745 -0.00174958277381)
(-0.00995155795295 0.0160991406214 -0.000573381193081)
(-0.00861442681529 0.0145012528999 -0.00167946196725)
(-0.00993128874954 0.011575172851 -0.00226788272427)
(-0.0111496170223 0.0138496386883 -0.00125345530403)
(-0.00967672722535 0.0125617048209 -0.00245964187765)
(-0.00906172474889 0.00933342724622 -0.00280346534074)
(-0.0109636705256 0.0113905784882 -0.0020580389561)
(-0.00963282916489 0.0104490524265 -0.0033646335465)
(-0.00696406638878 0.00741145649543 -0.00318227737181)
(-0.00931195574346 0.00908328772752 -0.00280300276884)
(-0.00843947473423 0.00846028332916 -0.00419566414586)
(-0.00401175259204 0.0060819587432 -0.00304834972663)
(-0.00643246048341 0.0072703597097 -0.00323450706934)
(-0.00626178766389 0.00688671900001 -0.00468900956972)
(-0.00114683784371 0.00539965772124 -0.00184303951082)
(-0.00272648051324 0.00619147662448 -0.00279604997644)
(-0.00338856450083 0.00595119576568 -0.00432426104886)
(-0.000303416018503 0.00572917573711 -0.000830898532346)
(-0.00106739763284 0.00562058790046 -0.00238611251548)
(0.00169023983463 0.00637982982619 -0.00178352423464)
(0.000604314520546 0.00625693393252 -0.000727560148387)
(0.00146745093165 0.00649020270454 -0.00227261725073)
(0.00526161848856 0.0072358740618 -0.00296886405816)
(0.00368810276037 0.0068212957502 -0.00278671092761)
(0.00438814919375 0.00686455719744 -0.00424998608782)
(0.00882712821957 0.00878315304339 -0.00284129268288)
(0.00809950014863 0.00800525421274 -0.00305567066397)
(0.00780927483574 0.00790245356525 -0.00434184949711)
(0.0113013406852 0.0109548644323 -0.00204852281348)
(0.0114968019626 0.00992503152208 -0.0022562225374)
(0.0103609608135 0.00961847678191 -0.00334993566245)
(0.0122443253069 0.0134466795127 -0.00104114928146)
(0.0133770281437 0.0123243119639 -0.0010370678809)
(0.0116908599497 0.011761087345 -0.00190581933412)
(0.0116110472187 0.0158947834914 -8.38911973396e-05)
(0.0134629686953 0.0148388666643 0.00024264403943)
(0.0116244160644 0.0140147161591 -0.000385633970772)
(0.00965775133288 0.0179955152094 0.000647453881859)
(0.0119151195853 0.0171055567736 0.00131248529167)
(0.0102547896782 0.0160682489472 0.00091311606992)
(0.00680799602462 0.0195666089487 0.00108614827564)
(0.00914438520959 0.0189194655536 0.00202973017368)
(0.00788555291919 0.0177141024889 0.00179851255277)
(0.00349098658062 0.0205221890648 0.00127939042637)
(0.0056657794025 0.02015184377 0.00238080917385)
(0.00490951837246 0.018837394741 0.00226170882171)
(-6.87187262417e-07 0.0208462050204 0.00133114714352)
(0.00191284392917 0.0207666711743 0.00249704235348)
(0.0016635290196 0.019402835592 0.00243673289616)
(-0.00350193879335 0.0205410645065 0.00129097284622)
(-0.00190424669841 0.0207766844781 0.0025042789428)
(-0.00165823992841 0.0194138134276 0.00244624410574)
(-0.00684562165958 0.0195983133952 0.00110457129144)
(-0.0056808528861 0.0201789101314 0.00240169664072)
(-0.00492467408332 0.0188672258072 0.00228807652291)
(-0.00972590568526 0.0180298470484 0.000663351405891)
(-0.00919786050047 0.0189545564642 0.00205357288975)
(-0.00793406198105 0.0177536040905 0.00182917382661)
(-0.0116960366505 0.0159247131049 -7.72537233003e-05)
(-0.0119987093707 0.017136193085 0.00132543165231)
(-0.0103314991453 0.0161054355087 0.000933079003306)
(-0.0123276943251 0.013473097931 -0.00104361153586)
(-0.0135527019051 0.0148619378629 0.000242020531142)
(-0.0117111786624 0.0140462803873 -0.000380649385275)
(-0.0113702326809 0.0109832836728 -0.0020575763842)
(-0.0134541126805 0.0123450864023 -0.00104544962523)
(-0.0117721845808 0.0117914110149 -0.00191198364207)
(-0.00887430204168 0.00881822042787 -0.00285523246637)
(-0.0115533001264 0.00995103414446 -0.002268543758)
(-0.0104291299488 0.00965383088673 -0.0033636954689)
(-0.005282151458 0.00727866806466 -0.00298220731915)
(-0.00813151358791 0.0080395860499 -0.00307044192296)
(-0.00785835401444 0.00794533328473 -0.00436139894627)
(-0.00168813531026 0.00642930147143 -0.00178390899796)
(-0.00369039383783 0.006863186323 -0.00279661466367)
(-0.00441035462537 0.0069144298045 -0.00426575177041)
(-0.000595026734948 0.00630498631186 -0.000715522681488)
(-0.0014715392277 0.00654562777815 -0.00226396528929)
(0.00235679019264 0.00660359979748 -0.00173074684136)
(0.000935158728656 0.00608366691997 -0.000647819479177)
(0.00193932010184 0.00664570162717 -0.00218353031854)
(0.00669314383296 0.00749309958332 -0.00287351753343)
(0.00469926085823 0.0066460792779 -0.0027788941733)
(0.00551475264771 0.00702838894552 -0.00416114403873)
(0.0109043051579 0.00902722497937 -0.0024706005185)
(0.00981956750308 0.00775111708457 -0.00288753629409)
(0.00952971697451 0.00803208747592 -0.00395702864562)
(0.0137633746262 0.0111492011558 -0.00124476760482)
(0.0137289353766 0.00951365926561 -0.00173888576842)
(0.01247808921 0.00967383947673 -0.00244769770661)
(0.0147597611578 0.0135512341463 0.000246725439991)
(0.0158283282932 0.0117023318927 -6.99387038349e-05)
(0.0139465574491 0.0117101396338 -0.000374401289481)
(0.013872222054 0.0158712015898 0.00163902052844)
(0.0157835025646 0.0139640049792 0.00164572518134)
(0.0137463864409 0.0138326073282 0.00176241370347)
(0.011455187433 0.0178411435645 0.00269476158349)
(0.0138738979065 0.0159797571623 0.00305258309214)
(0.0120384601232 0.0157464426963 0.00354285681899)
(0.00802732033755 0.019308369092 0.00332439107189)
(0.0105820770559 0.0176008246259 0.00399166789621)
(0.00919817311434 0.0172764201447 0.0047465410676)
(0.00410191319143 0.0201950748782 0.00359846110096)
(0.00652020506557 0.0187058767172 0.00444596294739)
(0.00569787692777 0.0183185697967 0.00537141630746)
(9.63848969206e-06 0.0204941587837 0.00367017415276)
(0.0021985667202 0.0192544741857 0.00459113978448)
(0.00193053352893 0.0188410369841 0.00560451883369)
(-0.00409544212418 0.0202132117111 0.0036150027373)
(-0.00217053419899 0.0192636752533 0.00460069541531)
(-0.00190466895817 0.0188515473136 0.00561813596051)
(-0.00805646969639 0.0193387271278 0.00335069823903)
(-0.00652211230904 0.0187301365293 0.00447361541122)
(-0.00569876902236 0.0183473280264 0.00540983984194)
(-0.0115255074372 0.0178725310648 0.00271565313616)
(-0.0106343455518 0.0176327257758 0.00402273555371)
(-0.0092442928543 0.0173144448241 0.00479089487358)
(-0.0139629718267 0.0158950635842 0.00164470590675)
(-0.0139649040109 0.0160062421911 0.00306585360003)
(-0.0121212628251 0.0157791556126 0.00356742778154)
(-0.0148446846301 0.0135686290739 0.000240182441778)
(-0.01587917175 0.0139811943547 0.00163958113883)
(-0.0138380644398 0.0138560482703 0.00176245613244)
(-0.0138284315822 0.0111673914269 -0.00125641699903)
(-0.015904566499 0.011714737113 -8.48027194249e-05)
(-0.0140267888359 0.0117300660497 -0.000385913742204)
(-0.0109451231733 0.00905223626948 -0.00248375321459)
(-0.0137794229967 0.00953041251078 -0.00175400382842)
(-0.0125408218154 0.00969814288015 -0.0024627037799)
(-0.00670808034077 0.00752624383887 -0.00288484926748)
(-0.00984527071619 0.00777562804562 -0.00290160187416)
(-0.00957315925992 0.00806392592299 -0.00397310731073)
(-0.0023508748006 0.00664362751359 -0.00172822834719)
(-0.00469680008531 0.00667846219976 -0.00278649305985)
(-0.00553262007925 0.00706719321393 -0.0041725088858)
(-0.000923864036279 0.0061219590583 -0.000632962731639)
(-0.00194103248775 0.00668972210172 -0.0021678678947)
(0.002983780226 0.00604910123899 -0.00169596681111)
(0.00124268716822 0.0052247057063 -0.000596916170303)
(0.00235783710949 0.00606675247826 -0.00212482669912)
(0.00803108293655 0.00682198954845 -0.00279291293396)
(0.00559569287919 0.00568034836374 -0.00278016136827)
(0.00655956615723 0.00638508693577 -0.0040815791121)
(0.0128250521787 0.0081441702544 -0.00215582154401)
(0.0113203576748 0.00657587946177 -0.00276905144618)
(0.0111196612779 0.00723686091 -0.00361873605697)
(0.0160139512673 0.00996292469819 -0.00056405686743)
(0.0156595083244 0.00799126670882 -0.00134869912503)
(0.0144211808559 0.00862545478863 -0.00166650593049)
(0.0170289315487 0.012008165434 0.00132906103751)
(0.0179323438036 0.00974613942447 0.000671295793489)
(0.0160042087887 0.0103440191014 0.000941220586698)
(0.0158885041118 0.01396721287 0.00305928774504)
(0.0177547917315 0.0115424563371 0.00271332735084)
(0.0156618803873 0.0121286973413 0.00356199574937)
(0.0130408476078 0.0156350187999 0.00434948940486)
(0.0155418906589 0.0131270735699 0.00435558147113)
(0.0136409880293 0.0137309347624 0.00570037437577)
(0.0090933317612 0.0168878340342 0.00511323977171)
(0.0118008979703 0.0144133245135 0.00546313675092)
(0.0103728858486 0.0150256799019 0.00713506652081)
(0.00463110118555 0.0176438266975 0.00543864163091)
(0.00724750570276 0.0152918911337 0.00592950001892)
(0.00640042179279 0.0159121824066 0.00787628141421)
(1.88171944365e-05 0.0178975737271 0.00552166104703)
(0.00244176138153 0.0157186517108 0.00605434770429)
(0.0021674697801 0.0163551172291 0.008148180824)
(-0.0046094797746 0.017659198332 0.00545930808923)
(-0.0023978622651 0.0157263200733 0.00606528531574)
(-0.00212359057228 0.0163640646707 0.00816572685632)
(-0.00911569103599 0.0169138124927 0.0051456527259)
(-0.00723824945374 0.0153105213894 0.00595978542533)
(-0.00638891943482 0.0159359958998 0.00792589194531)
(-0.0131154356312 0.0156621812453 0.00437293601758)
(-0.0118516418414 0.0144393667731 0.00549962991914)
(-0.0104185044139 0.0150584509352 0.0071931526993)
(-0.0159875818186 0.013987127296 0.00306072883211)
(-0.0156400690988 0.0131501203203 0.00436793852161)
(-0.0137325702379 0.0137589461956 0.00572829772278)
(-0.0171177988887 0.0120206708635 0.00131459597763)
(-0.0178569575597 0.0115577221156 0.00270129806209)
(-0.0157607450376 0.0121471563883 0.00355370083466)
(-0.0160758189723 0.00997428748531 -0.00058238954881)
(-0.0180093278707 0.00975566368966 0.000649140172297)
(-0.0160846006361 0.0103575159784 0.000917090641525)
(-0.0128596019376 0.00816061495993 -0.00217185248798)
(-0.0157055168341 0.00800282485782 -0.00136868448787)
(-0.0144788834061 0.00864116308971 -0.00168864269908)
(-0.00804023592271 0.00684556283207 -0.00280324566654)
(-0.0113410139145 0.00659269898183 -0.00278468310222)
(-0.0111574231823 0.00725824592383 -0.00363645811574)
(-0.00297498372266 0.0060794146518 -0.0016912274443)
(-0.00558964215766 0.00570331418385 -0.00278671620148)
(-0.00657333439685 0.00641246000485 -0.00409013164066)
(-0.00123025693831 0.00525351926883 -0.000581178646086)
(-0.00235795928296 0.00609933895693 -0.00210656416807)
(0.0035198879716 0.00480656980408 -0.00168111072746)
(0.00149610996939 0.00380139378746 -0.000569762138045)
(0.00272473561756 0.00481713159228 -0.00209658406192)
(0.00912783215601 0.00538447863319 -0.00275629988049)
(0.00628010269594 0.0041140723692 -0.00279879915007)
(0.00741454985197 0.0050512671243 -0.00404167565064)
(0.0143778809429 0.00636581550699 -0.0019619290272)
(0.0124531838453 0.00472474124028 -0.00272109592999)
(0.012408340247 0.00567820719354 -0.00339891456384)
(0.0178199224425 0.00771478603375 -0.000113346464111)
(0.017105735697 0.00568667716708 -0.00113122598793)
(0.0159839962118 0.00669923841817 -0.00113744955575)
(0.0188446943444 0.00922655409854 0.00205556210682)
(0.0195035681888 0.00688372110493 0.00111459783489)
(0.0176527223757 0.00796518651924 0.001837659245)
(0.0175101132738 0.0106617635225 0.00400962107693)
(0.0192210882328 0.00809793817011 0.00334707465787)
(0.0171934080499 0.00927548787158 0.00477912758268)
(0.0143275510434 0.0118791283544 0.00546922881718)
(0.0167939807551 0.00916025086737 0.00512354449981)
(0.0149363868068 0.0104477288751 0.00714943370257)
(0.00995702188496 0.0128109353107 0.00627939699813)
(0.0127336023898 0.0100230573057 0.00627790466448)
(0.0113286859389 0.011401967597 0.00876086812797)
(0.00506790549915 0.0133878269851 0.0065452060923)
(0.00780746737223 0.0106260194045 0.00669786213442)
(0.00697981970759 0.0120663156019 0.0095550808937)
(2.55847320836e-05 0.0135821912729 0.006597971973)
(0.0026283480645 0.010923332572 0.00680505187289)
(0.00236387564538 0.0123958067342 0.00983774612351)
(-0.00503436928271 0.0133987277243 0.00656576265185)
(-0.00257318485407 0.0109284929439 0.00681718276428)
(-0.0023055068656 0.0124024277932 0.00985788888521)
(-0.0099718591807 0.0128290179651 0.00631376261857)
(-0.00778973852698 0.0106374921755 0.00672698963152)
(-0.00695677303377 0.0120815629504 0.00961061544001)
(-0.0144037943639 0.0119001658873 0.00549463242317)
(-0.0127802132418 0.0100406003123 0.0063155250475)
(-0.0113704777333 0.0114248402081 0.00883077663834)
(-0.0176152245892 0.0106794145392 0.00400850775158)
(-0.0168950565992 0.00917945608735 0.00513738973449)
(-0.0150330061445 0.0104701779603 0.0071821439471)
(-0.0189373790955 0.00923820524571 0.00203584225675)
(-0.0193276894964 0.00811249329144 0.00333340806882)
(-0.0172977325224 0.00929139488953 0.00476740879369)
(-0.0178810737291 0.0077241937583 -0.000137154766761)
(-0.0195821846792 0.00689318633373 0.00108819819136)
(-0.0177345073233 0.00797641129659 0.00180617818079)
(-0.0144091790656 0.00637778962173 -0.00198151510211)
(-0.0171499141493 0.00569680380989 -0.0011551200302)
(-0.0160393570393 0.00671079514042 -0.00116588153254)
(-0.00913371908583 0.00540093951574 -0.00276815363716)
(-0.0124714086491 0.00473739817613 -0.00273878602358)
(-0.0124429372651 0.00569275211784 -0.00342017743759)
(-0.0035092990557 0.00482831499801 -0.00167666740326)
(-0.00627223369332 0.00413070282995 -0.00280641500783)
(-0.00742617107564 0.00506973564569 -0.00405183456393)
(-0.00148294669706 0.00382279719893 -0.000554194655525)
(-0.00272395716219 0.00483989298607 -0.00207859610322)
(0.00388960417286 0.00307986634246 -0.00168745056065)
(0.00165255146826 0.00201067887834 -0.000560631053334)
(0.00297742037626 0.00308749183205 -0.00209889737709)
(0.00988104128995 0.00342819430778 -0.00276359519957)
(0.00669813692267 0.00216784771279 -0.00282462846882)
(0.00800204871934 0.00322872746131 -0.00404521982764)
(0.0154373943844 0.00401700213132 -0.00189039289072)
(0.0131441905622 0.00247338071407 -0.00272139165935)
(0.0132926010035 0.00360456986707 -0.00330499588228)
(0.0190467199593 0.0048272350544 9.67183110646e-05)
(0.0179825757124 0.00295375604506 -0.00105048135639)
(0.0170489294457 0.00421540305916 -0.000876399978682)
(0.0200743450972 0.00573161948413 0.00240611038594)
(0.0204557161207 0.00355489590253 0.00130590691391)
(0.0187736499689 0.00497495534017 0.00230121762667)
(0.0186124903752 0.00658051222687 0.00446099808075)
(0.020104407923 0.00415941318961 0.00361551836982)
(0.0182323909064 0.00575717577299 0.00540041701954)
(0.0152054179724 0.0073056992785 0.00593222034711)
(0.0175489586501 0.00468441461086 0.00544193714409)
(0.015821216755 0.00645504740731 0.00788297207805)
(0.0105598604745 0.00786641645098 0.00669636980078)
(0.0133132476554 0.0051209867843 0.00653950070481)
(0.0119943673657 0.00703314544957 0.00954772081533)
(0.00537487485578 0.00820723455567 0.00695770791501)
(0.00814970311049 0.00542908020849 0.00695834090772)
(0.00737656166242 0.00742982573556 0.0103820443343)
(3.0075811255e-05 0.0083192372221 0.00702426266416)
(0.00274036723241 0.00557929771659 0.00707952041839)
(0.00249647782229 0.00762216744935 0.0106889704369)
(-0.00533355598884 0.00821277077444 0.00697840974395)
(-0.00267854608663 0.00558104076102 0.0070909483437)
(-0.00242792795131 0.00762520176066 0.0107112225982)
(-0.0105681176581 0.00787697373863 0.00672875206046)
(-0.00812525272328 0.005435432038 0.00698629183382)
(-0.00734490656445 0.00743774658337 0.0104367465112)
(-0.0152788140626 0.00732061580001 0.00595828235883)
(-0.0133544816166 0.00513105702585 0.00657666798722)
(-0.0120288666072 0.00704632659399 0.00962033837251)
(-0.0187196620402 0.00659570286988 0.00446229005173)
(-0.017649111534 0.00469742084948 0.00546033839656)
(-0.0159168907618 0.00647123036014 0.00792295088447)
(-0.0201695013092 0.00574322145781 0.00238576400343)
(-0.0202130136019 0.00417102925219 0.0036045938207)
(-0.0183390185461 0.0057705535423 0.00539134184259)
(-0.0191082592144 0.00483683525539 7.0232927923e-05)
(-0.0205357409444 0.00356394830474 0.00127886162779)
(-0.0188566716591 0.00498517188036 0.00226801103438)
(-0.0154678895216 0.00402750765451 -0.00191239095167)
(-0.0180265681396 0.00296349261101 -0.00107609232854)
(-0.017103768661 0.00422562002032 -0.000907060606483)
(-0.00988572154886 0.00344095696224 -0.00277704739424)
(-0.0131618101193 0.00248413066301 -0.00274029035966)
(-0.0133261467869 0.00361575578981 -0.00332891503543)
(-0.00387824918719 0.00309619125925 -0.00168394226009)
(-0.00668970687694 0.00218090874439 -0.00283326923518)
(-0.00801302627842 0.00324217945791 -0.00405770155875)
(-0.00163909546276 0.00202691775432 -0.000545536286142)
(-0.00297636877699 0.0031040839933 -0.0020823871019)
(0.00407463905372 0.0010855388511 -0.0016978089615)
(0.00170523422568 4.49611564885e-05 -0.000558673984338)
(0.00310387113047 0.00108888914888 -0.00210892940928)
(0.0102582974479 0.00120179454689 -0.0027824249286)
(0.00683855328556 4.63124052276e-05 -0.00283656589289)
(0.00829709552236 0.00113631496153 -0.00406213027272)
(0.0159666939728 0.00139804084305 -0.00188148012501)
(0.0133769221078 4.8925807334e-05 -0.0027280360909)
(0.0137377425238 0.00126193381867 -0.00328394433694)
(0.0196577689993 0.00166856263411 0.000158707246459)
(0.0182769763667 5.32568283467e-05 -0.00103440632091)
(0.0175823872105 0.0014658809772 -0.000790569694879)
(0.0206850450753 0.00196966699688 0.0025153148978)
(0.0207755626306 5.89284339204e-05 0.00135288794587)