/*--------------------------------*- C++ -*----------------------------------*\
| =========                 |                                                 |
| \\      /  F ield         | OpenFOAM: The Open Source CFD Toolbox           |
|  \\    /   O peration     | Version:  3.0.1                                 |
|   \\  /    A nd           | Web:      www.OpenFOAM.org                      |
|    \\/     M anipulation  |                                                 |
\*---------------------------------------------------------------------------*/
FoamFile
{
    version     2.0;
    format      ascii;
    class       volScalarField;
    location    "1.9";
    object      epsilon;
}
// * * * * * * * * * * * * * * * * * * * * * * * * * * * * * * * * * * * * * //

dimensions      [0 2 -3 0 0 0 0];

internalField   nonuniform List<scalar> 
7968
(
0.00264154374995
0.00291706358153
0.00311286254926
0.00321308296801
0.00325394332333
0.00326331710072
0.00325829957088
0.00324800419463
0.00323753701324
0.00322989879989
0.00322987865024
0.00323749804306
0.00324797481779
0.00325829673787
0.00326334797202
0.00325400287718
0.00321315722783
0.0031129390083
0.00291715291227
0.00264158936246
0.00291704149503
0.00433594059483
0.00530458769044
0.00583166893006
0.00607308953754
0.00614985550638
0.00614657034585
0.00611627470042
0.00608821248844
0.00607291696172
0.00607286100715
0.00608806934077
0.0061160868694
0.00614638995578
0.00614974351578
0.00607308856965
0.00583175806109
0.00530471980014
0.00433612066058
0.00291713517141
0.0031127856088
0.00530444350756
0.00687506627734
0.00777664940794
0.0082212643971
0.00838564978973
0.00840405864652
0.00836874769007
0.00833229737788
0.0083128480837
0.00831274369579
0.00833201484514
0.00836835113809
0.0084036214676
0.00838529721757
0.00822108327715
0.00777663832479
0.00687516744557
0.00530461564779
0.00311289579564
0.00321288795632
0.00583119826547
0.00777632995414
0.00892327382113
0.00949882472178
0.00970976481209
0.00972906360766
0.00967864173278
0.00962962993721
0.00960458464623
0.00960442941255
0.00962920124604
0.00967800785916
0.00972833759749
0.00970908551022
0.00949835523749
0.00892303796519
0.00777628273316
0.00583128655011
0.0032129992365
0.00325358573419
0.00607226476349
0.00822067526168
0.00949867373492
0.0101269887091
0.0103386653094
0.0104069690941
0.0104100704656
0.0103838524906
0.0103643955615
0.0103642695603
0.0103834964781
0.0104095391864
0.0104063287384
0.0103377494711
0.0101261970018
0.00949813049095
0.00822038427874
0.00607219114031
0.00325366854891
0.00326280537571
0.00614880920234
0.00838508550603
0.00971001292655
0.0103393375349
0.01066392584
0.0107848155909
0.0107846085156
0.0107484625411
0.0107223073233
0.0107221889375
0.0107481099029
0.0107840523894
0.0107841403987
0.0106631608423
0.010338322973
0.0097091597125
0.00838452781408
0.00614854202393
0.0032628361697
0.00325765206822
0.00614545364616
0.00840382612392
0.0097301947318
0.0104074753797
0.0107850970423
0.0108975654628
0.010874149578
0.0108174503726
0.0107798143559
0.0107796929915
0.0108171054914
0.0108736126813
0.010896883655
0.0107843504352
0.0104066553764
0.00972918550017
0.00840307500709
0.00614502197389
0.00325762613728
0.00324723416753
0.00611514131005
0.00836887501891
0.00968062480365
0.0104109328079
0.0107850361625
0.0108739141197
0.0108218040648
0.0107411180525
0.0106899210226
0.0106897713149
0.010740762443
0.0108213049185
0.0108732979181
0.0107843529103
0.0104101773939
0.00967968032736
0.0083680692946
0.00611460937673
0.00324715857145
0.00323666712427
0.00608703812947
0.0083325423678
0.00963199750854
0.0103850762121
0.0107492555306
0.0108173944898
0.0107410618823
0.0106391944121
0.0105747516884
0.010574570071
0.010638833153
0.01074067291
0.0108169552412
0.0107487349813
0.0103844698214
0.00963130522082
0.00833182444909
0.00608648969628
0.00323655284239
0.00322900739894
0.00607171631007
0.00831301814371
0.00960690181042
0.0103659117137
0.0107236509931
0.0107804731781
0.0106903896887
0.0105750154719
0.0105001169652
0.0105000511639
0.0105748546488
0.0106902315156
0.0107802868545
0.0107233768992
0.0103655310685
0.0096065507453
0.00831248853667
0.00607123030955
0.00322887832754
0.00322918293396
0.00607183312279
0.00831299750083
0.00960676590098
0.0103659568853
0.0107237600783
0.0107806877163
0.010690698446
0.0105753617333
0.0105005507747
0.0105005790179
0.0105754569931
0.0106908294637
0.0107807792822
0.0107237504667
0.0103658340863
0.00960678854242
0.00831269005755
0.00607144277045
0.00322905750234
0.00323701918771
0.00608736256031
0.00833250510835
0.00963162892874
0.0103852549595
0.0107496575523
0.0108181277094
0.0107421033454
0.0106404434624
0.0105762318576
0.0105762631824
0.010640607537
0.0107423470731
0.0108183627168
0.0107498267876
0.0103853464558
0.00963200484425
0.00833239961785
0.00608706708589
0.00323691365557
0.00324765730006
0.00611569120633
0.00836896968303
0.00968029817506
0.0104113550125
0.0107858143827
0.010875175585
0.0108234845327
0.0107431922774
0.0106923862751
0.0106924329906
0.0107433591199
0.0108237350545
0.0108754510198
0.0107860819945
0.0104115707503
0.0096808432119
0.00836896508872
0.00611545431552
0.003247572498
0.00325810601994
0.0061462482712
0.00840422050229
0.00973019666114
0.0104082068859
0.0107862512406
0.0108992281365
0.0108762564738
0.0108200040423
0.0107828088176
0.0107828557395
0.0108201300468
0.0108764560678
0.0108994882965
0.0107865294839
0.0104084434955
0.0097306407609
0.00840415594496
0.0061459896062
0.00325802429503
0.00326325759754
0.00614983828726
0.00838588365621
0.00971052064037
0.0103401700162
0.010665403511
0.0107867790784
0.0107870766735
0.0107514263863
0.010725681616
0.0107257244723
0.0107515274873
0.0107872209758
0.0107869748653
0.0106656336491
0.0103406818919
0.00971061194008
0.0083856034017
0.00614951654068
0.00326318075122
0.00325400571658
0.00607344973649
0.00822178957419
0.00949954826957
0.0101280409685
0.0103406458174
0.0104090728271
0.0104127088055
0.0103869848515
0.0103678813552
0.0103679110454
0.0103870583032
0.010412811063
0.010409202433
0.0103408882444
0.0101280492855
0.0094992309406
0.00822131458355
0.00607308164833
0.00325393684454
0.00321320755678
0.00583233468601
0.00777751404761
0.00892427871251
0.00949983640084
0.00971128510233
0.00973147768413
0.00968196298003
0.00963355677403
0.00960883603208
0.00960886160863
0.00963361531523
0.00968203072147
0.00973154316873
0.00971125574363
0.0094995605989
0.00892379413895
0.00777699243112
0.00583198377155
0.00321315774149
0.00311298316752
0.00530533560215
0.00687607728739
0.00777755508815
0.00822207429114
0.00838656696264
0.00840536274527
0.00837052171907
0.00833441770569
0.00831516801958
0.00831522628721
0.00833454590533
0.00837066210367
0.00840544294374
0.0083865111701
0.00822180783721
0.00777713023203
0.00687563698782
0.00530506118256
0.00311294659863
0.00291714623204
0.00433648896082
0.0053052365146
0.00583228468955
0.00607359776206
0.00615030498348
0.00614710570318
0.00611697298632
0.00608907077378
0.00607390385618
0.0060739725685
0.00608924688788
0.0061171867191
0.00614727403774
0.00615035445012
0.00607348057291
0.00583203044384
0.0053049495792
0.0043363062148
0.00291711585241
0.00264156034184
0.00291714993949
0.00311296277232
0.00321316853697
0.00325399863046
0.00326332582773
0.00325828329924
0.00324799141172
0.00323754399905
0.00322994460943
0.00322996810788
0.0032376095167
0.00324807623106
0.00325835745487
0.00326336464054
0.0032539962638
0.00321313190991
0.00311291276994
0.00291711994337
0.00264154597182
0.00289001289912
0.0041642134032
0.00507548423534
0.00559597981224
0.00585568847662
0.00596009676549
0.00598294131595
0.0059714857062
0.00595318129171
0.00594115399903
0.0059411162877
0.00595308398866
0.00597136254511
0.00598282716665
0.00596001540674
0.0058556512237
0.0055959762329
0.00507550095654
0.00416426903111
0.0028900591672
0.00416405277676
0.00481090907454
0.0056020938662
0.00609578892667
0.00635761796428
0.00647300583088
0.00650849947993
0.0065087005262
0.00649956484615
0.00649294176837
0.00649290126404
0.00649945622344
0.00650855012324
0.00650833816288
0.00647286443421
0.00635751758269
0.00609572902202
0.00560206292102
0.0048109004926
0.00416405009584
0.00507520152253
0.00560194874623
0.00646888195275
0.00704419195805
0.00736582087913
0.00751637718
0.00756831692351
0.00757396088969
0.00756560342643
0.00755870535278
0.00755865799324
0.00756547274713
0.00757377269165
0.00756810390962
0.00751617719262
0.00736566273834
0.00704407881687
0.00646880289845
0.0056018944778
0.00507517693943
0.00559548622733
0.00609546682326
0.00704401869597
0.00769604359286
0.00807297905263
0.00825656434615
0.0083255931026
0.0083379524114
0.00833129153104
0.00832456329413
0.00832451192789
0.0083311419743
0.00833772969083
0.00832532922989
0.00825629362928
0.00807273903748
0.00769584603927
0.00704386257541
0.00609535230961
0.00559543420302
0.00585492682945
0.00635711106161
0.00736549077862
0.00807284546674
0.00848998763786
0.00870144390304
0.00879849555465
0.00883031435174
0.00883227967357
0.00882795974712
0.00882791507396
0.00883215145468
0.00883012090878
0.0087982519706
0.00870112806635
0.00848966382334
0.00807254729723
0.00736523675888
0.0063569143189
0.00585480325717
0.00595911683662
0.00647236468831
0.00751597572165
0.00825641917446
0.0087014396299
0.00895414239017
0.00907523508446
0.00911627773976
0.00912045799919
0.00911604071677
0.00911599403204
0.0091203252222
0.00911608131305
0.00907498772185
0.00895383890767
0.00870105832108
0.00825602777543
0.00751562402505
0.00647207837618
0.00595889119897
0.0059818348745
0.00650779451506
0.00756793907536
0.00832553635924
0.00879838103492
0.00907516473169
0.00920629012673
0.00924861393667
0.00925054537486
0.00924410356369
0.00924405098526
0.00925039672213
0.00924840443565
0.00920603084373
0.00907485182209
0.00879800870335
0.00832509376119
0.00756751892929
0.00650743537533
0.00598151172402
0.00597030243914
0.00650796678457
0.00757363375423
0.00833800578798
0.00883018827479
0.0091161748049
0.00924865377627
0.00928752307786
0.00928421569722
0.0092738141694
0.00927375506688
0.00928406297206
0.00928731494609
0.00924839003081
0.00911585309696
0.00882981263006
0.00833756482357
0.00757319327494
0.00650756935451
0.00596991712959
0.00595194899036
0.00649881148391
0.00756529825457
0.00833140255413
0.00883219053617
0.0091203737087
0.00925062211125
0.00928424871527
0.00927419682396
0.00925933956697
0.00925929845975
0.0092740736079
0.00928403810467
0.00925035889899
0.00912006278678
0.00883183663072
0.00833101266727
0.0075648860551
0.00649841529653
0.00595154391533
0.00593993870458
0.00649220425855
0.00755841715724
0.00832466309799
0.00882796128113
0.00911604612027
0.00924421618389
0.00927389700418
0.00925941246099
0.00924173657905
0.00924168727827
0.00925928819259
0.00927370992405
0.00924398767786
0.00911577515269
0.0088276571167
0.00832434735215
0.00755806882727
0.00649184444826
0.00593956406639
0.00594008419185
0.00649228065711
0.00755846410797
0.00832470833252
0.00882804630861
0.00911615612256
0.00924434728961
0.00927407119538
0.00925966689071
0.0092420031122
0.00924197718922
0.00925956376368
0.00927392828863
0.00924417870225
0.00911594730591
0.00882781307701
0.00832449058979
0.00755819841546
0.00649197660208
0.00593976677272
0.00595234064222
0.00649903102287
0.00756543987755
0.00833151683795
0.00883243436622
0.0091206808562
0.00925097629083
0.00928468290928
0.00927476731473
0.00925996234719
0.0092599608487
0.00927472717436
0.00928460824873
0.00925087295586
0.00912053738806
0.00883227580171
0.00833141774715
0.00756525543543
0.00649878451354
0.00595208409969
0.00597090263869
0.00650833021638
0.00757389542081
0.00833822257283
0.0088305712425
0.00911663243858
0.00924917643066
0.0092881597798
0.00928494416705
0.00927461160532
0.00927461454973
0.00928494080911
0.00928814207135
0.00924913081203
0.00911655055324
0.00883047747938
0.0083381951034
0.00757376378275
0.00650812446695
0.00597069129633
0.00598261485776
0.00650830705744
0.00756835472246
0.00832589566231
0.00879888786985
0.00907573962032
0.00920693453473
0.00924938559536
0.00925143171045
0.00924506566293
0.00924507450385
0.00925145424277
0.00924940868859
0.00920693645319
0.00907571050506
0.00879884288307
0.00832588072509
0.00756822864091
0.00650811002746
0.00598240820061
0.00596003909472
0.00647302476211
0.00751656742173
0.00825694530017
0.00870201880325
0.0089548188779
0.0090759723143
0.00911712384329
0.0091214257394
0.00911711156257
0.00911712983223
0.00912147291649
0.00911718129612
0.00907601497961
0.00895483813994
0.00870205188581
0.00825688892495
0.00751640535886
0.00647281411751
0.00595982273436
0.00585591613478
0.00635788510503
0.00736622802367
0.00807350252892
0.00849064811958
0.00870222856388
0.00879931917921
0.00883125304195
0.008833349157
0.00882914083566
0.00882916578762
0.00883341209521
0.00883133288488
0.00879939144314
0.00870228862489
0.00849063412453
0.00807338391849
0.00736603082165
0.00635766522278
0.00585569693552
0.00559640320519
0.00609627685317
0.00704482657178
0.00769676428183
0.00807365076912
0.00825730685553
0.00832649921433
0.0083390579374
0.00833256059179
0.00832591690029
0.00832594491917
0.00833263137989
0.00833914895015
0.00832658382828
0.00825734747769
0.00807360326299
0.00769662475835
0.00704463003342
0.00609607123744
0.00559620883347
0.00507593880094
0.00560271496936
0.00646967827079
0.00704490512225
0.00736644452338
0.00751698526404
0.00756901045976
0.00757478963182
0.00756655677219
0.00755975642397
0.00755979177112
0.00756664478473
0.00757490002387
0.00756910674482
0.00751702964143
0.00736640663231
0.00704478834305
0.00646951381921
0.00560254044884
0.00507576641503
0.00416451629087
0.00481156456889
0.00560280147431
0.00609642248624
0.006358146167
0.00647346877031
0.00650898155918
0.00650925657483
0.00650020748066
0.00649366810089
0.00649370828419
0.00650030982314
0.00650938564243
0.00650909520586
0.00647353030699
0.00635813325988
0.00609634106365
0.00560267891323
0.00481142955923
0.00416437389693
0.00289004235304
0.00416474824862
0.00507615240277
0.00559660294479
0.00585622028964
0.00596055646316
0.00598341458421
0.00597204145765
0.00595383975797
0.00594192069813
0.00594198557923
0.00595400754201
0.00597225787403
0.00598361817925
0.00596069534284
0.00585627127661
0.00559657437296
0.00507608629207
0.00416469793319
0.00289002212842
0.00306585101578
0.0049768596263
0.00642040431316
0.00729586463425
0.00776795481967
0.00798412770188
0.00805553535255
0.0080595598587
0.00804383661891
0.00803165485231
0.00803160490605
0.0080437091715
0.00805939647416
0.00805537706652
0.00798400776752
0.00776789259065
0.00729584501154
0.00642040786295
0.00497691379586
0.00306590934814
0.00497658625616
0.00552978133345
0.00640929472406
0.00700052389217
0.0073413285113
0.00751197978087
0.00758184893716
0.00760113260827
0.00760120073167
0.00759809869142
0.0075980644257
0.00760110842864
0.00760100388161
0.00758170751049
0.00751184902845
0.00734122808601
0.00700045624423
0.00640925326552
0.00552975474972
0.00497655426261
0.00641991677179
0.00640910619322
0.00716978408027
0.00773187865291
0.00807504368435
0.00825655206233
0.00833647916845
0.00836222817426
0.0083655192061
0.00836352222192
0.00836349409753
0.00836544126175
0.00836211374938
0.00833634404281
0.00825641744745
0.00807492877878
0.00773178280628
0.00716969730344
0.00640901456201
0.006419817001
0.00729505697195
0.00700014611374
0.00773169780448
0.00830658892419
0.00867227677232
0.00887407348798
0.00896803692308
0.00900161332133
0.0090093475035
0.00900868525987
0.00900866392872
0.00900928693621
0.00900151445924
0.00896789652137
0.00887391683808
0.0086721180407
0.00830643020925
0.00773153611621
0.00699998001436
0.00729488854358
0.00776677276079
0.0073407551551
0.00807469332172
0.00867211775558
0.00906278210765
0.00928682158007
0.00939800902226
0.00944165558818
0.00945212290186
0.00945180263376
0.00945178470294
0.0094520657151
0.00944156239617
0.00939788218223
0.00928666594725
0.00906257740387
0.00867188401512
0.00807444477385
0.00734050250949
0.00776648522728
0.00798265692184
0.00751124232231
0.0082560824703
0.00887381443067
0.00928668678906
0.00953146463878
0.00965703072478
0.00970791253781
0.00971988026328
0.00971921485941
0.00971919931809
0.00971982072044
0.00970781272355
0.00965689317946
0.00953128065237
0.00928645178977
0.00887350991446
0.00825575048512
0.00751090052661
0.00798221765211
0.0080539500933
0.00758101416547
0.00833595915761
0.00896774558318
0.00939780538855
0.00965692961072
0.00979167457303
0.00984519906162
0.00985607693807
0.00985380848243
0.00985378398085
0.00985600024749
0.00984508946781
0.00979152210417
0.00965671672806
0.00939752856258
0.00896739175873
0.00833556812652
0.00758060171964
0.00805338042782
0.00805794106929
0.00760023659531
0.00836167350087
0.00900123637298
0.0094413902461
0.00970772992219
0.00984519156597
0.00989746328192
0.00990512707463
0.00990020721502
0.00990017060628
0.00990503338321
0.00989733730773
0.00984501968612
0.00970749063021
0.00944109429759
0.00900087170593
0.00836126032114
0.00759978789166
0.00805730757851
0.00804218836415
0.00760025905618
0.00836492016649
0.00900888954273
0.00945180727735
0.00971961922658
0.00985598694407
0.00990503079041
0.00990862775114
0.00990123790225
0.00990121024489
0.00990854103915
0.00990487380782
0.00985578826092
0.00971937329967
0.00945151555223
0.00900853697817
0.00836452056999
0.00759981163259
0.00804156345701
0.00803001924416
0.00759715734966
0.00836291490066
0.00900827453474
0.00945150242167
0.00971894466847
0.009853603833
0.00990002743479
0.00990117325089
0.00989253091316
0.00989249216043
0.00990107104229
0.00989986351708
0.00985340167632
0.00971871566638
0.00945123499609
0.00900796016747
0.00836255675496
0.00759674297149
0.00802946496027
0.00803016195362
0.0075972243373
0.00836295243345
0.00900831620555
0.00945155458628
0.0097190112314
0.00985368521441
0.0099001414865
0.00990134614044
0.00989270100007
0.00989268252184
0.00990125872899
0.00990000473738
0.00985351765854
0.00971881738737
0.00945132879171
0.00900805127623
0.00836265073955
0.0075968616041
0.00802970999761
0.00804260587077
0.00760045404431
0.00836503235108
0.00900901992072
0.00945194849392
0.00971979273614
0.0098561916327
0.00990529640428
0.00990899213208
0.00990162484019
0.00990163008114
0.00990896700104
0.00990522885972
0.00985608860734
0.00971965159884
0.00945177706597
0.00900879885782
0.00836478927119
0.0076001473818
0.00804225806155
0.0080586499623
0.00760056344563
0.00836187182775
0.00900141737108
0.00944159141876
0.0097079602983
0.00984546078833
0.00989782218386
0.0099055441389
0.00990066341621
0.0099006744012
0.00990555772591
0.0098978166487
0.0098454167092
0.00970787758392
0.00944147929203
0.00900126666748
0.00836167556149
0.00760029921032
0.00805837046968
0.00805496990572
0.00758148666684
0.00833627543741
0.00896798246137
0.00939807371117
0.00965721033457
0.00979198596724
0.00984559996025
0.00985655640922
0.00985432504973
0.00985434221786
0.00985659286373
0.00984563446468
0.00979199357931
0.00965718170945
0.00939800322617
0.00896788443157
0.00833609529709
0.00758123876575
0.00805469767671
0.00798398172625
0.00751187702491
0.00825655748434
0.00887418177552
0.0092870549828
0.00953181603996
0.00965740021836
0.00970834033067
0.00972037999553
0.0097197777161
0.00971980556812
0.00972044884878
0.00970841723052
0.00965745162425
0.00953182239048
0.00928699130934
0.00887407288905
0.00825636634318
0.00751162929856
0.00798368620001
0.00776831116923
0.00734154002393
0.00807532861669
0.00867260966437
0.00906319631408
0.00928723137323
0.00939844704363
0.00944215686193
0.00945269382869
0.0094524409191
0.00945247176209
0.00945277292419
0.00944225490128
0.0093985280068
0.0092872592878
0.00906316061778
0.00867248961225
0.00807513478958
0.00734130291863
0.00776801197087
0.00729661651559
0.00700103124232
0.00773245974901
0.00830719382971
0.00867275755215
0.00887451552944
0.00896852387527
0.00900215058689
0.00900993560447
0.00900936606993
0.00900940199554
0.00901002801835
0.00900226803919
0.00896863052829
0.00887457388848
0.00867273683376
0.0083070891134
0.00773229155902
0.00700082722387
0.00729635872955
0.00642128607581
0.00641003525537
0.00717063515333
0.00773257862932
0.00807559354674
0.00825701272281
0.00833694877533
0.00836276132058
0.00836612275601
0.0083642002553
0.00836424328709
0.0083662310556
0.00836290023298
0.00833707754815
0.00825709501656
0.00807560376119
0.00773251499725
0.00717051487277
0.0064098777728
0.00642107537557
0.00497749051231
0.00553069956113
0.0064102083527
0.00700130347496
0.00734195140792
0.00751249589525
0.00758235854256
0.00760170319324
0.00760185274887
0.00759883525082
0.00759888444421
0.00760197828304
0.0076018655303
0.00758251131195
0.00751260258848
0.00734199054124
0.0070012773785
0.00641013589475
0.00553059446824
0.00497733557682
0.00306589598173
0.00497788149278
0.00642176190682
0.00729720551818
0.00776917389581
0.00798526508747
0.00805674175002
0.00806093324493
0.00804538906896
0.00803337148025
0.00803348238076
0.00804567860755
0.00806132709508
0.00805714804936
0.00798560256629
0.00776938692382
0.00729728978526
0.00642176538102
0.0049778685535
0.00306588342555
0.00316433416447
0.00542188282145
0.00719279664462
0.00831127465463
0.00894499216251
0.00925739563126
0.00937894586419
0.00940566933476
0.0093990644618
0.00939005081668
0.00938999227749
0.00939891993949
0.00940548742825
0.00937877027306
0.00925726977841
0.00894494855298
0.00831129195809
0.00719284130259
0.00542200280964
0.0031644081827
0.00542149475659
0.0059645681158
0.00693836949251
0.00762165296867
0.00803650381889
0.00825970120211
0.00836277536275
0.00840065646718
0.00840968473813
0.00840996663959
0.00840994012729
0.00840961408794
0.00840055912407
0.00836266760061
0.0082595987121
0.00803642513676
0.00762160274009
0.0069383483693
0.00596456755056
0.00542149569819
0.00719211878323
0.00693814283555
0.00769525269937
0.00829055058536
0.00867499018302
0.00889369303939
0.00900152055823
0.00904516468062
0.0090576750911
0.00905925412869
0.0090592404609
0.00905763823546
0.00904511135854
0.00900144991321
0.00889361379926
0.00867492100408
0.00829048685571
0.00769518508802
0.00693805753516
0.00719201053463
0.00831018809055
0.00762121221091
0.00829034815352
0.00886454366603
0.00925317241034
0.00948428728053
0.00960460167666
0.00965765097719
0.00967344942194
0.00967541301489
0.00967541036292
0.00967343664313
0.00965762521116
0.00960453975241
0.00948419896265
0.00925307146102
0.00886442369253
0.00829020011578
0.00762103277733
0.00830997169337
0.00894349961376
0.00803584748992
0.00867458880118
0.00925297616668
0.00965788846978
0.00990938153266
0.0100458823296
0.0101062456149
0.0101232436488
0.0101242820024
0.0101242848756
0.010123237726
0.0101062265366
0.0100458357824
0.009909293059
0.00965774383652
0.00925278239065
0.00867435092903
0.00803557074444
0.00894311716735
0.00925558795733
0.00825883815468
0.00889311674475
0.00948392293758
0.00990918214648
0.0101793743523
0.0103289972168
0.0103937311035
0.0104089662122
0.0104074401309
0.0104074428396
0.0104089522434
0.0103936903553
0.010328923209
0.0101792514841
0.00990899641956
0.00948365174575
0.00889279245897
0.00825846527917
0.00925500916947
0.00937708188615
0.00836176688908
0.0090008260858
0.00960411711887
0.0100455014208
0.0103287884489
0.0104850192911
0.0105477398609
0.010557256074
0.0105511348082
0.0105511244266
0.0105572219047
0.0105476633981
0.0104848986798
0.0103286175501
0.0100452659098
0.00960378660638
0.00900043908176
0.00836131774562
0.00937635304237
0.00940383669334
0.00839954475315
0.00904436861735
0.00965700473641
0.010105739587
0.0103933273066
0.0105473476883
0.0106029742278
0.0106055428654
0.0105958692571
0.0105958479233
0.0106054768772
0.0106028418544
0.0105471726336
0.0103931118901
0.0101054704585
0.00965666108482
0.00904394893117
0.00839905191656
0.00940306085091
0.00939719860203
0.00840849828472
0.00905679877558
0.00967273781233
0.0101226288957
0.010408383483
0.01055653351
0.0106051357624
0.0106035710961
0.0105921639041
0.0105921099407
0.0106034439634
0.0106049735087
0.0105563211982
0.0104081449797
0.0101223441904
0.00967238618294
0.00905637576937
0.00840799791421
0.0093964743283
0.00938814135795
0.00840876354377
0.00905833535878
0.00967466693215
0.0101235945311
0.0104067653584
0.0105503053491
0.0105953342501
0.010591984375
0.0105797980014
0.0105797676043
0.010591878578
0.0105951595261
0.0105500685054
0.0104065225631
0.010123304246
0.00967432817389
0.00905793752608
0.0084082871458
0.00938753484757
0.00938824175486
0.00840881497326
0.00905833983357
0.00967465765889
0.0101235907185
0.0104067648162
0.0105503147557
0.0105953616046
0.0105919833704
0.010579815122
0.0105798016446
0.0105919450751
0.010595240476
0.01055010061
0.0104065326478
0.0101233137488
0.00967434714231
0.00905798122481
0.00840838171369
0.00938778425645
0.009397503034
0.00840864934718
0.00905681670935
0.00967271148262
0.0101225919063
0.0104083497505
0.010556534547
0.0106052177981
0.0106036625218
0.0105923014159
0.0105922987735
0.0106036623193
0.0106051659422
0.0105563978018
0.0104081653355
0.0101223597071
0.00967243900302
0.00905650052253
0.008408265809
0.00939719061538
0.00940440080852
0.00839980273062
0.00904442863923
0.00965698743073
0.0101056580039
0.0103932261177
0.0105473014476
0.0106029872251
0.0106056650764
0.0105960804917
0.010596102784
0.010605707698
0.0106029950525
0.0105472451548
0.010393104194
0.0101054750122
0.00965674705624
0.00904414568266
0.00839946090795
0.00940416922725
0.00937799791593
0.0083621579614
0.00900096795895
0.00960409929116
0.0100454041743
0.0103286305356
0.0104848782588
0.0105476279684
0.0105572103633
0.0105511823006
0.0105512162834
0.0105572760577
0.0105476785832
0.0104848829495
0.0103285698354
0.0100452608967
0.00960390871872
0.00900070394254
0.00836183930273
0.00937775988595
0.00925693856836
0.00825940119681
0.00889340900587
0.00948401254927
0.00990914691324
0.0101792276894
0.01032879854
0.0103935441822
0.0104088328074
0.0104073650369
0.0104074036167
0.0104089260524
0.0103936416808
0.0103288507609
0.0101792057443
0.0099090303585
0.00948382818649
0.00889315020892
0.00825909905597
0.00925663923358
0.00894522424093
0.00803659998626
0.00867507320664
0.00925321404443
0.00965795347158
0.00990930702724
0.0100457230092
0.010106092007
0.0101231303309
0.0101241967126
0.0101242367716
0.0101232349169
0.0101062162176
0.0100458079474
0.00990931393448
0.00965786589978
0.00925304271452
0.00867484041823
0.00803633415907
0.00894490217447
0.00831207751786
0.0076221290065
0.0082910173981
0.00886495500966
0.00925336069779
0.00948433369843
0.00960460511289
0.00965762691834
0.00967346529442
0.00967548224448
0.00967552691165
0.00967357986287
0.0096577696268
0.00960471765318
0.00948438038109
0.00925331825417
0.00886483188728
0.00829083897744
0.00762191959236
0.00831179918662
0.00719387496382
0.00693917969519
0.00769609686758
0.0082911541232
0.00867535893428
0.00889387862124
0.00900164211582
0.00904529816839
0.0090578566699
0.0090595025858
0.00905955603461
0.00905798967165
0.00904546621193
0.00900179116133
0.00889397308237
0.00867538048593
0.00829110396391
0.00769599216271
0.00693903931994
0.00719366332349
0.00542273492278
0.00596567490884
0.00693939162379
0.0076224705245
0.0080371004904
0.00826013352155
0.00836316541896
0.00840109291254
0.00841020429997
0.00841057777371
0.00841063618779
0.00841035485631
0.00840128895129
0.00836335244981
0.0082602752155
0.00803717645066
0.00762248169997
0.00693935723945
0.00596560666487
0.00542259232929
0.00316434717692
0.00542323470669
0.00719457717642
0.00831304873706
0.00894661992917
0.00925894397988
0.0093806550523
0.00940766986029
0.00940134079417
0.00939254652859
0.00939269891142
0.00940173791521
0.00940822126983
0.00938124651523
0.00925947423185
0.00894700075693
0.00831326086589
0.00719467336953
0.00542327643107
0.00316434315181
0.00322331118936
0.00567035933332
0.00764223693301
0.00892423004141
0.0096759342667
0.0100656455142
0.0102335319232
0.0102865413672
0.0102944614393
0.0102921861435
0.0102921276245
0.0102943246787
0.0102863791653
0.0102333817823
0.0100655540001
0.00967594866122
0.00892432315619
0.00764238788758
0.00567057441067
0.00322339866763
0.00566995745016
0.00621221609558
0.00726382630063
0.00802560524054
0.00850587215963
0.00877717699317
0.00891202791349
0.00896883388135
0.00898775688553
0.00899211665221
0.00899210369235
0.00898772467375
0.00896879505036
0.0089119903714
0.00877714396909
0.00850585436654
0.00802560919649
0.00726386059718
0.00621227594194
0.0056700412068
0.00764144103039
0.00726357402298
0.00805318015975
0.00869941526989
0.0091334263573
0.00939294633235
0.00953063491095
0.00959292380257
0.00961426594672
0.00961887658077
0.00961887506545
0.00961426680114
0.00959292734789
0.00953062922374
0.00939292486478
0.00913341423166
0.00869940356404
0.00805315951206
0.00726353559332
0.00764139774579
0.00892290954548
0.00802511296149
0.0086991980316
0.00930979659664
0.00974235538098
0.0100151241682
0.0101677595239
0.0102397991868
0.0102622353204
0.010265175395
0.0102651852411
0.0102622560154
0.0102398215608
0.0101677423795
0.010015063987
0.00974229460947
0.00930971977314
0.00869908779521
0.00802496624975
0.00892270446174
0.00967432022857
0.00850517486746
0.00913300857111
0.00974214945117
0.0101920516934
0.0104897054504
0.0106608012924
0.0107374712658
0.0107557715824
0.0107537629799
0.010753774933
0.010755791403
0.0107374882237
0.0106607873409
0.0104896404688
0.0101919236068
0.00974198082676
0.00913279947883
0.00850492642311
0.00967392957588
0.0100638056404
0.00877627466316
0.00939234283847
0.0100147192912
0.0104894524294
0.0108085775879
0.0109886245767
0.0110595825401
0.0110660134721
0.0110548421088
0.0110548412686
0.0110660094625
0.011059550881
0.0109885470667
0.0108084574108
0.0104892807792
0.0100144508918
0.00939203883101
0.00877593069178
0.0100632007028
0.0102317728759
0.00891096549761
0.00952989219333
0.0101671761772
0.0106603335236
0.0109884105368
0.0111627143104
0.0112167136721
0.0112044542582
0.0111816509069
0.0111816442289
0.0112044380877
0.0112166396714
0.0111625783624
0.0109882306217
0.0106601006638
0.0101668445878
0.00952952275789
0.00891054185868
0.0102310219076
0.0102849070347
0.00896765240475
0.00959205319253
0.0102390650644
0.0107369146217