/*--------------------------------*- C++ -*----------------------------------*\
| =========                 |                                                 |
| \\      /  F ield         | OpenFOAM: The Open Source CFD Toolbox           |
|  \\    /   O peration     | Version:  3.0.1                                 |
|   \\  /    A nd           | Web:      www.OpenFOAM.org                      |
|    \\/     M anipulation  |                                                 |
\*---------------------------------------------------------------------------*/
FoamFile
{
    version     2.0;
    format      ascii;
    class       surfaceVectorField;
    location    "1.9";
    object      Uf_0;
}
// * * * * * * * * * * * * * * * * * * * * * * * * * * * * * * * * * * * * * //

dimensions      [0 1 -1 0 0 0 0];

internalField   nonuniform List<vector> 
22672
(
(0.00189258739722 0.000828049257311 -0.00187213124929)
(0.000821338370876 0.00190270434715 -0.00187179582786)
(0.00120565236242 0.00121279570269 -0.00379528528236)
(0.00415001544498 0.000581812989599 -0.00175598447405)
(0.00278186738231 0.00155862481262 -0.00244119751778)
(0.00336814912769 0.00117414595013 -0.00381604833294)
(0.00622368607151 0.000518353961155 -0.00150325506783)
(0.00534724128697 0.00147305886829 -0.00249412003527)
(0.00576288404057 0.00120683340484 -0.00354673087976)
(0.00766951737132 0.00062937798174 -0.00120876795981)
(0.00733180426256 0.00166709808648 -0.00228690938745)
(0.00759268624358 0.00139258200494 -0.00311293981641)
(0.00823429193556 0.000868138851534 -0.000941454281249)
(0.00847504481318 0.00209685257136 -0.0020247833585)
(0.00861345180744 0.00170085365923 -0.00266164864249)
(0.00785995516789 0.00115199485897 -0.000732503338446)
(0.00857776244395 0.00264802379866 -0.00178863452077)
(0.00863662645471 0.00206925661005 -0.00227372050676)
(0.00665747572538 0.00142443025414 -0.000584004266791)
(0.00773790257946 0.00318641173133 -0.00161491408575)
(0.00776273879117 0.00241803020074 -0.00198397764013)
(0.00479062677849 0.00164756191457 -0.00048887819503)
(0.00607542548777 0.00365377875932 -0.00150126470585)
(0.00608613786501 0.00272689254513 -0.00178698603359)
(0.00249630789299 0.00178618390181 -0.000440696135701)
(0.00385059006623 0.00397709717162 -0.00144688552762)
(0.00385663836697 0.00294203879226 -0.00168284342784)
(-1.17569844767e-06 0.00183294587749 -0.000426447808033)
(0.00131495643508 0.00413928924457 -0.00142867494921)
(0.0013170419236 0.00305073729072 -0.00164187692016)
(-0.00249894967394 0.00178677202164 -0.000440957209638)
(-0.00131881263341 0.00413967502854 -0.00142876611209)
(-0.00132142572302 0.00305093662388 -0.00164197500081)
(-0.00479401504825 0.00164867722864 -0.000489457096457)
(-0.00385490734628 0.00397818735208 -0.00144720505068)
(-0.00386151944405 0.00294257956579 -0.00168319489818)
(-0.00666183409686 0.0014259818144 -0.000584996977839)
(-0.00608055066178 0.00365546902489 -0.00150187089438)
(-0.00609182474669 0.00272771175246 -0.00178771824799)
(-0.00786508001912 0.0011537770521 -0.000733988180033)
(-0.00774381817131 0.00318853291223 -0.00161590244085)
(-0.00776909729091 0.00241901487244 -0.00198534733384)
(-0.00823965456813 0.000869973968092 -0.000943348047445)
(-0.00858412090111 0.00265024301077 -0.00179009851781)
(-0.0086432213504 0.00207017503151 -0.00227571812718)
(-0.00767444953468 0.00063118053763 -0.00121084907681)
(-0.00848118378653 0.00209895863849 -0.00202679393057)
(-0.00861961006619 0.0017016561559 -0.00266420056771)
(-0.0062277110382 0.000520142611158 -0.00150539993212)
(-0.00733678565825 0.00166904932487 -0.00228924512962)
(-0.0075975072053 0.00139330421664 -0.00311581102605)
(-0.00415309190552 0.000583614706395 -0.00175872944229)
(-0.00535054622743 0.00147519364153 -0.00249663913034)
(-0.00576598974419 0.00120780902817 -0.00354982322865)
(-0.00189397478874 0.00082987210615 -0.00187594761772)
(-0.00278412870071 0.00156132596322 -0.0024446267328)
(-0.00337037511675 0.00117553267222 -0.00382044433497)
(-0.000820824153244 0.00190656699098 -0.00187577808484)
(-0.00120511783079 0.00121446549629 -0.00380054060507)
(0.0015501162657 0.00279437774575 -0.00244086209635)
(0.000575776023789 0.00416727477801 -0.00175448918593)
(0.00116807974246 0.00338162136996 -0.00381468077433)
(0.00409999405838 0.00265806414566 -0.00317933307901)
(0.00264845171097 0.00411245452558 -0.00317876314315)
(0.00342062252978 0.00342988221501 -0.00510370478235)
(0.00657117003775 0.00286434479804 -0.00327777435489)
(0.00568228496071 0.0043706913036 -0.00359077736084)
(0.00606596205322 0.00367619507247 -0.00536881252338)
(0.00829427645107 0.00341844061761 -0.00310292478614)
(0.00803682165685 0.00506069521125 -0.00346414435164)
(0.00809666672441 0.00425437032081 -0.00511671717065)
(0.00898349315334 0.00420690176913 -0.00287196359802)
(0.00939194322626 0.00610875265519 -0.00317508997336)
(0.0092166791296 0.00508800553235 -0.00470114148163)
(0.00859526051163 0.00505625822982 -0.00267104526807)
(0.00955105640088 0.00732089014067 -0.002876023665)
(0.00926456000711 0.00602931985774 -0.00428466988982)
(0.00725623242898 0.00582734207936 -0.00253217452481)
(0.00859438314761 0.00847745842178 -0.00264048678165)
(0.00830326405542 0.00692119637614 -0.00395206580361)
(0.00520046975614 0.00642462127822 -0.00245927203844)
(0.0067215165381 0.0094460956942 -0.00249573807978)
(0.00649335578102 0.00766803506889 -0.0037366111612)
(0.00270011888464 0.00678966737563 -0.00243486434113)
(0.00423977164548 0.0101131470472 -0.00243868275965)
(0.00410307707461 0.0081830652439 -0.00363576348947)
(-2.72150233224e-06 0.00691155762155 -0.00243099325327)
(0.00144288727331 0.0104468960637 -0.00242802132618)
(0.00139901756399 0.00844155746603 -0.00360483566499)
(-0.00270575472589 0.0067906207112 -0.00243501395313)
(-0.00144866595988 0.0104474281271 -0.00242799009536)
(-0.00140241394934 0.00844177314743 -0.00360479051842)
(-0.00520659441299 0.00642641335427 -0.0024596188486)
(-0.0042458818066 0.0101146747884 -0.00243863650007)
(-0.00410687642042 0.008183644663 -0.00363571635803)
(-0.00726296576571 0.00582977450854 -0.00253277635739)
(-0.00672820088239 0.00944846117091 -0.00249577470523)
(-0.0064978058303 0.00766886913546 -0.00373668412148)
(-0.00860247956258 0.00505901191584 -0.00267201277863)
(-0.00860170782254 0.00848036692407 -0.00264064178399)
(-0.00830839002868 0.00692211288433 -0.00395237538507)
(-0.00899075624701 0.00420960944878 -0.00287354440094)
(-0.00955879593999 0.0073239630799 -0.0028766454284)
(-0.00927012892269 0.00603004647229 -0.00428548800371)
(-0.00830056091887 0.00342093445111 -0.00310518998338)
(-0.00939934466562 0.00611173362451 -0.00317656235429)
(-0.00922200895293 0.00508836875952 -0.00470300267931)
(-0.00657565632617 0.00286689984203 -0.00328048432784)
(-0.00804273373423 0.00506361645603 -0.00346639105036)
(-0.00810075062383 0.0042546042687 -0.00511949137746)
(-0.00410241361488 0.00266137552543 -0.00318253642085)
(-0.00568591635659 0.00437415242792 -0.0035934991539)
(-0.00606819111388 0.00367706543326 -0.00537220988168)
(-0.00155053877318 0.002799393447 -0.00244445719992)
(-0.00265015463244 0.00411740492557 -0.00318203592504)
(-0.00342137241234 0.00343239579872 -0.00510795489739)
(-0.000575284575935 0.00417498532977 -0.00175770016836)
(-0.00116718382542 0.00338684690288 -0.00381895669215)
(0.00146646707766 0.00536379298582 -0.00249239023273)
(0.000513137599816 0.00624370379291 -0.00149980565183)
(0.00120255103617 0.00578058022124 -0.00354289185805)
(0.00436285438257 0.0056925364651 -0.00359020742498)
(0.00285730446473 0.00658331808232 -0.00327589963037)
(0.00367085453467 0.00607551344036 -0.00536724994037)
(0.00726039487246 0.00642351438254 -0.00377714735758)
(0.00641831649538 0.00726543759649 -0.00377672689755)
(0.00667609917744 0.00667916658732 -0.00579229195221)
(0.00929710635029 0.00759193089821 -0.00353630953886)
(0.00920613625552 0.00848464551448 -0.00354071447117)
(0.00898122175942 0.00772953719325 -0.00546067487764)
(0.0101260892546 0.00904101345557 -0.00317915004034)
(0.0108128170673 0.0101300528976 -0.00305038648431)
(0.0102466452416 0.00911605229243 -0.00485030498011)
(0.00969352973964 0.0105331125365 -0.00284546517857)
(0.0110091785539 0.0119518704447 -0.00252391051083)
(0.0103041788422 0.0106343390848 -0.00419845129313)
(0.00815888587672 0.0118584883623 -0.00260405033662)
(0.00987586552708 0.0136631116934 -0.00208800993934)
(0.00920921762975 0.0120607009727 -0.00365104786809)
(0.00582144571865 0.0128710392266 -0.00247514880098)
(0.007684582188 0.0150692003386 -0.00180718752367)
(0.00717426594291 0.0132361909293 -0.00328570967719)
(0.00301104861934 0.013489671733 -0.00243183974469)
(0.00482028450366 0.0160320192104 -0.00168528177885)
(0.00451538456694 0.0140454418909 -0.00310852524728)
(-3.10993151208e-06 0.0136961559161 -0.00242501816827)
(0.00163466969999 0.0165126333944 -0.00165471116044)
(0.00153622102984 0.0144514441476 -0.00305163174361)
(-0.00301741300031 0.0134906477125 -0.00243161264229)
(-0.00164084084397 0.016512996274 -0.00165444698218)
(-0.00153819993043 0.0144515737206 -0.0030513183228)
(-0.00582819606672 0.0128729073555 -0.0024747923567)
(-0.00482669662345 0.0160331109768 -0.00168457017636)
(-0.00451775756778 0.0140457948276 -0.0031077042004)
(-0.00816618148008 0.0118610351173 -0.00260364013183)
(-0.00769148707181 0.0150709802527 -0.0018062677791)
(-0.00717730972985 0.0132366878789 -0.00328458038468)
(-0.00970142238376 0.0105360235385 -0.00284527443376)
(-0.00988349398837 0.0136653011895 -0.002086965514)
(-0.00921314839755 0.0120611642009 -0.0036497338125)
(-0.0101341146534 0.00904401312426 -0.00317966338174)
(-0.0110174149778 0.0119542327858 -0.00252321864811)
(-0.0103089504006 0.0106345719382 -0.00419761000219)
(-0.00930426331041 0.00759495869762 -0.00353776342127)
(-0.0108209126629 0.0101325387669 -0.00305070752255)
(-0.0102515810612 0.00911604332059 -0.00485067997658)
(-0.00726569190181 0.00642696110906 -0.00377940587642)
(-0.00921289764895 0.00848744489024 -0.00354213429829)
(-0.00898526480046 0.00772966837665 -0.00546241403256)
(-0.00436581301338 0.00569730088735 -0.00359299865808)
(-0.00642277950883 0.00726929515499 -0.00377894366889)
(-0.00667847600981 0.00668033953428 -0.00579502781402)
(-0.00146726084762 0.00537118155211 -0.00249527889347)
(-0.00285945174982 0.00658947821006 -0.00327860544776)
(-0.00367154664213 0.00607898485861 -0.00537062694674)
(-0.00051320413771 0.00625371602469 -0.0015022871187)
(-0.00120207312718 0.00578814065284 -0.0035459920034)
(0.00166189757556 0.00734737795377 -0.00228331504947)
(0.000624873259704 0.00768795558277 -0.00120299300813)
(0.00138972874302 0.00760918508446 -0.0031061472351)
(0.00505599039119 0.00804374308315 -0.00346241910293)
(0.00341282646601 0.00830273880751 -0.00309970815786)
(0.00425187185199 0.00810297442863 -0.00511351409452)
(0.00848442389996 0.00920618772799 -0.00354029401114)
(0.00758952619944 0.00929679395315 -0.00353541030291)
(0.00773089712692 0.00897947967231 -0.00545979481487)
(0.0109047258529 0.0108812813331 -0.00305479141663)
(0.010885281609 0.0108979584455 -0.00305504969453)
(0.0104031381026 0.0103956793449 -0.00483362505856)
(0.0118835701362 0.0128683263944 -0.0023951469548)
(0.0127788223638 0.0129614541907 -0.00221985435385)
(0.0118568253629 0.0122056531975 -0.00381026102533)
(0.0113496326133 0.0148738340573 -0.00176645527159)
(0.0129861099405 0.0151973433743 -0.00131692853478)
(0.0118963968696 0.0141595621372 -0.00271155563296)
(0.00950966009355 0.0166311509477 -0.00129114712639)
(0.0116026080828 0.0172723627511 -0.000556347518027)
(0.010587551626 0.0159782700046 -0.0017693027852)
(0.00674619000325 0.0179586766497 -0.00101732050153)
(0.0089774321477 0.018959208007 -4.9146379314e-05)
(0.00820324290519 0.0174589649236 -0.00112656496509)
(0.00347333614585 0.0187650781331 -0.000908153194589)
(0.0055991669141 0.0201105230109 0.00018819709728)
(0.00513544429884 0.0184709088939 -0.000805679443599)
(-3.12861092802e-06 0.0190333365291 -0.000884139974342)
(0.0018924105659 0.0206847724611 0.000259929980192)
(0.00174178507385 0.0189771294881 -0.000695704585976)
(-0.00347969802037 0.0187655501276 -0.000907404516246)
(-0.00189862729889 0.0206846646171 0.000260374517096)
(-0.00174291142399 0.0189769222801 -0.000695128600663)
(-0.00675281409889 0.0179596376584 -0.00101604559877)
(-0.00560553082041 0.020110385817 0.000189508419835)
(-0.00513690334122 0.0184703179871 -0.000804186630448)
(-0.00951689902461 0.0166324821964 -0.00128959316127)
(-0.00898429440203 0.0189592291705 -4.72137740516e-05)
(-0.00820537950176 0.017458073461 -0.00112418913919)
(-0.0113576511528 0.0148753308451 -0.00176490972836)
(-0.011610346967 0.0172724435359 -0.000554140499394)
(-0.0105907692099 0.0159769932644 -0.00176641188674)
(-0.0118919955521 0.0128700041486 -0.00239426278892)
(-0.0129945631693 0.0151974630758 -0.00131494253316)
(-0.0119007734488 0.0141578992259 -0.00270890330986)
(-0.0109125722461 0.0108833845426 -0.00305507839958)
(-0.0127872844356 0.0129620609937 -0.00221891467434)
(-0.0118617495478 0.0122040331414 -0.00380895808675)
(-0.00849058244988 0.00920925919212 -0.00354167209076)
(-0.0108927184568 0.0108994476191 -0.00305538250306)
(-0.0104075534724 0.0103946573638 -0.00483400009343)
(-0.00505975733167 0.00804886652573 -0.00346455045857)
(-0.00759483099019 0.00929999523273 -0.00353679857262)
(-0.00773389408024 0.00898003904059 -0.00546152870008)
(-0.00166326460101 0.00735601266541 -0.00228561367299)
(-0.00341565061437 0.00830906889279 -0.0031017026308)
(-0.00425312118823 0.00810657495983 -0.00511608493605)
(-0.000625444434681 0.00769892833294 -0.00120481461579)
(-0.00138979471243 0.00761797717311 -0.0031084777338)
(0.00209232624962 0.00848647846331 -0.00201938611652)
(0.000863795195051 0.00824782428719 -0.000933774629728)
(0.00169895538346 0.00862551000158 -0.00265219444244)
(0.00610521990268 0.00939342164811 -0.00317269935784)
(0.00420117372483 0.00898687760914 -0.00286786272273)
(0.0050867552763 0.00921793196864 -0.00469703354925)
(0.0101318232591 0.0108059544185 -0.00305016598631)
(0.00903872275764 0.010120045574 -0.00317872347208)
(0.00911935199609 0.0102389141414 -0.00484985840561)
(0.012971643624 0.0127661470054 -0.00222011263175)
(0.0128729147477 0.0118697065709 -0.00239710008686)
(0.0122158814193 0.0118419484641 -0.00381157421564)
(0.0140962458215 0.0150466517821 -0.00114163593383)
(0.0150615763017 0.0140771680442 -0.00114403834338)
(0.0138801586475 0.0138608056435 -0.00224032355795)
(0.0134144626734 0.0173215251186 -0.000106820781216)
(0.0152502273113 0.0164369315384 0.000203874423778)
(0.0138770296052 0.0160204958061 -0.000557813645177)
(0.0111862514742 0.0192990008146 0.000685653229048)
(0.0135678625493 0.0185989741405 0.001344099976)
(0.012292083406 0.0180167275251 0.000901590578722)
(0.0078943901802 0.0207881045303 0.0011563712195)
(0.0104474024759 0.0203534736028 0.0021138774445)
(0.00947077930544 0.019631663043 0.00189758609358)
(0.00404861435655 0.0216932834738 0.00135628027206)
(0.00648627961673 0.021547305717 0.00248770719003)
(0.00589899215484 0.0207345329149 0.00240898354919)
(-3.16822643205e-06 0.0219944707458 0.00140444447163)
(0.00218648673234 0.022142323387 0.00261038089283)
(0.00199503489933 0.0212877679445 0.00259422265733)
(-0.00405501824455 0.0216925758183 0.00135728745318)
(-0.00219339365219 0.0221416149795 0.00261055105606)
(-0.00199639982321 0.0212869050464 0.00259489171976)
(-0.0079010464597 0.0207870691733 0.00115834024455)
(-0.00649292456713 0.0215453696108 0.0024887487921)
(-0.00590055041824 0.0207322472888 0.00241103774114)
(-0.0111935800322 0.0192978309765 0.000688238887827)
(-0.010454354439 0.020350831388 0.00211622914549)
(-0.00947294981846 0.0196284744619 0.00190092585541)
(-0.0134226943511 0.0173202864282 -0.000104173304193)
(-0.0135757484948 0.0185959798268 0.00134693861726)
(-0.0122954195325 0.0180126869921 0.000905573629977)
(-0.0141048038992 0.0150457235592 -0.00113959441857)
(-0.0152587085112 0.0164339300111 0.000206569349104)
(-0.0138814707568 0.0160159582862 -0.000554360698649)
(-0.0129798458849 0.0127661107777 -0.00221921877782)
(-0.0150700524881 0.0140748354745 -0.00114197415261)
(-0.0138851560958 0.0138566200304 -0.00223773452523)
(-0.0101386369609 0.0108075385914 -0.00305050898491)
(-0.0128806489032 0.0118688499639 -0.00239629188489)
(-0.0122207275465 0.0118389133461 -0.00381061209376)
(-0.00610970815787 0.00939777502519 -0.00317395074485)
(-0.00904458206465 0.010121572333 -0.00317916161218)
(-0.00912306975655 0.0102380515881 -0.00485050613735)
(-0.00209423239536 0.00849505358184 -0.0020209035736)
(-0.00420452263514 0.00899216876031 -0.00286898267883)
(-0.00508873016596 0.00922076505465 -0.00469857614906)
(-0.000864715846349 0.00825822883164 -0.000934818761367)
(-0.00169955908518 0.00863428967551 -0.0026535331753)
(0.00264288849057 0.00858369533916 -0.00178225123594)
(0.00114762257112 0.00786784749411 -0.000723434481376)
(0.00206712499901 0.00864309787777 -0.0022629116902)
(0.00731617712553 0.00954730871743 -0.00287388683697)
(0.00504937478161 0.00859433122216 -0.00266666136379)
(0.00602743259014 0.00926104981836 -0.00428074262904)
(0.0119523002401 0.0109966800639 -0.00252565757263)
(0.0105289290249 0.00968428472397 -0.00284654560172)
(0.0106366430493 0.0102917645958 -0.00420036307505)
(0.0152069502877 0.0129665682549 -0.00132102579849)
(0.0148763074957 0.0113328012051 -0.00177226800812)
(0.0141688430722 0.0118760098386 -0.00271774537276)
(0.0164568285782 0.0152270031564 0.000201472014227)
(0.0173359553616 0.013392143511 -0.000115294392119)
(0.0160403248503 0.013850759994 -0.000564853678795)
(0.0155913330894 0.0174526577116 0.00165479518099)
(0.0174770212412 0.0155685375188 0.00165155546709)
(0.0159721251069 0.0159440084572 0.00173389072163)
(0.0129467637576 0.0193742771173 0.00277232419145)
(0.0154942410726 0.0175554431073 0.00314370048293)
(0.0140870562838 0.0178649034098 0.00368810251527)
(0.00909959394136 0.0208176042226 0.00344521341503)
(0.0118816916494 0.0191756866831 0.00416038161099)
(0.0108073954545 0.0194215955704 0.00502495952453)
(0.00465375373779 0.021689851125 0.0037418078108)
(0.00734658389207 0.0202714815617 0.00465100744574)
(0.00670825657961 0.0204828303742 0.00572166776551)
(-3.83291304322e-06 0.0219787291416 0.00381648747726)
(0.00247083115926 0.0208152545704 0.00480191565028)
(0.00226410518531 0.0210147483071 0.00598465981002)
(-0.0046611503279 0.0216880648156 0.00374201239498)
(-0.00247935607005 0.0208144254406 0.00480188117606)
(-0.00226745939243 0.0210134243896 0.00598451241837)
(-0.00910659188978 0.0208142182545 0.00344663769304)
(-0.00735458759288 0.0202684791027 0.0046516060694)
(-0.00671107361746 0.0204789376432 0.0057223384758)
(-0.0129542254601 0.019369920947 0.00277492887492)
(-0.011889428246 0.0191706107055 0.00416186952431)
(-0.0108103398576 0.0194156907869 0.00502786119573)
(-0.0155995087559 0.017447975659 0.00165768127056)
(-0.0155024794014 0.0175493070553 0.00314630133112)
(-0.0140910039718 0.01785776507 0.00369196302927)
(-0.0164652952332 0.0152226565598 0.000204189615065)
(-0.0174855234473 0.0155619809801 0.00165420264018)
(-0.0159767915546 0.0159361241857 0.00173774215435)
(-0.0152150554137 0.0129634460831 -0.00131904725968)
(-0.0173441810772 0.0133862998893 -0.000112755858673)
(-0.0160453612086 0.0138433197791 -0.000561698199774)
(-0.0119593041769 0.0109957285768 -0.00252494451216)
(-0.0148838627901 0.0113287474351 -0.00177064036413)
(-0.014173908459 0.011870141973 -0.00271564373195)
(-0.00732099783999 0.00954970951688 -0.00287419354616)
(-0.0105348349001 0.0096832142282 -0.00284616556272)
(-0.0106408279125 0.0102886506611 -0.00419994489154)
(-0.00264506891437 0.00859072224238 -0.0017828978666)
(-0.00505286611086 0.00859747512723 -0.00266694963764)
(-0.00602989387535 0.00926211599822 -0.00428123366309)
(-0.00114873269817 0.00787628247312 -0.000723738830014)
(-0.00206806956396 0.0086504001475 -0.00226312140057)
(0.0031807412617 0.00773937219247 -0.00160784460923)
(0.00142011513793 0.00665945115703 -0.000573717940855)
(0.00241605252621 0.00776449277931 -0.00197234422626)
(0.00847082925859 0.00858858352796 -0.00263932012853)
(0.00581922069634 0.00725347774204 -0.0025277234142)
(0.00691799099086 0.0082977834182 -0.00394923313888)
(0.0136608556852 0.00986304845379 -0.0020931560372)
(0.0118520669736 0.00815110580184 -0.00260690394636)
(0.0120605659743 0.00919672590124 -0.00365684516265)
(0.0172800015596 0.0115840061976 -0.000566536601747)
(0.0166312541277 0.00949675426745 -0.00130135111589)
(0.01598477009 0.0105683564994 -0.00178309503149)
(0.0186186714484 0.0135473612084 0.00133478906075)
(0.0193137101254 0.0111695764314 0.00067089526967)
(0.0180354245637 0.0122681310119 0.000883902899559)
(0.0175768768707 0.0154760699571 0.00314046076903)
(0.0194030602122 0.0129316162589 0.00276605817785)
(0.017893730292 0.0140633824357 0.00367872286669)
(0.0145435605075 0.0171482500268 0.00453175790248)
(0.0171677256843 0.0145333144937 0.00453694891903)
(0.0157405181679 0.015720435072 0.00605545233599)
(0.0101793513633 0.0184079519468 0.0053661756417)
(0.0131254099474 0.0158386192478 0.00570051180707)
(0.0120376298007 0.0170755513214 0.00770128360409)
(0.0051892729317 0.0191697628609 0.00571111528523)
(0.00808167151996 0.0167036727234 0.00624366992569)
(0.00744820998552 0.0179938089217 0.00855789408193)
(-4.78411271629e-06 0.0194230037668 0.00578730934908)
(0.00271004447214 0.0171292406298 0.00640568873429)
(0.00250920041648 0.0184487240901 0.00888007822026)
(-0.00519870496433 0.019167609929 0.00571147485048)
(-0.00272061843339 0.017128509552 0.00640612108792)
(-0.00251539777438 0.018447421501 0.00887984491715)
(-0.0101882825128 0.0184033295531 0.00536683790068)
(-0.00809216579053 0.0167004075885 0.00624439310607)
(-0.0074538957752 0.0179894072996 0.00855765832785)
(-0.0145520017919 0.0171416140638 0.00453324198051)
(-0.0131352069972 0.0158322542697 0.00570143655195)
(-0.0120426373054 0.0170681500031 0.00770208593201)
(-0.0175854448882 0.0154682532545 0.00314282270074)
(-0.0171772761932 0.0145245602531 0.00453878306709)
(-0.0157457800209 0.0157107842144 0.00605820078093)
(-0.0186270260356 0.0135394218363 0.00133725716644)
(-0.0194121334141 0.0129219596406 0.00276802167292)
(-0.0178991586562 0.014052383574 0.00368161364944)
(-0.0172877345341 0.0115772913091 -0.000564348963119)
(-0.0193216951285 0.0111602024488 0.000672822157065)
(-0.0180405183789 0.0122571911045 0.000886816656097)
(-0.013667485572 0.00985893698851 -0.00209186141469)
(-0.0166381540213 0.00948937785835 -0.00129966115311)
(-0.0159896684927 0.0105592483235 -0.0017808701369)
(-0.00847546337861 0.008588295082 -0.0026389216542)
(-0.0118574267767 0.00814712468654 -0.00260608709255)
(-0.0120646847878 0.0091908870076 -0.00365592586329)
(-0.00318292944418 0.00774392879792 -0.00160779060106)
(-0.00582244858636 0.00725389725824 -0.00252737766365)
(-0.00692052090612 0.00829644775605 -0.00394895152376)
(-0.0014212602271 0.00666500230669 -0.000573433490299)
(-0.00241718632065 0.00776932981508 -0.00197164614404)
(0.00364750210679 0.00607348164118 -0.00149359674583)
(0.00164306079408 0.00478659132622 -0.000477631194393)
(0.00272471162722 0.00608432058873 -0.00177464010797)
(0.00943784258257 0.00671704040891 -0.00249530723203)
(0.00641552392804 0.00519765932781 -0.00245443903265)
(0.00766370143685 0.00648910093248 -0.00373451848118)
(0.0150650267586 0.00767679015179 -0.00181509902504)
(0.0128626542802 0.00581849878706 -0.00247869069847)
(0.0132339432595 0.00716684695012 -0.00329457183957)
(0.0189668857054 0.00896611797291 -6.39192444742e-05)
(0.0179564294263 0.00674131969587 -0.00103004325076)
(0.0174635322413 0.00819194373683 -0.00114641706388)
(0.0203781084857 0.0104353316624 0.00210216438677)
(0.0208026603062 0.00788635187121 0.00113749350171)
(0.0196516156829 0.0094563256754 0.00187201049478)
(0.0192042338565 0.0118734976644 0.00416254632785)
(0.0208509852017 0.00909114892326 0.00343771768893)
(0.0194575733678 0.01079406411 0.0050143505286)
(0.015851334416 0.0131205508463 0.00570570282363)
(0.0184324072064 0.0101729309269 0.00537594841382)
(0.0171012348771 0.0120301801311 0.00771328982004)
(0.0110629293376 0.0140505614749 0.00657800609106)
(0.0140559170746 0.0110575737238 0.00658036778134)
(0.0130471386798 0.0130403676781 0.00956945490256)
(0.00562341709114 0.0145938146639 0.00693824337475)
(0.0086186482966 0.0116233517203 0.00712698175592)
(0.00803871055705 0.0136935694803 0.0105198356463)
(-5.93185259813e-06 0.0147701241873 0.00702450047313)
(0.00288292644406 0.0118971034781 0.0072900698985)
(0.00269807611654 0.0140056168598 0.0108614879127)
(-0.00563535726727 0.0145920558083 0.00693903934352)
(-0.00289527857734 0.011895888838 0.00729173457481)
(-0.00270725467978 0.0140046903353 0.0108620486212)
(-0.0110745361929 0.0140454844111 0.00657899175735)
(-0.00863257394329 0.0116192972063 0.00712896326373)
(-0.00804775532947 0.0136895454923 0.0105202933886)
(-0.0158622313863 0.0131119714078 0.00570697763853)
(-0.0140692181409 0.0110495458099 0.00658115160928)
(-0.0130554505981 0.0130319007816 0.00957040990605)
(-0.0192143026191 0.0118629303162 0.00416398203927)
(-0.0184439784204 0.0101620343879 0.00537642620026)
(-0.0171091148788 0.0120183765054 0.00771460593692)
(-0.0203869410338 0.0104243479839 0.00210358666355)
(-0.0208609016795 0.00907915127944 0.00343833993695)
(-0.0194645370219 0.0107807010015 0.00501545796024)
(-0.0189740834995 0.00895625267853 -6.24900329288e-05)
(-0.0208104328995 0.00787456183269 0.00113804110556)
(-0.0196570061836 0.00944273300208 0.00187279551809)
(-0.0150707280864 0.00766971470804 -0.00181388683098)
(-0.0179622640358 0.00673152253359 -0.00102902330739)
(-0.0174678189579 0.00818021964719 -0.00114548823065)
(-0.00944178503929 0.00671392066813 -0.002494543102)
(-0.0128669304096 0.00581212609317 -0.00247791891645)
(-0.0132373719439 0.00715860108604 -0.00329393476159)
(-0.00364941068901 0.00607503042797 -0.00149302055289)
(-0.0064181099331 0.00519543971459 -0.00245375095822)
(-0.00766586621827 0.00648530220868 -0.00373390926979)
(-0.00164403124398 0.0047889546091 -0.000476899896122)
(-0.00272581464228 0.00608613769699 -0.00177335788076)
(0.00397037204466 0.00384569770799 -0.00143847348121)
(0.00178147684612 0.00248581762939 -0.000428749691269)
(0.00293964595613 0.00385168902037 -0.00166959466782)
(0.0101034701924 0.00423845185024 -0.00243782249909)
(0.00677978442433 0.00269771868933 -0.00242914625132)
(0.00817793877238 0.00410188046179 -0.00363315206468)
(0.01602543264 0.00482019165127 -0.00169363492418)
(0.0134794313891 0.00301407326501 -0.0024343668192)
(0.0140412795629 0.00451595352681 -0.00311752943399)
(0.0201157847168 0.00559740105767 0.000171369495424)
(0.0187595957974 0.00347810851491 -0.000920261076925)
(0.0184727913251 0.00513567254898 -0.000827131598884)
(0.0215717231145 0.00648152063076 0.00247304680387)
(0.0217041092155 0.0040510930541 0.00133578903892)
(0.0207526835783 0.005896305764 0.00237933000505)
(0.02030258107 0.00733970311114 0.0046511197749)
(0.0217209399589 0.00465312822011 0.00373009094533)
(0.0205201286086 0.00670284134339 0.00570717025437)
(0.0167185358263 0.00807500662182 0.00625061337153)
(0.0191951398273 0.00518592815901 0.0057162625618)
(0.0180226166426 0.00744203406463 0.00857105125938)
(0.0116287126157 0.00861378852795 0.0071293434462)
(0.0146017834294 0.00562034786057 0.00694084108878)
(0.0137015883323 0.00803380890099 0.0105270475099)
(0.00589576876609 0.00892355329649 0.00747880827967)
(0.00892889333901 0.00589369238351 0.00748028364171)
(0.00840204553009 0.0083985081234 0.011462597928)
(-6.65047361996e-06 0.00902437869098 0.00755730400018)
(0.00298386133961 0.006027321168 0.00763393780662)
(0.00281435685874 0.00857548332685 0.0117721945997)
(-0.00591043273666 0.00892003765831 0.00748165849502)
(-0.00299978592064 0.00602478500524 0.00763498509451)
(-0.00282578073252 0.00857339468907 0.0117748795049)
(-0.0116444812483 0.00860683942498 0.00713112311567)
(-0.0089462107101 0.00588737523173 0.00748191288102)
(-0.00841559744851 0.00839280441953 0.0114659660168)
(-0.0167325812826 0.00806475189417 0.00625060017101)
(-0.0146182396051 0.00561101785029 0.00694027867464)
(-0.0137145492003 0.00802394000792 0.0105266272768)
(-0.0203141056132 0.00732750678903 0.00465078409794)
(-0.0192085574328 0.00517446228541 0.00571486887902)
(-0.0180330373795 0.00742925446445 0.00856910052956)
(-0.0215807940939 0.00646890889575 0.00247279437896)
(-0.0217315382482 0.00464053618819 0.00372865372792)
(-0.0205282810312 0.00668853675342 0.00570531252094)
(-0.0201222177292 0.00558590857538 0.000171507831099)
(-0.0217114265329 0.00403871995719 0.00133451193616)
(-0.0207581716755 0.00588186083498 0.0023772778058)
(-0.0160297964891 0.00481133065925 -0.00169305539286)
(-0.0187640867313 0.0034675621975 -0.000920427994769)
(-0.0184761393425 0.00512297076864 -0.000828447790025)
(-0.0101062864867 0.00423318100479 -0.00243712677267)
(-0.0134822843285 0.00300652774855 -0.00243408713231)
(-0.0140435383615 0.00450647051227 -0.00311789999372)
(-0.00397170884676 0.00384446395399 -0.00143763030145)
(-0.00678147120291 0.00269359501356 -0.00242849190878)
(-0.00817935206536 0.00409631659637 -0.00363272307203)
(-0.00178210260744 0.00248528089504 -0.00042784403552)
(-0.00294050569708 0.00385073393853 -0.0016680285847)
(0.00413216562735 0.00130658891325 -0.00141942246138)
(0.00182796228057 -1.86931302749e-05 -0.000414315591558)
(0.00304808554427 0.00130839816673 -0.00162765045193)
(0.0104359363687 0.00144443568642 -0.00242569057143)
(0.00690082343717 -5.44679550065e-06 -0.00242446306868)
(0.00843586163994 0.00140065323133 -0.00360059902573)
(0.0165033615217 0.00164216755598 -0.00166099297194)
(0.0136840885559 4.69688837818e-06 -0.00242611660223)
(0.0144459524968 0.001544577664 -0.00305804036434)
(0.0206853653788 0.00190107530946 0.000244158466567)
(0.0190245408109 1.01993924963e-05 -0.00089439004733)
(0.0189758386135 0.00175333298405 -0.000714084756795)
(0.0221611662502 0.00219261473031 0.00259283318038)
(0.0220007445406 1.04245597572e-05 0.00138451372505)
(0.0213008459265 0.00200540424508 0.00256487705747)
(0.0208431532656 0.00247250540079 0.00479523373223)