/*--------------------------------*- C++ -*----------------------------------*\
| =========                 |                                                 |
| \\      /  F ield         | OpenFOAM: The Open Source CFD Toolbox           |
|  \\    /   O peration     | Version:  3.0.1                                 |
|   \\  /    A nd           | Web:      www.OpenFOAM.org                      |
|    \\/     M anipulation  |                                                 |
\*---------------------------------------------------------------------------*/
FoamFile
{
    version     2.0;
    format      ascii;
    class       volScalarField;
    location    "6.1";
    object      ddt0(k);
}
// * * * * * * * * * * * * * * * * * * * * * * * * * * * * * * * * * * * * * //

dimensions      [0 2 -3 0 0 0 0];

internalField   nonuniform List<scalar> 
7968
(
-0.00011146918401
-0.000124029290965
-0.000134588562915
-0.000141428820953
-0.000146023814028
-0.000148622037378
-0.000150320079618
-0.000151170674431
-0.000151541802166
-0.000151619468532
-0.000151629198588
-0.000151559692814
-0.000151193091939
-0.000150344284418
-0.000148646796761
-0.000146047090483
-0.000141447800954
-0.000134602202617
-0.000124038539182
-0.000111472105674
-0.000124028437883
-0.000181940022747
-0.000222411861428
-0.000246974522528
-0.000261310407968
-0.000268548627448
-0.000272373220667
-0.000274431594345
-0.000276064095411
-0.000277243179597
-0.000277251626949
-0.000276079980773
-0.000274448366554
-0.000272388063477
-0.000268565478772
-0.000261336069216
-0.000247004161039
-0.000222441224353
-0.000181963492217
-0.00012403584078
-0.000134583520336
-0.000222403710013
-0.000281560324077
-0.000317353492699
-0.000338180026106
-0.000349043599877
-0.00035444700017
-0.000357554296079
-0.000360211114899
-0.00036224108758
-0.000362247017243
-0.000360218115311
-0.000357554660189
-0.000354437696887
-0.000349036522338
-0.000338187404402
-0.000317371925639
-0.00028158441059
-0.00022242592022
-0.000134592895968
-0.000141417655776
-0.000246961109588
-0.000317352592891
-0.000358815316211
-0.000381586254513
-0.000392126784665
-0.000396031783347
-0.000397254659134
-0.000392104916158
-0.000392468958032
-0.000392467542168
-0.000392081039281
-0.000397234438156
-0.000395980132505
-0.000392085644738
-0.000381564997754
-0.000358811540708
-0.000317360666361
-0.000246974120138
-0.0001414278109
-0.000146006889132
-0.000261303844004
-0.000338198552443
-0.000381613489968
-0.000402548393888
-0.000406231592422
-0.000409617889134
-0.00041192888638
-0.000412893057017
-0.000413919090089
-0.000413920264687
-0.000412884141226
-0.000411917178778
-0.000409569525356
-0.000406033052671
-0.000402491527688
-0.000381583102433
-0.000338186463051
-0.000261303782126
-0.00014601580719
-0.000148601870916
-0.000268565136796
-0.000349106605198
-0.000392221198754
-0.000406366744235
-0.00041511155824
-0.000418738357709
-0.00041989396461
-0.000420536102394
-0.000421311261049
-0.000421315572792
-0.000420536785539
-0.000419885444416
-0.000418711843652
-0.000415027136435
-0.000406156272832
-0.000392166563405
-0.000349076823047
-0.000268553363117
-0.000148608898876
-0.000150293904785
-0.000272417733767
-0.000354570907956
-0.000396230588546
-0.000409745498153
-0.000418804935418
-0.000421233410525
-0.000420339013965
-0.000419314869826
-0.000419193541454
-0.000419200332467
-0.000419322102212
-0.000420337366985
-0.000421219952257
-0.00041877731585
-0.000409691684673
-0.000396165860994
-0.00035453793466
-0.000272401308154
-0.000150298139154
-0.000151138489279
-0.000274493783542
-0.00035771467424
-0.000397495884751
-0.000412098417928
-0.000420020520333
-0.000420400556585
-0.000417137428089
-0.000414172418473
-0.000413009009055
-0.000413017845241
-0.000414185057975
-0.000417145686728
-0.000420402876181
-0.000420016408678
-0.000412088693277
-0.000397472810194
-0.000357701044751
-0.000274485267023
-0.000151141955279
-0.000151502209908
-0.000276119248778
-0.000360366375646
-0.000392384581336
-0.000413111001684
-0.000420695027254
-0.000419402588561
-0.000414192758631
-0.000409328369712
-0.000407074037745
-0.00040708467351
-0.000409346780725
-0.00041421321803
-0.0004194243916
-0.000420715237742
-0.00041312574935
-0.000392388313712
-0.00036038353653
-0.000276125527089
-0.00015150438761
-0.000151576959989
-0.000277277636248
-0.000362359072109
-0.000392647503965
-0.000414098638405
-0.000421458613001
-0.000419279965279
-0.000413024947891
-0.000407062812235
-0.000404153552292
-0.000404167006533
-0.000407088294815
-0.000413057583481
-0.000419320381602
-0.000421505769711
-0.000414151734276
-0.000392702089273
-0.00036240859245
-0.000277298103285
-0.000151575283297
-0.000151591652769
-0.000277268639387
-0.00036232844625
-0.000392597110508
-0.000414065377398
-0.0004214476976
-0.000419289552763
-0.00041305161248
-0.000407099092685
-0.000404193555893
-0.000404209265896
-0.000407131749812
-0.000413095988122
-0.000419347122719
-0.000421517798386
-0.000414149903693
-0.000392690945251
-0.000362400107806
-0.000277297454708
-0.000151583952119
-0.000151528805805
-0.000276087020641
-0.000360270793255
-0.000392194365951
-0.00041300093005
-0.00042065218423
-0.000419416429426
-0.000414252320893
-0.000409416192338
-0.000407174614719
-0.000407190667012
-0.000409454381971
-0.000414309627224
-0.000419494465455
-0.00042074827625
-0.000413121866543
-0.000392351503424
-0.000360365645372
-0.000276127760835
-0.000151520765416
-0.000151168930598
-0.000274447952705
-0.00035758011247
-0.000397284092627
-0.000411981051588
-0.000419965057534
-0.000420417286297
-0.000417219663005
-0.000414298507428
-0.000413157358217
-0.000413172220599
-0.000414338553257
-0.000417285251138
-0.000420508933503
-0.000420074330673
-0.000412102953823
-0.000397441206208
-0.00035768672479
-0.0002744970986
-0.00015116432564
-0.000150328508351
-0.000272381512805
-0.000354437803746
-0.000395982969797
-0.000409575128423
-0.000418738835887
-0.000421255712193
-0.000420439288298
-0.000419467780104
-0.000419372650062
-0.000419385826636
-0.000419507002507
-0.000420506522516
-0.000421348300609
-0.00041884843616
-0.000409696958281
-0.00039613232861
-0.000354533959561
-0.000272426546492
-0.00015032671934
-0.000148640244012
-0.000268560295962
-0.000349023181499
-0.000392054871855
-0.0004059312274
-0.000414977297861
-0.000418760506333
-0.000419999777567
-0.000420697043351
-0.000421495501157
-0.000421507300274
-0.000420733207584
-0.000420061907718
-0.000418843671777
-0.000415070421847
-0.000406039732147
-0.000392148028141
-0.000349084182003
-0.000268588007524
-0.000148639501334
-0.000146050623048
-0.000261341579878
-0.000338181577472
-0.000381536687055
-0.000402430392697
-0.000405991229881
-0.000409627437809
-0.000412035115493
-0.000413059577345
-0.000414103673262
-0.000414115291427
-0.0004130948271
-0.000412092200146
-0.000409693624938
-0.000406028269493
-0.000402490608551
-0.000381576830578
-0.000338205098626
-0.000261349655755
-0.000146050437301
-0.000141460723476
-0.00024702945506
-0.000317392381647
-0.000358815222923
-0.000381559678188
-0.000392114386397
-0.000396081070591
-0.000397384369014
-0.000392286912862
-0.000392646127737
-0.000392658743223
-0.000392324765569
-0.000397444230044
-0.000396143767341
-0.000392163996177
-0.000381588876904
-0.000358828008456
-0.000317395319576
-0.000247026876469
-0.000141461247676
-0.000134622716858
-0.000222484103233
-0.000281630392648
-0.000317399148981
-0.000338207497043
-0.000349077653318
-0.000354517163786
-0.000357668525307
-0.000360354176472
-0.000362393779111
-0.000362406451665
-0.000360390710341
-0.000357721778096
-0.000354571940354
-0.000349118892939
-0.000338231780018
-0.000317406971002
-0.000281629550074
-0.000222481563478
-0.000134625084474
-0.000124062444014
-0.000182007794423
-0.000222478712484
-0.000247029935692
-0.000261356158487
-0.000268597305098
-0.00027243845216
-0.000274518273021
-0.000276161373027
-0.000277340600396
-0.000277352738101
-0.000276193746516
-0.000274564364079
-0.000272487308835
-0.000268636667642
-0.000261383685588
-0.000247043356414
-0.00022248435
-0.000182011496159
-0.000124066699333
-0.000111492858228
-0.00012406202999
-0.000134620556551
-0.000141459794773
-0.000146053748463
-0.000148653352154
-0.000150352203207
-0.000151203450425
-0.000151571560461
-0.000151644963367
-0.000151654199948
-0.000151590771284
-0.000151229366259
-0.000150379882693
-0.000148677837833
-0.000146073479078
-0.000141471861651
-0.000134627676958
-0.000124067078046
-0.000111496189205
-0.000107498715656
-0.000151885759725
-0.000187641712305
-0.000212293930726
-0.000228627107839
-0.000238772408327
-0.000244083062589
-0.000245443819341
-0.000244126971102
-0.000242220402755
-0.000242232876465
-0.000244157992525
-0.000245486074797
-0.000244129177998
-0.000238817497072
-0.000228668106909
-0.00021232740306
-0.000187666433858
-0.000151902890795
-0.00010750513373
-0.000151878001881
-0.000321486391229
-0.000420531720815
-0.000485529389004
-0.000526891998727
-0.000551647952296
-0.000565158364943
-0.000571524043322
-0.000574366185674
-0.000575560519685
-0.000575570511517
-0.000574386586732
-0.000571547407653
-0.000565183564609
-0.000551680187324
-0.000526933885101
-0.000485578592779
-0.000420577385919
-0.000321518216626
-0.000151884810748
-0.000187626485302
-0.000420515096195
-0.000551595049069
-0.000638017308296
-0.000693878375631
-0.00072782942203
-0.000746896654439
-0.00075698159499
-0.00076371756834
-0.000767362428387
-0.000767369881141
-0.000763728764058
-0.000756979705481
-0.000746877725808
-0.000727826922169
-0.000693892155742
-0.000638046871287
-0.000551629086829
-0.000420540938667
-0.000187632894244
-0.000212273260262
-0.000485503958273
-0.000638013938777
-0.000736682194466
-0.000798562382771
-0.000834252876833
-0.000849754617963
-0.000857540306258
-0.000869373274941
-0.000874450092805
-0.000874456853195
-0.00086937972959
-0.000857504373067
-0.000849572895667
-0.000834216377843
-0.000798534983938
-0.000736677224227
-0.000638021912655
-0.000485513469747
-0.000212279190522
-0.000228605943048
-0.000526876612796
-0.000693898416507
-0.00079859263435
-0.000860104679329
-0.0008922952282
-0.000907629169974
-0.000913770452529
-0.00091893541626
-0.000922170629749
-0.000922171684124
-0.000918924782517
-0.000913727921582
-0.000907570155677
-0.00089234390289
-0.000860057287964
-0.000798549074676
-0.000693875977355
-0.000526866734889
-0.000228611588144
-0.000238752431519
-0.000551666277363
-0.000727902817024
-0.000834351348023
-0.000892311284895
-0.00091944239545
-0.000929188270187
-0.000931211463508
-0.000932278211986
-0.000933521974277
-0.000933521728213
-0.000932263617573
-0.000931166610037
-0.000929121622956
-0.000919416004696
-0.000892356953889
-0.000834291501376
-0.00072785995882
-0.000551644827594
-0.000238759704294
-0.000244059624482
-0.000565215294175
-0.000747045266512
-0.000850074912252
-0.000907823534509
-0.000929312840713
-0.000932870147732
-0.00093014418909
-0.000927991376189
-0.000926953211279
-0.000926954620073
-0.000927987667658
-0.0009301187525
-0.00093281574258
-0.000929245795802
-0.00090775746453
-0.000849875084917
-0.000746993431402
-0.000565195301074
-0.000244071368962
-0.00024540987009
-0.000571602308298
-0.000757151516408
-0.000857722597221
-0.000914030122634
-0.000931442868361
-0.000930259241206
-0.00092320269556
-0.000918115884722
-0.000916042635135
-0.00091604875766
-0.000918123898543
-0.000923201881732
-0.000930244427381
-0.000931411440053
-0.000913997993058
-0.000857686775348
-0.000757139192302
-0.000571601969065
-0.000245427103257
-0.000244079784587
-0.000574431616166
-0.000763864353576
-0.000869530434481
-0.00091919587171
-0.000932542666148
-0.000928150942969
-0.000918155147847
-0.00091015300567
-0.000906714563287
-0.000906725646417
-0.000910175594678
-0.000918183034573
-0.000928182201699
-0.000932571310899
-0.000919229355098
-0.00086956979236
-0.000763904549935
-0.000574462647379
-0.000244096058685
-0.000242172235761
-0.000575597582973
-0.000767480889814
-0.000874600808842
-0.000922413462095
-0.000933770377145
-0.000927126373156
-0.000916090933642
-0.000906705607681
-0.000902558918261
-0.000902575237813
-0.000906745059203
-0.00091614896128
-0.000927201485872
-0.000933856873848
-0.000922509114202
-0.000874693956795
-0.000767570022012
-0.000575658838405
-0.000242177194518
-0.000242199498565
-0.000575582030389
-0.000767445286383
-0.000874568834153
-0.000922371624582
-0.000933745713127
-0.000927131544573
-0.000916126839726
-0.000906759171225
-0.000902617383372
-0.000902638752345
-0.000906814342787
-0.000916213485098
-0.000927250104852
-0.000933881415244
-0.000922514997181
-0.000874696615176
-0.000767571083343
-0.000575665873699
-0.000242190838704
-0.000244139029869
-0.000574382309645
-0.000763761282171
-0.000869435404046
-0.00091906675281
-0.000932456650783
-0.000928162798787
-0.000918248914435
-0.000910298841183
-0.000906887623937
-0.000906911483417
-0.000910365124341
-0.000918357972658
-0.000928321750002
-0.00093264159193
-0.000919250273417
-0.000869584039875
-0.000763913950348
-0.000574487030046
-0.000244130157593
-0.000245477160221
-0.000571534989769
-0.000756986708553
-0.000857524890723
-0.000913813617512
-0.000931301061807
-0.000930265363986
-0.000923336926009
-0.000918342911367
-0.000916332715111
-0.000916356595905
-0.000918415789723
-0.000923461743034
-0.000930451208557
-0.000931520201415
-0.000914034179208
-0.000857705625228
-0.000757161892546
-0.000571652333796
-0.000245478096169
-0.000244130165064
-0.00056517225664
-0.000746867756208
-0.000849564436395
-0.00090760380704
-0.000929175481754
-0.000932880695097
-0.000930322956993
-0.000928287631373
-0.000927318882902
-0.000927342068218
-0.000928365106993
-0.000930457584468
-0.000933065866992
-0.000929387758987
-0.000907821461685
-0.000849813710333
-0.000747036485763
-0.000565281540632
-0.000244139772243
-0.000238831703404
-0.000551689173234
-0.000727826920174
-0.000834212825354
-0.000892384239508
-0.000919436597753
-0.000929231609114
-0.000931395127129
-0.000932572247535
-0.000933871290242
-0.000933893134231
-0.000932642931758
-0.000931516271607
-0.00092938913989
-0.000919605644114
-0.000892530794715
-0.000834355927431
-0.000727946883923
-0.000551770352897
-0.000238844737974
-0.00022870121501
-0.000526989477659
-0.000693937630975
-0.000798558459143
-0.00086006543109
-0.000892421221263
-0.000907719781631
-0.000913945533427
-0.000919189203553
-0.000922477090013
-0.000922497396569
-0.000919252121069
-0.000914046746389
-0.000907842418962
-0.000892559325382
-0.00086015946146
-0.000798642008024
-0.000694008798789
-0.000527038713855
-0.000228713982037
-0.000212382807984
-0.000485700841392
-0.000638166383422
-0.000736772631457
-0.000798607572399
-0.000834319907021
-0.000849780973077
-0.000857676429129
-0.000869572753604
-0.000874692340822
-0.000874712550337
-0.000869631382645
-0.0008577601914
-0.000849858177631
-0.000834413355662
-0.000798677419387
-0.000736827209689
-0.000638208750156
-0.000485729782471
-0.000212396112815
-0.000187743485237
-0.000420762785943
-0.0005518222002
-0.000638194627332
-0.000694011568516
-0.000727951956835
-0.000747039269245
-0.000757170261619
-0.000763937821244
-0.000767608568814
-0.000767631990663
-0.000764003178311
-0.000757265196471
-0.000747142415838
-0.000728045459474
-0.000694084292513
-0.000638247642209
-0.000551859814065
-0.000420789003017
-0.000187760288603
-0.000151989269574
-0.000321724433205
-0.000420765356303
-0.000485729348664
-0.000527057916905
-0.000551801545621
-0.000565322231915
-0.000571707863012
-0.000574565623649
-0.000575770527905
-0.000575792994408
-0.000574627682324
-0.000571799062362
-0.000565425504307
-0.000551899872984
-0.000527140945621
-0.000485792468955
-0.000420811204193
-0.000321757601495
-0.000152009354724
-0.000107577354294
-0.000152006906936
-0.000187761967067
-0.000212403638028
-0.000228728187947
-0.000238872840577
-0.000244189313853
-0.000245554452625
-0.000244237502658
-0.000242327424499
-0.000242337428552
-0.000244267001452
-0.000245602004686
-0.00024424705931
-0.00023893150391
-0.000228780916809
-0.000212445972215
-0.000187795487615
-0.000152032774762
-0.000107593620474
-8.58539082542e-05
-0.000139114189436
-0.000185014912214
-0.000218301021986
-0.000240531329931
-0.000253475164541
-0.000256855959821
-0.00025062216363
-0.000238364517172
-0.000228200563155
-0.000228218039631
-0.000238417657707
-0.000250709725898
-0.000256958169719
-0.000253575118286
-0.000240615024833
-0.000218365069401
-0.000185062038331
-0.000139148175156
-8.58693988378e-05
-0.000139094835262
-0.000340644185096
-0.000466527222189
-0.000556375329024
-0.00061902689532
-0.000660962661445
-0.000686264020383
-0.000698378652126
-0.00070161253015
-0.000701149124023
-0.000701171876544
-0.000701671818564
-0.000698466215891
-0.000686366441033
-0.000661072815038
-0.000619140693435
-0.00055648290023
-0.000466614407732
-0.000340700151367
-0.000139112845778
-0.000184984413379
-0.000466503949464
-0.000634024513175
-0.000753765726499
-0.000838507450662
-0.000895971741794
-0.000932677486316
-0.000955455951223
-0.000967914086752
-0.000972652881173
-0.000972666713454
-0.000967953185165
-0.000955506084304
-0.000932742469215
-0.000896033138546
-0.00083858279538
-0.000753848750636
-0.000634096193204
-0.000466549262976
-0.000184998441154
-0.000218263748039
-0.000556337564212
-0.000753758581452
-0.000890264807659
-0.000982647059336
-0.00104199521954
-0.00107606442037
-0.00110035169018
-0.00111491144373
-0.0011216678119
-0.00112167620727
-0.00111493026276
-0.00110038030191
-0.00107617511512
-0.00104200761833
-0.000982656221085
-0.000890302603449
-0.000753800319661
-0.000556364929065
-0.000218273024534
-0.000240493443079
-0.000618992053104
-0.000838515424988
-0.000982665768793
-0.00106964784169
-0.0011296115619
-0.00116268095684
-0.00118275876129
-0.00119445840355
-0.0012002007135
-0.00120019870475
-0.00119444545353
-0.00118274487891
-0.00116268008015
-0.00112956784537
-0.00106955850237
-0.000982646951075
-0.000838523907461
-0.000619003984232
-0.000240502754024
-0.000253427228056
-0.000660947220713
-0.000896014706644
-0.00104203872001
-0.00112964367531
-0.00118183166483
-0.00121140727606
-0.00122771927011
-0.00123576030439
-0.00123947782184
-0.00123945852944
-0.0012357023252
-0.00122767546341
-0.00121140266506
-0.00118180269605
-0.00112958583347
-0.00104201201341
-0.000896004484789
-0.000660955397849
-0.000253445486826
-0.000256772573127
-0.000686261890368
-0.000932743077192
-0.00107601851613
-0.00116274754522
-0.00121148693702
-0.00123894392911
-0.00125217222439
-0.00125666240839
-0.00125846915857
-0.00125843803463
-0.00125658249128
-0.00125213596152
-0.00123899390828
-0.00121153189981
-0.00116273234842
-0.00107610017913
-0.000932752798232
-0.000686285861829
-0.000256805456377
-0.000250501022538
-0.000698368433752
-0.000955547951824
-0.00110043707464
-0.00118289508893
-0.00122790555878
-0.00125230957775
-0.00126198134609
-0.00126295116278
-0.00126253183459
-0.0012625099295
-0.00126289376466
-0.00126199000393
-0.00125242122699
-0.00122803364595
-0.00118291904883
-0.00110046569745
-0.000955583996803
-0.000698421963619
-0.000250533122613
-0.000238233451634
-0.000701572770784
-0.000967985947985
-0.00111500303924
-0.00119461721414
-0.00123600989155
-0.00125690157754
-0.00126306621449
-0.00126081309017
-0.0012585249346
-0.0012585169371
-0.00126079175111
-0.00126311854529
-0.00125706936678
-0.00123620799985
-0.00119470683162
-0.00111507416362
-0.000968073491933
-0.000701655882484
-0.000238233805287
-0.000228101613967
-0.000701083856546
-0.00097271024333
-0.00112174838322
-0.00120035390851
-0.00123973614699
-0.00125874469969
-0.00126264842468
-0.00125852310944
-0.00125530487269
-0.00125530380056
-0.00125852684665
-0.0012627433171
-0.00125897962094
-0.00124000456363
-0.00120050768491
-0.00112187485647
-0.000972848059141
-0.000701188527402
-0.000228053067105
-0.000228162585694
-0.000701085907499
-0.000972670958719
-0.0011217074624
-0.00120030711763
-0.00123968705941
-0.00125869818667
-0.00126261939621
-0.00125851104959
-0.00125529849917
-0.00125530058481
-0.00125852795495
-0.00126274768554
-0.0012589955954
-0.00124001587472
-0.00120051379771
-0.0011218761376
-0.000972849786379
-0.000701204174528
-0.000228077742268
-0.000238397399484
-0.000701576604034
-0.000967894609132
-0.00111489332321
-0.00119448267594
-0.00123586551602
-0.00125676981006
-0.00126297553585
-0.00126076950352
-0.00125851064601
-0.00125851608729
-0.00126079814302
-0.00126312192086
-0.0012570900244
-0.00123622942763
-0.00119472262825
-0.00111508326944
-0.000968088166495
-0.000701706098008
-0.000238302819921
-0.000250709390426
-0.000698372753596
-0.000955420100269
-0.00110030473456
-0.00118271818106
-0.00122775111168
-0.0012522133356
-0.00126197784842
-0.00126303931954
-0.00126268761692
-0.00126269864927
-0.00126308440612
-0.00126213068919
-0.00125252658829
-0.00122810836062
-0.0011829556772
-0.00110049392809
-0.000955621484496
-0.000698510917838
-0.000250634721428
-0.000256980643279
-0.000686292679198
-0.000932656322173
-0.00107609242351
-0.0011626085253
-0.00121139863584
-0.00123900145788
-0.00125238710938
-0.0012570171879
-0.0012589327429
-0.00125895137424
-0.00125708465992
-0.00125255308398
-0.00123928665815
-0.00121168110466
-0.0011627868827
-0.00107621212289
-0.000932834212826
-0.000686425097826
-0.000256937197678
-0.000253617656317
-0.000661049464255
-0.000895991012421
-0.00104194961475
-0.00112949103846
-0.00118174869069
-0.00121151100556
-0.00122801763747
-0.00123619492077
-0.00123999679482
-0.00124002123454
-0.00123627488135
-0.00122817194138
-0.00121171550202
-0.00118191226896
-0.001129607289
-0.00104207559228
-0.000896128750753
-0.000661149928946
-0.00025359764561
-0.000240685528672
-0.000619205235131
-0.000838636539222
-0.000982675874867
-0.00106952602435
-0.00112954836235
-0.00116270871687
-0.00118289446206
-0.00119468179655
-0.00120047823079
-0.00120050105869
-0.00119475261965
-0.00118300758753
-0.00116283397386
-0.0011296389495
-0.00106958241319
-0.000982754259481
-0.000838719073782
-0.00061926332194
-0.000240677794382
-0.000218465385376
-0.000556665262074
-0.000754034731948
-0.000890451734486
-0.000982736642552
-0.00104206369186
-0.00107619331179
-0.00110047995511
-0.00111506847026
-0.00112185890147
-0.00112188331975
-0.00111513936219
-0.00110058406591
-0.0010763150676
-0.00104215632204
-0.00098280228793
-0.000890508411505
-0.0007540827725
-0.000556694909006
-0.000218467891291
-0.000185190889069
-0.000466911580848
-0.000634411789256
-0.000754077630431
-0.000838736596694
-0.000896148772882
-0.000932851951148
-0.000955646361983
-0.00096812312273
-0.000972892950556
-0.000972924067831
-0.000968208399622
-0.000955769541695
-0.000932986812141
-0.000896266931112
-0.000838826339459
-0.000754141612846
-0.000634454205254
-0.000466935073526
-0.000185205545392
-0.000139280250489
-0.000341045228697
-0.00046693462778
-0.000556727657929
-0.000619317012371
-0.000661212554175
-0.000686503130482
-0.000698617540517
-0.000701853335429
-0.000701399974273
-0.000701433658084
-0.000701946575245
-0.000698754039176
-0.000686657503771
-0.000661358334213
-0.000619434595119
-0.000556811801528
-0.000466988758739
-0.00034107816636
-0.000139306057862
-8.59622934896e-05
-0.000139320389692
-0.000185238235685
-0.000218517677462
-0.000240743884409
-0.000253694678682
-0.000257090754144
-0.000250863724789
-0.000238611568925
-0.000228451810045
-0.00022846560697
-0.000238655797546
-0.000250938384046
-0.000257184648197
-0.000253790086467
-0.00024082582173
-0.000218581220998
-0.000185285563028
-0.000139356317347
-8.5992206254e-05
-5.80774165515e-05
-0.000109508112059
-0.000153574557289
-0.000183126947789
-0.000198117848893
-0.000198585117421
-0.000183072852911
-0.000155965023266
-0.000128875220678
-0.000112830533511
-0.000112839946249
-0.000128903859193
-0.000156043399004
-0.000183179702664
-0.000198719193786
-0.00019823306761
-0.000183210490674
-0.00015363109291
-0.00010954672997
-5.8100665218e-05
-0.000109476463964
-0.000319048357748
-0.000455824488538
-0.000558530714657
-0.000633015777142
-0.000683208004262
-0.000710424000762
-0.000716884494094
-0.000710604691256
-0.000702566000565
-0.000702601131211
-0.000710715652622
-0.000717070341233
-0.000710659366813
-0.000683448688162
-0.000633247251567
-0.000558730203071
-0.000455974946497
-0.000319136740352
-0.000109519532377
-0.000153530160317
-0.000455802042768
-0.000646983880702
-0.000793485221718
-0.000904305219183
-0.000983943764216
-0.00103958745947
-0.00107323644864
-0.00108837038983
-0.00108296167468
-0.00108297474448
-0.00108842175299
-0.00107339052818
-0.00103977985491
-0.000984143759204
-0.000904510020039
-0.000793671242352
-0.000647126930825
-0.000455881426112
-0.000153567002316
-0.000183076482538
-0.000558489768298
-0.000793472233591
-0.000966594544452
-0.00109054070678
-0.00116680695326
-0.00123112428374
-0.00127081559862
-0.00129211137809
-0.00129973756765
-0.00129974406094
-0.00129213741026
-0.00127090193809
-0.00123128174947
-0.00116695722037
-0.00109069226588
-0.000966736229061
-0.000793587403469
-0.000558551808329
-0.000183095118597
-0.000198066062467
-0.000632959364109
-0.000904287306866
-0.00109053588913
-0.00121270830888
-0.00129977541537
-0.00136179955167
-0.00140027237365
-0.001419850616
-0.00142777847949
-0.00142774646469
-0.00141976262346
-0.00140026014607
-0.00136194656824
-0.00129997946842
-0.00121290241758
-0.00109064225096
-0.000904378288626
-0.00063301437432
-0.000198065951378
-0.000198502366839
-0.00068313158189
-0.000983922266343
-0.00116676792361
-0.0012997709686
-0.00139197616002
-0.00145352595881
-0.00148747663888
-0.00150199363799
-0.0015073621924
-0.00150727143186
-0.0015017567511
-0.00148735625908
-0.00145370165026
-0.00139229098912
-0.00130002119608
-0.00116685703877
-0.000984004378705
-0.000683198134287
-0.00019849478128
-0.000182925502247
-0.000710313024797
-0.00103955333874
-0.00123107624238
-0.00136179622263
-0.00145356684012
-0.00151115677004
-0.00153886819395
-0.00154728628204
-0.00154969319976
-0.0015495649151
-0.00154698731876
-0.0015387549356
-0.00151143215469
-0.00145402858725
-0.00136217828296
-0.00123122986097
-0.00103965854459
-0.0007104139391
-0.000182904938198
-0.00015583198238
-0.000716730051295
-0.00107318116493
-0.00127075002453
-0.00140026622445
-0.00148762676183
-0.00153907155363
-0.00156064963398
-0.00156364820329
-0.00156280396417
-0.0015627050905
-0.00156340741446
-0.00156064629276
-0.00153946802316
-0.00148822542316
-0.00140077563109
-0.00127099629294
-0.00107332047126
-0.000716855760742
-0.000155741684752
-0.000128783658101
-0.000710426120165
-0.00108830035009
-0.00129205976616
-0.00141987952469
-0.00150223722098
-0.00154768178917
-0.00156389590647
-0.00156240426069
-0.0015588224223
-0.0015587578279
-0.0015622492868
-0.00156396966944
-0.00154815754984
-0.00150291843449
-0.00142045414745
-0.0012923637229
-0.00108848463522
-0.000710556716105
-0.000128596575791
-0.00011279374124
-0.00070239261881
-0.0010829756898
-0.00129971810918
-0.00142783483549
-0.00150762430686
-0.00155015725069
-0.00156299894245
-0.00155879764148
-0.00155377106979
-0.00155371823221
-0.00155868369141
-0.00156314042107
-0.00155074020164
-0.00150839099599
-0.0014284488593
-0.00130006612617
-0.00108320084705
-0.000702522046065
-0.000112528655496
-0.000112838729976
-0.000702407309266
-0.00108291184946
-0.00129966340897
-0.00142774529935
-0.00150746521467
-0.00154994966994
-0.00156280052104
-0.0015586186557
-0.00155360424577
-0.00155355289849
-0.00155851976026
-0.00156299440029
-0.00155065571968
-0.0015083092209
-0.00142839725483
-0.00130004917512
-0.00108319877214
-0.000702536380417
-0.000112532637668
-0.000128934494894
-0.000710496274741
-0.0010882537729
-0.00129194120434
-0.00141964237123
-0.00150179922845
-0.00154713812973
-0.00156334536184
-0.00156190570104
-0.00155836018058
-0.00155831512099
-0.001561827296
-0.00156356016389
-0.00154783492659
-0.00150265011647
-0.00142029364022
-0.00129231913271
-0.00108849963187
-0.00071061053209
-0.000128623726686
-0.000156078051747
-0.000716841478438
-0.00107312933251
-0.00127064963955
-0.00140006518889
-0.00148723070982
-0.00153861571979
-0.00156026745193
-0.00156337408552
-0.00156261825259
-0.00156259337349
-0.00156333911202
-0.00156047147139
-0.00153924201055
-0.00148801637614
-0.00140065720464
-0.00127097574042
-0.00107335329748
-0.000716950302542
-0.000155798677139
-0.000183234945468
-0.000710442308154
-0.00103952788824
-0.0012310432648
-0.00136175299569
-0.00145350086499
-0.0015111676054
-0.0015390716321
-0.00154769397264
-0.00155029062633
-0.00155029120458
-0.00154772099044
-0.0015392996279
-0.00151171937521
-0.00145412992558
-0.00136221180447
-0.00123127108465
-0.00103971774376
-0.000710548541491
-0.000183013479034
-0.000198786402283
-0.00068330965208
-0.000983973190514
-0.00116679099363
-0.00129984620219
-0.001392135696
-0.00145382561311
-0.00148798428915
-0.0015026951889
-0.00150822766969
-0.00150824544554
-0.0015027628468
-0.00148820525393
-0.00145422809559
-0.00139252679986
-0.00130009213221
-0.00116689828448
-0.000984099464046
-0.000683372713408
-0.000198618259714
-0.000198332512533
-0.000633231064265
-0.000904482653086
-0.00109064719766
-0.00121287446764
-0.00129995620551
-0.00136208468905
-0.00140067974387
-0.00142037151195
-0.00142839330727
-0.00142841473377
-0.00142044322843
-0.00140084610555
-0.00136233705019
-0.00130014084616
-0.0012129630011
-0.00109069606238
-0.000904533906745
-0.000633237881174
-0.000198205542384
-0.00018333447109
-0.000558875462023
-0.000793825838955
-0.000966856621682
-0.00109070658988
-0.00116688521438
-0.00123122002165
-0.00127097226447
-0.00129231764762
-0.00130000403577
-0.00130003463549
-0.00129240558404
-0.00127110831083
-0.00123137069554
-0.00116696608253
-0.00109074435681
-0.000966872001667
-0.000793824802743
-0.000558845336662
-0.000183249432059
-0.000153769505126
-0.000456283802255
-0.00064746225775
-0.000793880329342
-0.000904591146729
-0.000984129378124
-0.0010397218266
-0.0010733675986
-0.00108851247211
-0.00108317125464
-0.00108321616934
-0.00108862591067
-0.00107352185243
-0.00103987930593
-0.000984248855259
-0.000904657121859
-0.00079389947615
-0.00064744639265
-0.000456244309549
-0.000153725284919
-0.000109641103304
-0.000319531007886
-0.000456331010063
-0.000558970508982