/*--------------------------------*- C++ -*----------------------------------*\
| =========                 |                                                 |
| \\      /  F ield         | OpenFOAM: The Open Source CFD Toolbox           |
|  \\    /   O peration     | Version:  3.0.1                                 |
|   \\  /    A nd           | Web:      www.OpenFOAM.org                      |
|    \\/     M anipulation  |                                                 |
\*---------------------------------------------------------------------------*/
FoamFile
{
    version     2.0;
    format      ascii;
    class       volScalarField;
    location    "6.1";
    object      nut;
}
// * * * * * * * * * * * * * * * * * * * * * * * * * * * * * * * * * * * * * //

dimensions      [0 2 -1 0 0 0 0];

internalField   nonuniform List<scalar> 
7968
(
0.000114091087231
0.00012421880502
0.000131304900713
0.000135114448025
0.000136506027179
0.000136423295496
0.000135514089106
0.000134177049684
0.000132851067418
0.00013185435504
0.000131851510795
0.000132846055616
0.000134171679561
0.000135509646539
0.000136421091497
0.000136506015446
0.000135117054581
0.000131309196597
0.000124223844251
0.000114094553089
0.000124216119263
0.000152812240225
0.000168330366107
0.000175895900597
0.000178470067021
0.000178061623962
0.000176061276015
0.000173376569189
0.000170956799672
0.000169500330491
0.000169495552351
0.000170945239213
0.000173361193828
0.000176045662178
0.000178049031799
0.000178461702358
0.000175892948331
0.000168331705764
0.000152816566284
0.000124220384662
0.00013129990237
0.000168327019433
0.000187415898736
0.000196659276008
0.00019994860967
0.000199604486265
0.000197295945584
0.000194203548874
0.000191443514308
0.000189811299562
0.000189805384937
0.000191428692428
0.0001941829498
0.00019727391332
0.000199585230437
0.000199934357816
0.0001966511861
0.000187413128225
0.000168328490978
0.000131303592741
0.000135106983198
0.000175890145469
0.000196657318685
0.000206714298045
0.00021029912224
0.000209881654843
0.000207314864168
0.000204026498037
0.000201459497762
0.000200072413696
0.000200067093147
0.000201445476905
0.000204001594015
0.00020728694981
0.000209856087805
0.000210278928666
0.000206700704288
0.000196649665392
0.000175887677127
0.000135109419552
0.000136496847537
0.00017846457451
0.000199948338753
0.000210301536096
0.0002138345679
0.000213320309028
0.000212573915779
0.000210905977959
0.00020904404133
0.000207817101415
0.000207811731267
0.000209030600678
0.000210886497806
0.000212551282315
0.000213295194731
0.000213808336519
0.000210281968704
0.000199935005982
0.000178456921828
0.000136496857318
0.000136416034345
0.000178062016569
0.000199611842297
0.000209893184989
0.000213327767543
0.000215450296033
0.000215778850081
0.00021468088297
0.000213044407808
0.000211835706569
0.000211830199461
0.000213031032843
0.000214662466298
0.000215757904116
0.000215427370514
0.000213303126947
0.000209868733372
0.00019959371982
0.00017805000688
0.000136413464722
0.000135509687649
0.000176069882399
0.000197314810563
0.000207340724825
0.000212590703082
0.000215788744266
0.000216592900981
0.000215616320381
0.00021389742539
0.000212562526371
0.000212557018284
0.000213884295514
0.000215598718945
0.000216573559609
0.000215768757888
0.000212569471765
0.00020731462111
0.000197294133664
0.000176054545188
0.000135504112333
0.000134175784649
0.00017339359546
0.000194233842125
0.000204065872835
0.000210933739651
0.000214702978297
0.000215629569215
0.00021449963898
0.000212505283505
0.000210913248271
0.000210908121934
0.000212493582842
0.000214484670845
0.000215613783741
0.000214687440549
0.000210917584316
0.000204044566241
0.000194215643628
0.000173378610169
0.000134168380386
0.00013284998958
0.000170977216281
0.00019147868073
0.00020149327288
0.000209077326457
0.000213075900053
0.000213922310456
0.000212517944515
0.000210077268211
0.000208074740557
0.000208070695248
0.000210068936978
0.000212508613538
0.000213913856464
0.000213068722299
0.00020907070377
0.000201485912793
0.000191469560345
0.000170968093256
0.000132843328549
0.000131850490232
0.000169516586438
0.000189841467211
0.000200100157903
0.000207847849522
0.00021186792855
0.000212590540161
0.000210931710129
0.00020808247592
0.000205660733872
0.000205658892914
0.00020808009181
0.00021093137869
0.000212593171299
0.000211873015196
0.000207854180782
0.000200106532138
0.000189847118614
0.000169518728209
0.000131848159676
0.000131850391094
0.000169504611626
0.00018982416133
0.000200084083026
0.000207831924339
0.000211853095811
0.000212578538557
0.000210924437705
0.000208081395043
0.000205665837618
0.000205667380027
0.000208086931692
0.000210934997069
0.000212593848923
0.000211871763913
0.000207852276778
0.00020010492789
0.00018984619816
0.000169520210491
0.000131855461965
0.000132847245622
0.000170949088712
0.000191437633075
0.000201453050787
0.000209039634738
0.000213042206674
0.000213896093033
0.000212503615318
0.000210077918597
0.000208089574319
0.000208092672837
0.000210086924789
0.00021251884296
0.000213916795383
0.000213066531503
0.000209066279869
0.000201481399097
0.00019146709331
0.000170970948065
0.000132855472137
0.000134173549658
0.000173360964709
0.000194183794196
0.000204001987775
0.000210885245543
0.000214662205374
0.000215599547407
0.000214485720879
0.000212511136677
0.000210936809907
0.000210940264503
0.000212520697431
0.000214501140643
0.000215619805197
0.000214685614215
0.000210911314136
0.000204034183715
0.000194211854971
0.000173381864156
0.000134181093513
0.000135510632341
0.000176042384738
0.000197268919845
0.000207278965157
0.000212541883099
0.000215748914145
0.000216565593134
0.000215606766632
0.000213909009387
0.000212592217809
0.000212595596225
0.000213917953279
0.000215620307266
0.000216582312906
0.000215767379068
0.000212561631557
0.00020730199895
0.000197289222
0.000176057292054
0.000135514953782
0.000136420676411
0.00017804476331
0.00019957791341
0.000209844475381
0.000213280915561
0.000215413356157
0.000215756191179
0.000214676076063
0.000213059947518
0.000211868962604
0.000211872226837
0.000213068140058
0.000214687370747
0.000215768710336
0.000215425644187
0.000213292606693
0.000209856225298
0.000199588674354
0.000178052164905
0.000136421210641
0.000136504387956
0.000178458773939
0.000199928446573
0.000210268961887
0.000213793250209
0.000213287959714
0.00021255605077
0.000210905656777
0.000209062685377
0.000207851915789
0.000207855211916
0.000209070507086
0.000210915197732
0.000212564780594
0.000213294106239
0.00021379605283
0.000210272145152
0.000199931519221
0.000178460013368
0.000136502081267
0.000135113898793
0.000175893112024
0.000196649516012
0.000206696250877
0.000210274112491
0.0002098573528
0.000207300916422
0.000204030956638
0.00020148148243
0.000200109262413
0.000200112714195
0.000201489290304
0.000204039037732
0.000207306229206
0.000209859295384
0.000210273810387
0.000206695455239
0.000196648357817
0.000175890760769
0.000135110189344
0.000131304741001
0.000168334919453
0.000187416391157
0.000196651687217
0.000199935345069
0.00019959151833
0.000197290460594
0.000194212616022
0.00019147098532
0.000189855517319
0.000189859326286
0.0001914792183
0.000194220899826
0.000197295874977
0.000199593417458
0.000199934560677
0.000196649630817
0.000187413667331
0.000168331393958
0.00013130103998
0.000124218751983
0.000152821100512
0.000168335613203
0.000175895556814
0.00017846511209
0.000178056355178
0.000176060505816
0.000173386251329
0.000170980519307
0.000169537396721
0.00016954103852
0.000170988044585
0.000173393665405
0.000176065195251
0.000178057753567
0.000178463922826
0.000175893014492
0.000168332584522
0.000152817772186
0.000124215677769
0.000114090951662
0.000124223416759
0.000131310941321
0.000135120041167
0.000136510473766
0.000136427645908
0.000135519729846
0.000134186759645
0.000132866555864
0.000131876045123
0.000131878081332
0.000132870785274
0.000134190389386
0.000135521229017
0.000136427088826
0.000136508490936
0.00013511744936
0.0001313087017
0.000124221621852
0.00011408898318
0.000124637542054
0.000145965126915
0.00016014615903
0.000168360362829
0.000172414037002
0.000173763640358
0.000173525638243
0.000172538133916
0.000171533471825
0.000170932492667
0.00017092882957
0.000171524663918
0.000172526741229
0.000173514244897
0.000173754799794
0.000172409142487
0.00016835976973
0.000160149163064
0.000145970205711
0.000124641409389
0.000145962146352
0.000403993255823
0.000529551018971
0.000586461137111
0.000605714196023
0.000604833060152
0.000594135854012
0.000580062709457
0.00056739082557
0.000559766179541
0.000559752723377
0.000567357777107
0.00058001765255
0.000594087813481
0.000604792331124
0.000605688148489
0.00058645318075
0.000529559035299
0.000404009920294
0.000145966609218
0.000160141221353
0.000529519692745
0.000734222129683
0.0008375619495
0.000880840528352
0.000889268439373
0.00087919848328
0.000862181961311
0.000845633594834
0.000835296283897
0.000835270856462
0.000845569306308
0.000862094601595
0.000879099279797
0.000889176001739
0.000880769021994
0.000837519432972
0.000734209706536
0.000529529417273
0.000160143728345
0.000168353512455
0.000586403854743
0.000837528785633
0.000973996014536
0.00103843310727
0.00105881209954
0.0010533370213
0.00104127798401
0.00102477022636
0.00101313285331
0.00101309170281
0.00102466773971
0.00104117152269
0.00105320883677
0.00105867555692
0.00103832044426
0.00097391739702
0.000837489170962
0.000586397793683
0.000168352733652
0.000172407609903
0.000605649896306
0.00088079851677
0.0010384250346
0.00111904091704
0.00115198417018
0.00114024796573
0.00111530559345
0.0010918512979
0.00107791586041
0.00107786000838
0.00109170257843
0.00111509655432
0.00114001683165
0.00115178781381
0.00111889868797
0.00103831664074
0.000880732109572
0.000605625015928
0.000172402697961
0.000173761862663
0.000604783710647
0.000889248535727
0.00105883171805
0.0011520324575
0.00117009536281
0.00114974790485
0.00111709234511
0.00108852404424
0.00107240844828
0.00107234714735
0.00108835680304
0.00111684570913
0.0011494694131
0.00116984650143
0.00115184701681
0.00105870486615
0.000889163416544
0.000604744289107
0.000173752764901
0.000173531805869
0.000594112581678
0.000879220255511
0.00105339659586
0.00114041886516
0.00114988644718
0.00112249977857
0.00108402123317
0.00105118812424
0.00103311462448
0.00103305675044
0.00105102647693
0.00108378013394
0.00112222174342
0.00114962081135
0.00114020767627
0.00105328651047
0.000879134236172
0.000594069085631
0.000173519486073
0.000172553171221
0.000580063129239
0.000862242000057
0.00104137998229
0.00111559902929
0.00111738944804
0.0010841909379
0.00104110351074
0.00100626747574
0.000986991141143
0.000986941868761
0.00100613414608
0.00104090971974
0.00108396738026
0.00111717763274
0.00111543288135
0.00104131026425
0.000862182470401
0.000580031910184
0.000172540675202
0.000171552838835
0.000567403443734
0.000845724150523
0.00102500590131
0.00109223274029
0.00108891971429
0.00105147099474
0.00100637846438
0.000969270083098
0.000948684422025
0.000948648166296
0.000969177606006
0.00100625629028
0.00105134874714
0.00108882137353
0.0010921672874
0.00102497951774
0.000845714537255
0.000567400933922
0.000171545131195
0.000170948478158
0.000559773515979
0.000835379345436
0.0010133660834
0.00107827919689
0.0010727939468
0.00103339155231
0.000987135585168
0.000948738180856
0.00092746624175
0.000927448365567
0.00094869969099
0.000987103671177
0.00103339397218
0.00107284208695
0.00107835733623
0.00101344985798
0.000835443128478
0.00055981222819
0.000170950686319
0.000170937182535
0.000559739985463
0.00083531069258
0.0010132450672
0.00107811773584
0.00107263677885
0.00103327979838
0.000987085074443
0.000948748361058
0.000927522336506
0.000927524796824
0.000948767277474
0.000987144021995
0.0010334015444
0.0010728235
0.00107833347425
0.00101344081242
0.00083544977355
0.000559822850058
0.00017095104598
0.000171526660599
0.00056732404
0.000845557410972
0.00102472012476
0.00109182678948
0.00108851848367
0.00105118145908
0.0010062590653
0.000969316030641
0.000948854193915
0.000948870389999
0.000969373057905
0.00100637711375
0.0010513798784
0.00108878085439
0.00109211025802
0.00102496405234
0.000845735925566
0.000567432274074
0.000171545803275
0.000172522944991
0.000579968472619
0.000862038825087
0.00104112354589
0.00111509011446
0.00111686650289
0.00108381905552
0.0010409667977
0.00100636697387
0.000987263041234
0.000987286756506
0.00100644215311
0.00104110620663
0.00108403260754
0.00111713401523
0.00111536386899
0.00104132265447
0.000862218445041
0.000580082385663
0.000172541080369
0.000173505894672
0.000594031309585
0.000879017863757
0.00105311818346
0.00113991980253
0.00114937133825
0.0011221376899
0.00108391598578
0.00105135571474
0.0010334642014
0.00103349147183
0.00105143549156
0.00108404996747
0.00112232211189
0.00114958985187
0.0011401401739
0.00105329642259
0.000879176258573
0.000594133969359
0.000173518973026
0.000173744124398
0.000604740328141
0.000889089346775
0.00105856945213
0.00115166455719
0.00116970005714
0.0011494673873
0.00111704368089
0.00108873714871
0.0010728264933
0.00107285492334
0.00108881566655
0.00111716049713
0.00114960871714
0.00116985218755
0.00115181328758
0.00105871048112
0.000889212072406
0.000604821665264
0.00017375083102
0.000172397675389
0.000605657063884
0.000880702245004
0.00103823364409
0.00111880631757
0.00115173632658
0.00114008397491
0.00111532302383
0.00109209215883
0.00107834264216
0.00107837314485
0.00109217155972
0.00111542971688
0.00114019786293
0.00115184913883
0.00111891797331
0.00103833823657
0.000880792839715
0.000605717391708
0.000172399030581
0.000168348685468
0.000586458065941
0.000837494140709
0.000973878421292
0.00103828068138
0.00105868338355
0.00105329607958
0.0010413571947
0.0010250220204
0.00101353337815
0.00101356576274
0.00102510536236
0.00104147075042
0.00105341811581
0.00105879479099
0.00103837942374
0.000973965549936
0.000837565941246
0.00058650421057
0.000168346827297
0.000160138409282
0.000529600597975
0.000734233871984
0.000837510619486
0.000880765347752
0.000889216902174
0.000879214222958
0.000862294631593
0.000845857696656
0.000835619629045
0.000835650586467
0.000845938493815
0.000862404490913
0.000879331533112
0.000889326691091
0.000880861553867
0.000837591818422
0.000734296852348
0.000529638383862
0.00016013504705
0.000145958553569
0.000404066996452
0.000529585230027
0.000586460148834
0.000605700724752
0.000604834956805
0.000594177566773
0.000580160029972
0.000567550132553
0.000559981661486
0.000560004098906
0.000567609415333
0.000580242505659
0.000594268358676
0.000604922803818
0.000605779619827
0.000586526249257
0.000529634470904
0.000404093868011
0.000145954347007
0.000124628268674
0.00014596706474
0.000160149354236
0.000168360717071
0.000172410967997
0.000173759145964
0.000173523517844
0.000172543290501
0.00017154861678
0.000170957421451
0.000170960678918
0.000171555450373
0.000172550215415
0.000173528409709
0.000173761447818
0.000172411079443
0.000168359532964
0.000160147432122
0.000145964313914
0.000124624114742
0.00013623755325
0.000164151181063
0.000182098499282
0.000192467559347
0.000197788137173
0.0001999218968
0.000200445558433
0.000200635491991
0.00020116763659
0.000201771173303
0.000201766545831
0.000201154975862
0.000200617364918
0.000200425916677
0.000199905396278
0.000197777762603
0.000192463841082
0.000182100160224
0.000164155766028
0.000136240896934
0.000164150273118
0.000492678923004
0.00065720253207
0.000727914750122
0.000747544402059
0.000740778017351
0.000722081553702
0.000700169537518
0.000681334756945
0.000670302201939
0.00067028409593
0.000681290961721
0.000700109691502
0.000722017582883
0.00074072147237
0.000747506630518
0.00072790148518
0.000657214493668
0.000492707209308
0.000164155953405
0.000182096060323
0.000657143318834
0.000952452241241
0.00110830670118
0.00117532268527
0.00118932171918
0.00117516157896
0.00114898682627
0.00112339749596
0.00110762518079
0.00110759123404
0.00112331160524
0.0011488688072
0.00117503415608
0.0011892019876
0.00117522818281
0.00110824925358
0.000952437836037
0.000657163172307
0.000182099507129
0.000192463444288
0.000727814375105
0.00110824165104
0.00133734421624
0.00145685123226
0.0015034410767
0.00150755867153
0.00148628639503
0.00146035962659
0.00144332031314
0.00144326681897
0.0014602219266
0.00148610090344
0.0015073656686
0.00150326475067
0.00145670927569
0.00133724567554
0.00110819543802
0.000727813854031
0.000192462463758
0.000197785588194
0.000747435678719
0.00117523100174
0.0014568180601
0.00162003724116
0.00169527273756
0.00170722104544
0.00168754698903
0.00166047531494
0.001642271474
0.00164219967823
0.00166028565751
0.00168728190262
0.001706938745
0.00169502796399
0.00161987271279
0.0014566877484
0.00117515332049
0.000747409572214
0.000197778837645
0.000199927046451
0.000740692533663
0.00118925160503
0.00150343027513
0.00169531110507
0.00178034073929
0.00179525096104
0.00177425513722
0.00174403240059
0.00172355517561
0.00172347265306
0.00174381021932
0.00177393533242
0.00179489994574
0.00178003068855
0.00169508174928
0.00150327550303
0.00118914971478
0.000740644061163
0.00019991405634
0.000200464514487
0.000722038673037
0.00117514919828
0.00150762899387
0.00170738137753
0.00179539653867
0.00180973629422
0.00178513980096
0.00175002386558
0.001726204785
0.00172612178912
0.00174979773809
0.00178480766769
0.00180936344542
0.0017950608722
0.00170713262594
0.00150747053918
0.00117504303523
0.000721981439671
0.000200446854385
0.000200669059513
0.000700170096445
0.00114904462636
0.00148647047067
0.00168786408614
0.00177459347056
0.00178534903541
0.00175499905487
0.0017139886067
0.00168661031035
0.00168653716806
0.00171378939729
0.00175470773264
0.0017850245127
0.00177430517877
0.00168765744283
0.00148634183265
0.00114896194052
0.000700123421399
0.000200652104954
0.000201205755024
0.000681360981361
0.00112349910927
0.00146062433925
0.00166089905547
0.00174450548774
0.00175039065298
0.00171415780879
0.00166790764394
0.00163749581773
0.00163744246054
0.00166776662218
0.00171396221998
0.00175018823891
0.00174434625587
0.00166080768048
0.00146058142628
0.00112347657326
0.000681345887311
0.000201197703703
0.000201800167458
0.00067032592404
0.00110772059514
0.00144358029592
0.00164269182497
0.00172403912856
0.00172661277541
0.00168685296464
0.00163759432288
0.00160552713139
0.00160550231377
0.00163753562641
0.001686789003
0.00172657802283
0.00172406120688
0.00164276799591
0.00144366928912
0.00110778700278
0.000670358650282
0.000201807249983
0.000201780140829
0.000670285105557
0.00110764026107
0.00144344382148
0.00164250997183
0.00172385018393
0.00172646444458
0.00168678052789
0.00163760661631
0.00160560694782
0.00160561364981
0.00163763641512
0.00168685277605
0.00172659847652
0.00172405197913
0.00164275332125
0.00144366816258
0.00110780051552
0.000670371139382
0.000201802261524
0.000201155392031
0.000681262343244
0.00112329993668
0.00146028570877
0.0016604403379
0.00174402610174
0.00175001939417
0.00171398782607
0.00166796466276
0.00163773390475
0.00163776283983
0.00166805533841
0.00171414938517
0.00175025703943
0.0017443308099
0.00166077392129
0.00146058205619
0.00112351430261
0.000681380938507
0.000201184945578
0.000200605722801
0.000700049102098
0.00114879570826
0.00148605391532
0.00168727983407
0.00177397595037
0.00178487775127
0.00175480584112
0.00171411318474
0.0016869886328
0.00168702888872
0.00171423218464
0.00175500254209
0.0017851457429
0.00177429869549
0.00168761847521
0.00148634952806
0.00114901759265
0.000700177174289
0.000200633972072
0.000200404485398
0.000721928752566
0.00117491283019
0.00150723835085
0.00170681901366
0.0017947977528
0.00180928990424
0.00178499431734
0.00175022711862
0.00172669024927
0.00172673402681
0.00175035141345
0.0017851870174
0.00180953531146
0.00179507879093
0.00170710384525
0.00150748634867
0.00117510582532
0.000722044963582
0.000200425243951
0.000199878812529
0.000740615807429
0.00118905577239
0.0015031012476
0.00169486260369
0.00177987032151
0.00179492073805
0.00177420548635
0.00174431509085
0.00172411232118
0.00172415722921
0.00174443740677
0.00177438295735
0.00179513112769
0.00178009570163
0.00169508297733
0.00150329601671
0.00118920882045
0.000740708838027
0.000199889794999
0.00019774918941
0.000747401894303
0.0011750875184
0.00145656089891
0.00161974702933
0.00169496787528
0.00170704749718
0.00168761474344
0.00166083077654
0.00164287062677
0.00164291750896
0.00166095510178
0.00168778705278
0.00170723976265
0.00169516119839
0.00161993274721
0.00145671741979
0.00117520769909
0.000747473097189
0.000197751846967
0.000192435407308
0.000727816783061
0.001108142598
0.00133715154613
0.00145663276917
0.0015032759281
0.00150753151481
0.00148645820915
0.00146076143477
0.00144391866791
0.00144396727349
0.00146088971299
0.00148663519063
0.0015077264857
0.00150346554875
0.00145680171885
0.00133729208474
0.00110824712209
0.000727876116874
0.00019243282265
0.000182072293853
0.000657161257805
0.000952384166597
0.00110817712776
0.00117519295036
0.00118926001197
0.00117522680509
0.00114921145954
0.00112378872432
0.00110815471067
0.00110820000598
0.00112390918504
0.001149379894
0.00117541365028
0.00118944122303
0.00117535446566
0.00110831108429
0.000952482392559
0.000657214331059
0.000182066856395
0.000164127522853
0.000492691752834
0.000657164314308
0.000727851583238
0.000747493110167
0.000740776641862
0.000722161336075
0.000700343787276
0.000681601864485
0.000670645202994
0.000670675364747
0.000681682673103
0.000700459298807
0.000722292548355
0.00074090708188
0.000747612938427
0.000727954528382
0.000657241556131
0.000492731672546
0.000164120089637
0.00013621089464
0.000164135000673
0.000182083031958
0.000192448149886
0.000197763442898
0.000199893627767
0.000200418574064
0.000200615896198
0.000201157338352
0.000201769380818
0.00020177247044
0.000201163442702
0.000200620994862
0.000200420455127
0.000199892042756
0.000197759302856
0.00019244283936
0.000182076967415
0.000164127910118
0.000136202363349
0.000149700052082
0.000184803865344
0.000206654385317
0.000219426121181
0.000226664440761
0.000230718311615
0.000233694482331
0.000237069184014
0.00024072334784
0.000243223146641
0.000243218680015
0.000240710144053
0.000237047770886
0.000233668610991
0.000230694699823
0.000226648811846
0.000219419543836
0.000206654701635
0.000184807752019
0.000149702564692
0.000184806686465
0.000580599918834
0.00076657370807
0.000834115910976
0.000841182004294
0.000819427685853
0.000787432012159
0.000756454305073
0.000733443979186
0.000721484473457
0.000721449919042
0.000733353522222
0.000756321774972
0.000787280554675
0.000819282998425
0.0008410660838
0.000834042238317
0.000766550423691
0.000580623371439
0.000184812966989
0.000206656119364
0.00076649231949
0.00111691826725
0.00129307784112
0.00136056977354
0.00136534451256
0.00133846291661
0.00130057280249
0.00126674967148
0.0012472084442
0.00124715596792
0.00126660961687
0.00130036933341
0.00133823138513
0.00136512039247
0.0013603756874
0.00129293805601
0.00111685337381
0.000766504518587
0.000206660871699
0.000219426739506
0.000833997489083
0.0012930037921
0.00157355422839
0.00172144817057
0.00178013526628
0.00178374196312
0.00175906348798
0.0017286643294
0.00170867132893
0.00170860311695
0.00172848353518
0.001758804084
0.00178345389527
0.00177987998258
0.0017212202819
0.00157337766342
0.0012928999253
0.000833978448341
0.000219427411485
0.000226667295228
0.000841081210247
0.0013604835498
0.00172141588581
0.00194247283734
0.00205091783507
0.00208401946992
0.00207428475382
0.00204918449584
0.00203026191287
0.00203018292755
0.00204897023545
0.00207397253843
0.00208366575434
0.00205058997893
0.0019422089377
0.00172121354779
0.00136033703746
0.000841016241453
0.000226662240251
0.000230731189382
0.000819393089135
0.00136531644892
0.0017801404402
0.0020509647096
0.00219626226827
0.00225202376227
0.00225255975564
0.00222961378416
0.00221019425779
0.00221010986143
0.00222937788675
0.00225220404532
0.00225160593621
0.00219586346663
0.00205064752448
0.00177992003111
0.00136512992649
0.000819280850435
0.00023071924924
0.000233724725645
0.000787498709015
0.0013385508724
0.00178387821708
0.00208421061338
0.00225218253517
0.00232077178427
0.0023246967954
0.00229957219131
0.00227756217708
0.00227747998589
0.00229933438154
0.00232432372026
0.00232031767417
0.00225173414204
0.00208384619695
0.00178361548169
0.00133833771007
0.000787354601965
0.000233708275962
0.000237112216879
0.000756621923518
0.00130078501031
0.00175935221438
0.00207465900967
0.00225292954863
0.00232492260258
0.00232607270689
0.00229548407414
0.00226958333252
0.00226951238067
0.00229527413668
0.00232573621405
0.0023245010747
0.00225250430272
0.00207431035529
0.00175910281136
0.00130058639982
0.000756476466485
0.000237099971705
0.000240761815649
0.000733662956864
0.00126703254035
0.00172905392987
0.00204968776863
0.00223013786124
0.00229997140796
0.00229567112983
0.00225903105232
0.00222939604384
0.00222934658535
0.00225888244289
0.00229543209074
0.00229966765342
0.0022298294233
0.00204944194552
0.00172888826158
0.00126689941695
0.000733554650712
0.000240763869203
0.00024324303187
0.000721686407199
0.00124747682039
0.00170906652992
0.00203077951826
0.00221074763871
0.002278019761
0.00226986260145
0.00222951298633
0.00219772797529
0.00219770967592
0.00222945312792
0.00226976166681
0.00227788676953
0.002210619293
0.00203070065555
0.00170903860213
0.00124744611046
0.000721643885352
0.000243263506616
0.000243218128903
0.000721607307572
0.00124736743863
0.00170891483817
0.00203059778137
0.00221056619658
0.0022778801039
0.00226979791374
0.00222953319799
0.00219781816466
0.00219783410954
0.00222956959534
0.00226984221731
0.00227792371756
0.00221062454546
0.00203069423515
0.00170903525464
0.00124744839132
0.000721639102749
0.000243253856721
0.000240693781398
0.000733457135919
0.00126674484454
0.00172866888178
0.00204922329511
0.00222967158186
0.00229961384801
0.00229551232595
0.00225910061072
0.00222965274
0.0022296927987
0.00225920389365
0.00229565457221
0.0022997713351
0.00222984498907
0.00204942361903
0.00172887668427
0.00126690088276
0.00073353958311
0.000240737227589
0.0002370180078
0.000756353058381
0.0013004064402
0.00175885387055
0.00207405514692
0.00225232072245
0.00232445964357
0.00232588404041
0.00229561408174
0.00226997540172
0.00227002631842
0.00229574656149
0.00232606823107
0.00232466132557
0.00225253116817
0.00207428136452
0.00175907923236
0.00130058093685
0.000756454115118
0.000237059896884
0.000233626365477
0.000787232948277
0.00133816932062
0.00178338491505
0.00208360820549
0.00225157683036
0.00232032179752
0.00232454441241
0.00229977067372
0.00227805214107
0.00227810368982
0.00229990419951
0.00232472673265
0.00232051732116
0.00225177504846
0.00208381211898
0.00178357898105
0.00133831606547
0.00078732256016
0.000233658970203
0.000230645518381
0.000819167305356
0.00136497798375
0.00177973100738
0.00205045273674
0.00219576144663
0.00225167781897
0.00225250353334
0.00222990181661
0.00221076975989
0.00221081945005
0.00223002963801
0.00225267404586
0.00225185878345
0.00219594059365
0.00205062802261
0.00177988369703
0.00136508453505
0.000819231158024
0.000230664919858
0.000226597152665
0.000840899614789
0.0013601801355
0.00172103234669
0.00194205833708
0.00205055769212
0.00208382750734
0.00207436801845
0.00204958723495
0.00203093327963
0.00203098350963
0.00204971719944
0.00207454078945
0.00208401106186
0.00205073758563
0.00194222185381
0.00172116052864
0.00136026122043
0.000840943891099
0.000226604426934
0.000219368657356
0.000833843235431
0.0012927200719
0.00157319863085
0.00172110715006
0.00177991422098
0.00178370616151
0.00175928994548
0.00172917530439
0.00170941723048
0.00170946945186
0.00172931162209
0.00175947455627
0.00178390648456
0.00178011169101
0.00172127420463
0.00157332288378
0.00129279810173
0.000833883633597
0.000219367406303
0.000206605604784
0.00076634278679
0.00111664845693
0.00129276298937
0.0013602975212
0.00136520379849
0.0013385220638
0.00130086951176
0.00126727605536
0.00124790644828
0.00124795452721
0.00126740321625
0.00130104492941
0.00133871383561
0.00136538822426
0.0013604583228
0.0012928901737
0.00111673487191
0.000766387461459
0.000206599168748
0.000184761358581
0.000580464181686
0.000766365671431
0.000833900741312
0.000841010062531
0.000819345792029
0.000787479352231
0.000756644744278
0.000733764236735
0.000721898084529
0.000721927487705
0.000733840916091
0.000756751743825
0.000787599345827
0.000819465502317
0.000841122500157
0.000834000884936
0.000766443379717
0.000580505180147
0.000184751253405
0.000149659283066
0.000184764317205
0.000206611244258
0.000219375373972
0.000226603451953
0.000230647931981
0.000233620086905
0.000236997203063
0.000240654753534
0.000243158271611
0.000243160073652
0.000240657446692
0.000236997330432
0.00023361597534
0.000230640278462
0.000226593886233
0.000219365487834
0.000206601258721
0.000184753400032
0.000149646180231
0.000164814376637
0.000209036881571
0.000236087487006
0.00025288502849
0.000263947772291
0.000271998918588
0.000279267075117
0.000286588924778
0.000292989289709
0.000296809719782
0.000296806502731
0.000292981153783
0.000286574442457
0.000279247435832
0.00027197844734
0.000263934094635
0.000252880729934
0.000236089673456
0.00020904251429
0.000164816944615
0.000209043754331
0.000693990205075
0.000903850337725
0.000967410439093
0.000961842574688
0.000927032574007
0.000886519513231
0.000854305369677
0.000835392871759
0.000827551150605
0.00082749400336
0.00083523406533
0.000854055937568
0.000886215675314
0.000926729000167
0.000961583166433
0.000967221894828
0.000903752213315
0.000693994982592
0.000209050371315
0.000236092693768
0.000903754551288
0.0013072480926
0.00149296435651
0.00154993956675
0.00153771293886
0.00149489458169
0.00144664948738
0.00140891886385
0.00138873672936
0.0013886489499
0.00140867946823
0.00144627239552
0.00149444219589
0.00153726025503
0.00154954207017
0.00149266226612
0.00130708310836
0.000903746697571
0.000236099927223
0.000252889065257
0.000967301665328
0.00149290588346
0.00180285935688
0.00195941490828
0.00201722179165
0.00201510509773
0.00198486084762
0.00195045394615