/*--------------------------------*- C++ -*----------------------------------*\
| =========                 |                                                 |
| \\      /  F ield         | OpenFOAM: The Open Source CFD Toolbox           |
|  \\    /   O peration     | Version:  3.0.1                                 |
|   \\  /    A nd           | Web:      www.OpenFOAM.org                      |
|    \\/     M anipulation  |                                                 |
\*---------------------------------------------------------------------------*/
FoamFile
{
    version     2.0;
    format      ascii;
    class       volScalarField;
    location    "6.1";
    object      rAU;
}
// * * * * * * * * * * * * * * * * * * * * * * * * * * * * * * * * * * * * * //

dimensions      [-1 3 1 0 0 0 0];

internalField   nonuniform List<scalar> 
7968
(
1.05256561834e-05
1.05185740391e-05
1.05195223562e-05
1.05236099127e-05
1.05017826368e-05
1.04880193706e-05
1.05025794407e-05
1.05098130423e-05
1.05132828906e-05
1.05145105177e-05
1.05145107986e-05
1.05132850707e-05
1.05098215711e-05
1.05025990134e-05
1.04880368127e-05
1.05017900336e-05
1.0523612868e-05
1.05195224491e-05
1.05185730233e-05
1.05256550558e-05
1.05185763964e-05
1.05015043583e-05
1.04976076474e-05
1.04995230378e-05
1.04899097639e-05
1.04779385279e-05
1.04805157454e-05
1.04871441669e-05
1.04909110644e-05
1.04922899087e-05
1.04922910621e-05
1.0490916353e-05
1.04871576628e-05
1.04805348847e-05
1.04778859043e-05
1.04898490247e-05
1.04995248822e-05
1.04976088179e-05
1.05015037586e-05
1.05185760543e-05
1.05195227429e-05
1.04976054983e-05
1.04904080435e-05
1.04903265043e-05
1.04848311569e-05
1.04750699561e-05
1.04745718645e-05
1.04813283412e-05
1.04861664349e-05
1.04882833383e-05
1.04882877891e-05
1.04861799947e-05
1.04813511824e-05
1.04745944664e-05
1.04750481605e-05
1.04848028282e-05
1.04903310686e-05
1.04904118591e-05
1.04976055431e-05
1.05195222679e-05
1.05236137932e-05
1.0499519623e-05
1.04903239061e-05
1.04892367787e-05
1.04846898786e-05
1.04765604723e-05
1.04752365464e-05
1.04811632654e-05
1.04864439711e-05
1.04888744464e-05
1.0488879236e-05
1.04864594396e-05
1.04811823542e-05
1.04752523497e-05
1.0476546393e-05
1.04846682989e-05
1.04892408229e-05
1.04903288699e-05
1.04995204752e-05
1.05236156222e-05
1.05017933389e-05
1.04898633857e-05
1.04848151357e-05
1.04846847423e-05
1.04822585708e-05
1.04701009381e-05
1.0464202315e-05
1.04670771965e-05
1.04697975309e-05
1.0470806519e-05
1.04708063524e-05
1.04697984229e-05
1.04670779915e-05
1.04641889136e-05
1.04700499964e-05
1.04822687503e-05
1.04846713222e-05
1.04847986852e-05
1.04898265458e-05
1.05017854196e-05
1.0488039404e-05
1.04779036006e-05
1.04750684875e-05
1.04765709901e-05
1.04701228792e-05
1.04539365647e-05
1.04466692155e-05
1.0448842225e-05
1.04509838083e-05
1.04517528301e-05
1.04517552561e-05
1.045099081e-05
1.04488509663e-05
1.0446666304e-05
1.0453892296e-05
1.04700714064e-05
1.04765618133e-05
1.04750539769e-05
1.04778674756e-05
1.04880282044e-05
1.05025995855e-05
1.04805283502e-05
1.04745912055e-05
1.04752673628e-05
1.04642413595e-05
1.04466816121e-05
1.04401763395e-05
1.04435136061e-05
1.04467310379e-05
1.04521268938e-05
1.04521437225e-05
1.04467484675e-05
1.04435408454e-05
1.04401974824e-05
1.04466666075e-05
1.04642137952e-05
1.04752753512e-05
1.0474603711e-05
1.04805318257e-05
1.05025952004e-05
1.05098199943e-05
1.04871446505e-05
1.04813342088e-05
1.04811854297e-05
1.0467106289e-05
1.04488395181e-05
1.04434952781e-05
1.04522771496e-05
1.04659699207e-05
1.0470037859e-05
1.0470045987e-05
1.04659989336e-05
1.04523524126e-05
1.04435181598e-05
1.04488316811e-05
1.04670895415e-05
1.04811960561e-05
1.04813483727e-05
1.04871471488e-05
1.05098156791e-05
1.05132831131e-05
1.0490903604e-05
1.04861604593e-05
1.04864424446e-05
1.04698157659e-05
1.04509650257e-05
1.04466967789e-05
1.0465910992e-05
1.04757420331e-05
1.04796912323e-05
1.04796962275e-05
1.04757569746e-05
1.04659378032e-05
1.04467101955e-05
1.04509563042e-05
1.04698017707e-05
1.04864513746e-05
1.04861692214e-05
1.04909041559e-05
1.05132805333e-05
1.05145077103e-05
1.04922809964e-05
1.0488274992e-05
1.04888732339e-05
1.04708235583e-05
1.04517264441e-05
1.04519378927e-05
1.04699926827e-05
1.0479676505e-05
1.04836345379e-05
1.04836372567e-05
1.04796836051e-05
1.04700014474e-05
1.045193448e-05
1.0451711993e-05
1.04708096284e-05
1.04888718529e-05
1.04882758066e-05
1.0492279401e-05
1.05145067703e-05
1.05145007673e-05
1.04922775292e-05
1.04882820248e-05
1.04888831764e-05
1.04708223339e-05
1.04517338421e-05
1.04519860312e-05
1.04700048787e-05
1.04796784402e-05
1.0483628894e-05
1.04836299071e-05
1.04796794892e-05
1.04700021178e-05
1.04519518423e-05
1.04517138817e-05
1.04708074605e-05
1.04888720914e-05
1.04882747642e-05
1.04922724234e-05
1.05144990868e-05
1.05132606575e-05
1.04908935095e-05
1.04861765952e-05
1.04864685868e-05
1.04698084277e-05
1.04509794371e-05
1.04467326546e-05
1.04659575229e-05
1.04757464262e-05
1.047967598e-05
1.04796763503e-05
1.04757458197e-05
1.04659461564e-05
1.04467253411e-05
1.04509618373e-05
1.0469795814e-05
1.04864540487e-05
1.04861662927e-05
1.04908861212e-05
1.0513258028e-05
1.05097812421e-05
1.04871301753e-05
1.04813536924e-05
1.04812023531e-05
1.04670883588e-05
1.04488489258e-05
1.04435472417e-05
1.04523554054e-05
1.04659605221e-05
1.04700181659e-05
1.04700190127e-05
1.04659640825e-05
1.04523551681e-05
1.04435457482e-05
1.04488417508e-05
1.04670850717e-05
1.04812003583e-05
1.04813478349e-05
1.04871240515e-05
1.05097792546e-05
1.05025460897e-05
1.0480516519e-05
1.04746079216e-05
1.0475280007e-05
1.04642022284e-05
1.04466728705e-05
1.04402198768e-05
1.04435542848e-05
1.04467516036e-05
1.04519880921e-05
1.04519954318e-05
1.04467564968e-05
1.04435627397e-05
1.04402308013e-05
1.0446679259e-05
1.04642096794e-05
1.04752882436e-05
1.04746125145e-05
1.04805172888e-05
1.05025480894e-05
1.048798041e-05
1.04778975912e-05
1.04750583962e-05
1.04765578982e-05
1.04700434633e-05
1.04538727062e-05
1.04466602165e-05
1.0448837512e-05
1.04509686094e-05
1.04517259279e-05
1.04517277224e-05
1.04509750239e-05
1.04488501198e-05
1.04466764113e-05
1.04538801844e-05
1.0470046007e-05
1.04765668684e-05
1.0475068358e-05
1.04779059691e-05
1.04879874177e-05
1.0501757355e-05
1.04898590059e-05
1.04847985764e-05
1.04846623538e-05
1.04822750566e-05
1.04700363044e-05
1.04641828182e-05
1.04670669697e-05
1.04697827359e-05
1.04707948691e-05
1.04707950379e-05
1.04697854709e-05
1.04670743863e-05
1.04641913401e-05
1.04700307242e-05
1.04822600901e-05
1.04846635561e-05
1.04848016228e-05
1.04898637109e-05
1.05017617766e-05
1.05236073626e-05
1.049951714e-05
1.04903263021e-05
1.04892377656e-05
1.04846711948e-05
1.04765611431e-05
1.04752665329e-05
1.04811865704e-05
1.0486446987e-05
1.04888637533e-05
1.04888627424e-05
1.04864465481e-05
1.04811900036e-05
1.0475272682e-05
1.04765544905e-05
1.04846588827e-05
1.04892341721e-05
1.0490324975e-05
1.0499516246e-05
1.05236077964e-05
1.05195186816e-05
1.04976028532e-05
1.04904075181e-05
1.04903253673e-05
1.04848122315e-05
1.04750672192e-05
1.04746000738e-05
1.04813461825e-05
1.04861671447e-05
1.0488271533e-05
1.04882706439e-05
1.04861669876e-05
1.04813513785e-05
1.04746099841e-05
1.04750592664e-05
1.04847980109e-05
1.0490324099e-05
1.04904079902e-05
1.04976030098e-05
1.05195194733e-05
1.05185740845e-05
1.05014999967e-05
1.04976009733e-05
1.04995132717e-05
1.04898796309e-05
1.04779243192e-05
1.04805315689e-05
1.04871482798e-05
1.0490905109e-05
1.04922755615e-05
1.04922753322e-05
1.04909068552e-05
1.0487156919e-05
1.04805474324e-05
1.04779065635e-05
1.04898546551e-05
1.0499515962e-05
1.04976038439e-05
1.05015020678e-05
1.05185762216e-05
1.05256529463e-05
1.05185694441e-05
1.05195142284e-05
1.05235997044e-05
1.05017949883e-05
1.04880445703e-05
1.05025904725e-05
1.05098164966e-05
1.05132831534e-05
1.05145055457e-05
1.05145063925e-05
1.05132870588e-05
1.05098290761e-05
1.05026161001e-05
1.04880776834e-05
1.05018140933e-05
1.05236031798e-05
1.05195166481e-05
1.05185709101e-05
1.05256545086e-05
1.05240613733e-05
1.05120283523e-05
1.05072056617e-05
1.05063683924e-05
1.05011627902e-05
1.04938339209e-05
1.04932092766e-05
1.04974095825e-05
1.0500941413e-05
1.05024918402e-05
1.0502493048e-05
1.05009459023e-05
1.04974179177e-05
1.04932159518e-05
1.04938247677e-05
1.05011453101e-05
1.05063583387e-05
1.05071993589e-05
1.05120220255e-05
1.05240563113e-05
1.05120311862e-05
1.04571266266e-05
1.04221421538e-05
1.04066706573e-05
1.03981338621e-05
1.03935461034e-05
1.03952579024e-05
1.04010548595e-05
1.04062988754e-05
1.04090777191e-05
1.04090815716e-05
1.04063096031e-05
1.04010706004e-05
1.03952713514e-05
1.03935438385e-05
1.03981198574e-05
1.040665919e-05
1.04221339613e-05
1.04571189612e-05
1.0512026127e-05
1.05072117635e-05
1.04221467349e-05
1.03643778835e-05
1.0335272701e-05
1.032217735e-05
1.03185730882e-05
1.03213287172e-05
1.03274321211e-05
1.03334222679e-05
1.03369605323e-05
1.03369683135e-05
1.03334433334e-05
1.0327461437e-05
1.03213593809e-05
1.03185942945e-05
1.03221837581e-05
1.03352701528e-05
1.03643715628e-05
1.04221385644e-05
1.05072072069e-05
1.05063708089e-05
1.04066785183e-05
1.03352832591e-05
1.02958665271e-05
1.02800642087e-05
1.02762252885e-05
1.02768362188e-05
1.02809814671e-05
1.02868738844e-05
1.0290771222e-05
1.02907826911e-05
1.02869027863e-05
1.02810111204e-05
1.02768674972e-05
1.02762565243e-05
1.02801024011e-05
1.02958720475e-05
1.03352796621e-05
1.04066694014e-05
1.05063646449e-05
1.05011547134e-05
1.03981470758e-05
1.03221938432e-05
1.02800651211e-05
1.02625069135e-05
1.02504798762e-05
1.02489363034e-05
1.0253109315e-05
1.02585831305e-05
1.02621932737e-05
1.02622060855e-05
1.02586165178e-05
1.02531527226e-05
1.02489780998e-05
1.02505027559e-05
1.02625677075e-05
1.02800954614e-05
1.03221965082e-05
1.03981365748e-05
1.05011440623e-05
1.04938339058e-05
1.03935655431e-05
1.03185836476e-05
1.02762212813e-05
1.02504721311e-05
1.02394474871e-05
1.02399232367e-05
1.02453984549e-05
1.02516812763e-05
1.02554831201e-05
1.02554973937e-05
1.02517201446e-05
1.02454518132e-05
1.0239976943e-05
1.02394890724e-05
1.02504901178e-05
1.02762458888e-05
1.03185990024e-05
1.03935615634e-05
1.04938259731e-05
1.04932304086e-05
1.03952808313e-05
1.032133029e-05
1.02768249349e-05
1.02489019296e-05
1.02398913398e-05
1.02415054666e-05
1.02478524904e-05
1.02545075964e-05
1.02631031105e-05
1.02631287889e-05
1.02545443949e-05
1.02479033159e-05
1.02415600918e-05
1.02399379395e-05
1.02489328087e-05
1.02768459819e-05
1.03213524085e-05
1.03952861144e-05
1.0493229135e-05
1.0497429442e-05
1.04010710189e-05
1.03274236491e-05
1.02809577793e-05
1.02530491578e-05
1.02453296495e-05
1.0247812911e-05
1.02592013823e-05
1.02771128781e-05
1.0284710251e-05
1.02847262438e-05
1.02771609883e-05
1.02592975604e-05
1.02478553349e-05
1.02453667815e-05
1.02530733753e-05
1.02809722586e-05
1.03274428971e-05
1.04010786608e-05
1.04974309075e-05
1.05009483993e-05
1.04063046976e-05
1.03334017806e-05
1.02868131826e-05
1.02585013755e-05
1.0251589454e-05
1.02544447459e-05
1.02770432511e-05
1.02920847548e-05
1.02992746998e-05
1.02992853573e-05
1.02921137348e-05
1.02770845702e-05
1.02544664049e-05
1.0251602364e-05
1.02585056318e-05
1.02868179561e-05
1.03334096909e-05
1.04063078145e-05
1.05009499251e-05
1.05024923328e-05
1.0409080148e-05
1.03369399938e-05
1.02907097331e-05
1.02621118556e-05
1.02553974347e-05
1.02628699612e-05
1.02846312197e-05
1.02992535358e-05
1.03066007997e-05
1.03066061595e-05
1.02992655073e-05
1.02846391824e-05
1.02628581362e-05
1.02553784379e-05
1.0262085486e-05
1.02906865968e-05
1.03369283488e-05
1.04090742916e-05
1.05024913075e-05
1.05024926993e-05
1.04090860117e-05
1.03369572925e-05
1.0290741596e-05
1.02621472965e-05
1.02554327944e-05
1.02629334241e-05
1.02846505711e-05
1.02992499211e-05
1.03065840718e-05
1.03065840597e-05
1.02992466062e-05
1.02846312993e-05
1.02628718115e-05
1.02553838943e-05
1.02620910422e-05
1.02906894229e-05
1.03369256388e-05
1.04090691301e-05
1.05024887904e-05
1.05009458993e-05
1.04063153985e-05
1.03334442554e-05
1.02868879485e-05
1.02585899604e-05
1.02516812967e-05
1.02545105911e-05
1.027709453e-05
1.02920704471e-05
1.02992224633e-05
1.02992193418e-05
1.02920578567e-05
1.02770595961e-05
1.02544655989e-05
1.02516159618e-05
1.02585202907e-05
1.02868234871e-05
1.03334020507e-05
1.04062928903e-05
1.05009417311e-05
1.04974158088e-05
1.04010769362e-05
1.03274719544e-05
1.02810229105e-05
1.02531557992e-05
1.02454481119e-05
1.02478970928e-05
1.02592743698e-05
1.02770658845e-05
1.0284608635e-05
1.02846052077e-05
1.02770534917e-05
1.02592443341e-05
1.02478494143e-05
1.02453839391e-05
1.02530914968e-05
1.02809728824e-05
1.03274311674e-05
1.04010554632e-05
1.04974145618e-05
1.04932056044e-05
1.03952753687e-05
1.03213752986e-05
1.02768881737e-05
1.02490008748e-05
1.02400030748e-05
1.02415851351e-05
1.02478776273e-05
1.02544810464e-05
1.02628759656e-05
1.02628770957e-05
1.0254465634e-05
1.02478505193e-05
1.02415442581e-05
1.02399531586e-05
1.02489516207e-05
1.02768472648e-05
1.03213415862e-05
1.03952586103e-05
1.04932067912e-05
1.0493805935e-05
1.03935439695e-05
1.03186093993e-05
1.02762786688e-05
1.02505266321e-05
1.02395266964e-05
1.02399803973e-05
1.024540737e-05
1.02516354748e-05
1.02553995532e-05
1.0255394117e-05
1.02516206072e-05
1.02453844605e-05
1.02399515967e-05
1.02394962502e-05
1.02504968096e-05
1.02762502437e-05
1.03185881316e-05
1.03935335038e-05
1.04938069011e-05
1.0501137196e-05
1.03981148417e-05
1.03221924853e-05
1.02801243189e-05
1.02626055826e-05
1.02505082723e-05
1.02489599298e-05
1.02531010726e-05
1.02585305472e-05
1.02621001702e-05
1.02620941788e-05
1.02585148727e-05
1.02530799113e-05
1.02489368374e-05
1.02504855605e-05
1.02625806219e-05
1.02801138688e-05
1.03221802546e-05
1.03981074169e-05
1.05011393799e-05
1.05063651686e-05
1.04066516644e-05
1.03352715898e-05
1.02958835438e-05
1.02801156616e-05
1.02762535514e-05
1.02768407861e-05
1.0280956638e-05
1.02868050415e-05
1.02906642319e-05
1.02906568517e-05
1.02867860696e-05
1.02809319101e-05
1.02768151695e-05
1.02762314477e-05
1.02801040012e-05
1.02958711407e-05
1.03352589339e-05
1.04066429755e-05
1.0506367404e-05
1.05072065144e-05
1.0422123851e-05
1.03643651529e-05
1.03352718148e-05
1.03221865314e-05
1.03185843501e-05
1.032132774e-05
1.03274052686e-05
1.03333631857e-05
1.03368726591e-05
1.03368649683e-05
1.03333439049e-05
1.03273806006e-05
1.0321301906e-05
1.03185596397e-05
1.03221635488e-05
1.03352521384e-05
1.03643502291e-05
1.04221140532e-05
1.05072068752e-05
1.05120322231e-05
1.04571080714e-05
1.04221273574e-05
1.04066566079e-05
1.03981229583e-05
1.0393542152e-05
1.03952549032e-05
1.04010395008e-05
1.04062642566e-05
1.04090268836e-05
1.04090217924e-05
1.04062519639e-05
1.04010240827e-05
1.03952376702e-05
1.0393521113e-05
1.0398102095e-05
1.04066406557e-05
1.04221148351e-05
1.0457100085e-05
1.05120319011e-05
1.05240751618e-05
1.05120346935e-05
1.05071983555e-05
1.05063536181e-05
1.0501148089e-05
1.04938303787e-05
1.04932183733e-05
1.04974188576e-05
1.05009429327e-05
1.05024869649e-05
1.05024864821e-05
1.05009429718e-05
1.04974213638e-05
1.04932209494e-05
1.049382486e-05
1.05011409838e-05
1.05063513248e-05
1.0507195282e-05
1.05120321908e-05
1.052407376e-05
1.05179370457e-05
1.05012072435e-05
1.04942979808e-05
1.04922687633e-05
1.04909452317e-05
1.04899092489e-05
1.049103406e-05
1.04934479775e-05
1.04945579574e-05
1.04940724563e-05
1.04940728271e-05
1.04945613727e-05
1.04934544958e-05
1.0491039483e-05
1.04899076094e-05
1.04909285639e-05
1.04922406738e-05
1.04942718495e-05
1.0501185947e-05
1.05179296422e-05
1.05012177579e-05
1.04222583131e-05
1.03766812394e-05
1.03578829848e-05
1.03525662129e-05
1.03536724951e-05
1.03579048109e-05
1.03634463179e-05
1.03676536968e-05
1.03693930301e-05
1.03693974686e-05
1.03676654941e-05
1.036346294e-05
1.03579195523e-05
1.035367783e-05
1.03525572454e-05
1.03578622293e-05
1.0376656327e-05
1.04222225628e-05
1.05011957573e-05
1.04943179063e-05
1.03767076101e-05
1.02978385798e-05
1.02568513639e-05
1.02389070271e-05
1.02360759516e-05
1.02405754125e-05
1.02479681194e-05
1.02553721028e-05
1.02600157945e-05
1.02600271531e-05
1.02554019861e-05
1.0248010689e-05
1.02406249848e-05
1.02361265195e-05
1.02389391668e-05
1.02568615184e-05
1.02978343996e-05
1.03766740697e-05
1.04942852466e-05
1.0492297615e-05
1.03579315487e-05
1.02568697257e-05
1.01901343857e-05
1.01736431733e-05
1.01647820768e-05
1.01629492121e-05
1.01670819025e-05
1.01732034489e-05
1.01775630539e-05
1.01775751442e-05
1.01732345628e-05
1.01671212468e-05
1.01629880579e-05
1.01648221192e-05
1.01737171666e-05
1.01901698544e-05
1.02568697203e-05
1.03579007031e-05
1.04922657137e-05
1.04909778386e-05
1.03526235784e-05
1.02389333933e-05
1.01736423185e-05
1.01363359123e-05
1.01159008048e-05
1.01125002714e-05
1.01169632006e-05
1.01233161894e-05
1.01277573709e-05
1.01277745139e-05
1.01233607779e-05
1.01170224352e-05
1.01125611262e-05
1.0115948683e-05
1.01363633055e-05
1.01737040068e-05
1.02389409301e-05
1.03526047419e-05
1.04909577273e-05
1.04899334199e-05
1.03537188908e-05
1.0236084876e-05
1.01647815274e-05
1.01158900676e-05
1.00958726796e-05
1.00939958417e-05
1.00998960934e-05
1.01070757663e-05
1.01118195541e-05
1.01118395116e-05
1.0107128881e-05
1.00999670226e-05
1.00940683951e-05
1.00959360753e-05
1.01159322463e-05
1.0164814198e-05
1.02361119627e-05
1.03537150216e-05
1.0489926162e-05
1.04910477291e-05
1.03579292796e-05
1.02405587883e-05
1.01629331932e-05
1.01124572848e-05
1.00939571249e-05
1.00943953909e-05
1.01023202256e-05
1.01106598886e-05
1.01162242693e-05
1.01162447678e-05
1.01107120987e-05
1.01023895015e-05
1.00944641501e-05
1.00940181121e-05
1.01125052375e-05
1.01629609554e-05
1.02405962882e-05
1.03579387667e-05
1.0491049808e-05
1.04934476706e-05
1.03634463806e-05
1.02479316225e-05
1.01670418354e-05
1.01168827331e-05
1.00998067628e-05
1.01022656942e-05
1.01122984767e-05
1.01231144285e-05
1.01296622827e-05
1.0129679638e-05
1.0123160245e-05
1.01123563828e-05
1.01023143912e-05
1.00998467008e-05
1.01169160508e-05
1.01670628917e-05
1.02479640266e-05
1.03634627267e-05
1.04934564687e-05
1.04945403882e-05
1.0367636138e-05
1.02553237735e-05
1.01731408667e-05
1.01232110832e-05
1.01069539867e-05
1.0110569841e-05
1.01230704865e-05
1.01353239296e-05
1.01426106207e-05
1.01426230218e-05
1.01353554099e-05
1.01231028447e-05
1.01105860487e-05
1.01069588443e-05
1.01232146719e-05
1.01731445424e-05
1.02553381067e-05
1.03676487865e-05
1.04945499487e-05
1.04940527735e-05
1.03693732014e-05
1.02599705719e-05
1.01775000699e-05
1.01276505795e-05
1.01116960203e-05
1.01161081028e-05
1.01295967909e-05
1.01425858683e-05
1.01503094535e-05
1.01503155489e-05
1.01425988217e-05
1.01295993624e-05
1.01160860772e-05
1.01116580076e-05
1.01276152442e-05
1.01774743529e-05
1.02599585979e-05
1.036937015e-05
1.04940542041e-05
1.04940637152e-05
1.03693877021e-05
1.02599962131e-05
1.01775304443e-05
1.01276948437e-05
1.01117412212e-05
1.01161451826e-05
1.01296135318e-05
1.01425824546e-05
1.01502908655e-05
1.01502900766e-05
1.01425763571e-05
1.01295863702e-05
1.01160842911e-05
1.01116619243e-05
1.0127619959e-05
1.0177474932e-05
1.02599560311e-05
1.03693667876e-05
1.04940552861e-05
1.04945610335e-05
1.03676662136e-05
1.02553879225e-05
1.01732181939e-05
1.01233208542e-05
1.0107071536e-05
1.01106551931e-05
1.01231094758e-05
1.01353096995e-05
1.01425553248e-05
1.01425497218e-05
1.01352904208e-05
1.01230636658e-05
1.01105755223e-05
1.01069687129e-05
1.01232261137e-05
1.01731455933e-05
1.02553321301e-05
1.03676366242e-05
1.04945497952e-05
1.04934599703e-05
1.03634729107e-05
1.02480114311e-05
1.01671304919e-05
1.01170243268e-05
1.00999576742e-05
1.01023734164e-05
1.01123362047e-05
1.01230759976e-05
1.01295625486e-05
1.01295544666e-05
1.01230501532e-05
1.01122818324e-05
1.01022863053e-05
1.00998537063e-05
1.01169307413e-05
1.01670618576e-05
1.02479558889e-05
1.03634431941e-05
1.04934516088e-05
1.04910414312e-05
1.03579352328e-05
1.02406337449e-05
1.01630131885e-05
1.01125916611e-05
1.00941052367e-05
1.00944941099e-05
1.0102336327e-05
1.01105937225e-05
1.01160785862e-05
1.0116069526e-05
1.01105652075e-05
1.01022825417e-05
1.00944163302e-05
1.009402119e-05
1.01125196027e-05
1.01629583255e-05
1.0240589394e-05
1.03579126784e-05
1.04910374166e-05
1.04899008278e-05
1.03536942233e-05
1.02361361627e-05
1.01648518385e-05
1.01159852279e-05
1.00959863675e-05
1.00940719564e-05
1.00998903235e-05
1.01069875953e-05
1.0111668609e-05
1.01116583169e-05
1.01069586635e-05
1.00998434748e-05
1.00940140804e-05
1.00959323427e-05
1.01159387411e-05
1.01648102323e-05
1.02361072893e-05
1.03536851517e-05
1.04899063429e-05
1.0490930229e-05
1.03525766984e-05
1.02389475404e-05
1.01737449971e-05
1.01363849234e-05
1.01159588073e-05
1.01125345279e-05
1.01169431024e-05
1.01232293044e-05
1.01276136554e-05
1.01276032121e-05
1.01232006202e-05
1.01169018159e-05
1.011249e-05
1.01159182426e-05
1.01363457994e-05
1.01737187067e-05
1.02389292578e-05
1.03525778365e-05
1.04909467837e-05
1.04922618974e-05
1.03578896597e-05
1.02568745088e-05
1.01902205377e-05
1.0173734584e-05
1.01648134527e-05
1.01629413991e-05
1.0167030372e-05
1.01731011158e-05
1.01774151313e-05
1.01774038586e-05
1.0173070988e-05
1.01669884728e-05
1.01628954485e-05
1.01647716182e-05
1.01737078694e-05
1.01902317347e-05
1.02568558778e-05
1.0357890644e-05
1.04922779169e-05
1.04943289799e-05
1.03767058046e-05
1.02978475279e-05
1.02568717842e-05
1.02389404855e-05
1.02361054253e-05
1.02405660717e-05
1.02479094781e-05
1.02552634333e-05
1.02598664279e-05
1.02598552537e-05
1.02552339302e-05
1.02478698242e-05
1.02405255155e-05
1.02360691139e-05
1.02389064719e-05
1.02568427236e-05
1.02978289079e-05
1.03767005515e-05
1.04943346654e-05
1.05012840639e-05
1.04223044827e-05
1.03766843353e-05
1.03578683434e-05
1.03525521723e-05
1.03536596015e-05
1.03578811747e-05
1.03633967883e-05
1.03675740196e-05
1.0369287166e-05
1.0369278146e-05
1.03675523615e-05
1.03633691517e-05
1.03578525714e-05
1.03536350448e-05
1.03525339896e-05
1.03578554335e-05
1.03766747646e-05
1.04222968595e-05
1.05012826741e-05
1.05180167627e-05
1.05012700142e-05
1.04942974647e-05
1.049223418e-05
1.04909184923e-05
1.04899000573e-05
1.04910338673e-05
1.04934418942e-05
1.04945411832e-05
1.0494046086e-05
1.04940431707e-05
1.04945361838e-05
1.04934381578e-05
1.04910313924e-05
1.04899019139e-05
1.04909266079e-05
1.04922436351e-05
1.04943012623e-05
1.05012655862e-05
1.0518012459e-05
1.04866366853e-05
1.0467644742e-05
1.04694287517e-05
1.04662758517e-05
1.04632483694e-05
1.0462073604e-05
1.04616358388e-05
1.04608669831e-05
1.04599386398e-05
1.04590956745e-05
1.04590916753e-05
1.04599343538e-05
1.04608720357e-05
1.04616486108e-05
1.04620911594e-05
1.04632642007e-05
1.04662852029e-05
1.04694310005e-05
1.04675909909e-05
1.04865901548e-05
1.04675756192e-05
1.0367628713e-05
1.03289667993e-05
1.03111214929e-05
1.03057390529e-05
1.03074173491e-05
1.03127128307e-05
1.0318997871e-05
1.03240891198e-05
1.03267604508e-05
1.03267670042e-05
1.03241070043e-05
1.03190271365e-05
1.03127483477e-05
1.03074563803e-05
1.03057722168e-05
1.03111455605e-05
1.03289822951e-05
1.03676349385e-05
1.0467583615e-05
1.0469412767e-05
1.03289725649e-05
1.02537580944e-05
1.02109664384e-05
1.01890981321e-05
1.01824752796e-05
1.01941280215e-05
1.02079763446e-05
1.02193662334e-05
1.02248157402e-05
1.02248300195e-05
1.02194054864e-05
1.02080543133e-05
1.01942226323e-05
1.0182569245e-05
1.01891131897e-05
1.02109833941e-05
1.02537717956e-05
1.03289754545e-05
1.04694104271e-05
1.04662621203e-05
1.03111324272e-05
1.0210983489e-05
1.01231494738e-05
1.01127289716e-05
1.01000228871e-05
1.00994317833e-05
1.0105389779e-05
1.0112371483e-05
1.01170052583e-05
1.01170205798e-05
1.01124115149e-05
1.01054425279e-05
1.00994868702e-05
1.01000764188e-05
1.01127862291e-05
1.0123224151e-05
1.02109879165e-05
1.03111415355e-05
1.04662653535e-05
1.04632386062e-05
1.03057510464e-05
1.01891633135e-05
1.0112738756e-05
1.00607073826e-05
1.00365809409e-05
1.00324262839e-05
1.00368595653e-05
1.00428882999e-05
1.00470182304e-05
1.00470373967e-05
1.00429399456e-05
1.00369219938e-05
1.00324819876e-05
1.0036628611e-05
1.00607496432e-05
1.0112784258e-05
1.01891071761e-05
1.03057686917e-05
1.04632485197e-05
1.04620580234e-05
1.03074184746e-05
1.01825898764e-05
1.01000194249e-05
1.00365724783e-05
1.00091781015e-05
1.00038413735e-05
1.0007894557e-05
1.0013769065e-05
1.00178175925e-05
1.0017840532e-05
1.00138308619e-05
1.00079662009e-05
1.0003894248e-05
1.00092118217e-05
1.00366068268e-05
1.01000616705e-05
1.01824908733e-05
1.03074446098e-05
1.04620715857e-05
1.04616075734e-05
1.03126905617e-05
1.01940657066e-05
1.009940288e-05
1.00323952152e-05
1.00038146527e-05
9.99819667562e-06
1.00027701436e-05
1.00094526944e-05
1.00139420044e-05
1.0013964776e-05
1.0009515283e-05
1.00028424451e-05
9.99824000198e-06
1.00038329023e-05
1.00324147192e-05
1.00994402589e-05
1.01941488716e-05
1.03127220383e-05
1.04616220454e-05
1.04608336305e-05
1.03189530584e-05
1.020787622e-05
1.01053310627e-05
1.00367933168e-05
1.00078205171e-05
1.00027181064e-05
1.00085357782e-05
1.00165494403e-05
1.00219903829e-05
1.00220099255e-05
1.00165999502e-05
1.00085823906e-05
1.00027340798e-05
1.00078081717e-05
1.00367877278e-05
1.01053550454e-05
1.02079484881e-05
1.03189841304e-05
1.04608441075e-05
1.04599060101e-05
1.03240308892e-05
1.02192784921e-05
1.01122883878e-05
1.00427888881e-05
1.00136593809e-05
1.00093681999e-05
1.0016510315e-05
1.00264787983e-05
1.00330798869e-05
1.00330955099e-05
1.00265155515e-05
1.00165290575e-05
1.00093444251e-05
1.00136107596e-05
1.00427565252e-05
1.01122915255e-05
1.0219314042e-05
1.03240520941e-05
1.0459910667e-05
1.04590665331e-05
1.03267067303e-05
1.02247255689e-05
1.01169137311e-05
1.00469058603e-05
1.0017694144e-05
1.0013838825e-05
1.00219242759e-05
1.00330510928e-05
1.00403134983e-05
1.0040322939e-05
1.00330703115e-05
1.00219175613e-05
1.00137806983e-05
1.00176089724e-05
1.00468398948e-05
1.0116889922e-05
1.02247335033e-05
1.03267127205e-05
1.04590681654e-05
1.04590752331e-05
1.03267277399e-05
1.02247557166e-05
1.01169465559e-05
1.00469453556e-05
1.00177360537e-05
1.00138697886e-05
1.00219390037e-05
1.003305039e-05
1.00402979853e-05
1.00403010936e-05
1.00330515543e-05
1.00219069273e-05
1.00137788723e-05
1.00176138421e-05
1.00468436574e-05
1.01168907412e-05
1.02247344351e-05
1.03267171443e-05
1.04590759191e-05
1.04599330983e-05
1.03240877569e-05
1.0219356451e-05
1.01123696811e-05
1.00428918204e-05
1.00137647525e-05
1.0009449818e-05
1.00165473515e-05
1.00264704629e-05
1.00330345402e-05
1.00330330391e-05
1.00264596353e-05
1.00164977848e-05
1.00093393816e-05
1.00136227733e-05
1.00427684942e-05
1.01122957546e-05
1.02193150872e-05
1.03240663094e-05
1.04599313497e-05
1.04608768168e-05
1.03190295471e-05
1.02080250649e-05
1.01054342399e-05
1.00369197703e-05
1.00079528527e-05
1.00028160627e-05
1.00085642857e-05
1.00165094407e-05
1.00218948188e-05
1.00218890407e-05
1.00164896205e-05
1.0008497681e-05
1.00026927831e-05
1.00078075039e-05
1.0036797629e-05
1.01053602438e-05
1.02079622615e-05
1.03190044446e-05
1.04608707797e-05
1.04616592668e-05
1.0312771091e-05
1.01942220429e-05
1.00994992225e-05
1.003252018e-05
1.00039392542e-05
9.99827297182e-06
1.0002761484e-05
1.00093590559e-05
1.00137819493e-05
1.00137733853e-05
1.00093327779e-05
1.00026918923e-05
9.9981587099e-06
1.00038126736e-05
1.00324199525e-05
1.00994459166e-05
1.01941729227e-05
1.03127489346e-05
1.04616515637e-05
1.046210439e-05
1.0307489963e-05
1.01824915553e-05
1.01001019718e-05
1.00366662692e-05
1.0009274524e-05
1.00038946675e-05
1.00078521028e-05
1.00136374896e-05
1.00176187237e-05
1.00176081243e-05
1.00136071504e-05
1.00077910357e-05
1.00038029177e-05
1.00091881348e-05
1.00366052343e-05
1.01000665672e-05
1.01824326975e-05
1.03074771529e-05
1.04621019974e-05
1.04632739877e-05
1.03058125613e-05
1.01891118645e-05
1.01128097607e-05
1.00607715467e-05
1.00366354033e-05
1.0032447899e-05
1.00368133796e-05
1.00427658208e-05
1.00468323101e-05
1.00468206172e-05
1.00427325834e-05
1.00367586616e-05
1.00323825497e-05
1.0036578558e-05
1.00607294457e-05
1.01127662826e-05
1.01890714361e-05
1.03058063385e-05
1.04632783647e-05
1.04662958031e-05
1.03111891566e-05
1.0211014775e-05
1.01232884128e-05
1.01127951625e-05
1.01000545062e-05
1.00994120055e-05
1.01053240314e-05
1.01122461471e-05
1.0116817169e-05
1.0116803712e-05
1.01122112871e-05
1.01052751711e-05
1.00993589355e-05
1.01000065288e-05
1.01127431662e-05
1.01232997392e-05
1.02109879138e-05
1.03111854093e-05
1.04663024171e-05
1.04694752673e-05
1.03290229278e-05
1.02538100686e-05
1.02110061173e-05
1.01891139084e-05
1.018254541e-05
1.01941238437e-05
1.02078954945e-05
1.02192216284e-05
1.02246197013e-05
1.02246075545e-05
1.02191890492e-05
1.02078500623e-05
1.01940816198e-05
1.01824480531e-05
1.0189041809e-05
1.02109670709e-05
1.0253789786e-05
1.03290225621e-05
1.0469481264e-05
1.0467998583e-05
1.03676757179e-05
1.03290127115e-05
1.03111730307e-05
1.03057893739e-05
1.03074573209e-05
1.0312724648e-05
1.03189720287e-05
1.03240267999e-05
1.03266739221e-05
1.03266672263e-05
1.03240080053e-05
1.03189464692e-05
1.0312699474e-05
1.03074349528e-05
1.03057708507e-05
1.0311158184e-05
1.03290056647e-05
1.03676831327e-05
1.04679698867e-05
1.04874936017e-05
1.0468118564e-05
1.04694566826e-05
1.04662802462e-05
1.04632683796e-05
1.04621080881e-05
1.04616712589e-05
1.04608982699e-05
1.04599666998e-05
1.04591215263e-05
1.04591219548e-05
1.04599676533e-05
1.04608985418e-05
1.04616732233e-05
1.0462114905e-05
1.0463279618e-05
1.04662924134e-05
1.04694643515e-05
1.04680726207e-05
1.0487409785e-05
1.04560964642e-05
1.04481376481e-05
1.04547301906e-05
1.04516950195e-05
1.04478861979e-05
1.04445380697e-05
1.04405575214e-05
1.04364390107e-05
1.04329771986e-05
1.0431852988e-05
1.04318383263e-05
1.04329583527e-05
1.04364393074e-05
1.0440568424e-05
1.04445530012e-05
1.04479049896e-05
1.04517169189e-05
1.04547498592e-05
1.04481687135e-05
1.04561068965e-05
1.04481480787e-05
1.0333367017e-05
1.02955791637e-05
1.02787938902e-05
1.02755461744e-05
1.0279646235e-05
1.02873060789e-05
1.02949281257e-05
1.03001984936e-05
1.03026658236e-05