/*--------------------------------*- C++ -*----------------------------------*\
| =========                 |                                                 |
| \\      /  F ield         | OpenFOAM: The Open Source CFD Toolbox           |
|  \\    /   O peration     | Version:  3.0.1                                 |
|   \\  /    A nd           | Web:      www.OpenFOAM.org                      |
|    \\/     M anipulation  |                                                 |
\*---------------------------------------------------------------------------*/
FoamFile
{
    version     2.0;
    format      ascii;
    class       volScalarField;
    location    "4.3";
    object      epsilon_0;
}
// * * * * * * * * * * * * * * * * * * * * * * * * * * * * * * * * * * * * * //

dimensions      [0 2 -3 0 0 0 0];

internalField   nonuniform List<scalar> 
15984
(
0.000378851617032
0.000465672437346
0.000508679139356
0.000519527057011
0.000518713667472
0.000520492588299
0.000527168971975
0.000533472423388
0.000534136791453
0.000528009805782
0.000521814025269
0.000514191565764
0.000506990376137
0.000501448258858
0.000497563239678
0.000494993139361
0.000493332773902
0.000492294356556
0.000491645745008
0.000491241870172
0.000491001745788
0.000490857263573
0.000490770882918
0.00049071429833
0.000490675458181
0.000490649680971
0.000490630370522
0.000490607928819
0.000490609927924
0.000490619048407
0.000490626871032
0.000490625926548
0.000490572343974
0.000490425073332
0.000489952937935
0.000488373277143
0.000483378761486
0.000469139632027
0.000433259715377
0.000360781772437
0.000599878528891
0.000972871236588
0.00114049042295
0.00117694158664
0.00117696088981
0.00118525252783
0.00122136404756
0.00128009358552
0.00132912579292
0.00134182621542
0.00132030391562
0.00129288898203
0.00126878166535
0.00125098849984
0.00123931599665
0.00123203096895
0.00122752237032
0.00122474168217
0.00122301718611
0.0012219390146
0.00122128739141
0.00122090164262
0.00122065818022
0.00122051702802
0.00122044011017
0.00122042972724
0.00122044420384
0.00122044547763
0.00122048938579
0.00122056495715
0.0012206760602
0.00122066604646
0.00122021674404
0.00121889876538
0.00121475653305
0.00120210200659
0.00116716521333
0.00108138327682
0.000893575016992
0.00054135905644
0.000713025857923
0.00134768445683
0.00162500412155
0.00168854806388
0.00169380308178
0.00171293945389
0.00178034477782
0.00189373621067
0.00199674822981
0.00203628145656
0.00201541887777
0.00197004258568
0.00193007574186
0.00190110417342
0.00188236140979
0.00187097197403
0.00186414519564
0.00186003791263
0.00185752129369
0.00185596860178
0.00185501261476
0.00185442235964
0.00185402462812
0.00185379095515
0.00185368470501
0.00185368902686
0.00185374280052
0.00185377494952
0.00185386613095
0.00185405457888
0.00185430249305
0.00185420005177
0.00185317762992
0.00185005668266
0.00184071047837
0.00181408247282
0.00174521442776
0.00158600432038
0.00125327391702
0.0006294248803
0.000774917407235
0.00157245078074
0.00190971555919
0.00197979018241
0.00198472247643
0.0020158863286
0.00211856708961
0.00229696672765
0.00247158790841
0.00255607043954
0.00254573397248
0.00249443085244
0.00244108437205
0.0024021896824
0.00237712257959
0.00236200653616
0.00235315673389
0.00234796562749
0.00234485634025
0.00234295524886
0.00234178132707
0.00234103366922
0.00234050543094
0.00234017457277
0.00234004253101
0.00234006483768
0.00234016115497
0.00234022753043
0.00234039228821
0.00234075052371
0.00234104707617
0.00234079532603
0.00233910766271
0.0023339301188
0.00231890320815
0.00227796921433
0.00217708159848
0.00195354259171
0.00150273187773
0.000675912752627
0.000810120030845
0.00168502030742
0.00203607370424
0.00213827360135
0.00216802139522
0.00221587592566
0.00233840978164
0.00253560443213
0.0027919223184
0.00293884082895
0.00294939161146
0.00289569994933
0.00283301524284
0.00278499529998
0.00275401542491
0.002735410655
0.00272469395888
0.002718571715
0.00271499474439
0.00271283355438
0.00271149423432
0.00271063506617
0.00271001918995
0.00270961677987
0.0027094643895
0.00270950655996
0.00270965285693
0.00270976937533
0.00271004539367
0.00271048428563
0.00271079669951
0.00271035820706
0.00270795410412
0.00270066532497
0.00267999546771
0.00262554874954
0.00249599283955
0.00221824189296
0.00167434387483
0.000702080229149
0.000829130320387
0.00172149473456
0.00209386533198
0.00223336824603
0.00226908417426
0.00232947322084
0.00248197687867
0.00272243390227
0.00299655005729
0.00321414896723
0.00325190679424
0.00319945226226
0.0031292694244
0.00307312511815
0.0030365570221
0.00301483636522
0.003002421346
0.00299550285078
0.00299157112628
0.00298922562624
0.00298776190872
0.00298681668697
0.00298614760952
0.00298571616235
0.0029855543366
0.00298561572653
0.00298581411098
0.00298598497356
0.00298633430344
0.00298682990622
0.0029871370036
0.0029864968057
0.00298338285731
0.00297407135976
0.00294818811753
0.00288174838772
0.00272776050376
0.0024060049455
0.0017909371308
0.000717294584189
0.000837945186435
0.00171452043069
0.00211908456156
0.00226340831531
0.00229580209685
0.00236632995451
0.00255076731212
0.00283627544114
0.00313383531221
0.00340566497685
0.00347159549025
0.00342260555298
0.0033467026341
0.00328368276152
0.0032422277067
0.00321775731985
0.00320393729033
0.00319636441114
0.00319215771147
0.00318970286528
0.00318815093061
0.00318714179595
0.00318644341092
0.00318601368376
0.00318585240105
0.00318593033452
0.00318616761567
0.00318638367238
0.00318678342365
0.0031873205547
0.00318761089909
0.00318677594613
0.00318301673748
0.00317191374977
0.00314154863157
0.00306510689623
0.00289142660935
0.00253555369986
0.00186814220414
0.0007261477632
0.000841399259988
0.00169205676714
0.00211495202794
0.00225505175987
0.00227893537467
0.00235741712234
0.00257230260816
0.00289926114096
0.00323735484666
0.00353295455671
0.0036229804641
0.00357805095055
0.00349798078251
0.00342977373212
0.00338444724139
0.00335772351508
0.0033428769769
0.00333479343594
0.00333040000407
0.00332787276662
0.00332626540542
0.00332520659064
0.00332450302424
0.00332408844443
0.00332393107468
0.00332402126907
0.00332428263101
0.00332452988272
0.0033249664351
0.00332553276154
0.00332580146441
0.00332479979143
0.00332050886309
0.00330796381556
0.00327406979951
0.0031899315081
0.00300149848596
0.00262083719981
0.00191705488448
0.000731164594697
0.000842860867273
0.00167274210897
0.0021014875946
0.00223567169113
0.00224931263156
0.00233337285541
0.00257347308541
0.00293109949598
0.00329965997776
0.00361066163424
0.00371746195885
0.00367579587575
0.00359309344239
0.00352136453
0.00347338884196
0.00344511082879
0.00342954319053
0.00342114119812
0.00341663304019
0.00341406741481
0.00341243091394
0.00341133636381
0.00341063965915
0.00341023875769
0.00341008483261
0.00341018268037
0.00341045788441
0.00341072275625
0.00341118532191
0.00341176753997
0.003412016833
0.00341089352959
0.00340622435401
0.00339267245052
0.00335635268827
0.00326700901313
0.00306878858928
0.00267204828447
0.00194547767677
0.00073382249274
0.000843642741848
0.00166325130066
0.0020923053632
0.00222253261325
0.00222829898753
0.00231536775952
0.002571039901
0.0029447710407
0.00332893980906
0.00364793360929
0.00376290488468
0.00372287009032
0.00363885235317
0.00356535026749
0.00351604622361
0.00348699294762
0.00347104186693
0.00346249764252
0.0034579374073
0.00345535632439
0.00345370544851
0.00345259277588
0.00345189917954
0.00345150574133
0.0034513530912
0.00345145300533
0.00345173560591
0.00345200802393
0.00345248396843
0.00345307296251
0.00345330922019
0.00345212038935
0.00344725389607
0.0034331850528
0.00339563253371
0.00330366894812
0.0031005817923
0.00269595215892
0.00195844558655
0.000734960058491
0.000843764936237
0.00166374773849
0.00209279197875
0.00222305492708
0.00222897756918
0.0023159967896
0.00257146534421
0.00294510343061
0.00332918230404
0.00364821737909
0.00376291735369
0.00372277431253
0.00363875480242
0.00356528321181
0.00351600025655
0.00348696280109
0.00347102422022
0.00346248524231
0.00345792596949
0.00345534495914
0.00345369303135
0.00345257673389
0.00345188092149
0.00345148516438
0.00345133028899
0.00345142963059
0.00345171184586
0.00345198405847
0.00345245989076
0.00345304651917
0.00345327980356
0.00345208728502
0.00344721850361
0.00343314959737
0.00339559976409
0.00330364112775
0.00310056276911
0.00269593937605
0.00195843853562
0.000734959002474
0.000843189384625
0.00167415549179
0.00210286153798
0.00223713394151
0.00225104065916
0.00233497938337
0.00257467347884
0.00293205823561
0.00330036608758
0.00361147475577
0.00371749866189
0.00367552634395
0.00359281474694
0.00352116481187
0.0034732540492
0.00344501880065
0.00342948625957
0.00342110296221
0.00341659996202
0.00341403467836
0.00341239428266
0.00341129027638
0.00341058664722
0.00341017946756
0.00341001982181
0.00341011529008
0.00341039024961
0.00341065452453
0.00341111668564
0.00341169241325
0.00341193347017
0.0034107995848
0.0034061238693
0.00339257167375
0.00335625915967
0.00326692875237
0.0030687341912
0.00267201150419
0.00194545724264
0.000733819288994
0.000841847532444
0.00169427085623
0.00211712114676
0.00225737013914
0.00228147854772
0.002359770887
0.0025741921332
0.00290075303292
0.00323841253158
0.00353409495716
0.00362295688898
0.003577592534
0.00349752886547
0.00342945183526
0.00338423515078
0.00335757293169
0.00334278207535
0.00333472679768
0.00333034539787
0.00332781837563
0.0033262038902
0.00332513562109
0.00332442268277
0.00332399886815
0.0033238328975
0.00332391936853
0.0033241802889
0.0033244274966
0.00332486301327
0.00332541835274
0.00332567530876
0.00332465778717
0.00332035752621
0.00330781189738
0.00327392879329
0.00318981065637
0.00300141503581
0.0026207802124
0.00191702251145
0.000731158965797
0.000838394290539
0.00171725283175
0.00212184211261
0.00226638888578
0.00229897400741
0.00236925806276
0.00255318169548
0.00283814998349
0.00313522364986
0.00340683041434
0.00347139580585
0.00342194746204
0.00334609893653
0.00328325702331
0.00324194500654
0.00321756178027
0.00320381554153
0.00319627343302
0.00319208259049
0.0031896316669
0.00318807153582
0.00318705462916
0.00318634730363
0.00318590697104
0.00318573567261
0.0031858086072
0.00318604582427
0.00318626146028
0.00318665900979
0.00318718270641
0.00318746024808
0.00318660662905
0.00318283613411
0.0031717327165
0.00314138007747
0.00306496106576
0.00289132444211
0.002535482711
0.0018681006713
0.000726139913315
0.000829462161742
0.0017243109323
0.00209706827617
0.00223670982725
0.00227259011628
0.0023326879106
0.00248465525542
0.00272450506339
0.00299921420637
0.00321501522698
0.00325142811587
0.00319860385011
0.00312856454005
0.00307262058285
0.00303621957637
0.00301462648819
0.00300227782653
0.00299539314439
0.00299147989159
0.00298914116186
0.0029876769363
0.0029867264381
0.00298605025597
0.00298560783912
0.00298543628722
0.00298549218069
0.00298569107273
0.00298586172736
0.00298620729227
0.00298668845105
0.00298698230025
0.00298632471753
0.00298320025535
0.00297388816735
0.00294801717088
0.0028815995878
0.00272765261762
0.0024059282116
0.00179089098488
0.000717284822441
0.000810249973914
0.00168746880902
0.00204055517622
0.00214186780521
0.00217178755981
0.0022192476478
0.00234122800314
0.00253764447822
0.00279396373612
0.00293915374903
0.00294859680379
0.00289471459262
0.00283222721516
0.00278444735738
0.00275365438627
0.00273520083356
0.00272454344138
0.00271845592814
0.00271490171398
0.00271274960084
0.00271141478619
0.00271055348596
0.00270993418213
0.00270952185856
0.00270936125622
0.00270939847947
0.00270954633124
0.00270966422601
0.00270993549519
0.00271036138766
0.00271066147852
0.00271020832477
0.00270779550145
0.00270050693002
0.00267984694807
0.00262541856285
0.00249589256405
0.00221816875893
0.00167429834025
0.000702069595543
0.000774827738015
0.00157418310123
0.00191328952149
0.00198443590339
0.0019897150861
0.00202018251606
0.00212235773779
0.00229955895105
0.00247272424979
0.00255579476176
0.0025447225468
0.00249340623974
0.00244029882471
0.00240164832689
0.00237680869369
0.0023618115032
0.00235302077428
0.00234786381039
0.00234477272858
0.00234288283529
0.00234171650645
0.00234097220722
0.00234044244764
0.00234010494024
0.00233996607828
0.0023399846391
0.00234008150624
0.00234014960018
0.00234031436002
0.00234066345026
0.00234095083044
0.00234068808034
0.00233899443744
0.00233381750885
0.00231879664732
0.00227787351835
0.00217700076302
0.0019534816321
0.0015026929146
0.000675902583962
0.000712766613565
0.00134859967149
0.00162734047901
0.0016918040638
0.00169739984439
0.00171612079544
0.00178286326497
0.00189524340925
0.00199706214224
0.00203562852184
0.00201438633179
0.0019691170044
0.00192938774518
0.001900671515
0.0018820964341
0.00187081393899
0.00186403799929
0.00185995991137
0.00185746044456
0.00185591737403
0.00185496984133
0.00185438342535
0.00185398717225
0.00185375099324
0.00185364014284
0.00185364229971
0.00185369668467
0.00185372966989
0.00185382075579
0.00185401083291
0.00185425345783
0.00185414519108
0.00185312002105
0.00184999767874
0.00184065033951
0.00181402300939
0.00174516100636
0.00158596245381
0.00125324737887
0.000629418377477
0.000599581987442
0.000973102709677
0.001141625556
0.00117870664578
0.00117898396118
0.00118699218295
0.00122261735134
0.00128067233852
0.00132898168121
0.00134117432658
0.00131954582203
0.00129222025472
0.00126831395027
0.00125069868937
0.00123914241578
0.00123192223095
0.00122745008277
0.00122469222436
0.00122297808519
0.00122190793794
0.00122126363714
0.00122088211232
0.00122064144432
0.00122050111798
0.00122042385103
0.00122041181458
0.00122042749387
0.00122042949762
0.00122047373397
0.00122054974597
0.00122066407946
0.00122065232719
0.0012202004443
0.0012188795336
0.00121473392829
0.00120207974267
0.00116714245
0.00108136469488
0.000893565054806
0.000541358899561
0.0003787334045
0.000465589163001
0.000508818624729
0.000519875209881
0.000519179705591
0.000520842845545
0.000527348314918
0.000533449261822
0.000533938339176
0.000527726086423
0.0005215144794
0.000513949119557
0.000506824436645
0.000501344087289
0.000497500341932
0.000494953792454
0.000493310746131
0.000492282594604
0.000491639136841
0.000491240368476
0.000491002574915
0.000490860226869
0.000490775971756
0.000490719769513
0.000490680761657
0.000490654338805
0.000490635236579
0.000490612698396
0.000490614130379
0.000490624221537
0.000490630198624
0.000490627307348
0.000490576595227
0.000490432885632
0.000489960664949
0.000488381586547
0.000483385012066
0.000469145506449
0.000433268148762
0.000360791503706
0.000560363963974
0.0009040534857
0.00107671711823
0.00113050997298
0.00114093670604
0.00115210546024
0.00118325465737
0.00122957552408
0.00126911096132
0.0012847946043
0.00127942998726
0.00126534882436
0.00125333786771
0.00124379833416
0.00123606668545
0.00123053020208
0.00122681166819
0.00122440761884
0.0012228729651
0.00122188940539
0.00122127729724
0.0012209004256
0.00122065067838
0.00122048576784
0.00122039963949
0.00122039701011
0.00122044471229
0.00122048205224
0.00122056497502
0.00122067735174
0.00122076953165
0.0012207550244
0.00122035802046
0.00121906311761
0.00121489032639
0.00120218194779
0.00116718379154
0.00108135252812
0.000893560459144
0.000541434064581
0.000737444589764
0.00102729128521
0.00118795436984
0.00124466422155
0.00125952549892
0.00127177470173
0.00130033558743
0.00134379614061
0.00138317846012
0.00140147650086
0.00139920402849
0.00138822238936
0.00137685530296
0.00136823610961
0.00136214370389
0.00135814696743
0.00135561620053
0.00135404554745
0.00135307695122
0.00135247877543
0.00135211001992
0.00135188106798
0.00135172889059
0.00135163588456
0.00135159456778
0.00135160246852
0.00135163360828
0.00135165861385
0.00135170305855
0.00135176494544
0.0013518219435
0.00135174728694
0.0013513135858
0.00134992427569
0.00134547028652
0.00133203712607
0.00129559268634
0.00120811762386
0.00102474224524
0.0007254506205
0.00094838619401
0.00122778058683
0.00140711603248
0.00147181578168
0.00148987154062
0.00150778027638
0.00154884486684
0.0016122741078
0.00167311001526
0.00170631011521
0.00171002816181
0.00169893814399
0.00168529759421
0.00167449323027
0.00166705221421
0.00166232113658
0.00165941842255
0.00165766463114
0.00165660730012
0.00165596882161
0.00165558062895
0.00165533992455
0.00165518213214
0.00165508980967
0.0016550535076
0.00165506360245
0.00165509573701
0.00165512403689
0.00165516937112
0.00165523938651
0.00165528737458
0.00165514819204
0.00165448231508
0.00165233643177
0.00164568563279
0.00162655194347
0.00157712123882
0.00146405654404
0.00123927284946
0.000919369352338
0.00107177082508
0.00137493018954
0.00157473949293
0.00165018115107
0.00167372772232
0.00169884065218
0.00175284114318
0.00183658135089
0.0019205201543
0.00197034650587
0.00198033323424
0.00196905682932
0.00195277339686
0.00193936699284
0.00193025389599
0.00192456697316
0.00192116453029
0.00191916023422
0.00191797799239
0.00191727447958
0.00191684987609
0.00191658494683
0.00191640961924
0.00191630604773
0.00191626834692
0.00191628013296
0.00191631633363
0.00191635000403
0.00191640620392
0.00191649556699
0.00191653149469
0.00191630950276
0.00191534636138
0.00191226987757
0.00190302849918
0.00187747228471
0.00181408236244
0.0016745364762
0.00140653605772
0.00103204480409
0.00114417703715
0.00146698718038
0.00168403536433
0.00178069235153
0.00181646308562
0.00184973208983
0.00191337625164
0.00200609893347
0.00210972067694
0.00217759261502
0.00219477896315
0.0021834778639
0.00216472130637
0.00214864341451
0.00213778668456
0.00213110624339
0.00212718983225
0.00212493933898
0.00212364145539
0.00212287939109
0.00212242149838
0.00212213620299
0.00212194619546
0.00212183168006
0.00212179186872
0.00212180603194
0.00212184932568
0.00212189092287
0.00212196497536
0.00212206316922
0.00212208203201
0.00212176462811
0.00212047447152
0.00211641627409
0.0021045331222
0.00207268587249
0.00199616336955
0.00183264915555
0.00152649572317
0.0011012302468
0.00118410670964
0.00151613322963
0.00175367315876
0.00187105493543
0.00191591870417
0.0019569921992
0.00203202760384
0.00213698322265
0.0022468801373
0.00233235665254
0.00235747195548
0.00234664094559
0.00232558432382
0.00230707441417
0.00229451854158
0.00228688681352
0.00228247948237
0.00228000200699
0.00227860476759
0.00227779517765
0.00227730941044
0.00227700703334
0.0022768075306
0.00227668848084
0.00227664794898
0.00227666479856
0.00227671593856
0.00227676644214
0.00227685323107
0.00227695610943
0.00227695466329
0.00227653803283
0.00227492154817
0.00226991577051
0.00225556239279
0.00221802685839
0.00213002482777
0.0019462937784
0.0016091477839
0.00114470841088
0.00120327091859
0.001536331082
0.00179315188969
0.00192371092785
0.0019740165641
0.00202219583611
0.00210973374484
0.00222828336682
0.0023446386665
0.00244294138721
0.00247579755243
0.00246589168796
0.00244294943181
0.00242233099385
0.00240825386932
0.00239976364528
0.00239492617824
0.00239225110361
0.00239077046505
0.00238992527788
0.00238941726396
0.00238910071496
0.00238889585349
0.00238877768328
0.00238873817503
0.00238875753456
0.00238881440683
0.00238887271027
0.00238896792686
0.00238907342969
0.0023890510662
0.00238854064981
0.00238662640549
0.00238077873876
0.002364288818
0.00232196375795
0.00222456881211
0.00202480924655
0.00166406107858
0.00117187735288
0.00121068894647
0.00154054460071
0.00180978481651
0.00194736572813
0.00199944043918
0.0020535902903
0.00215395646867
0.00228642521895
0.00241282634616
0.002517757789
0.00255711717189
0.00254830391557
0.00252397017708
0.00250168921979
0.00248638448699
0.00247718748636
0.0024720104689
0.00246917708462
0.00246763243068
0.0024667602651
0.00246623568924
0.00246590745295
0.00246570091185
0.0024655859976
0.0024655480604
0.00246556940265
0.00246562962124
0.0024656933419
0.00246579458816
0.00246590142087
0.00246586003365
0.0024652700813
0.00246311036825
0.00245658363601
0.00243840606833
0.00239237602498
0.00228788096573
0.00207632178331
0.00169883003473
0.00118831779432
0.00121286018947
0.00153879894738
0.00181375466645
0.0019538804744
0.00200543024827
0.00206387250362
0.00217510452204
0.00231927620301
0.00245450150189
0.00256367751594
0.00260764856569
0.00259974667202
0.00257451226456
0.00255108392926
0.00253492714504
0.00252523336963
0.00251981749091
0.00251687684574
0.00251528882431
0.00251439882488
0.0025138630121
0.00251352612984
0.00251331948943
0.00251320749136
0.00251317080087
0.00251319334535
0.00251325527071
0.00251332213678
0.00251342767862
0.00251353479805
0.00251347870969
0.0025128308642
0.00251049658503
0.00250349512813
0.00248415552137
0.00243561260622
0.00232638309689
0.00210711310867
0.00171900074424
0.00119753610869
0.00121336527978
0.00153689709181
0.0018135561374
0.00195412979231
0.00200445100618
0.00206517606151
0.00218302097934
0.00233387437717
0.00247411355407
0.00258554602908
0.00263182698186
0.00262439339062
0.00259870501026
0.00257469123239
0.00255810395867
0.002548157635
0.00254261761191
0.00253962421104
0.00253801437287
0.0025371152707
0.00253657311646
0.00253623130593
0.00253602411559
0.00253591313233
0.00253587674143
0.00253589980872
0.00253596254262
0.00253603087748
0.00253613876933
0.00253624569382
0.00253618106435
0.00253550218544
0.00253307692722
0.00252583162589
0.00250590110326
0.00245609199267
0.00234450159829
0.00212143417094
0.00172819123325
0.0012016434171
0.00121350666843
0.00153711455058
0.00181376150227
0.00195433127385
0.00200466251468
0.00206535406043
0.00218312865272
0.00233392693296
0.00247414048301
0.00258559723749
0.00263181619774
0.00262435578107
0.00259866960142
0.00257466701548
0.00255808692408
0.0025481453898
0.00254260883002
0.00253961710925
0.00253800769077
0.0025371084151
0.0025365654701
0.00253622227839
0.00253601381454
0.00253590168542
0.00253586438904
0.00253588710968
0.00253594991035
0.00253601845301
0.00253612640715
0.00253623265754
0.00253616683679
0.00253548661809
0.00253306046928
0.00252581515495
0.00250588582296
0.00245607899827
0.00234449205111
0.00212142756341
0.00172818700433
0.00120164007057
0.00121324979183
0.00153941758284
0.0018143242876
0.00195442719186
0.00200596973399
0.0020643276517
0.00217540688387
0.00231944029694
0.00245459880518
0.00256383250869
0.00260762108125
0.0025996403364
0.00257441070496
0.00255101153533
0.00253487663342
0.00252519679154
0.00251979106864
0.00251685562163
0.00251526915081
0.00251437869199
0.00251384050035
0.00251349984709
0.00251328957482
0.00251317431417
0.0025131350681
0.0025131566078
0.0025132187619
0.00251328627524
0.00251339200448
0.00251349726121
0.00251343784069
0.00251278618041
0.0025104493726
0.00250344784659
0.00248411155455
0.00243557505036
0.00232635541949
0.00210709386075
0.00171898837151
0.00119752628604
0.00121124804691
0.00154150077812
0.0018106396052
0.00194813253785
0.00200015465003
0.00205418516768
0.00215437410194
0.00228668533003
0.00241300180494
0.00251798086367
0.0025570575104
0.00254812938473
0.00252380730152
0.00250157210709
0.00248630332039
0.0024771282373
0.00247196730701
0.00246914197235
0.00246760029407
0.00246672756753
0.00246619936422
0.00246586618153
0.00246565441184
0.00246553465746
0.00246549289873
0.00246551264308
0.0024655732668
0.00246563802962
0.00246573946612
0.00246584339824
0.00246579709839
0.00246520141502
0.00246303795147
0.00245651107343
0.00243833842976
0.00239231794651
0.00228783760211
0.00207629130439
0.00169881021251
0.00118830192035
0.00120388358385
0.0015375071869
0.00179421354437
0.00192460380766
0.00197482925753
0.0020228717755
0.00211023055033
0.00222864075848
0.00234494206201
0.00244317796928
0.00247568264606
0.00246565050131
0.00244273349218
0.00242217541319
0.0024081458532
0.00239968589873
0.0023948690449
0.00239220367124
0.0023907271385
0.00238988188133
0.00238936998611
0.00238904823501
0.00238883753471
0.00238871370259
0.00238866963522
0.0023886870313
0.00238874440477
0.00238880394343
0.00238889919892
0.00238900120361
0.00238897312122
0.00238845591692
0.00238653719085
0.00238068933972
0.00236420513641
0.00232189119895
0.00222451364424
0.00202476982016
0.00166403506465
0.0011718562285
0.00118464971635
0.00151737946913
0.00175493535701
0.00187211864459
0.00191686845952
0.00195779925209
0.00203267755525
0.00213747730957
0.00224749998973
0.00233254848568
0.00235728229498
0.00234634025877
0.0023253281274
0.00230688933998
0.0022943901618
0.00228679749008
0.00228241175911
0.00227994506069
0.00227855284489
0.00227774400768
0.00227725550494
0.00227694850993
0.00227674339183
0.00227661855016
0.0022765733266
0.002276588115
0.00227663989604
0.0022766917213
0.00227677832523
0.00227687753016
0.00227687017601
0.0022764468065
0.00227482585295
0.0022698198395
0.0022554721253
0.00221794765811
0.00212996281983
0.00194624847475
0.00160911751608
0.00114468421481
0.00114455579593
0.00146815617612
0.00168563790766
0.00178198661761
0.00181766332241
0.0018507606812
0.00191423943247
0.00200674163643
0.00211030718515
0.0021776733097
0.00219450848567
0.0021831334464
0.00216443922773
0.00214844102417
0.0021376480305
0.00213101169056
0.00212711680869
0.00212487773679
0.00212358581134
0.00212282525911
0.00212236595038
0.00212207725252
0.00212188259281
0.00212176281477
0.00212171866026
0.00212173093425
0.00212177503984
0.00212181804749
0.00212189189564
0.00212198674764
0.0021220001559
0.00212167683709
0.00212038278765
0.00211632443613
0.00210444600977
0.00207260820963
0.00199610004936
0.00183260165982
0.00152646359733
0.00110120603972
0.00107194905874
0.00137589529896
0.00157627035678
0.00165185623353
0.00167532089604
0.00170018240688
0.00175407418989
0.00183746386238
0.00192095913173
0.00197029086892
0.00197999891627
0.00196869256884
0.00195248921875
0.00193916305564
0.00193011938768
0.00192447402462
0.00192109302568
0.00191910036522
0.00191792390183
0.00191722259039
0.00191679779044
0.00191653105511
0.00191635237486
0.00191624464263
0.00191620331424
0.00191621348203
0.00191625029651
0.00191628535545
0.00191634193419
0.00191642885187
0.0019164604662
0.00191623389503
0.00191526788395
0.00191219133076
0.00190295312366
0.00187740336927
0.00181402346639
0.00167449094378
0.00140650511699
0.00103202511808
0.000948395810483
0.00122848817564
0.00140840310366
0.00147335648242
0.00149147288793
0.00150919412798
0.00154998954055
0.00161301009774
0.00167335844062
0.00170613543384
0.0017096624287
0.00169858181113
0.00168502375224
0.00167430662528
0.00166692828134
0.00166223625274
0.00165935402872
0.00165761154136
0.00165655994556
0.00165592386716
0.00165553645218
0.00165529516349
0.00165513556651
0.00165504069219
0.00165500182572
0.00165501059338
0.00165504317743
0.0016550724671
0.00165511816096
0.00165518742586
0.00165523262947
0.00165509057167
0.00165442313296
0.00165227711148
0.00164562759202
0.0016264969604
0.00157707228394
0.00146401757983
0.00123924664079
0.000919358260622
0.000737364402373
0.00102777142372
0.00118898520453
0.00124600255778
0.00126097163105
0.0012730436492
0.00130129709845
0.00134433353753
0.00138325664672
0.00140121930132
0.00139883428582
0.0013878877363
0.0013766076463
0.00136807022521
0.00136203387634
0.00135807152769
0.00135556070314
0.00135400160144
0.00135303827602
0.00135244282268
0.00135207553442
0.0013518468945
0.00135169429684
0.00135160017538
0.00135155771583
0.00135156415218
0.00135159567935
0.00135162123895
0.00135166583347
0.0013517277033
0.00135178342567
0.00135170749973
0.00135127345252
0.00134988496663
0.00134543139717
0.0013319998054
0.0012955576494
0.00120808916141
0.00102472345008
0.000725443495912
0.000560243559662
0.000904422855314
0.00107768121052
0.00113190578212
0.00114254061139
0.00115348411601
0.00118422627478
0.0012300208899
0.00126902148255
0.00128435681123
0.00127889975492
0.00126489451481
0.00125300437369
0.00124357411258
0.00123591910852
0.00123043345498
0.00122674896516
0.00122436400742
0.00122283741108
0.00122185633789
0.00122124488543
0.00122086637196
0.00122061399316
0.0012204465472
0.00122035811916
0.00122035415704
0.00122039955293
0.00122043619936
0.00122052073002
0.00122063488317
0.00122072633325
0.00122071050531
0.00122031728771
0.00121902851834
0.00121485724891
0.00120215016955
0.00116715007593
0.00108132519018
0.00089354423845
0.000541433064717
0.000647212797113
0.00122693470674
0.00151970049002
0.00162079819997
0.00164918602614
0.00167233964954
0.00172372960455
0.00180280812358
0.00187730191031
0.00191746959195
0.00192262251843
0.00190997764322
0.00189372603535
0.00188252879347
0.00187327055241
0.0018663703201
0.0018616500062
0.00185858734204
0.00185662821294
0.00185537084015
0.00185458739625
0.00185410515718
0.00185378429902
0.00185358214344
0.0018534832537
0.00185350437617
0.00185359359716
0.00185366430735
0.00185379589748
0.00185395573679
0.00185408501249
0.00185398254272
0.00185310009581
0.00185013978101
0.00184087676788
0.00181422129142
0.00174529587623
0.00158604845542
0.00125339374713
0.000629694458897
0.000915589647303
0.00122622942728
0.00142964101843
0.0015134657524
0.00154168235946
0.00156029286218
0.00159290499189
0.0016393836603
0.00168099731195
0.00170117333562
0.00170061272069
0.00169043072599
0.00167931178657
0.00167115916102
0.00166533067135
0.00166144617161
0.00165896759294
0.00165742679815
0.00165647097197
0.00165587467041
0.00165550341321
0.00165526860259
0.00165510730704
0.00165499942543
0.0016549532094
0.00165497001005
0.0016550168414
0.00165505097788
0.00165510866714
0.00165519080562
0.00165525186315
0.00165512354142
0.00165446496009
0.00165232192235
0.00164565709725
0.0016264910415
0.00157701998592
0.00146392841265
0.00123918596314
0.000919627528467
0.00121012684818
0.00140023318145
0.00158362244112
0.00166414519717
0.0016934720156
0.00171584070972
0.00175546389533
0.00181272625575
0.00186767438119
0.00189958644856
0.0019060973979
0.00189882489308
0.00188833080236
0.0018796364509
0.00187353386658
0.00186960211568
0.00186717663168
0.00186571308916
0.00186483278161
0.00186429957203
0.0018639753758
0.00186377346877
0.00186363830821
0.00186355059513
0.00186351687921
0.00186353523403
0.00186357726721
0.00186360872119
0.0018636562992
0.00186372565929
0.00186375475566
0.0018635588532
0.00186271289501
0.00186000692824
0.00185187331935
0.00182942315557
0.00177389619886