/*--------------------------------*- C++ -*----------------------------------*\
| =========                 |                                                 |
| \\      /  F ield         | OpenFOAM: The Open Source CFD Toolbox           |
|  \\    /   O peration     | Version:  3.0.1                                 |
|   \\  /    A nd           | Web:      www.OpenFOAM.org                      |
|    \\/     M anipulation  |                                                 |
\*---------------------------------------------------------------------------*/
FoamFile
{
    version     2.0;
    format      ascii;
    class       volVectorField;
    location    "4.3";
    object      U;
}
// * * * * * * * * * * * * * * * * * * * * * * * * * * * * * * * * * * * * * //

dimensions      [0 1 -1 0 0 0 0];

internalField   nonuniform List<vector> 
15984
(
(0.00182245770803 0.000317108864071 -0.00121745263865)
(0.0053529262954 0.000173987691737 -0.000972753325638)
(0.0073121189911 0.000776948749656 -0.000792986070228)
(0.00578063932296 0.00149522870224 -0.000633635925199)
(0.00185816710187 0.00194386420384 -0.000593413304069)
(-0.002951413825 0.00198146512789 -0.000531608995861)
(-0.00754043360458 0.00157503248975 -0.000452324183849)
(-0.0102677170894 0.000862519660393 -0.000383985267687)
(-0.0106575287366 0.000156230296594 -0.000313840594783)
(-0.00901623070095 -0.000338626587195 -0.000234223834297)
(-0.00681654590313 -0.000447493884161 -0.000159138949084)
(-0.00473613206723 -0.000398795865694 -0.000109941331762)
(-0.00310066714361 -0.000303945029832 -7.31346273098e-05)
(-0.00195079872098 -0.000209520907678 -5.00737300121e-05)
(-0.0011830495809 -0.000137366538041 -3.52696998286e-05)
(-0.000686458105592 -8.81869944888e-05 -2.40131694373e-05)
(-0.000372702635583 -5.70579349548e-05 -1.4153260441e-05)
(-0.000179764011306 -3.72993590669e-05 -6.46207017007e-06)
(-6.53397975068e-05 -2.51671698228e-05 -2.39154629947e-07)
(-3.77551828399e-06 -1.77926636915e-05 4.63423975482e-06)
(2.33790659951e-05 -1.33551775323e-05 7.50132761828e-06)
(3.0123660281e-05 -1.04611859176e-05 8.96258927419e-06)
(2.60218181466e-05 -8.70577683833e-06 9.78172904951e-06)
(1.362790663e-05 -7.65379149921e-06 1.05570625236e-05)
(-3.5222324939e-06 -7.40790552688e-06 1.02977199311e-05)
(-1.58648423752e-05 -7.5264718141e-06 8.84179826734e-06)
(-1.74339876782e-05 -8.08436514204e-06 6.73198315449e-06)
(-1.26447798902e-05 -8.70084791559e-06 5.96340240528e-06)
(-2.52588448934e-06 -9.4386528533e-06 4.77675102807e-06)
(1.63817185229e-05 -1.04007896056e-05 2.7671312788e-06)
(4.71882591332e-05 -1.09668293328e-05 7.88587145854e-07)
(8.54572457872e-05 -1.08327725675e-05 5.35460277665e-07)
(0.000116882214275 -9.74067411096e-06 2.687530002e-06)
(0.000134430883751 -8.23944415746e-06 4.42291794718e-06)
(0.000139705730865 -6.64257427227e-06 5.86921414205e-06)
(0.000135770043847 -5.20195850142e-06 6.97066549971e-06)
(0.00012372293326 -3.58814953286e-06 7.59571756688e-06)
(0.000102629966023 -2.25390824407e-06 9.57091718318e-06)
(7.01225313363e-05 -2.56068432598e-06 1.2803134813e-05)
(3.07009678899e-05 -5.83882435459e-06 1.92536206982e-05)
(0.00151550413122 0.00188243307815 -0.00212752012267)
(0.00560663730585 0.00245759625783 -0.00299321054901)
(0.00778089847235 0.00461657628653 -0.00327526643435)
(0.00616802800813 0.00668419294739 -0.00326690456666)
(0.0020119118622 0.0078524149206 -0.00329224691556)
(-0.00302975007424 0.00790839747215 -0.00319715119465)
(-0.00782013579801 0.0068105784755 -0.00298176213956)
(-0.0107394930818 0.00477729476341 -0.0026965073762)
(-0.0109938927937 0.00239383197893 -0.00222216247676)
(-0.00915905564169 0.000633253993611 -0.00162539995522)
(-0.00679059439525 -0.000224807735816 -0.00106133526681)
(-0.00465182742167 -0.000502401146278 -0.000635116898096)
(-0.00301606127384 -0.000497230369083 -0.000363761737332)
(-0.00188550585602 -0.00039216079019 -0.000201608630905)
(-0.00114029145319 -0.000276687710651 -0.000113669122051)
(-0.000661064404159 -0.000184819230027 -6.57970709231e-05)
(-0.000358611082422 -0.000121538561363 -3.75661099047e-05)
(-0.000172374691386 -8.03961038271e-05 -2.00664300802e-05)
(-6.196868201e-05 -5.48867737917e-05 -8.32176382964e-06)
(-2.74803716821e-06 -3.90963789946e-05 -2.07743581901e-07)
(2.32120261879e-05 -2.94716455229e-05 4.62587379338e-06)
(2.94872134924e-05 -2.32107390373e-05 6.94361109044e-06)
(2.51256527401e-05 -1.94710812377e-05 8.61688073001e-06)
(1.23206333508e-05 -1.75311326124e-05 1.03201447611e-05)
(-5.54882527503e-06 -1.69706072532e-05 1.05423054295e-05)
(-1.8451206608e-05 -1.76403085317e-05 8.81704191852e-06)
(-1.99390827263e-05 -1.90729318088e-05 6.44367775297e-06)
(-1.48775857922e-05 -2.067330824e-05 5.61778184374e-06)
(-4.78581963203e-06 -2.24527118657e-05 4.18948151472e-06)
(1.45819935316e-05 -2.45444392491e-05 1.49005719744e-06)
(4.69470922604e-05 -2.56654075317e-05 -1.44465753868e-06)
(8.75988067301e-05 -2.52321522049e-05 -1.920162593e-06)
(0.000120957028198 -2.30577534933e-05 1.36034417556e-06)
(0.000139314829651 -2.0233780677e-05 4.64870227657e-06)
(0.000144602234671 -1.69314510902e-05 7.29421153766e-06)
(0.000140299884616 -1.39338360278e-05 9.43302703315e-06)
(0.000127654825921 -1.07574724269e-05 1.11295284296e-05)
(0.000105401905314 -8.20976361902e-06 1.44217155107e-05)
(7.07124092775e-05 -8.61308507255e-06 1.82930535162e-05)
(2.75275396948e-05 -1.39807266707e-05 2.04905655281e-05)
(0.00166714131939 0.00417544402813 -0.00227426443988)
(0.006509208915 0.00597418807666 -0.00350488040728)
(0.00892160026107 0.00978864400441 -0.00351739247837)
(0.00697584331257 0.0132155322933 -0.00325228376126)
(0.00231081435107 0.0150643427184 -0.00318169309232)
(-0.00324631168579 0.0151173934676 -0.00307617988588)
(-0.00852372692312 0.0132925712877 -0.00291940240171)
(-0.0117815440939 0.00985906863507 -0.0028176625424)
(-0.0119284088363 0.0057679276272 -0.00257183211614)
(-0.00975129647423 0.00253965891393 -0.00205736448348)
(-0.00702255833672 0.000670768749992 -0.00141229469946)
(-0.0046638288255 -0.000185105113265 -0.000866768137297)
(-0.00293821550715 -0.000440723424724 -0.000496934268104)
(-0.0017901190652 -0.000433921755148 -0.000277543367375)
(-0.00105816751993 -0.000339163679218 -0.000153591930891)
(-0.000600892478694 -0.000238837156451 -8.75263523685e-05)
(-0.000317929377992 -0.00016120956235 -5.08403896354e-05)
(-0.000145834017904 -0.000108308784476 -2.91610841218e-05)
(-4.46572219103e-05 -7.48256042673e-05 -1.50278966672e-05)
(8.76724104559e-06 -5.36004547331e-05 -5.76557738965e-06)
(3.12070850746e-05 -4.03425243165e-05 7.24109416773e-09)
(3.53669124476e-05 -3.1839458371e-05 2.88545884612e-06)
(2.94588035095e-05 -2.68285657748e-05 4.97667900483e-06)
(1.54560207024e-05 -2.4506896046e-05 6.90051223226e-06)
(-3.58016247446e-06 -2.39532059868e-05 7.15974107599e-06)
(-1.74262367749e-05 -2.51505443683e-05 5.38172270587e-06)
(-1.92846444883e-05 -2.74112902278e-05 2.7889159185e-06)
(-1.44962052483e-05 -2.99188727341e-05 1.96482164282e-06)
(-4.81620145214e-06 -3.26405309956e-05 4.34757608969e-07)
(1.45603569131e-05 -3.52344127723e-05 -2.80024355455e-06)
(4.77200546154e-05 -3.65506059659e-05 -6.30366256483e-06)
(8.96230963256e-05 -3.58008971293e-05 -6.8193637831e-06)
(0.000123717097466 -3.3237947727e-05 -3.10612885305e-06)
(0.000142246200626 -3.00537078137e-05 1.06773385871e-06)
(0.000147324169281 -2.61561974507e-05 4.24644479393e-06)
(0.000142469789134 -2.24407158758e-05 6.76589477022e-06)
(0.000129181083869 -1.88902649864e-05 9.14389596418e-06)
(0.000105716940364 -1.61798306755e-05 1.30671659676e-05)
(6.87911694154e-05 -1.67586634771e-05 1.65914571738e-05)
(2.55639313128e-05 -2.15798062928e-05 1.51519486823e-05)
(0.00222143876232 0.00593255157954 -0.00222879342614)
(0.00817756457589 0.00871117138845 -0.00321823961936)
(0.0108413654174 0.0137326457235 -0.00249435617804)
(0.00832944079505 0.0180656890443 -0.00162390023516)
(0.00279320248353 0.0203690914869 -0.00130936991179)
(-0.00365143431607 0.0204215173353 -0.00120025229662)
(-0.00977783651682 0.0180890405795 -0.00127503000603)
(-0.0135783986044 0.0136757105997 -0.00170541556514)
(-0.01364305849 0.00834804721093 -0.00208469054997)
(-0.0109281368121 0.00405538811082 -0.00199265475447)
(-0.00762812158296 0.00145813161922 -0.00150048103141)
(-0.00488080011613 0.000162408393211 -0.000968938001157)
(-0.00295158320243 -0.00031821526647 -0.000575508565789)
(-0.00172968304103 -0.00040850858876 -0.000327832122564)
(-0.000985052412882 -0.000349248467869 -0.00018421171231)
(-0.000539548692292 -0.000255797355279 -0.000104569452807)
(-0.000273847827749 -0.000175285012995 -6.11646628699e-05)
(-0.000116438573554 -0.000118080857727 -3.62036370033e-05)
(-2.54709694105e-05 -8.13361244126e-05 -2.06574238807e-05)
(2.15482119635e-05 -5.78133430439e-05 -1.06401618978e-05)
(3.99168897871e-05 -4.27604390864e-05 -4.19667472755e-06)
(4.14435461738e-05 -3.31750553541e-05 -5.8869888786e-07)
(3.36309253532e-05 -2.76433284085e-05 1.66885807288e-06)
(1.81979772939e-05 -2.53418811597e-05 3.70296477471e-06)
(-2.05486436488e-06 -2.49890223319e-05 4.01356962126e-06)
(-1.69291223261e-05 -2.65557777218e-05 2.00530841978e-06)
(-1.92909909506e-05 -2.94777973841e-05 -8.60804374684e-07)
(-1.47505331699e-05 -3.27154300738e-05 -1.88203377684e-06)
(-5.28740083368e-06 -3.60537123718e-05 -3.77094897879e-06)
(1.42998861294e-05 -3.8931900754e-05 -7.56479591923e-06)
(4.8328370412e-05 -4.02526380887e-05 -1.13160201802e-05)
(9.13620110464e-05 -3.92632029226e-05 -1.17860373239e-05)
(0.00012613961751 -3.65878041191e-05 -7.82468372897e-06)
(0.000144860020732 -3.3110738853e-05 -3.24131658851e-06)
(0.0001498071834 -2.90218947582e-05 3.84751146467e-07)
(0.000144603533713 -2.50079421601e-05 3.14359102262e-06)
(0.000130819569886 -2.12586373199e-05 5.94817053012e-06)
(0.000106327550367 -1.83563715e-05 1.0186203519e-05)
(6.78149934222e-05 -1.84417814357e-05 1.33779416988e-05)
(2.4811076946e-05 -2.09307310075e-05 1.11548459802e-05)
(0.00306680565561 0.00701337815397 -0.00219741425241)
(0.0103564061215 0.0102996177231 -0.00267341603965)
(0.0132762977085 0.0158754338314 -0.00098375539643)
(0.0100697766654 0.0205184802213 0.000667722019829)
(0.00342679946932 0.0229856526699 0.00134891759839)
(-0.00421772747249 0.0230389313613 0.00145468323756)
(-0.0114272925009 0.0204754575599 0.00100004088114)
(-0.0158636413471 0.0156740607822 -0.000150474104174)
(-0.0158571724465 0.00979519720606 -0.0013390456836)
(-0.0125067468121 0.00500006293433 -0.00178837902698)
(-0.00851251523732 0.00202333022978 -0.00151692501346)
(-0.00526842556829 0.000468248459621 -0.00104307115616)
(-0.00305784855018 -0.000170967351111 -0.000639022201084)
(-0.00171238939861 -0.000341624246955 -0.000368311802874)
(-0.000930456569279 -0.00031987236011 -0.000209212216454)
(-0.000485075593625 -0.000243397782397 -0.000117918367907)
(-0.000231985972952 -0.000168784198682 -6.81784909412e-05)
(-8.78629582604e-05 -0.00011372032124 -4.05368514211e-05)
(-6.76488773761e-06 -7.77172629829e-05 -2.3906622512e-05)
(3.39737767485e-05 -5.48731249295e-05 -1.33673344929e-05)
(4.83622451653e-05 -3.97831882423e-05 -6.4700139376e-06)
(4.71673290917e-05 -3.01005116293e-05 -2.51743247668e-06)
(3.72599906509e-05 -2.46921672424e-05 8.73919527813e-08)
(2.03252939806e-05 -2.26237385122e-05 2.00512679074e-06)
(-1.09901541593e-06 -2.2566999414e-05 2.33569078334e-06)
(-1.6987779362e-05 -2.43777055433e-05 9.51581303157e-08)
(-1.98735648451e-05 -2.75799606715e-05 -3.09385509131e-06)
(-1.55522776913e-05 -3.11412574439e-05 -4.44744543622e-06)
(-6.15646168348e-06 -3.4738905032e-05 -6.85227767663e-06)
(1.38250740109e-05 -3.76802602613e-05 -1.09986037774e-05)
(4.88166974075e-05 -3.88598703323e-05 -1.49244973153e-05)
(9.28957875517e-05 -3.77095573393e-05 -1.52670161757e-05)
(0.000128282110306 -3.50992347744e-05 -1.11112236122e-05)
(0.000147255601387 -3.17086888361e-05 -6.24221340391e-06)
(0.000152161337679 -2.77033353097e-05 -2.32458010858e-06)
(0.000146715694506 -2.37885022572e-05 7.03265212298e-07)
(0.000132607190531 -2.01674483043e-05 3.77574842834e-06)
(0.000107370347806 -1.72624030034e-05 8.23358302055e-06)
(6.79897941509e-05 -1.69023422869e-05 1.14176062139e-05)
(2.48644779728e-05 -1.76158788363e-05 9.82512991677e-06)
(0.00403530893619 0.00722749446213 -0.00218860177234)
(0.0126764132798 0.0105058067669 -0.0020838494953)
(0.0158258580694 0.0159174049244 0.000559573213732)
(0.0118681121442 0.0201663467568 0.00290272292208)
(0.00406342737134 0.0224317896833 0.00385791850435)
(-0.00478748880935 0.0224965295107 0.00395673206014)
(-0.0131285316911 0.0201034713313 0.00319014095815)
(-0.0182234266497 0.0156025733537 0.00141051427025)
(-0.0182236383463 0.00994492507813 -0.000568280496555)
(-0.0142336460274 0.00524000462124 -0.00156502902086)
(-0.00953032133399 0.00226251568612 -0.00151440877248)
(-0.00575357074505 0.000652349869947 -0.00110223650738)
(-0.00322412488681 -4.41190945331e-05 -0.000693521086159)
(-0.00172873800512 -0.000261082733751 -0.000403219213338)
(-0.000894130059457 -0.000268534083396 -0.000227121253513)
(-0.000440582777945 -0.000211316043147 -0.000127774522753)
(-0.000195261681475 -0.000148271951516 -7.20281284016e-05)
(-6.21688522626e-05 -9.97319270062e-05 -4.21842968141e-05)
(1.00413696333e-05 -6.72951785479e-05 -2.51640014826e-05)
(4.51267311213e-05 -4.73547674505e-05 -1.43122244187e-05)
(5.60499207923e-05 -3.35742556324e-05 -7.11124592685e-06)
(5.2242225511e-05 -2.46629617612e-05 -2.8712110704e-06)
(4.0317825169e-05 -1.98491812604e-05 -1.65747869191e-07)
(2.19342097023e-05 -1.80837621957e-05 1.65398760927e-06)
(-5.88965102774e-07 -1.83436431757e-05 1.87883858053e-06)
(-1.73851598821e-05 -2.01633759679e-05 -5.9220287762e-07)
(-2.07753523184e-05 -2.33310808096e-05 -4.09262584768e-06)
(-1.66365449193e-05 -2.68143804931e-05 -5.79159558602e-06)
(-7.21547922182e-06 -3.03002265479e-05 -8.64355755446e-06)
(1.32687606211e-05 -3.30872263859e-05 -1.30641455489e-05)
(4.92392793621e-05 -3.4039437177e-05 -1.71330845802e-05)
(9.42468465183e-05 -3.28448603742e-05 -1.73162954453e-05)
(0.000130149297131 -3.04493319835e-05 -1.29790925376e-05)
(0.000149376194402 -2.73699137565e-05 -7.88409213699e-06)
(0.000154297096847 -2.37494594432e-05 -3.73786845667e-06)
(0.000148694036726 -2.0183130907e-05 -5.12106911806e-07)
(0.000134395215799 -1.69454678012e-05 2.75527486518e-06)
(0.00010865852263 -1.42221021335e-05 7.39044354101e-06)
(6.88536895004e-05 -1.35699963163e-05 1.07484059049e-05)
(2.52932088046e-05 -1.32842579975e-05 9.91696545007e-06)
(0.00492945683998 0.00658453806646 -0.00219070405841)
(0.0147711272416 0.0093973283921 -0.00157381215031)
(0.0180723180015 0.0140956255236 0.00185222746766)
(0.0135058127638 0.0176102248848 0.0046579772691)
(0.00463197649046 0.0195286912244 0.00584840398507)
(-0.00527471000977 0.0196079962681 0.00594658739837)
(-0.0146483624225 0.0175767683263 0.00491518373968)
(-0.020311115031 0.0137622744982 0.00269460221533)
(-0.0204112211781 0.00889390937683 9.33750577959e-05)
(-0.0158603584333 0.00479555299583 -0.00136938857222)
(-0.010527650504 0.0021593417533 -0.00150700458484)
(-0.00625261787778 0.000696486175274 -0.00114957577271)
(-0.00341399958745 3.97067160955e-05 -0.000739705863606)
(-0.00176649913333 -0.00018241333015 -0.000431544707199)
(-0.000873091062308 -0.000207784321144 -0.000240689503783)
(-0.000406717322714 -0.000167852989474 -0.000133550812183)
(-0.000165550946699 -0.000119395182558 -7.37008042002e-05)
(-4.06711310575e-05 -8.01583817119e-05 -4.21395963082e-05)
(2.40594028902e-05 -5.33256281208e-05 -2.47711413696e-05)
(5.43338316807e-05 -3.7283505584e-05 -1.41152760362e-05)
(6.254603157e-05 -2.58567738866e-05 -6.75683977386e-06)
(5.64774140176e-05 -1.8518670205e-05 -2.27936145987e-06)
(4.27513363883e-05 -1.4510425723e-05 3.78008263694e-07)
(2.30680798341e-05 -1.31546661369e-05 2.11036538263e-06)
(-3.90449373591e-07 -1.35917703165e-05 2.19667905088e-06)
(-1.79457187888e-05 -1.52344990749e-05 -4.95216448771e-07)
(-2.1781497576e-05 -1.80537343421e-05 -4.26202408545e-06)
(-1.77751184408e-05 -2.1124848194e-05 -6.29163810267e-06)
(-8.29410956392e-06 -2.41542398554e-05 -9.49852707702e-06)
(1.27183949122e-05 -2.65474569971e-05 -1.41106482302e-05)
(4.96105899428e-05 -2.72516215986e-05 -1.83062458738e-05)
(9.53948178664e-05 -2.61363565803e-05 -1.83235634896e-05)
(0.000131711236842 -2.40862914909e-05 -1.38371657448e-05)
(0.000151162138654 -2.15033760869e-05 -8.54363400031e-06)
(0.000156130769309 -1.84802384813e-05 -4.23277197771e-06)
(0.000150415290792 -1.54897930128e-05 -8.90989072884e-07)
(0.000136005408479 -1.28110486052e-05 2.5500074186e-06)
(0.000109949297684 -1.04731989774e-05 7.33636025387e-06)
(6.9903539003e-05 -9.70620212163e-06 1.09163579901e-05)
(2.57938437274e-05 -9.0208739614e-06 1.05080227275e-05)
(0.00568549746905 0.00519966842221 -0.00221248752596)
(0.016428299861 0.0072595533902 -0.00124047377691)
(0.0198331437908 0.010856492943 0.00276018755299)
(0.0149171380748 0.0133339436434 0.00583087323252)
(0.005153408669 0.0147593986244 0.007076515114)
(-0.00568223947683 0.0148459177924 0.00716775274167)
(-0.015902143091 0.0133516224388 0.00610651016266)
(-0.0219503648108 0.0105722089938 0.00359189182331)
(-0.0221734667134 0.00690385244101 0.000578501028676)
(-0.0171931818691 0.00378987303717 -0.00122626153997)
(-0.0113752288546 0.00175593033919 -0.00150036693905)
(-0.00669215807083 0.000604357191597 -0.00118456036762)
(-0.00359130649946 7.25205446608e-05 -0.000773739921234)
(-0.00181010816557 -0.00011527533403 -0.000452487340043)
(-0.000862945385651 -0.000145329939632 -0.000250252603324)
(-0.000382943902498 -0.000119915136908 -0.000135778238319)
(-0.000143590391743 -8.61592381062e-05 -7.44184453306e-05)
(-2.42441134768e-05 -5.78070863471e-05 -4.11911996688e-05)
(3.48391141306e-05 -3.79883950588e-05 -2.38865952715e-05)
(6.13912135798e-05 -2.62990585926e-05 -1.33315582976e-05)
(6.74824712811e-05 -1.78722264508e-05 -5.93837063167e-06)
(5.96759991965e-05 -1.2522141339e-05 -1.22342392041e-06)
(4.45734157991e-05 -9.56073958125e-06 1.25294860256e-06)
(2.38116540881e-05 -8.64740896192e-06 2.8962261284e-06)
(-3.81053896289e-07 -9.08428377905e-06 2.86941211327e-06)
(-1.85186945304e-05 -1.04060910218e-05 2.83080551058e-09)
(-2.27097069013e-05 -1.25955828718e-05 -4.02006096185e-06)
(-1.87888551216e-05 -1.49772728508e-05 -6.30422624607e-06)
(-9.21748734641e-06 -1.72885925552e-05 -9.74710149443e-06)
(1.22586436361e-05 -1.90581020026e-05 -1.45494266024e-05)
(4.99133156148e-05 -1.95233050258e-05 -1.88181220471e-05)
(9.63081322743e-05 -1.86035959922e-05 -1.86886154905e-05)
(0.000132928709612 -1.7017261185e-05 -1.40648688903e-05)
(0.000152550485159 -1.50815835285e-05 -8.62226462354e-06)
(0.000157566903749 -1.28214621823e-05 -4.19888554262e-06)
(0.00015177977392 -1.06005273348e-05 -7.6188785369e-07)
(0.000137310617437 -8.59773865928e-06 2.79944430964e-06)
(0.000111044810011 -6.81576690094e-06 7.70944942626e-06)
(7.082160938e-05 -6.0848393936e-06 1.14608635905e-05)
(2.61921126663e-05 -5.2753925246e-06 1.11389531711e-05)
(0.00622176882486 0.00327447305635 -0.00225304695645)
(0.0175388167501 0.00449118390266 -0.00110453651868)
(0.021022165768 0.00671526777282 0.00324710395193)
(0.0159155036151 0.00811457811577 0.00638476908573)
(0.0055490499011 0.00899443062513 0.00742540953856)
(-0.00595562880563 0.00905887375293 0.00752890092324)
(-0.0167514316814 0.00815808195031 0.00670290956364)
(-0.0230260021552 0.00653906739106 0.00407827228282)
(-0.0233814413461 0.00431415726514 0.000866596389494)
(-0.0181157655968 0.00239423763061 -0.00114286748171)
(-0.0119806945061 0.00112851981891 -0.00149672010452)
(-0.00701383756059 0.000402098175751 -0.00120721337066)
(-0.00372588167503 6.0959262376e-05 -0.000795817026272)
(-0.00184694378775 -6.27698240012e-05 -0.000465791545663)
(-0.000859203576232 -8.53732242371e-05 -0.000255982265821)
(-0.000367994212997 -7.14608473386e-05 -0.000136756908857)
(-0.000129192749744 -5.13685480008e-05 -7.38364324744e-05)
(-1.32915393153e-05 -3.44298602045e-05 -4.00974947617e-05)
(4.20650225814e-05 -2.2416027575e-05 -2.28564056071e-05)
(6.60833210023e-05 -1.54030174439e-05 -1.24282666794e-05)
(7.08037404204e-05 -1.02579814594e-05 -5.19329245998e-06)
(6.18053422138e-05 -7.02307621092e-06 -3.54387288378e-07)
(4.57312623656e-05 -5.31098135319e-06 2.07643399184e-06)
(2.4243285418e-05 -4.84772018254e-06 3.62973587473e-06)
(-4.44988564358e-07 -5.15859269481e-06 3.5107339378e-06)
(-1.89760154851e-05 -6.00485044492e-06 5.56176093073e-07)
(-2.34002518e-05 -7.36919773825e-06 -3.66121572625e-06)
(-1.95302661506e-05 -8.83517947194e-06 -6.10934805707e-06)
(-9.86891435975e-06 -1.02391230105e-05 -9.73963230245e-06)
(1.19522319718e-05 -1.12583262446e-05 -1.46515800897e-05)
(5.01406446909e-05 -1.147684422e-05 -1.89678753223e-05)
(9.69529563675e-05 -1.08388058834e-05 -1.8726456942e-05)
(0.000133764642895 -9.82187802294e-06 -1.3999756812e-05)
(0.000153494196471 -8.63445216628e-06 -8.45972735417e-06)
(0.000158543545594 -7.25928482488e-06 -3.96231582233e-06)
(0.000152711037607 -5.9282284903e-06 -4.51544176774e-07)
(0.000138210779253 -4.70670919816e-06 3.18075105296e-06)
(0.000111813221559 -3.59634420631e-06 8.17880506258e-06)
(7.14562510973e-05 -3.02343464315e-06 1.2037743688e-05)
(2.64319608957e-05 -2.12722494088e-06 1.16230703639e-05)
(0.00649440503999 0.001061449513 -0.00228706247672)
(0.0180795735867 0.00145398006422 -0.00108366060217)
(0.0216515924078 0.00218867189863 0.0034051188132)
(0.016393075275 0.00263714915263 0.00655504089763)
(0.0057285316716 0.00292047751992 0.00754094353897)
(-0.00606914231329 0.00294555422614 0.00765317012894)
(-0.0171747596695 0.00266114498706 0.00687826970838)
(-0.0235427573659 0.00214021493543 0.0042543181948)
(-0.023983657072 0.00141575477408 0.000999442401777)
(-0.0185779077404 0.000781986031728 -0.00110854180986)
(-0.0122900370035 0.000367489184016 -0.00149578862151)
(-0.0071802480958 0.000129590379028 -0.00121822148454)
(-0.00379662078007 1.80419872302e-05 -0.00080634958317)
(-0.0018670026166 -2.194527773e-05 -0.000472026582288)
(-0.000857964111008 -2.87338533535e-05 -0.000258448732398)
(-0.000360668990498 -2.36544415671e-05 -0.000137095344978)
(-0.000122020669415 -1.6705410459e-05 -7.29931084796e-05)
(-7.87879088973e-06 -1.10138374694e-05 -3.94016729649e-05)
(4.56387902188e-05 -7.04104937084e-06 -2.21468081567e-05)
(6.84348362615e-05 -4.76548264573e-06 -1.18846612624e-05)
(7.2453145305e-05 -3.10854025908e-06 -4.76044203592e-06)
(6.28165450317e-05 -2.14223909507e-06 1.24262220173e-07)
(4.62518289871e-05 -1.68790942761e-06 2.5675562889e-06)
(2.44176775136e-05 -1.62629323605e-06 4.06831138202e-06)
(-4.93505035548e-07 -1.74714271549e-06 3.87771544756e-06)
(-1.92145254228e-05 -2.01634598853e-06 8.79201738861e-07)
(-2.37489810219e-05 -2.44132969968e-06 -3.43346301334e-06)
(-1.98910838966e-05 -2.85603977149e-06 -5.94061493688e-06)
(-1.01680217052e-05 -3.22639017163e-06 -9.66543660707e-06)
(1.18355328304e-05 -3.42371700221e-06 -1.46461124811e-05)
(5.02910375058e-05 -3.39963689766e-06 -1.89658366077e-05)
(9.73039125021e-05 -3.09878625924e-06 -1.86620548977e-05)
(0.00013419157783 -2.7222937146e-06 -1.38789789405e-05)
(0.000153960150107 -2.34184005015e-06 -8.29041429047e-06)
(0.000159015178174 -1.92980491339e-06 -3.7588940712e-06)
(0.000153158935999 -1.55456788336e-06 -2.00691838679e-07)
(0.000138644106464 -1.18981661127e-06 3.46347059302e-06)
(0.000112173315036 -8.23762166883e-07 8.50599605323e-06)
(7.17447900933e-05 -4.83687200576e-07 1.24035141529e-05)
(2.65253845131e-05 5.44556710995e-07 1.18904871551e-05)
(0.00649168531071 -0.00123619781798 -0.00228855580645)
(0.0180752483723 -0.00164732012094 -0.00108534964934)
(0.0216462669863 -0.00240940525659 0.00340382125035)
(0.0163885862554 -0.00286645566858 0.00655521843415)
(0.00572729025294 -0.00315510102745 0.0075399956734)
(-0.00606622914174 -0.00317468333121 0.00765185611478)
(-0.0171681710883 -0.00287933422218 0.00687881045515)
(-0.023535717655 -0.00233971483328 0.00425097997315)
(-0.0239727404346 -0.00157832358361 0.000994561050933)
(-0.0185663761668 -0.000895984548567 -0.00111104051307)
(-0.0122803101758 -0.000436021990906 -0.00149646704356)
(-0.00717378652403 -0.000166070634191 -0.00121803386234)
(-0.00379291264095 -3.55437209034e-05 -0.00080600085878)
(-0.00186506683011 1.4631222687e-05 -0.000471761292482)
(-0.000857028795213 2.64858663587e-05 -0.000258261280178)
(-0.000360264396994 2.37908906658e-05 -0.000136994486312)
(-0.000121879232354 1.77023279572e-05 -7.29840169618e-05)
(-7.84553707165e-06 1.22836550576e-05 -3.94005438431e-05)
(4.56071745598e-05 8.28773260062e-06 -2.21351781589e-05)
(6.83635537355e-05 5.7692494709e-06 -1.1881224428e-05)
(7.23698853415e-05 3.78337103562e-06 -4.77378470983e-06)
(6.27329854955e-05 2.46884703678e-06 1.29602236415e-07)
(4.61810860154e-05 1.6827274754e-06 2.56019466374e-06)
(2.43851884564e-05 1.37776349455e-06 4.06396215285e-06)
(-4.89544974852e-07 1.46196865578e-06 3.88891973105e-06)
(-1.91913222421e-05 1.79225848718e-06 8.89109580532e-07)
(-2.36995288918e-05 2.34280279239e-06 -3.42353861992e-06)
(-1.98164609389e-05 3.02272608231e-06 -5.92007271509e-06)
(-1.00697637306e-05 3.72521273618e-06 -9.64404278131e-06)
(1.19275328618e-05 4.37058988139e-06 -1.46109250996e-05)
(5.03563884663e-05 4.62903330837e-06 -1.89176163436e-05)
(9.73454502746e-05 4.56683647153e-06 -1.86072164456e-05)
(0.000134194871152 4.27632720485e-06 -1.38212910298e-05)
(0.000153931229539 3.82861032375e-06 -8.23405274279e-06)
(0.000158963466298 3.25014107645e-06 -3.7045057148e-06)
(0.000153096294452 2.64826688153e-06 -1.45839198252e-07)
(0.000138572715494 2.12360382318e-06 3.52108111808e-06)
(0.000112087894439 1.71783643845e-06 8.56441131106e-06)
(7.16677543308e-05 1.80128191136e-06 1.24546774924e-05)
(2.64816137167e-05 2.9968313272e-06 1.19226015129e-05)
(0.00621364285162 -0.00344018061954 -0.00225727031564)
(0.0175245311741 -0.00467727045869 -0.00110989642261)
(0.0210056614771 -0.00693304169343 0.00324099711677)
(0.015902471945 -0.0083470176892 0.00638097721925)
(0.00554534524877 -0.00923131970157 0.00742232868266)
(-0.00594648295874 -0.00928902719993 0.00752494673529)
(-0.0167340817098 -0.00837526241851 0.00669526773534)
(-0.0230039586921 -0.00673103794135 0.00406707683111)
(-0.0233487110285 -0.00446607525183 0.000853566402625)
(-0.018081627585 -0.00250007041852 -0.00114996051193)
(-0.0119521827509 -0.00119185551114 -0.00149853206528)
(-0.0069949433815 -0.000435808547289 -0.00120671565814)
(-0.00371505010793 -7.71602124765e-05 -0.000794829379498)
(-0.0018412835205 5.59644943426e-05 -0.000465000796024)
(-0.000856436915116 8.32825974061e-05 -0.000255435102535)
(-0.000366790390559 7.16409008393e-05 -0.000136382017799)
(-0.00012877368499 5.23928223576e-05 -7.36708303137e-05)
(-1.32012525714e-05 3.57301298568e-05 -4.00534593818e-05)
(4.19657273259e-05 2.36778854474e-05 -2.28246125707e-05)
(6.58729100022e-05 1.64216285441e-05 -1.24151860902e-05)
(7.05534704747e-05 1.09621023554e-05 -5.22098087582e-06)
(6.15537034133e-05 7.34381412204e-06 -3.37020762276e-07)
(4.5518115103e-05 5.29185865893e-06 2.0829543026e-06)
(2.41377622934e-05 4.57090457366e-06 3.63154663526e-06)
(-4.36269543229e-07 4.83450016983e-06 3.53291973103e-06)
(-1.89065082586e-05 5.7354114755e-06 5.86354437575e-07)
(-2.32559228978e-05 7.22074727752e-06 -3.62260587241e-06)
(-1.93086589293e-05 8.9361832985e-06 -6.0495018927e-06)
(-9.57987559538e-06 1.06682944169e-05 -9.67139483369e-06)
(1.22231248234e-05 1.2108492396e-05 -1.45534567021e-05)
(5.03348053868e-05 1.26059520784e-05 -1.88326320695e-05)
(9.7074607482e-05 1.21866489674e-05 -1.85665314399e-05)
(0.000133773215255 1.12430979861e-05 -1.38292833199e-05)
(0.000153406966405 9.98393900233e-06 -8.29309065842e-06)
(0.000158386222573 8.44203948683e-06 -3.80367721483e-06)
(0.000152522906589 6.88657832236e-06 -2.76352162695e-07)
(0.00013799857307 5.49053782403e-06 3.34815010966e-06)
(0.000111556412143 4.32861424473e-06 8.35374083788e-06)
(7.12287051891e-05 4.16619830587e-06 1.21920819548e-05)
(2.63030786001e-05 5.51272857601e-06 1.1714525325e-05)
(0.00567227502011 -0.00534750469476 -0.0022186176454)
(0.0164008739255 -0.00742971668398 -0.00125016491484)
(0.0198048414888 -0.0110604070861 0.00274353943308)
(0.0148928902212 -0.0135622959764 0.00581520813274)
(0.00514649677846 -0.0149897289055 0.00707007462684)
(-0.00566459975503 -0.0150679311751 0.00716039475858)
(-0.0158708912858 -0.0135586330204 0.00608703015233)
(-0.0219103842901 -0.0107462727729 0.00357096652285)
(-0.0221189260308 -0.00703628855365 0.000559354086073)
(-0.0171377664215 -0.00388026184259 -0.00123671044823)
(-0.0113298346915 -0.00180963183878 -0.00150258745583)
(-0.00666225693778 -0.000632988557816 -0.00118340882534)
(-0.003574177791 -8.648403931e-05 -0.000771999756979)
(-0.00180113699062 0.000109422124655 -0.000451170003135)
(-0.000858531202706 0.000143564469305 -0.000249433142019)
(-0.000380990901003 0.000120084053759 -0.000135090513863)
(-0.000142892737911 8.7150586171e-05 -7.40758914424e-05)
(-2.40923425077e-05 5.91088006536e-05 -4.1023427551e-05)
(3.46694535711e-05 3.9270112334e-05 -2.38174619811e-05)
(6.10460664239e-05 2.73273654075e-05 -1.32664849452e-05)
(6.70564573327e-05 1.8584488605e-05 -5.90310607861e-06)
(5.92368035337e-05 1.28113427563e-05 -1.19209872439e-06)
(4.42083940639e-05 9.49035168438e-06 1.26288459393e-06)
(2.36292134003e-05 8.31536110167e-06 2.90005737684e-06)
(-3.72588393478e-07 8.68125169575e-06 2.91329967612e-06)
(-1.84081159301e-05 1.00437076587e-05 5.50325646556e-08)
(-2.24766441719e-05 1.23487984004e-05 -3.97109208895e-06)
(-1.84280813383e-05 1.49623533331e-05 -6.22152998042e-06)
(-8.74777494973e-06 1.75909751377e-05 -9.6442085874e-06)
(1.26980322283e-05 1.97314458363e-05 -1.43868228758e-05)
(5.02265744412e-05 2.04608027846e-05 -1.8608843341e-05)
(9.64972363539e-05 1.97198823032e-05 -1.8431094364e-05)
(0.000132936770413 1.81894659544e-05 -1.37971568934e-05)
(0.000152405483053 1.61702108485e-05 -8.35940340118e-06)
(0.000157310745673 1.3744765142e-05 -3.94736913522e-06)
(0.000151465314673 1.13012363455e-05 -4.92041575919e-07)
(0.00013694843876 9.10166904929e-06 3.05686450683e-06)