/*--------------------------------*- C++ -*----------------------------------*\
| =========                 |                                                 |
| \\      /  F ield         | OpenFOAM: The Open Source CFD Toolbox           |
|  \\    /   O peration     | Version:  3.0.1                                 |
|   \\  /    A nd           | Web:      www.OpenFOAM.org                      |
|    \\/     M anipulation  |                                                 |
\*---------------------------------------------------------------------------*/
FoamFile
{
    version     2.0;
    format      ascii;
    class       volScalarField;
    location    "3.9";
    object      epsilon_0;
}
// * * * * * * * * * * * * * * * * * * * * * * * * * * * * * * * * * * * * * //

dimensions      [0 2 -3 0 0 0 0];

internalField   nonuniform List<scalar> 
15984
(
0.000485621730423
0.000587780300126
0.000637236153927
0.000649806786301
0.000649195954929
0.000650968214379
0.000657390247921
0.000663202462855
0.000663058360094
0.000656002916116
0.000648798936746
0.000640818837995
0.000633484337674
0.000627927409042
0.00062406688065
0.000621529271789
0.000619900836285
0.000618897953485
0.000618285961889
0.000617911430166
0.000617679293097
0.000617527241351
0.000617424767421
0.000617357588105
0.000617311220651
0.000617273420818
0.000617233646937
0.000617187750729
0.000617178739628
0.000617183832682
0.000617184438438
0.000617156557498
0.000617095720788
0.000616960125378
0.000616526114703
0.000615006749927
0.000609878803776
0.00059431075178
0.000552994861529
0.000466574952364
0.000755398913287
0.00120713469304
0.00141063055682
0.0014576690363
0.00145971599656
0.00146758838161
0.00150305382831
0.00156157796237
0.00160896438976
0.00161793496627
0.00159323694788
0.00156387223445
0.00153919041125
0.00152129862814
0.00150966961754
0.00150244879077
0.00149800131539
0.0014952788711
0.00149363313564
0.00149263861232
0.00149203261768
0.00149164530604
0.00149136918747
0.00149120238955
0.00149110699498
0.00149106939314
0.0014910384234
0.0014909880726
0.00149100770158
0.00149108160459
0.00149114416178
0.00149106135234
0.00149065454136
0.00148954347119
0.00148572979244
0.00147318112332
0.00143611971339
0.00133966270339
0.00111878783454
0.000692763737658
0.000890536631281
0.00166616936554
0.00200700888675
0.00208967923238
0.00209881929965
0.00211776962733
0.00218556928327
0.00230124689535
0.00240375407952
0.00243773413148
0.00241065437736
0.0023620327906
0.00232080579068
0.00229168982566
0.00227307340777
0.00226183279187
0.00225512357358
0.00225110866346
0.00224869058887
0.00224724376846
0.00224636635817
0.00224580666654
0.00224540501556
0.00224512537892
0.00224499345146
0.00224496546958
0.00224496953967
0.00224494443684
0.00224501718248
0.00224516746216
0.00224527067974
0.00224509490157
0.002244173565
0.00224143975447
0.00223271935094
0.00220586555938
0.00213182187162
0.00195118301141
0.00155780981132
0.000800868425014
0.000962885701956
0.0019439999372
0.00236271996771
0.00245562134573
0.00246466663264
0.00249604130731
0.00260256323742
0.00278958448874
0.00296918918994
0.00304874900213
0.00302974625482
0.00297309593801
0.00291784981608
0.00287870653341
0.00285387884605
0.00283902684074
0.0028303721948
0.00282531570071
0.00282232006906
0.00282053243413
0.00281944855007
0.00281875700208
0.00281826556616
0.00281791126447
0.00281774065422
0.00281773596365
0.00281779544614
0.00281781007813
0.00281793544577
0.00281814241427
0.0028182681176
0.00281795747747
0.00281645981953
0.00281181254406
0.00279756267281
0.00275594226512
0.00264667336181
0.00239200317513
0.00185837673957
0.000856382603081
0.00100336972033
0.0020870405362
0.00252820003512
0.0026568719783
0.00269358529837
0.00274301829325
0.00287052281066
0.00307781491133
0.00335043830514
0.00349554267029
0.00349563343428
0.00343447643726
0.00336894433755
0.00332052328645
0.00328990839433
0.00327170066856
0.00326126468224
0.00325531894236
0.00325186529016
0.00324981096892
0.00324856406907
0.00324776914968
0.00324721387697
0.00324681877299
0.00324662744642
0.00324665189545
0.0032467674193
0.00324681580816
0.00324698775535
0.0032472455127
0.00324737488346
0.00324690302232
0.00324478534921
0.00323820207264
0.00321838326944
0.00316269398987
0.00302188493628
0.00270497948026
0.0020616218983
0.00088668693744
0.00102511668451
0.00213860884211
0.00260567876385
0.00277850408244
0.00282129334837
0.00288391815246
0.00304425496588
0.00329987082113
0.00359313661469
0.00381381731715
0.00384008128196
0.00377821020253
0.0037041827967
0.00364740474387
0.00361130835806
0.00359012831145
0.00357807593341
0.00357136856244
0.00356756020384
0.00356530360954
0.00356392568817
0.0035630475892
0.00356244534987
0.00356202933495
0.00356183583325
0.00356188995393
0.00356205017262
0.00356213188372
0.00356234872336
0.00356264967411
0.00356277212779
0.00356213056497
0.00355939996649
0.00355096269928
0.00352601512263
0.00345781177292
0.00329022683625
0.00292314245942
0.00219684734943
0.000903749908477
0.00103537484973
0.00213738671992
0.00264224304877
0.00282014740646
0.00285872419478
0.00293188381818
0.00312724515198
0.00343299479601
0.0037478132047
0.00403248484945
0.00408653871952
0.00402647602981
0.00394570802453
0.00388191110071
0.00384102038257
0.00381721974851
0.00380383836002
0.0037965018617
0.00379240805149
0.00379001885258
0.00378854031325
0.00378759365466
0.00378695754212
0.00378653183807
0.00378634423704
0.00378642511621
0.00378662311282
0.00378673485876
0.00378699175308
0.00378732879229
0.00378743939225
0.00378663612756
0.00378335104104
0.00377327583826
0.00374394391007
0.00366535538755
0.00347631063951
0.00307069180272
0.00228426202505
0.000913352384883
0.00103965659472
0.0021162899683
0.00264236461257
0.00281499936724
0.00284379875049
0.0029251595003
0.00315375108804
0.0035053403805
0.00386437762877
0.00417582435148
0.00425384363439
0.00419656694509
0.00411085992775
0.00404168040573
0.0039969919697
0.00397103929974
0.00395669833847
0.00394886679439
0.00394457192345
0.00394208232261
0.00394053199913
0.00393953372127
0.00393887330256
0.00393844534127
0.0039382657261
0.00393836730863
0.00393859702548
0.00393873338431
0.00393902145987
0.00393938819622
0.00393948477559
0.00393854396573
0.00393480454957
0.00392341673531
0.00389065507628
0.00380413264448
0.00359912497538
0.00316581007362
0.00233823952694
0.000918611279354
0.00104161686143
0.00209701837761
0.0026301002977
0.00279581589472
0.00281318653444
0.00290030660885
0.00315612904811
0.00354122388363
0.00393365590287
0.00426211002331
0.0043568588384
0.0043019907757
0.0042131172499
0.0041402731158
0.00409298532414
0.00406555005207
0.0040505340941
0.0040423956324
0.00403797167791
0.00403542088529
0.0040338256642
0.00403278976125
0.00403211343878
0.00403168454714
0.00403151375045
0.00403162862204
0.00403187978642
0.00403203338392
0.00403234459896
0.00403273078553
0.0040328150349
0.0040317742264
0.00402771344808
0.00401541357115
0.00398030928527
0.00388845900613
0.00367293340777
0.00322183454606
0.00236885716401
0.000921309480054
0.00104264090705
0.00208742523329
0.00262122975222
0.00278252767349
0.00279132313116
0.00288159504642
0.00315393135132
0.00355634850986
0.003965822068
0.00430300886151
0.00440590614355
0.00435225285565
0.00426179924103
0.00418710754881
0.00413851557317
0.00411034222774
0.0040949653939
0.00408669261437
0.00408220802976
0.00407962936538
0.00407800970214
0.00407695299261
0.00407626730174
0.00407583829538
0.00407567201842
0.00407579306618
0.00407605488421
0.00407621760292
0.00407654106021
0.00407693761303
0.00407701302893
0.0040759186164
0.00407169101612
0.00405892451804
0.00402263477526
0.00392811778225
0.00370738552919
0.00324762306674
0.00238257928893
0.000922436622555
0.00104275692582
0.00208795698254
0.00262174681899
0.00278309711981
0.0027920743472
0.00288229662257
0.00315441544629
0.003556719086
0.0039660722143
0.00430327979138
0.00440590431749
0.00435215695265
0.00426170741009
0.00418704497331
0.00413847220551
0.00411031335519
0.0040949487403
0.00408668090174
0.00408219760314
0.00407962022346
0.00407800057287
0.00407694097755
0.00407625394974
0.00407582312411
0.00407565420466
0.00407577442899
0.00407603616969
0.00407619930164
0.00407652307516
0.00407691802381
0.00407699082908
0.00407589403027
0.00407166480739
0.00405889803779
0.00402261061711
0.00392809816781
0.00370736999858
0.00324761172558
0.00238257228245
0.000922435667355
0.00104192810026
0.00209852769626
0.00263156449166
0.00279741499726
0.00281510919262
0.00290211137547
0.00315748201134
0.0035422800289
0.00393437686506
0.00426287851117
0.00435685083812
0.00430171900845
0.00421285416808
0.00414008713646
0.00409285862638
0.00406546171613
0.00405047959142
0.00404235929554
0.00403794170141
0.00403539459133
0.00403379833981
0.00403275504863
0.00403207381897
0.00403163998502
0.00403146307143
0.00403157494259
0.00403182611907
0.00403198104954
0.00403229291478
0.00403267516108
0.00403275198195
0.00403170417223
0.00402763868368
0.00401533799502
0.00398023945328
0.00388840230469
0.00367288868522
0.00322180156075
0.00236883662888
0.000921306458214
0.00104007735447
0.00211862563631
0.00264466047922
0.00281751411977
0.00284660771302
0.00292778355613
0.00315584987421
0.00350695766496
0.00386545199265
0.0041768817948
0.00425375169767
0.00419610701698
0.0041104333382
0.00404138102622
0.00399679331318
0.00397089458401
0.00395660703395
0.00394880288773
0.00394452197179
0.0039420378685
0.00394048379328
0.00393947954195
0.00393881275135
0.00393837771165
0.00393818864996
0.00393828567154
0.00393851574528
0.00393865410013
0.00393894255217
0.00393930272399
0.00393938863819
0.00393843691057
0.00393469081704
0.0039233016498
0.00389054906009
0.0038040455568
0.00359905511371
0.00316575815219
0.00233820647368
0.000918605664417
0.00103578798122
0.00214022555033
0.0026451304133
0.00282334553683
0.00286217845163
0.00293509927138
0.00312988690956
0.00343499999432
0.00374927180924
0.00403352834425
0.00408625976364
0.0040258218181
0.00394513987318
0.00388151462832
0.00384075474373
0.00381703195227
0.00380372121135
0.00379641406382
0.00379233854201
0.00378995872447
0.00378847633707
0.00378752625742
0.00378688439893
0.00378645120874
0.00378625278908
0.00378632748857
0.00378652563616
0.00378663871885
0.00378689494691
0.00378722466521
0.00378732350769
0.00378650688651
0.00378321344323
0.0037731369369
0.00374381539767
0.00366524835637
0.00347622339835
0.00307062578341
0.0022842187099
0.000913344421843
0.00102540555103
0.00214148113632
0.0026089921972
0.0027820458433
0.00282505449383
0.00288740138209
0.003047150428
0.00330205895695
0.00359579221419
0.00381453424848
0.00383952905088
0.00377737509622
0.00370351415032
0.00364693331745
0.00361098966547
0.00358992848755
0.00357793728068
0.00357126179143
0.00356747384381
0.003565230182
0.00356385568509
0.00356297687779
0.00356237058102
0.00356194823525
0.00356174499993
0.00356179217106
0.0035619513578
0.00356203314935
0.00356224809867
0.00356254147656
0.00356265118472
0.00356199727933
0.00355925894522
0.0035508202067
0.00352588335704
0.00345769996751
0.00329013267238
0.0029230693716
0.00219679830881
0.000903739738233
0.00100345190366
0.00208947367373
0.00253290634639
0.00266061691651
0.00269755387741
0.00274663870458
0.0028735240411
0.00308009612124
0.0033523957689
0.00349569699752
0.00349478016653
0.00343351608983
0.00336819961228
0.00332000848154
0.00328956588832
0.00327150141387
0.00326111867166
0.00325520515037
0.00325177616175
0.00324973570204
0.00324849603227
0.0032477043259
0.00324714825676
0.0032467497173
0.00324655073205
0.00324656927705
0.00324668342064
0.00324673112853
0.00324689998251
0.0032471499845
0.00324726750263
0.00324678510246
0.00324466088317
0.00323807716217
0.00321826725345
0.00316259061676
0.00302179502834
0.0027049080291
0.00206157233603
0.000886675820418
0.000962747839795
0.00194564056834
0.00236635972052
0.00246049855614
0.00247001768759
0.00250070888306
0.00260655866945
0.00279217965302
0.00297018077639
0.0030483270416
0.00302869855533
0.00297209289611
0.0029171039167
0.00287819363668
0.00285358372271
0.00283884027915
0.00283023951931
0.002825214504
0.00282223818911
0.00282046525313
0.00281939112737
0.00281870646121
0.00281821843705
0.00281786537588
0.00281768700858
0.00281767751603
0.00281773720518
0.00281775073713
0.00281787412577
0.00281807356489
0.00281819042136
0.00281787157344
0.00281636940173
0.00281172271095
0.00279747630375
0.00275585969639
0.00264659861418
0.00239194174997
0.00185833325726
0.000856371661887
0.000890231367813
0.00166695312873
0.00200928250672
0.00209299840125
0.00210252255141
0.00212105520769
0.00218812800077
0.00230266759324
0.00240390695952
0.00243696944313
0.00240960419007
0.00236113718234
0.0023201472051
0.00229128018596
0.00227282218011
0.00226168061759
0.00225501774635
0.00225102947653
0.00224862941239
0.00224719440728
0.00224632615387
0.0022457747054
0.00224537964245
0.00224510251289
0.00224496465317
0.00224493437058
0.00224493851497
0.00224491404694
0.00224498682309
0.00224513213227
0.00224522976088
0.00224504962788
0.00224412629784
0.00224138855528
0.00223266609543
0.00220581219989
0.00213177020103
0.00195113910176
0.00155777935377
0.000800861440507
0.000755067308279
0.00120725833771
0.00141166802954
0.00145939887321
0.00146172034692
0.0014693071771
0.00150426380501
0.00156205939773
0.00160870491803
0.00161721733385
0.00159246674299
0.00156321915321
0.00153873961886
0.00152102182399
0.0015095039763
0.00150234336797
0.001497928792
0.00149522800952
0.00149359323244
0.00149260744252
0.00149200842894
0.00149162687656
0.00149135551399
0.00149119104865
0.0014910960609
0.00149105623787
0.00149102677032
0.00149097749842
0.00149099719148
0.00149107143694
0.00149113226284
0.00149104812366
0.00149063756142
0.00148952391696
0.00148570889471
0.00147315952587
0.00143609578295
0.00133964157436
0.00111877542332
0.00069276312382
0.000485494283379
0.000587662821111
0.000637325376744
0.000650107076423
0.000649613593572
0.000651274167757
0.000657526166169
0.000663135324098
0.00066282655445
0.000655703794578
0.000648503157564
0.000640584760856
0.000633326169907
0.000627829049801
0.000624007408633
0.000621491512269
0.00061987979627
0.000618887211413
0.000618280780897
0.000617910370381
0.000617680245445
0.000617528782335
0.000617429097499
0.000617362508408
0.000617315698912
0.000617276642377
0.000617236662169
0.000617190563165
0.000617180351935
0.000617184855838
0.000617182657606
0.000617157701142
0.000617100647164
0.000616965893699
0.000616532371972
0.000615013992397
0.000609884063138
0.000594315464524
0.000553002132442
0.00046658420928
0.000712484065649
0.00113208910689
0.00133928055409
0.00140359632089
0.00141593682063
0.0014269821409
0.00145807686131
0.00150475905355
0.00154384486736
0.00155782482675
0.00155069000235
0.00153569856187
0.00152329740188
0.00151385026682
0.00150630304812
0.00150093016432
0.00149733129428
0.00149500670932
0.00149353084687
0.00149259667599
0.00149200377967
0.00149161581673
0.00149134842803
0.00149117276543
0.00149107601593
0.00149104758821
0.0014910500211
0.00149103909397
0.00149108963537
0.00149117650892
0.00149123734645
0.00149117936058
0.0014908228408
0.00148969461897
0.00148583761463
0.00147323462076
0.00143611203893
0.00133961768352
0.00111877483862
0.00069284971352
0.000933244810716
0.00128472428337
0.00147820338357
0.00154562085106
0.00156259535322
0.00157461420893
0.00160293249062
0.00164676547499
0.00168605770533
0.00170309711608
0.00169945687872
0.00168778083014
0.0016762673709
0.00166775517788
0.00166181408979
0.0016579412735
0.00165550040387
0.00165399463575
0.00165308318787
0.00165253819117
0.00165221256076
0.00165201169002
0.00165187737592
0.00165179159678
0.00165175314641
0.00165175728638
0.00165178020769
0.00165179814552
0.00165183181015
0.00165187751084
0.001651898958
0.00165181938588
0.00165145509936
0.00165026128388
0.00164613419411
0.00163273098038
0.00159391413686
0.00149544124441
0.00128008260824
0.000920529135542
0.0011917521695
0.00153326967631
0.00175187762016
0.00182990319493
0.00185072311204
0.00186861414907
0.00191012308827
0.00197517609244
0.00203693311591
0.00206894602176
0.00207078594305
0.00205864124405
0.00204473888724
0.00203403676931
0.0020267745062
0.00202219126142
0.00201939174486
0.00201770919052
0.00201671061787
0.00201612740795
0.00201578581088
0.00201557854565
0.00201544170303
0.00201535290871
0.00201531493515
0.00201531921915
0.0020153450936
0.00201536951297
0.00201541145041
0.00201546365958
0.00201548134487
0.00201535758269
0.00201480512519
0.00201293028397
0.00200667640623
0.00198735454827
0.00193426090474
0.00180641354709
0.00154216008579
0.00116010513361
0.00133987929927
0.00171497716043
0.00196061505123
0.00205201183686
0.00207897010485
0.00210425771879
0.00215968341359
0.00224656584197
0.00233294915698
0.00238185966624
0.00238931594547
0.00237637991463
0.00235962218634
0.00234627435627
0.00233737466173
0.0023318707675
0.0023285930932
0.00232667039125
0.00232554940905
0.0023249023918
0.0023245269409
0.00232430028984
0.00232415114416
0.00232405210726
0.00232400798387
0.00232401316953
0.00232404618289
0.00232407838269
0.00232413082229
0.00232419073628
0.00232420176972
0.00232401442513
0.00232321245826
0.00232048626744
0.00231169910767
0.00228568872383
0.00221721296454
0.00205893883596
0.0017435904577
0.00129598180202
0.00142550011148
0.00182867832043
0.00209658377641
0.00221215459954
0.00225272443581
0.00228662622621
0.00235186305559
0.00244811490807
0.00255641418027
0.00262411993225
0.00263822435896
0.00262459373713
0.00260502907509
0.00258897725939
0.00257837047121
0.00257191272781
0.00256814489666
0.00256598632161
0.00256475148332
0.00256404480073
0.00256363726263
0.00256339239556
0.0025632325641
0.00256312664172
0.00256307779576
0.00256308625322
0.0025631290439
0.00256316894077
0.00256323055411
0.00256329738264
0.00256329702022
0.00256303450405
0.00256195520756
0.00255833113163
0.0025469467469
0.00251437259642
0.00243144853989
0.00224572157763
0.00188551040085
0.00137731072204
0.00147231100493
0.00188988460605
0.00218209621889
0.00232156266034
0.00237200483074
0.0024139389473
0.00249109741251
0.00260039834499
0.0027156565026
0.00280221057714
0.00282392348735
0.00281013972858
0.00278793939285
0.00276938767784
0.00275711344243
0.00274974518135
0.00274550969001
0.00274313286051
0.0027417987512
0.00274104141757
0.00274060552029
0.00274034446914
0.0027401761201
0.00274006616904
0.00274001609087
0.00274002896291
0.00274008039375
0.00274012754053
0.00274019801883
0.00274027018266
0.00274025579761
0.00273991480283
0.00273855809297
0.00273406751919
0.00272025939278
0.00268176095228
0.00258626782687
0.00237754586798
0.00198126184926
0.00142707776267
0.00149482721982
0.00191588512326
0.00223048839583
0.00238468411732
0.00244080480272
0.00248990374641
0.00258030067254
0.00270419683633
0.0028256642953
0.00292720562414
0.00295659168857
0.00294322361213
0.00291882770539
0.00289810066887
0.00288433215175
0.00287614250327
0.00287149822041
0.00286893044892
0.00286751126061
0.00286671412507
0.00286625414015
0.00286597857594
0.0028658033455
0.00286569123644
0.00286564183775
0.00286565893413
0.00286571755536
0.00286577145968
0.00286584990384
0.00286592608316
0.00286589726497
0.00286548225369
0.00286387290262
0.00285861458104
0.00284272037175
0.00279926064828
0.0026935551842
0.00246677884629
0.00204338835533
0.00145732062968
0.0015037474404
0.00192240287863
0.00225132249772
0.00241313087419
0.00247093591436
0.00252592761803
0.00262983001416
0.00276872799537
0.00290099450923
0.00301024035729
0.00304616273413
0.00303351616622
0.00300748656002
0.00298503449684
0.0029700595606
0.00296119320428
0.00295622741395
0.00295350595457
0.00295202031556
0.00295119155496
0.00295071232975
0.00295042450594
0.00295024363209
0.00295013050638
0.00295008251052
0.00295010280099
0.00295016724638
0.00295022697533
0.00295031183147
0.00295039106218
0.00295034919743
0.00294987166514
0.00294805487547
0.00294218007254
0.00292464808357
0.00287737755974
0.00276401562651
0.00252409347433
0.00208175418997
0.00147510699388
0.00150653723731
0.00192135533421
0.00225695313279
0.00242146743487
0.00247850617457
0.00253767708429
0.0026529238119
0.0028043412765
0.0029462006036
0.00306035073616
0.00310094891753
0.00308898035149
0.00306188784755
0.00303824381101
0.00302243127005
0.00301308939428
0.0030078974897
0.00300507189987
0.00300354071319
0.00300269033321
0.00300219740885
0.00300189999618
0.00300171484268
0.00300160085297
0.00300155440544
0.00300157670897
0.00300164503164
0.00300170913626
0.0030017987803
0.003001879918
0.00300182803931
0.00300130521838
0.00299934157696
0.00299303784474
0.00297438478444
0.00292454717995
0.00280611909056
0.0025576939069
0.00210349866156
0.00148482070955
0.00150725459222
0.00191957906842
0.00225727331841
0.00242228081461
0.00247791079487
0.00253928158078
0.00266135582362
0.00281985563334
0.00296716641751
0.0030839115193
0.00312686531632
0.00311525744552
0.00308763256651
0.00306338062508
0.00304714455893
0.00303756105233
0.00303225150231
0.00302937495881
0.00302782086303
0.0030269594217
0.00302645880485
0.00302615557287
0.00302596754992
0.00302585276533
0.00302580689079
0.00302583008732
0.00302590038825
0.003025967022
0.00302605937639
0.00302614144513
0.00302608375943
0.00302553681023
0.00302349694495
0.00301697364484
0.002997752859
0.00294662793807
0.00282568680978
0.00257310424762
0.00211323764769
0.00148906529646
0.00150739166162
0.00191980510122
0.00225748049786
0.00242247537533
0.00247811712802
0.00253945574248
0.00266146462472
0.00281991406512
0.00296719718267
0.00308396155507
0.00312685255988
0.00311522121307
0.00308759974359
0.0030633581706
0.0030471285195
0.0030375493125
0.00303224309006
0.00302936826055
0.00302781479195
0.00302695352439
0.00302645248583
0.00302614820542
0.00302595926678
0.00302584358764
0.0030257968804
0.00302581974382
0.00302589010798
0.00302595705812
0.00302604960693
0.00302613134734
0.00302607286651
0.00302552504129
0.00302348454626
0.00301696114486
0.00299774119759
0.00294661797131
0.00282567880147
0.00257309831397
0.00211323352125
0.00148906210241
0.00150691434975
0.00192199771671
0.00225753043748
0.00242200083641
0.0024790319917
0.00253812404966
0.00265323017357
0.0028045205661
0.0029463072999
0.00306049965654
0.0031009142223
0.00308887717117
0.00306179332528
0.00303817669469
0.00302238373656
0.00301305426235
0.00300787205337
0.00300505175714
0.00300352273826
0.00300267288496
0.0030021786038
0.00300187835777
0.00300169051636
0.00300157398589
0.00300152527258
0.00300154658934
0.00300161511599
0.00300168015442
0.00300177034214
0.00300185061603
0.00300179650862
0.00300127118042
0.00299930574782
0.00299300170889
0.00297435096599
0.00292451810152
0.00280609566019
0.00255767644337
0.00210348647605
0.00148481121839
0.00150428519813
0.00192338633994
0.00225219088145
0.002413896442
0.00247165345353
0.00252653470745
0.00263026822227
0.00276901203388
0.00290118581368
0.00301044986518
0.00304609103043
0.00303334647179
0.00300733444677
0.00298492565575
0.00296998298021
0.00296113602197
0.00295618551101
0.0029534721865
0.00295199046094
0.00295116260923
0.00295068120971
0.00295038987246
0.00295020516872
0.00295008833433
0.00295003695359
0.00295005564797
0.00295012045419
0.00295018155257
0.002950267104
0.00295034496419
0.00295029981802
0.00294981847757
0.00294799903998
0.00294212374823
0.00292459517821
0.00287733164829
0.00276397821669
0.00252406529654
0.00208173434876
0.00147509142896
0.00149540998579
0.00191708330392
0.00223156967707
0.00238559548287
0.00244164581552
0.0024906200288
0.00258083685871
0.00270458813582
0.00282599138592
0.00292741966036
0.00295646184632
0.00294298931748
0.00291862540286
0.00289795538464
0.00288422959291
0.0028760670233
0.00287144219062
0.00286888408746
0.00286747008003
0.002866674616
0.00286621240826
0.00286593336222
0.0028657539189
0.0028656376136
0.00286558421947
0.00286559930876
0.00286565827613
0.00286571362019
0.00286579267882
0.00286586723102
0.00286583459833
0.00286541503922
0.00286380250377
0.00285854361077
0.00284265335509
0.00279920168128
0.00269350631663
0.00246674146139
0.00204336175196
0.00145729928132
0.00147281662381
0.00189113922854
0.00218338584112
0.00232265186492
0.00237299528283
0.00241480239538
0.00249179670747
0.00260093350232
0.00271628607485
0.00280237036944
0.00282371903187
0.00280984847793
0.00278769827885
0.00276921376664
0.00275699060715
0.00274965794765
0.00274544245886
0.00274307617077
0.00274174812689
0.00274099331413
0.00274055632548
0.0027402923468
0.00274012006748
0.00274000611057
0.0027399520911
0.0027399627953
0.00274001438054
0.00274006273521
0.0027401336431
0.00274020403943
0.00274018565407
0.00273984017654
0.00273848031331
0.00273398912626
0.00272018494067
0.00268169416817
0.00258621109034
0.00237750159255
0.00198123015749
0.00142705286061
0.00142583663747
0.00182983639171
0.00209824359622
0.00221348476547
0.00225397703939
0.00228773279329
0.00235278845384
0.00244881963551
0.00255698958997
0.00262416286551
0.002637942148
0.00262426134578
0.00260476287284
0.00258878571353
0.00257823681362
0.00257181961859
0.00256807143582
0.00256592381184
0.00256469582496
0.00256399217125
0.00256358459585
0.0025633378133
0.00256317496181
0.00256306580495
0.0025630134582
0.00256301996125
0.00256306282898
0.00256310361147
0.00256316541734
0.0025632304261
0.00256322637666
0.00256295992475
0.00256187788928
0.00255825334795
0.002546872154
0.00251430387919
0.00243138842567
0.00224567356952
0.0018854757708
0.00137728483478
0.00134001674499
0.00171590631525
0.00196216132955
0.00205373986745
0.00208071176848
0.0021057092384
0.00216098512539
0.00224746626449
0.00233335540306
0.00238176582712
0.00238897494111
0.00237602876414
0.00235935233526
0.00234607997541
0.00233724445954
0.00233177832727
0.0023285201689
0.00232660842615
0.00232549384898
0.00232485019605
0.00232447557605
0.00232424817294
0.0023240973141
0.00232399626294
0.00232394899137
0.00232395252603
0.00232398577048
0.002324018679
0.00232407117588
0.00232412944693
0.00232413758284
0.00232394718551
0.00232314322671
0.0023204167396
0.0023116311447
0.00228562406048
0.00221715465464
0.00205889101374
0.00174355594737
0.00129595960379
0.00119172873014
0.00153392124586
0.00175313193948
0.00183144793695
0.00185234606763
0.00187006095678
0.00191128513765
0.00197589023176
0.00203713255496
0.00206873682679
0.00207041812436
0.00205829794655
0.0020444780874
0.0020338584514
0.00202665397524
0.00202210629812
0.00201932531676
0.00201765321568
0.00201666078974
0.00201608077861
0.00201574043516
0.00201553339337
0.00201539614684
0.00201530626375
0.00201526603485
0.00201526904896
0.00201529507482
0.00201532011719
0.00201536217009
0.00201541326156
0.00201542907419
0.00201530343792
0.00201474995555
0.00201287443521
0.00200662066681
0.00198730012287
0.00193420996657
0.00180637062738
0.00154212934424
0.00116009042254
0.000933148068954
0.00128513867085
0.00147915938272
0.0015469045204
0.00156399139743
0.00157584276512
0.0016038535315
0.0016472452746
0.0016860758507
0.00170280906146
0.0016990866958
0.00168745792643
0.0016760314234
0.00166759699972
0.00166170772302
0.00165786620418
0.00165544323791
0.00165394806476
0.00165304206245
0.00165250013021
0.00165217611567
0.00165197579547
0.00165184168873
0.00165175550218
0.0016517162351
0.00165171885173
0.00165174198202
0.00165176026466
0.00165179369282
0.00165183953671
0.00165186015869
0.0016517797443
0.00165141539513
0.00165022170895
0.0016460944291
0.00163269145385
0.00159387508471
0.00149540749876
0.00128005848189
0.000920518185002
0.0007123519243
0.00113238690965
0.00134015360119
0.00140492698655
0.00141748029432
0.00142830690268
0.00145899194508
0.0015051268294
0.00154368168049
0.00155735018588
0.00155016080358
0.00153525974035
0.00152298310572
0.00151364097933
0.0015061643578
0.00150083784701
0.00149726998846
0.00149496265573
0.00149349476863
0.00149256431564
0.00149197251521
0.00149158319192
0.00149131324872
0.00149113567785
0.00149103647411
0.00149100529077
0.00149100563121
0.00149099415777
0.00149104568687
0.00149113594568
0.00149119708148
0.00149113720552
0.00149078330318
0.00148965898391
0.00148580178767
0.00147319895297
0.00143607146696
0.00133958207624
0.00111875008118
0.000692845017411
0.000818846900837
0.00153198917999
0.00188586993073
0.0020069106573
0.00203950765256
0.00206310566093
0.00211555696385
0.00219681692761
0.0022722728512
0.00231093370408
0.00231391468967
0.00230013513484
0.00228371633909
0.0022726840933
0.00226378813088
0.00225719332215
0.00225268577755
0.00224975535852
0.00224787600643
0.00224666999272
0.00224589260611
0.00224537915082
0.00224502794609
0.00224480109876
0.00224468525255
0.00224466805638
0.00224469533444
0.00224470491412
0.00224479728484
0.00224492816801
0.00224502771834
0.00224490325891
0.00224413501121
0.00224151904673
0.00223279276779
0.00220589951761
0.00213180537175
0.00195115744679
0.00155790113735
0.000801147013971
0.00115552834502
0.00152957384023
0.00177330579538
0.00187179942028
0.00190342953751
0.00192212821308
0.00195463678851
0.002001519271
0.00204308121396
0.00206213770147
0.00206035070582
0.00204963954364
0.00203855165404
0.00203061042702
0.00202502058298
0.00202132001168
0.00201896762736
0.00201751043903
0.00201661662867
0.00201607161041
0.00201574015533
0.00201553266489
0.00201539355052
0.00201529857875
0.00201526008615
0.00201527421065
0.00201531197673
0.00201533863897
0.00201537907143
0.00201543132222
0.00201545077677
0.00201532775145
0.00201476934917
0.00201288015394
0.00200659296041
0.0019872322575
0.00193410495964
0.00180624655224
0.00154205216583
0.00116037001425
0.00151708641083
0.00174562445628
0.00196745379756
0.00206275626656
0.00209564567306
0.00211835523221
0.00215846185166
0.00221722614305
0.00227315968706
0.00230441636639
0.00230960769228
0.00230160047225
0.00229103077477
0.00228253706099
0.00227667246191
0.00227292421449
0.00227062040286
0.00226923358992
0.00226840649384
0.00226791621216
0.00226762553477
0.00226744861251
0.00226733328089
0.00226725794206
0.00226723015071
0.00226724723089
0.00226728471717
0.00226731361068
0.00226735141528
0.00226739564308
0.00226739926346
0.00226723044588
0.00226651660314
0.00226409939893
0.00225632543005
0.00223343659629
0.00217349754579
0.00203629131079