/*--------------------------------*- C++ -*----------------------------------*\
| =========                 |                                                 |
| \\      /  F ield         | OpenFOAM: The Open Source CFD Toolbox           |
|  \\    /   O peration     | Version:  3.0.1                                 |
|   \\  /    A nd           | Web:      www.OpenFOAM.org                      |
|    \\/     M anipulation  |                                                 |
\*---------------------------------------------------------------------------*/
FoamFile
{
    version     2.0;
    format      ascii;
    class       volScalarField;
    location    "3.9";
    object      k_0;
}
// * * * * * * * * * * * * * * * * * * * * * * * * * * * * * * * * * * * * * //

dimensions      [0 2 -2 0 0 0 0];

internalField   nonuniform List<scalar> 
15984
(
0.000963377466597
0.00109472983461
0.00115561386825
0.00117083254555
0.00117007947202
0.00117223962622
0.0011800457823
0.00118710496908
0.00118698308329
0.00117850938117
0.00116982885332
0.00116012689363
0.00115116207542
0.00114434157256
0.00113958917273
0.00113645886704
0.00113444690944
0.00113320547374
0.00113244602068
0.00113197970732
0.00113168953494
0.00113149877454
0.0011313720042
0.00113128999518
0.0011312336356
0.00113118815806
0.00113114050706
0.00113108532638
0.00113107464586
0.0011310812017
0.00113108351038
0.00113105165226
0.00113097656908
0.00113080832104
0.00113026918791
0.00112838447598
0.00112203360344
0.00110270705214
0.00105071848087
0.000937755836632
0.00129413901946
0.0017698669236
0.00196383510572
0.00200719387747
0.00200899485313
0.00201632187123
0.00204908356388
0.00210253462829
0.00214538987029
0.00215361741121
0.0021315723051
0.00210512552533
0.00208271890216
0.00206638747729
0.00205573386801
0.00204910352362
0.00204501333789
0.00204250598416
0.00204098606425
0.00204006370042
0.00203949867604
0.00203913533814
0.0020388770226
0.00203872571941
0.00203863991844
0.00203860748631
0.0020385816745
0.00203853815132
0.00203855706164
0.00203862476864
0.00203868848772
0.00203861650343
0.00203823927935
0.00203720364348
0.00203367236931
0.00202207396704
0.00198774728117
0.00189726694481
0.00168190390439
0.00122093971916
0.00144462754344
0.0021943823781
0.00248442726735
0.00255205731663
0.00255940458257
0.00257497847544
0.00263025634993
0.00272317843216
0.00280431920271
0.00283118380354
0.00281023085615
0.00277208196945
0.00273946915025
0.00271629095425
0.00270141163838
0.0026924054356
0.00268702157375
0.00268379558289
0.00268184832118
0.00268067842843
0.00267996517543
0.00267950756945
0.00267917812501
0.00267895335757
0.00267885009004
0.00267883009073
0.00267883598012
0.00267881854798
0.00267887699171
0.00267900383246
0.002679094375
0.00267895715274
0.00267821244575
0.00267599670726
0.00266895107782
0.00264729229972
0.00258731273319
0.00243840369647
0.00209777116192
0.00134513490732
0.00152212447455
0.00243203954282
0.0027697948923
0.00284172311029
0.00284859633445
0.00287299876437
0.0029549427054
0.00309604680706
0.00322871750956
0.00328690165279
0.00327343494074
0.00323232229332
0.00319184852714
0.0031629769651
0.00314458277208
0.00313355002165
0.00312711059555
0.0031233437506
0.00312110801135
0.00311976880462
0.00311895249091
0.00311842872412
0.00311805536207
0.00311778581556
0.0031176621184
0.00311766086607
0.00311770679349
0.00311772118756
0.00311781981681
0.00311798193941
0.00311808370357
0.00311785574509
0.00311673262547
0.00311324718784
0.00310257920064
0.00307144260333
0.00298921394587
0.00279354257876
0.00236002575574
0.00140680747323
0.00156467881021
0.00254979373706
0.00289732421527
0.00299477531019
0.00302232477403
0.00305955755568
0.00315452770008
0.0033058645733
0.00349967055334
0.0036010533415
0.00360150612345
0.00355926270386
0.00351352866262
0.00347948486242
0.00345785369037
0.00344495153549
0.00343754396625
0.00343331872326
0.00343086058427
0.00342939354797
0.00342849834746
0.00342792443598
0.00342752220602
0.00342723539576
0.00342709940945
0.00342711862804
0.00342720427212
0.00342724497834
0.003427373088
0.00342756453698
0.0034276649275
0.00342733223527
0.00342581682704
0.00342110882565
0.00340696258705
0.00336719754479
0.00326592971488
0.00303263992583
0.00252949698263
0.00143996267715
0.00158731000055
0.00259138918026
0.00295602192486
0.00308537796359
0.00311704737919
0.00316345646514
0.00328066587106
0.00346321824255
0.00366683774918
0.00381681247825
0.00383489537035
0.00379355585274
0.00374353096588
0.00370485524984
0.0036801338099
0.00366558167194
0.00365728642757
0.00365266487978
0.00365003738164
0.00364847593958
0.00364751743157
0.00364690319531
0.00364648046673
0.00364618767137
0.00364605264971
0.00364609170787
0.00364620789105
0.00364627102354
0.00364642674589
0.0036466425174
0.00364673546305
0.00364629504936
0.00364440000849
0.00363855055392
0.00362128635763
0.00357404008626
0.00345698243707
0.00319400536501
0.00263928610438
0.00145849587218
0.00159792326783
0.00259011875962
0.00298343243872
0.00311598570658
0.00314441370411
0.00319836370686
0.00334008730248
0.00355593801868
0.00377167669414
0.00396167366661
0.00399774630137
0.00395851812821
0.00390510517673
0.00386255250178
0.00383512043833
0.00381909813278
0.00381007352756
0.00380512064145
0.00380235399401
0.00380073508624
0.00379972804672
0.00379907973327
0.00379864254513
0.00379834902114
0.0037982208172
0.00379827705729
0.0037984171271
0.0037984998405
0.00379867980969
0.00379891567631
0.00379899893791
0.00379845727254
0.00379622298326
0.00378937919077
0.00376948866989
0.00371611808705
0.00358654853613
0.00330097999722
0.00270914782377
0.00146889299399
0.00160233152069
0.00257278077949
0.00298333866639
0.00311201019357
0.00313324707475
0.00319332550774
0.0033589446694
0.00360587664188
0.00384975608908
0.00405528370574
0.0041065211857
0.00406968126506
0.004013793743
0.00396827831568
0.00393869658895
0.00392145422815
0.00391190803766
0.0039066901865
0.00390382624244
0.00390216221395
0.00390112069012
0.00390044637425
0.00389999883856
0.00389970759669
0.00389958750476
0.00389965634079
0.00389981574525
0.00389991423554
0.00390011284022
0.00390036525712
0.0039004382304
0.00389981109603
0.00389730055737
0.00388966584708
0.00386773608112
0.00380971611103
0.00367088125752
0.003369110292
0.00275190047277
0.00147458212686
0.00160434140956
0.00255694845711
0.00297393859613
0.0030976805774
0.00311049592444
0.00317504031656
0.00336061078132
0.00363054729117
0.0038958206388
0.00411116067697
0.00417283748104
0.00413788108218
0.00408041672543
0.00403288184953
0.00400182841866
0.00398374360832
0.00397382561879
0.00396844564725
0.00396551914137
0.00396382816258
0.00396276528669
0.00396207132423
0.00396161702756
0.00396132743316
0.00396121526019
0.00396129230195
0.00396146401994
0.00396157345791
0.0039617859183
0.00396204895694
0.00396211334561
0.00396142429847
0.00395871888527
0.00395053651845
0.00392721840989
0.00386608345117
0.00372114866365
0.00340896158778
0.00277603663661
0.00147750198207
0.00160539181291
0.00254905427079
0.00296715523346
0.00308774809913
0.0030942024442
0.00316124352026
0.00335902937115
0.0036409325551
0.00391713116826
0.00413753132316
0.00420424550693
0.00417021790105
0.0041119629347
0.00406340903254
0.00403161786722
0.00401311434918
0.00400299483676
0.00399754596758
0.00399459041027
0.00399288751082
0.00399181252268
0.00399110738813
0.00399064869595
0.00399036011606
0.00399025199077
0.00399033295921
0.00399051052408
0.00399062573548
0.00399084553097
0.00399111422105
0.00399117264963
0.00399045040699
0.00398764388278
0.00397918168072
0.00395516178599
0.00389246845054
0.00374451277236
0.00342724191727
0.00278683084538
0.00147872251463
0.00160551261356
0.00254949099704
0.00296754900001
0.003088172661
0.003094761543
0.00316175989728
0.00335937475301
0.00364118673588
0.00391729721022
0.00413770704634
0.0042042447765
0.00417015609721
0.00411190316835
0.00406336805161
0.00403158937711
0.0040130953557
0.00400298386327
0.00399753824022
0.00399458350988
0.00399288142365
0.00399180641598
0.00399109936931
0.00399063975714
0.00399034996314
0.00399024016656
0.00399032056645
0.00399049804522
0.00399061352328
0.00399083352889
0.00399110116046
0.00399115782656
0.00399043397628
0.0039876263544
0.0039791639583
0.00395514554277
0.00389245508099
0.00374450213
0.00342723382937
0.00278682533517
0.00147872147537
0.00160466561654
0.00255818627529
0.00297505212905
0.003098870681
0.00311192261991
0.00317636519708
0.00336157611005
0.0036312731268
0.00389630075441
0.00411166096479
0.00417283371762
0.00413770532642
0.00408024487077
0.00403275958747
0.00400174486299
0.00398368529572
0.00397378960309
0.00396842160183
0.00396549923394
0.00396381059448
0.00396274696296
0.00396204807549
0.0039615904301
0.00396129753587
0.00396118144341
0.00396125649748
0.0039614281161
0.00396153842296
0.00396175132464
0.00396201172329
0.00396207110291
0.00396137732761
0.00395866872128
0.00395048577222
0.00392717132412
0.00386604461902
0.00372111793838
0.00340893802085
0.00277602046749
0.00147749870175
0.00160277030848
0.00257469136455
0.00298508245988
0.00311387800967
0.00313532442119
0.00319524690307
0.00336044347321
0.00360699273903
0.00385047585355
0.0040559775361
0.0041064636308
0.00406938128531
0.00401351279135
0.00396807989675
0.00393856450798
0.0039213579533
0.00391184724692
0.00390664759319
0.00390379283252
0.00390213232288
0.00390108819797
0.0039004098226
0.00389995792427
0.00389966185261
0.00389953565999
0.003899601395
0.00389976097067
0.00389986077946
0.00390005965703
0.00390030759294
0.00390037335198
0.00389973880217
0.00389722369833
0.00388958802071
0.00386766409733
0.00380965621972
0.00367083298703
0.00336907301118
0.00275187435448
0.00147457604722
0.00159835519695
0.00259243495969
0.00298562664859
0.00311836078457
0.00314696540675
0.00320071799844
0.00334198055375
0.00355733222535
0.00377266043542
0.00396236772903
0.00399756523599
0.00395808530965
0.00390472580293
0.00386228618871
0.00383494148915
0.00381897153478
0.00380999449527
0.00380506137635
0.00380230693615
0.0038006941828
0.00379968442864
0.00379903367974
0.00379859251201
0.00379829380623
0.00379815845855
0.00379821049716
0.00379835061541
0.00379843423681
0.00379861377712
0.00379884450897
0.00379891974774
0.0037983689092
0.00379612884785
0.00378928410173
0.00376940035768
0.00371604361911
0.00358648762394
0.00330093215959
0.00270911336284
0.00146888436231
0.00158761399351
0.00259373443467
0.00295855323937
0.00308802292652
0.00311984005063
0.0031660226845
0.00328276093079
0.0034647604895
0.00366866284973
0.00381730055934
0.00383452668343
0.00379299122317
0.00374307505786
0.00370453197168
0.00367991470722
0.00366544411615
0.00365719097285
0.00365259135607
0.00364997777714
0.00364842504981
0.00364746877366
0.00364685392604
0.00364642830868
0.00364613102302
0.00364598931916
0.00364602363144
0.00364613913206
0.00364620237311
0.00364635674154
0.00364656707586
0.0036466511921
0.00364620212219
0.00364430162504
0.00363845109142
0.00362119402546
0.00357396099136
0.00345691555337
0.00319395158994
0.00263924660768
0.00145848482626
0.00156476785867
0.00255179940291
0.00290095235823
0.00299761652215
0.00302532032756
0.0030622709955
0.00315674367136
0.00330750029393
0.00350105049804
0.00360116596239
0.00360091643837
0.00355859206992
0.0035130044543
0.00347912068845
0.00345761082083
0.00344481003012
0.00343744030423
0.00343323794245
0.0034307971886
0.00342933982611
0.00342844964629
0.00342787790944
0.00342747504705
0.00342718566876
0.00342704406483
0.00342705914494
0.0034271440274
0.00342718434847
0.00342731010143
0.00342749590339
0.00342758782767
0.00342724751608
0.00342572735431
0.00342101898583
0.00340687878849
0.00336712300347
0.00326586409953
0.00303258603511
0.00252945624783
0.00143995052516
0.00152198012762
0.00243342797751
0.0027726694332
0.00284551945979
0.00285275682666
0.0028766042648
0.00295799181915
0.00309798708139
0.0032294491874
0.00328660071343
0.00327267419071
0.00323158718328
0.00319129783195
0.00316259659525
0.00314436321967
0.00313341115859
0.0031270118676
0.00312326847466
0.00312104701448
0.00311971860699
0.00311890947108
0.00311839075977
0.00311801989743
0.00311775107596
0.00311762131948
0.00311761654182
0.00311766263235
0.00311767665182
0.00311777373959
0.00311793014327
0.00311802527922
0.00311779110934
0.00311666455603
0.00311317950255
0.00310251403941
0.0030713803408
0.00298915700552
0.00279349436973
0.00235998878993
0.00140679539128
0.00144429599716
0.00219508474484
0.00248632798941
0.00255478801804
0.00256244547513
0.00257766764786
0.00263233025595
0.00272431481183
0.00280444583051
0.00283059007771
0.00280940714899
0.00277137331924
0.00273894453111
0.00271596311045
0.002701210075
0.00269228327865
0.00268693666976
0.00268373210779
0.00268179921733
0.00268063870541
0.00267993277304
0.002679481753
0.00267915759914
0.00267893424615
0.00267882628722
0.0026788044361
0.00267881039241
0.00267879348459
0.00267885213665
0.00267897529059
0.00267906126485
0.0026789204772
0.00267817413064
0.00267595537169
0.00266890795385
0.00264724903828
0.00258727051333
0.00243836686928
0.00209774371976
0.00134512701275
0.00129375759648
0.00176999482026
0.00196481410983
0.00200880212992
0.00201085625467
0.00201791543572
0.00205019777143
0.00210297610233
0.00214516203035
0.00215297679895
0.00213087866113
0.00210453261756
0.00208230721691
0.00206613359854
0.00205558157049
0.00204900653701
0.00204494669219
0.00204245926997
0.00204094935635
0.00204003497417
0.00203947634508
0.00203911831277
0.00203886440281
0.00203871512732
0.0020386296246
0.00203859516382
0.00203857071324
0.00203852816405
0.00203854715504
0.00203861534694
0.00203867754996
0.00203860433179
0.00203822374477
0.00203718558847
0.00203365309058
0.00202205403083
0.00198772507188
0.00189724693772
0.00168189146083
0.00122093901742
0.000963207271668
0.00109458432912
0.00115572629049
0.00117120072359
0.00117059047253
0.00117261416126
0.00118021310445
0.00118702660826
0.00118670516022
0.00117814776457
0.00116946880773
0.00115984047346
0.00115096767206
0.00114422026633
0.00113951568931
0.00113641218858
0.00113442087105
0.00113319212724
0.00113243950007
0.00113197824101
0.00113169056388
0.00113150056756
0.00113137749272
0.00113129617728
0.00113123928723
0.0011311922683
0.00113114440401
0.00113108899633
0.00113107689108
0.00113108285127
0.00113108142769
0.00113105290908
0.00113098244922
0.00113081563762
0.00113027706765
0.00112839355152
0.00112204023017
0.00110271305924
0.00105072791409
0.000937768454185
0.00124425472428
0.00169521099436
0.00189667361992
0.00195706456023
0.00196855750636
0.00197891239138
0.00200789194141
0.00205098485987
0.00208675528431
0.00209954869605
0.00209314964907
0.00207953952985
0.00206822995445
0.00205957662679
0.0020526457066
0.00204770302212
0.0020443882805
0.00204224520959
0.00204088282448
0.0020400188368
0.00203946920012
0.00203910880548
0.0020388606208
0.00203869960248
0.00203861144838
0.00203858721569
0.00203859227931
0.00203858524674
0.00203863319437
0.00203871441678
0.00203877404932
0.0020387231209
0.00203839285247
0.00203734503977
0.00203377327314
0.00202212444237
0.00198774087472
0.0018972240057
0.00168189000112
0.00122104101446
0.00236494586821
0.00358350142915
0.00407091595918
0.00420503208506
0.00422953654951
0.00426504605918
0.00436532170792
0.00452612401792
0.00468472874533
0.0047785844049
0.00480260486464
0.00479024127582
0.0047670670673
0.0047470901209
0.00473268700807
0.0047232379975
0.00471728307582
0.00471360957509
0.004711363261
0.00470999847869
0.00470917478225
0.00470866596093
0.0047083253085
0.00470808746547
0.00470799939153
0.00470806134601
0.0047081842089
0.00470827588592
0.00470839882832
0.00470855186406
0.00470861595159
0.00470834338876
0.00470708125907
0.00470298875759
0.00468973954105
0.00464957946332
0.00454011888833
0.00427247774884
0.00367157725279
0.00234321170302
0.00278434008223
0.00453379232396
0.0052221500356
0.00543172236061
0.005483256822
0.00554122306883
0.00568064572119
0.00589856619508
0.00610923565954
0.00623135917169
0.00625920657222
0.00623780573693
0.00620378592999
0.00617507467628
0.00615513279909
0.00614248265275
0.006134764024
0.00613013220256
0.00612736176344
0.00612570792464
0.00612472188283
0.00612411904614
0.00612371998763
0.00612345044973
0.00612335313641
0.00612343482685
0.00612358904555
0.00612370132414
0.00612385032465
0.00612402359831
0.00612406463839
0.00612355355699
0.0061213883049
0.00611432435881
0.00609230476958
0.00602895657189
0.00586484418758
0.00548106131626
0.00464699971022
0.00273445079924
0.00301107426392
0.00509480519407
0.00591678055552
0.00617619961412
0.00624716093958
0.00632793686827
0.00650791937283
0.00679021565675
0.00706387575725
0.00722701250939
0.0072675779636
0.00724244837993
0.00720011625045
0.00716374519797
0.00713885103486
0.00712334465323
0.00711410952566
0.00710870540497
0.00710554515363
0.00710368733534
0.00710258729715
0.00710191780841
0.00710147889986
0.00710119283896
0.00710109510498
0.00710119083262
0.0071013681755
0.00710149353202
0.00710165761412
0.00710184583954
0.00710184076782
0.00710104735736
0.00709787849515
0.00708771705288
0.00705704068824
0.00697214282142
0.00676048406383
0.00628209994166
0.00526965692841
0.00294450251378
0.00313840898292
0.00541082154255
0.00631399938806
0.0066054005227
0.00668526539759
0.00678513897948
0.00701433103382
0.00737055742731
0.00771543650289
0.00793171845628
0.00799297185966
0.0079682659672
0.0079195320777
0.00787636241265
0.00784685224384
0.00782866667267
0.00781803098159
0.00781194887166
0.00780847067965
0.00780645499642
0.0078052666079
0.00780454551614
0.00780407896904
0.00780378156973
0.00780368783783
0.00780380057462
0.00780399993433
0.00780414272596
0.00780432437707
0.00780452074752
0.00780445293943
0.00780335062899
0.00779914256198
0.00778589520435
0.00774698337164
0.00764253958687
0.00738979547472
0.00683374327837
0.00568304957745
0.00306686796347
0.00320697995129
0.00556586306109
0.00651543309163
0.00680132817816
0.0068800713811
0.00699851376519
0.00728041432388
0.00771808497997
0.00815183896996
0.00842746790233
0.00851432797059
0.00849321728044
0.00843958868221
0.00839064966091
0.00835690296987
0.00833626484085
0.00832435093134
0.00831767108238
0.00831393024172
0.00831179042373
0.0083105304685
0.0083097669138
0.00830928066546
0.00830897952005
0.00830889140161
0.00830902203512
0.00830924691544
0.00830940823393
0.00830960659119
0.00830980542709
0.00830966649681
0.0083082532691
0.00830304434029
0.00828691776846
0.00824057767617
0.00811914666051
0.00783204400092
0.00721372963189
0.00595802930666
0.00314065988832
0.00323970496008
0.00562165233209
0.00658359023177
0.00686068639116
0.0069323328513
0.00706700417889
0.00740047628803
0.00791581435049
0.0084376698543
0.0087679445343
0.00888114663256
0.00886546682198
0.00880845698367
0.00875476957339
0.00871736334467
0.00869458024949
0.00868157067689
0.00867438407654
0.00867042824149
0.0086681950998
0.00866687745053
0.00866607795711
0.0086655766666
0.00866527598699
0.00866519600566
0.00866534400978
0.00866559284776
0.00866577206245
0.00866598570172
0.0086661831653
0.00866597316851
0.00866427240013
0.00865817038333
0.00863954060207
0.00858690954076
0.00845149223629
0.00813695019997
0.0074706343577
0.00613781419484
0.00318514901699
0.00325261316544
0.00562727327087
0.00658751657152
0.00685427958999
0.00691636988558
0.00706405575895
0.00744194793476
0.00802182545608
0.00861294903077
0.00899157607415
0.00912797271523
0.00911800266934
0.00905889149257
0.00900158472272
0.00896129147053
0.00893678367434
0.00892291654769
0.00891533388489
0.00891121523977
0.00890891158763
0.00890754966943
0.00890672036757
0.00890620714941
0.00890590814789
0.00890583592327
0.00890599943477
0.00890626852678
0.00890646366954
0.0089066896922
0.00890688395123
0.00890661081586
0.00890466956796
0.00889784177293
0.00887722016309
0.00881968215358
0.00867358083319
0.00833856342818
0.00763743191943
0.00625092917487
0.00321121007568
0.00325663473142
0.00561674548347
0.00657208815064
0.00683095811324
0.00688501793537
0.00704174874684
0.0074515445354
0.0080758001083
0.00871368124507
0.00912620886418
0.00927932395357
0.00927389396214
0.00921361347533
0.00915387734463
0.00911161008997
0.00908590560753
0.00907144639763
0.00906359623134
0.00905936846602
0.0090570186678
0.00905562515955
0.00905477258515
0.00905424972569
0.00905395150436
0.00905388344449
0.00905405862064
0.0090543433059
0.00905455077646
0.00905478613886
0.00905497657595
0.00905465538341
0.00905254057726
0.00904520108421
0.00902319817964
0.00896230542751
0.00880900537536
0.00846042061335
0.00773670005339
0.0063164513536
0.00322541907633
0.00325766466385
0.00560838892763
0.00656069927271
0.00681560428491
0.00686450702642
0.0070258630098
0.00745301188064
0.00809923623845
0.00876011030123
0.00918958505105
0.00935117024718
0.00934812732753
0.00928730762195
0.00922635401653
0.00918309824367
0.0091567895496
0.00914202799816
0.00913404599805
0.00912976373955
0.00912739009896
0.00912597832966
0.00912511099091
0.0091245806486
0.00912428120374
0.00912421429127
0.0091243945747
0.00912468797837
0.00912490285865
0.00912514363158
0.00912533113828
0.0091249823798
0.00912277490781
0.00911516989395
0.00909246038412
0.00902986761468
0.00887295104804
0.00851761813887
0.00778280517128
0.00634631380109
0.00323162491755
0.00325786484517
0.00560912488495
0.00656147986309
0.00681633449416
0.00686529250442
0.00702658970504
0.00745359850167
0.00809976314404
0.00876053386093
0.00918978715462
0.00935116509372
0.0093480404572
0.00928722158614
0.00922629310458
0.00918305508431
0.00915675836209
0.00914200508262
0.00913402731961
0.0091297459783
0.00912737135886
0.00912595679939
0.00912508519703
0.00912455066529
0.00912424735074
0.0091241772353
0.00912435650794
0.00912465055124
0.00912486669003
0.00912510791699
0.00912529365563
0.0091249411848
0.0091227296306
0.00911512169294
0.00909241187182
0.00902982213434
0.00887291114714
0.00851758658051
0.00778278253306
0.00634629935623
0.00323162023043
0.00325718561519
0.00561887788127
0.00657439827478
0.00683315295881
0.00688726738239
0.00704383038454
0.00745330810947
0.00807736805784
0.00871491441963
0.00912679730929
0.00927930981984
0.00927364335558
0.00921336399958
0.00915369562976
0.00911148224596
0.0090858128532
0.00907137848128
0.00906354073474
0.00905931624431
0.00905696381998
0.00905556207345
0.00905469769186
0.00905416285553
0.00905385356919
0.00905377677739
0.00905394867183
0.0090542353839
0.009054446545
0.0090546832113
0.00905486871272
0.00905453699886
0.00905241048504
0.00904506267272
0.00902305878335
0.00896217463934
0.00880889082882
0.00846032918348
0.00773663417977
0.00631640905125
0.00322540514431
0.00325339945156
0.00563062137272
0.00659132668949
0.0068579820209
0.00692004705756
0.00706744413313
0.00744491983204
0.00802438363042
0.00861484144511
0.00899242659764
0.00912790010868
0.00911758528968
0.00905848790544
0.00900128971329
0.00896108526031
0.00893663337774
0.00892280570591
0.00891524259348
0.00891113008719
0.00890882271591
0.0089074487202
0.00890660328234
0.00890607279435
0.00890575756902
0.00890567195896
0.00890583081092
0.00890610283369
0.00890630345208
0.00890653109432
0.00890671772415
0.00890642881175
0.00890446984457
0.00889762966058
0.00887700645644
0.00881948123296
0.00867340398217
0.00833842083592
0.00763732856318
0.00625086176104
0.00321118719488
0.003240559278
0.00562585468862
0.00658865951287
0.006865822909
0.00693748466938
0.00707175866058
0.0074046063863
0.00791919577037
0.00844001018009
0.00876886571071
0.00888094245279
0.00886487984226
0.00880791596648
0.00875437544777
0.0087170881311
0.00869438223499
0.00868142287453
0.00867426059019
0.00867031349389
0.00866807748041
0.00866674685414
0.00866592992301
0.00866540937039
0.00866509019596
0.00866499467526
0.00866513642036
0.00866538853806
0.00866557388804
0.00866578886508
0.00866597711681
0.00866574838603
0.00866402642754
0.00865790958753
0.00863927793427
0.00858666175519
0.00845127243445
0.0081367711602
0.00747050308352
0.00613772717017
0.0031851175629
0.00320772584018
0.0055703913619
0.00652122990372
0.00680745041539
0.00688623453346
0.00700419870284
0.00728534684522
0.00772189701623
0.0081542989304
0.00842824492932
0.00851392652851
0.00849247168921
0.00843893629305
0.00839017708939
0.00835657483709
0.00833603385241
0.00832417487272
0.00831752210853
0.00831379264344
0.00831165211499
0.00831038185187
0.00830960263491
0.00830909824371
0.00830877921814
0.00830867559917
0.00830879934796
0.00830902718642
0.00830919419892
0.00830939323102
0.0083095824158
0.00830942398463
0.00830798933616
0.00830276548839
0.00828663687169
0.00824031123959
0.0081189081352
0.00783184756366
0.00721358349726
0.00595793137104
0.00314062296601
0.00313891217611
0.00541511015851
0.00631981685292
0.00661184472591
0.00669182281919
0.00679109036747
0.00701947727612
0.00737429465955
0.00771762418523
0.00793217216696
0.00799234752691
0.00796739590692
0.00791880742484
0.00787584166583
0.00784649511702
0.00782841908575
0.00781783931805
0.00781178649113
0.00780832226678
0.00780630825087
0.0078051135015
0.00780438084463
0.0078039000629
0.00780358801559
0.00780348103285
0.00780358678928
0.0078037887171
0.00780393617696
0.00780411754759
0.00780430482512
0.00780421921612
0.00780309790499
0.0077988768544
0.00778562782387
0.00774672751881
0.00764230738119
0.00738960205496
0.0068335976924
0.00568295047818
0.00306682919606
0.00301128595116
0.00509841243152
0.00592203608128
0.00618224137474
0.00625328652803
0.00633279564677
0.00651263042532
0.00679359392325
0.00706555801982
0.00722707845154
0.00726677545476
0.00724151815778
0.00719938009273
0.00716321842826
0.0071384993006
0.00712309987225
0.00711392022908
0.00710854585128
0.00710539956306
0.00710354599389
0.00710244383929
0.00710176802477
0.00710132042146
0.00710102502849
0.00710091704003
0.0071010071926
0.0071011859823
0.00710131464313
0.00710147798667
0.00710165865203
0.00710163966611
0.00710083169053
0.00709765336141
0.00708749117233
0.00705682330232
0.00697194297155
0.00676031381405
0.00628197003153
0.00526956880884
0.00294446866366
0.00278430583329
0.00453645723004
0.00522640473341
0.00543682032448
0.00548858780611
0.00554603170896
0.00568467484545
0.00590127684798
0.00611034425151
0.00623111252761
0.00625833950003
0.00623690999394
0.00620309127797
0.00617459750281
0.00615481360096
0.00614226197629
0.006134595183
0.00612999158585
0.00612723486386
0.00612558651775
0.00612460148913
0.00612399706986
0.00612359497963
0.00612332304165
0.00612321856439
0.0061232954843
0.00612345170352
0.00612356589577
0.00612371309186
0.00612388099707
0.00612391331863
0.00612339329364
0.00612122325994
0.00611416025185
0.0060921468038
0.00602880833683
0.00586471351608
0.0054809601088
0.0046469330907
0.0027344276937
0.0023647817676
0.00358510638604
0.00407385055399
0.0042087328562
0.0042335200054
0.00426866313296
0.00436823938465
0.00452797540385
0.00468532340434
0.00477820068906
0.0048018386954
0.00478950256586
0.00476651115902
0.00474671442276
0.00473243617065
0.00472306405184
0.00471715291456
0.00471350445488
0.00471126941623
0.00470991034283
0.0047090893579
0.00470858111914
0.00470824052622
0.00470800191574
0.00470791260818
0.00470796981221
0.00470809439571
0.00470818696917
0.00470830884695
0.00470846059253
0.00470852099767
0.00470824492173
0.00470698344401
0.0047028935915
0.00468964662288
0.00464949043181
0.00454003548472
0.00427241133558
0.00367153309275
0.00234319323924
0.00124409955661
0.00169551572991
0.00189751235048
0.00195831937402
0.00197000783984
0.00198015407018
0.00200874439042
0.00205132647084
0.00208661004617
0.00209911930807
0.00209266831005
0.00207913848167
0.00206794164034
0.00205938415406
0.00205251800752
0.00204761800395
0.00204433187366
0.00204220473614
0.00204084967221
0.00203998907358
0.0020394404507
0.00203907884368
0.00203882823685
0.00203866544043
0.00203857503744
0.00203854830849
0.00203855141508
0.00203854379209
0.00203859273965
0.00203867712774
0.00203873692354
0.00203868444297
0.00203835650404
0.00203731240638
0.00203374048939
0.00202209175783
0.00198770346244
0.00189719050109
0.00168186541505
0.00122103569679
0.00136543174865
0.00207422511621
0.00238301155361
0.00248412733485
0.00251107030801
0.00253061012304
0.00257376299122
0.0026398834942
0.00270059072335
0.00273151431726
0.00273397447986
0.00272304565866
0.00270994826381
0.00270111778295
0.00269397875297
0.00268867891987
0.00268505302074
0.00268269413367
0.00268118007123
0.00268020711987
0.0026795788707
0.00267916333906
0.00267887985599
0.00267869959157
0.00267860761602
0.00267859621758
0.00267862171031
0.00267863295661
0.00267870889898
0.00267881463686
0.00267889868141
0.00267880056309
0.00267817903538
0.00267606135107
0.00266901604905
0.00264732478115
0.00258730361293
0.00243838510654
0.00209785522934
0.00134545039912
0.00272723043906
0.00445208484244
0.00513338211076
0.00534525032362
0.00540176547537
0.00546102340571
0.00559701904205
0.00580862272795
0.00602060268725
0.00615587811641
0.0062045551524
0.0062033070193
0.00618438625404
0.00616483932729
0.00614982839255
0.00613972159727
0.00613328130909
0.00612930055024
0.00612686434939
0.00612537722031
0.00612447460794
0.00612391759587
0.00612355416843
0.00612331062997
0.0061232302437
0.00612331290312
0.00612346356139
0.00612357226439
0.00612371103581
0.00612387448936
0.00612391007621
0.00612341739309
0.00612129901229
0.00611430607764
0.00609234985934
0.00602903624856
0.00586493803733
0.00548119879964
0.00464724017349
0.00273487286462
0.00327072617984
0.00564521185657
0.00657277330301
0.00688831127204
0.00698679141545
0.00707675059491
0.00725754968263
0.00752845057407
0.00779408462245
0.00796040963663
0.00801569138083
0.0080071522157
0.00797777174805
0.00794944284642
0.00792889153834
0.00791556741129
0.00790736095169
0.00790243364562
0.00789949692079
0.00789774539657
0.00789670310407
0.00789607194946
0.00789566416399
0.00789539968561
0.00789531819345
0.00789542417085
0.00789560166661
0.00789572144809
0.00789586873078
0.00789603459366
0.00789599683012
0.00789510714944
0.00789157716678
0.00788018897484
0.00784589234248
0.00775154958304
0.00751771897093
0.00699198088366
0.00588339540273
0.00325843808665
0.00357940681713
0.0063664789663
0.00746406953647
0.00785286712691