/*--------------------------------*- C++ -*----------------------------------*\
| =========                 |                                                 |
| \\      /  F ield         | OpenFOAM: The Open Source CFD Toolbox           |
|  \\    /   O peration     | Version:  3.0.1                                 |
|   \\  /    A nd           | Web:      www.OpenFOAM.org                      |
|    \\/     M anipulation  |                                                 |
\*---------------------------------------------------------------------------*/
FoamFile
{
    version     2.0;
    format      ascii;
    class       volScalarField;
    location    "3.9";
    object      p_rgh;
}
// * * * * * * * * * * * * * * * * * * * * * * * * * * * * * * * * * * * * * //

dimensions      [1 -1 -2 0 0 0 0];

internalField   nonuniform List<scalar> 
15984
(
4891.78625895
4891.69407561
4891.50390398
4891.32753148
4891.21261626
4891.15822842
4891.17262614
4891.26655333
4891.42288527
4891.58324903
4891.70437053
4891.76745194
4891.77533903
4891.74221942
4891.68291147
4891.60941133
4891.53071164
4891.45338842
4891.38141925
4891.31691165
4891.26052903
4891.2115776
4891.16848346
4891.13304235
4891.10406715
4891.08313828
4891.07222012
4891.07228038
4891.08399674
4891.10674031
4891.13963615
4891.17383641
4891.20677141
4891.23592553
4891.25909404
4891.27530655
4891.28491552
4891.28941947
4891.29112547
4891.29188694
4891.80249125
4891.73186663
4891.5493445
4891.36922822
4891.25367012
4891.19789354
4891.21094082
4891.30460816
4891.46074397
4891.61646363
4891.72947823
4891.78486151
4891.78679568
4891.74945184
4891.68728866
4891.61211429
4891.53244876
4891.45451105
4891.38210676
4891.3172785
4891.26065664
4891.21155792
4891.1684637
4891.13271415
4891.1036613
4891.08282982
4891.07193257
4891.07202578
4891.08380965
4891.10681963
4891.13968379
4891.17394918
4891.20685618
4891.23596284
4891.25900462
4891.27508397
4891.28455732
4891.2889399
4891.29064735
4891.29161249
4891.77284809
4891.70238607
4891.48852603
4891.27535259
4891.14191408
4891.08486603
4891.11363757
4891.23777405
4891.42945606
4891.61318673
4891.74098246
4891.80003237
4891.80058051
4891.76013476
4891.69478328
4891.61707044
4891.53565736
4891.45654176
4891.38333222
4891.31795106
4891.26093848
4891.21162522
4891.1681208
4891.13249669
4891.10345083
4891.08251558
4891.07168789
4891.07191349
4891.0838254
4891.10706413
4891.13994201
4891.17428107
4891.20718024
4891.23616828
4891.25911597
4891.27504016
4891.28434416
4891.28858861
4891.29029078
4891.29149217
4891.72127785
4891.63110449
4891.3632183
4891.10986388
4890.95621813
4890.89782123
4890.94345021
4891.10410893
4891.34969461
4891.58230715
4891.73977506
4891.81212799
4891.81434204
4891.77199671
4891.70361695
4891.6230671
4891.53954237
4891.45893647
4891.38473247
4891.31866032
4891.26119467
4891.21176743
4891.16754742
4891.13226165
4891.1031847
4891.08221607
4891.07151501
4891.07211595
4891.08420575
4891.10747008
4891.14034192
4891.17473108
4891.20761652
4891.23650515
4891.25931373
4891.27506177
4891.28417038
4891.2882511
4891.28992503
4891.29130069
4891.65399238
4891.52986798
4891.20342101
4890.92213541
4890.75945366
4890.69727074
4890.74918007
4890.93362673
4891.23216894
4891.52418855
4891.7230001
4891.81593191
4891.82509851
4891.78279833
4891.71235432
4891.62923873
4891.54353863
4891.46137211
4891.38610826
4891.31930567
4891.26135512
4891.2119339
4891.16685587
4891.13177912
4891.1028235
4891.08193544
4891.0715638
4891.0721169
4891.0845243
4891.10798
4891.14084361
4891.1752495
4891.20811415
4891.23691071
4891.2595735
4891.27514378
4891.28405985
4891.28797105
4891.28960167
4891.29109155
4891.58227993
4891.42107537
4891.04589476
4890.75184032
4890.59097561
4890.52433726
4890.5698723
4890.7614368
4891.10033394
4891.45056237
4891.69520138
4891.81362683
4891.83260866
4891.79195917
4891.72010721
4891.63496386
4891.54725561
4891.46360739
4891.38730563
4891.31982647
4891.26133202
4891.21114449
4891.1669923
4891.13145199
4891.10246852
4891.08165664
4891.07150589
4891.07220257
4891.08481162
4891.10849941
4891.14137087
4891.17577323
4891.20861183
4891.23732727
4891.25986367
4891.27532222
4891.28399996
4891.28774773
4891.28932315
4891.29087851
4891.51661009
4891.32315382
4890.91458077
4890.61986122
4890.47185879
4890.40021538
4890.42783289
4890.6122268
4890.97560828
4891.37500449
4891.66319767
4891.80737815
4891.83703269
4891.79917007
4891.72648226
4891.63981025
4891.55043912
4891.46548862
4891.38828361
4891.320192
4891.26123232
4891.210457
4891.16695491
4891.13117312
4891.10216744
4891.08145205
4891.07145212
4891.07228973
4891.08507455
4891.10895218
4891.14185508
4891.17624705
4891.20906013
4891.23770466
4891.26013186
4891.27545417
4891.28396331
4891.28757136
4891.2890885
4891.29067773
4891.46462354
4891.24706833
4890.81903871
4890.53193077
4890.4093309
4890.33321716
4890.33009007
4890.49836849
4890.87356367
4891.30903273
4891.63342356
4891.79998911
4891.8394575
4891.80438731
4891.73141079
4891.64336934
4891.55301729
4891.46693365
4891.38901166
4891.32043546
4891.26110108
4891.20993883
4891.16677778
4891.13091836
4891.10192952
4891.08127386
4891.07140584
4891.07235933
4891.08529926
4891.10930273
4891.14224714
4891.17663145
4891.20942093
4891.2380091
4891.26034842
4891.2755567
4891.28393822
4891.28743596
4891.28890447
4891.29050775
4891.42980739
4891.19654422
4890.75859883
4890.47904851
4890.38518437
4890.30596223
4890.26947015
4890.4226304
4890.80239752
4891.26102478
4891.61101022
4891.7937559
4891.8405846
4891.80774985
4891.73471801
4891.6458574
4891.55467279
4891.46791517
4891.38949213
4891.3205831
4891.26100007
4891.20959964
4891.1665689
4891.13072966
4891.10178543
4891.08116308
4891.07137288
4891.07240727
4891.08546224
4891.10954022
4891.14251847
4891.17689777
4891.20967005
4891.23821866
4891.26049618
4891.27562614
4891.28392005
4891.28734207
4891.28877619
4891.29038426
4891.41286199
4891.17162576
4890.72964407
4890.45344267
4890.37556755
4890.29489968
4890.23956917
4890.38474204
4890.76650027
4891.2362761
4891.59934103
4891.79042484
4891.84107496
4891.8094338
4891.7363918
4891.64712996
4891.55548563
4891.46841576
4891.3897424
4891.32066549
4891.26095869
4891.20944924
4891.16646296
4891.13065171
4891.10170758
4891.08113047
4891.07135764
4891.07243029
4891.08554402
4891.10966272
4891.1426558
4891.17703072
4891.20979257
4891.2383208
4891.26056796
4891.27566035
4891.28390761
4891.28729214
4891.28870968
4891.29031831
4891.41381542
4891.17241134
4890.73011258
4890.45352243
4890.37530418
4890.29463214
4890.23973229
4890.38535971
4890.76742704
4891.2372275
4891.6000296
4891.79083242
4891.84129843
4891.80954767
4891.73644961
4891.64716183
4891.55552321
4891.46844846
4891.38977534
4891.32070329
4891.26099967
4891.20948826
4891.16649217
4891.13067066
4891.10172017
4891.08114031
4891.07136282
4891.0724295
4891.08553432
4891.10966812
4891.14265361
4891.17702201
4891.20978206
4891.23830998
4891.26055747
4891.27565135
4891.2839011
4891.28728883
4891.28870972
4891.29031951
4891.43269733
4891.19898043
4890.76018334
4890.47953323
4890.38468276
4890.30548789
4890.27026063
4890.42459483
4890.8052199
4891.26384258
4891.61303459
4891.7949643
4891.84123664
4891.80808586
4891.73488844
4891.64595059
4891.55474426
4891.46800513
4891.38958978
4891.32069504
4891.26112095
4891.20971814
4891.1666534
4891.1307809
4891.1018238
4891.08119842
4891.07138932
4891.07240643
4891.08543712
4891.10955515
4891.14251003
4891.17687224
4891.20963916
4891.2381871
4891.26046627
4891.2756015
4891.28390172
4891.28733317
4891.28877668
4891.29038731
4891.4695201
4891.25138896
4890.82228368
4890.53358705
4890.40965155
4890.33362232
4890.33220188
4890.50208666
4890.87838746
4891.31360804
4891.63665973
4891.80190729
4891.84050873
4891.80492832
4891.73168694
4891.64351984
4891.55313501
4891.46706734
4891.38917101
4891.32061865
4891.26129936
4891.21014201
4891.16691169
4891.13101266
4891.10199345
4891.0813209
4891.07143563
4891.07236508
4891.08527119
4891.10932154
4891.14222791
4891.17658923
4891.2093718
4891.23795886
4891.26029933
4891.27551296
4891.28391053
4891.28742509
4891.28890898
4891.29051749
4891.52357004
4891.32966746
4890.92018768
4890.62378529
4890.47473285
4890.4031434
4890.43220379
4890.61819239
4890.98246548
4891.38114023
4891.66746562
4891.80991558
4891.83842921
4891.79988938
4891.72685345
4891.6399775
4891.55062403
4891.46567111
4891.38850128
4891.32044268
4891.26149764
4891.21074526
4891.1671304
4891.13130804
4891.1022568
4891.08151388
4891.07150225
4891.07230999
4891.0850644
4891.10896647
4891.14182086
4891.17619076
4891.20899624
4891.2376399
4891.26006867
4891.27539537
4891.2839308
4891.28756369
4891.28910346
4891.29069934
4891.59118956
4891.42985361
4891.05428864
4890.75875823
4890.59724147
4890.5304917
4890.57703786
4890.76986412
4891.10912647
4891.45796738
4891.7002695
4891.8166154
4891.83426215
4891.79282735
4891.72051613
4891.63524758
4891.54747231
4891.46383671
4891.38757803
4891.32013911
4891.26166931
4891.21151639
4891.16721116
4891.131624
4891.10259137
4891.08174492
4891.07158798
4891.07225192
4891.08483322
4891.10850803
4891.14132065
4891.1757062
4891.20853919
4891.23725409
4891.25979315
4891.27525187
4891.28396962
4891.28775104
4891.28935554
4891.29091904
4891.6645769
4891.54074852
4891.21466227
4890.93241127
4890.7695849
4890.70690298
4890.75934936
4890.94443808
4891.24256373
4891.53253431
4891.7286273
4891.81931346
4891.82699389
4891.78377938
4891.71285875
4891.62958139
4891.54379754
4891.46164789
4891.38642601
4891.31967858
4891.26174756
4891.21228617
4891.16721123
4891.13199327
4891.10296751
4891.08204316
4891.07168646
4891.07221409
4891.08455824
4891.10801381
4891.14078524
4891.17517768
4891.20803857
4891.2368374
4891.25950652
4891.2750923
4891.28404173
4891.28799424
4891.2896588
4891.29115828
4891.73320199
4891.64369203
4891.37685574
4891.12319481
4890.97020132
4890.91053959
4890.95625982
4891.11683822
4891.36121339
4891.59126093
4891.74580586
4891.81576283
4891.81641367
4891.77308042
4891.70428146
4891.62345934
4891.53984926
4891.45925746
4891.38510406
4891.31909031
4891.26164939
4891.2121602
4891.16800824
4891.13251186
4891.10332549
4891.08232145
4891.07163266
4891.07225197
4891.08427433
4891.10753671
4891.14028003
4891.17465882
4891.20754425
4891.23643915
4891.25924882
4891.27501344
4891.28416816
4891.28829797
4891.29001103
4891.29139761
4891.78573003
4891.71616438
4891.50382545
4891.29082004
4891.15776559
4891.09992131
4891.12834013
4891.25175794
4891.44163984
4891.6225452
4891.74730687
4891.80395944
4891.8028065
4891.76146736
4891.69549719
4891.61752562
4891.53601498
4891.45690888
4891.38376167
4891.318439
4891.26146522
4891.21213805
4891.16864496
4891.1327283
4891.10357969
4891.08263246
4891.07180761
4891.07206241
4891.08395705
4891.1071662
4891.13987213
4891.17421363
4891.20711893
4891.23612872
4891.25906175
4891.27500543
4891.28436295
4891.28866142
4891.29040889
4891.29162321
4891.81596926
4891.74630578
4891.56561395
4891.38574775
4891.27040509
4891.21402051
4891.22655467
4891.31919811
4891.4732754
4891.62602122
4891.73602139
4891.7889624
4891.78927096
4891.75085179
4891.68811772
4891.61262421
4891.53284915
4891.45491821
4891.38257032
4891.31780805
4891.26122906
4891.21215331
4891.1690812
4891.13290191
4891.10375117
4891.08294347
4891.07206351
4891.07217771
4891.08399524
4891.10704389
4891.13961379
4891.17389283
4891.2068158
4891.23600548
4891.25897407
4891.27507335
4891.28460631
4891.2890485
4891.29080775
4891.29176165
4891.79989709
4891.70867598
4891.5203699
4891.34425443
4891.22955078
4891.17463902
4891.18848053
4891.28132479
4891.43552409
4891.59289009
4891.71097049
4891.77160566
4891.77781305
4891.7436268
4891.68368077
4891.60982933
4891.53103081
4891.45373979
4891.38182496
4891.317385
4891.26106441
4891.2121822
4891.16896549
4891.13315636
4891.10412335
4891.08317732
4891.07225976
4891.07234397
4891.08406669
4891.1067791
4891.13945679
4891.17370651
4891.20665446
4891.23584519
4891.25899532
4891.2752292
4891.28489662
4891.28945014
4891.29118224
4891.29187616
4891.77441775
4891.65814352
4891.45505526
4891.2705207
4891.15355388
4891.09952778
4891.11677791
4891.2152834
4891.37891743
4891.54997921
4891.68210168
4891.75441326
4891.76723561
4891.73747838
4891.67944924
4891.6062734
4891.52752763
4891.45018448
4891.37829554
4891.31404819
4891.25807627
4891.20961954
4891.16701285
4891.13160953
4891.10238446
4891.08099377
4891.06965823
4891.06943831
4891.08130639
4891.10450876
4891.1386824
4891.17377387
4891.20751352
4891.23732731
4891.26091994
4891.2772242
4891.28660122
4891.29070989
4891.29200001
4891.29247948
4891.77303049
4891.67406155
4891.49055306
4891.3182077
4891.21004831
4891.15745204
4891.16904081
4891.25576902
4891.40403041
4891.56268137
4891.68771624
4891.75567761
4891.76804802
4891.73669435
4891.67870722
4891.60567298
4891.52702565
4891.4496949
4891.37784938
4891.31358514
4891.25759826
4891.20919741
4891.1668176
4891.13125357
4891.10188121
4891.08067122
4891.06935191
4891.06918005
4891.08108165
4891.10429275
4891.13835826
4891.17351528
4891.20731732
4891.237135
4891.26075637
4891.27703781
4891.28637742
4891.29043346
4891.29174937
4891.29243203
4891.73169726
4891.61923057
4891.41162572
4891.21947522
4891.10142085
4891.04971284
4891.07227944
4891.17765004
4891.34907884
4891.53078767
4891.67360235
4891.75194254
4891.76866299
4891.73992352
4891.68124931
4891.60763157
4891.52844242
4891.45062187
4891.37830799
4891.31372583
4891.25749678
4891.20895624
4891.16626396
4891.13091877
4891.10179735
4891.08040803
4891.06908932
4891.06884162
4891.08071021
4891.10429844
4891.13824879
4891.17349664
4891.20736389
4891.23721438
4891.26077423
4891.27698266
4891.286211
4891.29015768
4891.29148727
4891.29237908
4891.66898677
4891.53397881
4891.29002783
4891.07656254
4890.94654163
4890.89721475
4890.92909144
4891.05358228
4891.25756098
4891.47629531
4891.64893449
4891.74589921
4891.77086436
4891.74456295
4891.68610672
4891.61120446
4891.53083832
4891.452031
4891.37900947
4891.3139226
4891.25734431
4891.20865482
4891.16555599
4891.13018434
4891.10151055
4891.07997723
4891.06862623
4891.06800089
4891.08081569
4891.1044765
4891.13828873
4891.17360552
4891.20751871
4891.23736046
4891.26084519
4891.27696044
4891.28602601
4891.28983054
4891.29115252
4891.29220262
4891.59548257
4891.44075148
4891.17029942
4890.95913744
4890.84158836
4890.78759764
4890.81126149
4890.93054691
4891.15377342
4891.40869602
4891.61578627
4891.73541471
4891.77164676
4891.74905932
4891.691303
4891.61523255
4891.53359346
4891.45368966
4891.3797827
4891.31409987
4891.25711937
4891.20847665
4891.16471535
4891.1296565
4891.1010492
4891.07960342
4891.0678013
4891.06835048
4891.08095659
4891.10475235
4891.13845735
4891.17380621
4891.2077496
4891.23756548
4891.26097815
4891.27699461
4891.28586459
4891.28951421
4891.29080824
4891.2919755
4891.51994135
4891.35153601
4891.07314903
4890.88092338
4890.78462056
4890.72774175
4890.73111117
4890.82627025
4891.05061874
4891.33548599
4891.57738785
4891.72166765
4891.77060649
4891.7529996
4891.6957615
4891.61932442
4891.53632276
4891.45528259
4891.38062476
4891.31426055
4891.25682572
4891.20762983
4891.16454109
4891.12923075
4891.10057602
4891.07925964
4891.06789589
4891.06841734
4891.08109967
4891.10507656
4891.13871872
4891.17408008
4891.20803774
4891.23782443
4891.26116251
4891.27704617
4891.285758
4891.28925605
4891.29050977
4891.29174487
4891.45167851
4891.27438999
4891.00316025
4890.83728533
4890.76917296
4890.70925615
4890.68482413
4890.74546704
4890.95872234
4891.26514819
4891.53887161
4891.70680085
4891.76828639
4891.75587497
4891.69986011
4891.62270138
4891.53878134
4891.4567401
4891.38124669
4891.31443883
4891.25653426
4891.20688331
4891.16431255
4891.12886318
4891.10020421
4891.07897336
4891.06783711
4891.06842129
4891.08125236
4891.1053916
4891.13901788
4891.17438071
4891.20834574
4891.23810161
4891.26136638
4891.2771195
4891.28569912
4891.28906395
4891.2902701
4891.29153256
4891.39803026
4891.21456311
4890.95826527
4890.81748689
4890.77360993
4890.71010151
4890.66113562
4890.68680418
4890.88373395
4891.20534994
4891.50536599
4891.69315074
4891.76564738
4891.75785677
4891.70296329
4891.62556391
4891.54071333
4891.45791909
4891.38179865
4891.31454563
4891.2563256
4891.20631622
4891.16403218
4891.12851722
4891.09995287
4891.07877366
4891.06776212
4891.06843109
4891.08138985
4891.10566876
4891.1392957
4891.1746586
4891.20862462
4891.2383532
4891.26155536
4891.27720239
4891.28567367
4891.28893135
4891.29009179
4891.29135652
4891.36227883
4891.17394952
4890.93059706
4890.80605875
4890.77251678
4890.706059
4890.64542328
4890.64647367
4890.83141393
4891.16221208
4891.48097601
4891.68301105
4891.76338507
4891.75907988
4891.7051016
4891.62743216
4891.54215502
4891.45874625
4891.38218265
4891.31459511
4891.25622399
4891.20593343
4891.16378275
4891.12812518
4891.09979576
4891.0786683
4891.06769911
4891.06844373
4891.08150595
4891.10586899
4891.13950534
4891.17486832
4891.20883252
4891.23854151
4891.26169843
4891.27727103
4891.28566603
4891.28884922
4891.28997439
4891.29123039
4891.34490235
4891.1534089
4890.91589757
4890.79830031
4890.76895651
4890.70085881
4890.63435192
4890.62455832
4890.80477316
4891.13993956
4891.46844098
4891.67776553
4891.76222279
4891.75972204
4891.70619493
4891.62843914
4891.54286288
4891.45918565
4891.38239362
4891.31464223
4891.25615829
4891.20578937
4891.16365089
4891.12787546
4891.09970773
4891.07860235
4891.06766108
4891.06845432
4891.08156137
4891.10598181
4891.13961758
4891.17497824
4891.20894098
4891.23863927
4891.26177209
4891.2773074
4891.28566414
4891.28880957
4891.2899165
4891.29116453
4891.34583037
4891.1540114
4890.91602539
4890.79798025
4890.76840548
4890.70030021
4890.63403
4890.62475255
4890.80534066
4891.14073552
4891.46909612
4891.67819008
4891.76246462
4891.75985729
4891.70626676
4891.62848438
4891.54288493
4891.45921459
4891.38242906
4891.31468344
4891.256205
4891.20583021
4891.16368379
4891.12789327
4891.09971994
4891.07861268
4891.06766387
4891.06845415
4891.08155225
4891.1059897
4891.13961847
4891.17497345
4891.20893467
4891.23863268
4891.26176475
4891.27730108
4891.2856615
4891.28881038
4891.28991864
4891.29116503
4891.36510576
4891.17584711
4890.93110895
4890.80523019
4890.77113572
4890.70467308
4890.64487063
4890.64720302
4890.83324653
4891.16460029
4891.48292577
4891.68429614
4891.76413508
4891.759487
4891.70531142
4891.62753975
4891.54226437
4891.45883501
4891.38228839
4891.31471369
4891.25636137
4891.20605879
4891.16387179
4891.12816306
4891.09983641
4891.07869818
4891.06770779
4891.06844447
4891.08147889
4891.10589308
4891.13950642
4891.17485321
4891.20881351
4891.23852176
4891.2616772
4891.27725156
4891.28565788
4891.28885047
4891.28998105
4891.29123306
4891.40285254
4891.21803357
4890.95973884
4890.81701545
4890.77236835
4890.70893895
4890.66110192
4890.68862312
4890.88714509
4891.20933516
4891.5085476
4891.69522842
4891.76682276
4891.75850915
4891.70332855
4891.62572454
4891.54086843
4891.45806829
4891.38197209
4891.31474638
4891.25652628
4891.20652672
4891.1641788
4891.12861282
4891.10002221
4891.0788261
4891.06778181
4891.06843542
4891.08135972
4891.10570194
4891.13929256
4891.17463296
4891.20859283
4891.23832056
4891.26152127
4891.27716799
4891.2856604
4891.28893485
4891.29010636
4891.29136551
4891.45860796
4891.27992073
4891.00659687
4890.83852956
4890.76915175
4890.70937333
4890.68656811
4890.74917453
4890.96404216
4891.27070581
4891.54315392
4891.70952506
4891.76987989
4891.75675032
4891.70031212
4891.62301512
4891.53896637
4891.45694484
4891.38148793
4891.31472214
4891.2568193
4891.20717227
4891.16451144
4891.12900105
4891.10030072
4891.07904083
4891.06787297
4891.06843834
4891.08122256
4891.10543226
4891.13901051
4891.17434622
4891.20830335
4891.23805683
4891.26131939
4891.27706858
4891.28568269
4891.28907329
4891.29029654
4891.29155398
4891.52892996
4891.35935997
4891.07925009
4890.8848094
4890.78754172
4890.73068002
4890.73538302
4890.83236223
4891.05801869
4891.34250586
4891.58258567
4891.72499435
4891.77251838
4891.75405614
4891.69637528
4891.61964105
4891.53656924
4891.45554002
4891.38090938
4891.31459663
4891.25717977
4891.20797835
4891.16480299
4891.12940654
4891.10070272
4891.07934322
4891.06796458
4891.06845841
4891.08108892
4891.10511823
4891.13868974
4891.1740364
4891.2079887
4891.23777282
4891.26110449
4891.27696243
4891.28574233
4891.2892758
4891.29055517
4891.29178777
4891.60626855
4891.45088294
4891.17959502
4890.96650959
4890.84869143
4890.7940778
4890.81877361
4890.93939554
4891.1631856
4891.41695743
4891.62167393
4891.73916175
4891.77383684
4891.75030207
4891.69188367
4891.61565289
4891.53388964
4891.45397774
4891.38015764
4891.31450418
4891.25753575
4891.20872083
4891.16520427
4891.12983856
4891.10118802
4891.07970705
4891.06796151
4891.06845336
4891.08097649
4891.10480552
4891.13841189
4891.17375348
4891.20769288
4891.23750778
4891.26091787
4891.27692232
4891.28585753
4891.28954999
4891.29088059
4891.29205024
4891.68123692
4891.54617279
4891.30223145
4891.08781921
4890.96053581
4890.90779092
4890.94019458
4891.0651088
4891.26865103
4891.48545477
4891.65538561
4891.74994611
4891.773273
4891.74585246
4891.68688026
4891.61166364
4891.53118933
4891.45240184
4891.37942943
4891.31439267
4891.25783734
4891.20908174
4891.16600511
4891.13016465
4891.10164765
4891.0800861
4891.06875126
4891.06828778
4891.08089245
4891.10454382
4891.13823133
4891.17355004
4891.20746116
4891.2372991
4891.26078367
4891.27690919
4891.28603328
4891.2898876
4891.29125712
4891.29231576
4891.74491507
4891.63302422
4891.42619888
4891.23362197
4891.1160229
4891.06341326
4891.0860293
4891.19115679
4891.36132331
4891.54051224
4891.68038071
4891.75623562
4891.77125594
4891.74132211
4891.68209909
4891.6081572
4891.52885262
4891.45105968
4891.37879963
4891.31428854
4891.2580834
4891.20952731
4891.16678369
4891.1311285
4891.10192501
4891.08053772
4891.06922343
4891.06901435
4891.08090461
4891.10435344
4891.13818205
4891.17345252
4891.20732136
4891.23715794
4891.26072173
4891.27695539
4891.28624404
4891.29024714
4891.29163785
4891.29254727
4891.78688198
4891.68869768
4891.50668602
4891.33420015
4891.22613431
4891.17305623
4891.18440316
4891.27042464
4891.41686673
4891.57265088
4891.69461064
4891.76007452
4891.77064059
4891.73829021
4891.67960934
4891.60614642
4891.5274058
4891.45010571
4891.37829025
4891.31409487
4891.25816021
4891.20976373
4891.16737767
4891.13142146
4891.1019357
4891.08077304
4891.06947876
4891.06932214
4891.08121995
4891.10426382
4891.13830618
4891.17351065
4891.20731054
4891.23706998
4891.26074528
4891.27705755
4891.28646795
4891.29058694
4891.29196429
4891.29262479
4891.78815232
4891.67288637
4891.47169859
4891.28727095
4891.17044354
4891.11595675
4891.13279557
4891.23034456
4891.39181248
4891.55975609
4891.68880151
4891.75852043
4891.76963571
4891.73867102
4891.68012306
4891.60667884
4891.52790238
4891.45057054
4891.37875294
4891.31458403
4891.25867336
4891.21024668
4891.16743712
4891.13182002
4891.1024817
4891.08106422
4891.06974473
4891.06951686
4891.08133066
4891.10445162
4891.13841896
4891.17350477
4891.20726999
4891.23716276
4891.26078386
4891.2771103
4891.28655728
4891.29072625
4891.2920375
4891.29232728
4891.823632
4891.68831465
4891.477365
4891.28212897
4891.16069184
4891.10629457
4891.12798039
4891.23052779
4891.39497381
4891.56370947
4891.69316628
4891.75999591
4891.77052524
4891.73800046
4891.67802753
4891.60318653
4891.52323282
4891.44514214
4891.37304649
4891.30910306
4891.25383974
4891.2063601
4891.16409079
4891.12876772
4891.09897797
4891.07649802
4891.0643546
4891.06363096
4891.07578271
4891.09982495
4891.13684996
4891.17348441
4891.20886125
4891.24010617
4891.26435486
4891.2806637
4891.28947344
4891.29269964
4891.29309942
4891.29295304
4891.81817769
4891.7110836
4891.53383147
4891.36507912
4891.26059957
4891.20874313
4891.22020227
4891.30050401
4891.43557257
4891.58149987
4891.69773661
4891.7615778
4891.76754964
4891.73516227
4891.67546372
4891.60118428
4891.52178152
4891.44406368
4891.37217549
4891.30834013
4891.25314505
4891.20580747
4891.1636632
4891.1283302
4891.09856313
4891.07612103
4891.06396769
4891.06324916
4891.07545101
4891.09973386
4891.13659048
4891.173444
4891.20879252
4891.23986374
4891.26419914
4891.28053943
4891.28932629
4891.29247195
4891.2928931
4891.29300356
4891.77208573
4891.64882741
4891.43949286
4891.24805842
4891.13750502
4891.08628892
4891.10883402
4891.2100293
4891.37063956
4891.53919463
4891.67309632
4891.74842883
4891.76475978
4891.73410132
4891.6759689
4891.60184085
4891.52220148
4891.44412567
4891.37201433
4891.30792942
4891.25257954
4891.20505817
4891.16319408
4891.12796003
4891.09837458
4891.07590845
4891.06383543
4891.06325999
4891.07583588
4891.09996356
4891.13640543
4891.17331819
4891.20875707
4891.23989927
4891.26421914
4891.28053844
4891.28923244
4891.29224716
4891.2926752
4891.29304685
4891.70359464
4891.54855407
4891.28410962
4891.06424566
4890.9529111
4890.89758066
4890.92844087
4891.05261846
4891.25404744
4891.46531916
4891.63359218
4891.73103088
4891.75955962
4891.73579944
4891.67832855
4891.60423279
4891.52404876
4891.44531661
4891.37258998
4891.30805584
4891.25231947
4891.20455982
4891.16287661
4891.12758738
4891.09835588
4891.07556594
4891.06383119
4891.06346401
4891.07564783
4891.10012483
4891.13626608
4891.17329472
4891.20882988
4891.24000699
4891.26430274
4891.28056045
4891.2890856
4891.29194148
4891.29236097
4891.29284792
4891.6267831
4891.44528916
4891.13406223
4890.90892585
4890.80123115
4890.74860356
4890.77612178
4890.90251605
4891.13297519
4891.38465201
4891.58897174
4891.71226859
4891.75406294
4891.7369492
4891.68167757
4891.60725853
4891.52624149
4891.44648046
4891.37299084
4891.30795659
4891.25187046
4891.20393371
4891.16212485
4891.12689456
4891.09766847
4891.07526728
4891.06375878
4891.06305817
4891.07560625
4891.10033952
4891.13625889
4891.17335679
4891.20895056
4891.24015078
4891.26440462
4891.28059551
4891.28892081
4891.29159877
4891.29197929
4891.29256098
4891.54954607
4891.35036346
4891.01604787
4890.80908487
4890.72345675
4890.66872229
4890.67907657
4890.78367991
4891.02247799
4891.30584225
4891.543429
4891.69230423
4891.74849593
4891.73770168
4891.68480088
4891.61008954
4891.52821543
4891.44765677
4891.37336188
4891.30776346
4891.25126579
4891.20305745
4891.1614581
4891.12621128
4891.09705337
4891.07493202
4891.06308711
4891.06275332
4891.07561535
4891.10059297
4891.13637061
4891.17349856
4891.20914002
4891.24033932
4891.26454555
4891.28072358
4891.2887865
4891.29129618
4891.29162553
4891.29226376
4891.47898694
4891.26970805
4890.93922313
4890.75543175
4890.69583241
4890.63647499
4890.62738173
4890.6996311
4890.92875681
4891.23486037
4891.50096325
4891.67295278
4891.74276417
4891.7381379
4891.68724603
4891.61293398
4891.53008782
4891.44866041
4891.37370071
4891.30757724
4891.2507103
4891.20221473
4891.16084735
4891.12566172
4891.09654059
4891.07457941
4891.0627264
4891.06252777
4891.07564894
4891.10085691
4891.13656139
4891.17369513
4891.20936633
4891.24055254
4891.2647036
4891.28071172
4891.28869146
4891.29105695
4891.29133208
4891.29199321
4891.42387373
4891.20964892
4890.89583305
4890.73405122
4890.70945416
4890.64483418
4890.60004765
4890.64446193
4890.85711062
4891.17725729
4891.46562728
4891.65637068
4891.73757678
4891.73844981
4891.68934756
4891.61490636
4891.53165885
4891.44958296
4891.37407288
4891.30744261
4891.25029256
4891.20149869
4891.16032559
4891.12528845
4891.09614629
4891.07429765
4891.06252962
4891.06240901
4891.07569231
4891.10110199
4891.13676801
4891.17389321
4891.20957879
4891.24075279
4891.26486124
4891.28075487
4891.28863715
4891.29088684
4891.29111051
4891.29177197
4891.38761731
4891.17208562
4890.87510667
4890.73080944
4890.73489623
4890.66657221
4890.59244697
4890.61233494
4890.81043016
4891.13719014
4891.44063211
4891.64441674
4891.73372822
4891.73843758
4891.69073386
4891.61638169
4891.53271223
4891.45019456
4891.37425104
4891.30750727
4891.2501096
4891.20091399
4891.15994128
4891.1251586
4891.0958825
4891.07407695
4891.06239906
4891.06235096
4891.07573989
4891.10128893
4891.13692712
4891.17405545
4891.20973755
4891.24091373
4891.26498475
4891.28080126
4891.28860971
4891.29078016
4891.29096371
4891.29161421
4891.37025412
4891.15513621
4890.86534701
4890.73021849
4890.74760316
4890.67733966
4890.58817342
4890.59649945
4890.78767526
4891.1170119
4891.42800503
4891.63836772
4891.73179833
4891.73840999
4891.69140418
4891.61712452
4891.53330812
4891.45052726
4891.3743516
4891.30752693
4891.24990204
4891.20077129
4891.15975806
4891.12511897
4891.09577042
4891.07397341
4891.06231722
4891.06233012
4891.07576977
4891.10139642
4891.13701189
4891.17413916
4891.20982846
4891.2409995
4891.26505056
4891.28082624
4891.28859905
4891.29072911
4891.29089123
4891.29153177
4891.37121735
4891.15556569
4890.86508732
4890.72917685
4890.74615623
4890.67586104
4890.58612566
4890.59640685
4890.78814759
4891.11780461
4891.42869203
4891.63883353
4891.73207312
4891.7385408
4891.69145567
4891.61715658
4891.53332298
4891.45055671
4891.37438358
4891.30756239
4891.24994985
4891.200811
4891.15979243
4891.12515695
4891.09578139
4891.0739781
4891.06231848
4891.06233021
4891.07575989
4891.10140553
4891.13700899
4891.1741343
4891.20982602
4891.24099493
4891.26504399
4891.28082105
4891.28859571
4891.29072927
4891.29089238
4891.29153019
4891.39054583
4891.17355437
4890.87458436
4890.72789304
4890.73069799
4890.66234247
4890.59026222
4890.61222386
4890.8119765
4891.13958833
4891.44266912
4891.64578504
4891.73453293
4891.73884564
4891.69092507
4891.61650594
4891.53279404
4891.45028995
4891.37437453
4891.30766621
4891.25024417
4891.2010421
4891.16004464
4891.12524656
4891.09592031
4891.07409712
4891.06240092
4891.06235101
4891.07571207
4891.10131472
4891.13692354
4891.17404089
4891.20971992
4891.24089645
4891.26496522
4891.28078036
4891.28860248
4891.29078143
4891.29096796
4891.29160926
4891.4288694
4891.21236764
4890.89596956
4890.73123275
4890.70460337
4890.64014073
4890.59791907
4890.64524862
4890.86015503
4891.18131695
4891.46894561
4891.65857016
4891.73886715
4891.73909015
4891.68967187
4891.61506654
4891.53178282