/*--------------------------------*- C++ -*----------------------------------*\
| =========                 |                                                 |
| \\      /  F ield         | OpenFOAM: The Open Source CFD Toolbox           |
|  \\    /   O peration     | Version:  3.0.1                                 |
|   \\  /    A nd           | Web:      www.OpenFOAM.org                      |
|    \\/     M anipulation  |                                                 |
\*---------------------------------------------------------------------------*/
FoamFile
{
    version     2.0;
    format      ascii;
    class       surfaceVectorField;
    location    "3.9";
    object      Uf_0;
}
// * * * * * * * * * * * * * * * * * * * * * * * * * * * * * * * * * * * * * //

dimensions      [0 1 -1 0 0 0 0];

internalField   nonuniform List<vector> 
45932
(
(0.00321826650874 0.00025117079386 -0.00103129003049)
(0.00149914328636 0.000978229264021 -0.00154593108696)
(0.00194569809934 0.000735430421869 -0.00258737656745)
(0.00587030797714 0.000477650855974 -0.000853078600469)
(0.00497107096525 0.00116369172259 -0.00184789720945)
(0.00528313615151 0.0010865236812 -0.00248972704688)
(0.00599312139792 0.00111207940741 -0.00071643140753)
(0.00687933463142 0.00242854414691 -0.00192724753099)
(0.0070048663755 0.00203647195687 -0.00248996384441)
(0.00333455558557 0.00167105610546 -0.000640414007105)
(0.0053689168299 0.00374342883324 -0.00188630874502)
(0.00542631052705 0.00295332884763 -0.00241415758874)
(-0.000785441139997 0.00190133097603 -0.000599733170064)
(0.00154043852172 0.00449539825848 -0.00189739912466)
(0.0015481356645 0.00348147244492 -0.0024354106361)
(-0.00521143703776 0.00172743742511 -0.000533896022004)
(-0.00309738775853 0.00454067221794 -0.00182667916583)
(-0.00313438115331 0.00350099510244 -0.00232768472557)
(-0.00869936540786 0.00119576937215 -0.000458973406897)
(-0.00750535352376 0.00384427911095 -0.00167827259601)
(-0.00757703826768 0.00299415003917 -0.00210032625005)
(-0.0101672642269 0.000515493412404 -0.00038362835689)
(-0.0101433136019 0.00256073644032 -0.0014910100077)
(-0.0102254834615 0.00209075640265 -0.00182680036734)
(-0.00950144957688 -5.27178261136e-05 -0.000302739602776)
(-0.0103737221079 0.00113504998893 -0.00121485797252)
(-0.0105130265425 0.00108364709099 -0.00146797287962)
(-0.00763766609344 -0.000333145209566 -0.000219799761833)
(-0.00870260939134 0.000140196130106 -0.000884555770759)
(-0.0088713578448 0.000328013025757 -0.00107210460902)
(-0.00559572587028 -0.00036488851188 -0.000151071580373)
(-0.00656344362943 -0.000306893958922 -0.000577340100743)
(-0.00672731617291 -2.59382696842e-05 -0.000714092622358)
(-0.00387999842204 -0.000303026451522 -0.000102953154558)
(-0.00462021981662 -0.00040608261916 -0.000353598076901)
(-0.00474875640302 -0.000149733842952 -0.000451796449606)
(-0.0026144973754 -0.000221392804833 -7.01313171714e-05)
(-0.0031271831199 -0.00035636254346 -0.000210039391112)
(-0.00321583207991 -0.000160727133769 -0.000276402000462)
(-0.00174096111743 -0.000149644935282 -5.0265625024e-05)
(-0.00208572936199 -0.000264951925842 -0.000124337050459)
(-0.00214138121364 -0.000130265756217 -0.000171829009668)
(-0.00115452513043 -9.74727198728e-05 -3.77953335346e-05)
(-0.00138532116645 -0.000181098905627 -7.74192141362e-05)
(-0.0014176725642 -9.40288927239e-05 -0.000112130856637)
(-0.000762445835728 -6.29849380333e-05 -2.86761292842e-05)
(-0.000918992261301 -0.000118817176824 -5.11221435676e-05)
(-0.000937063649491 -6.41572826464e-05 -7.72333741373e-05)
(-0.000498572394419 -4.11212799844e-05 -2.15290225488e-05)
(-0.000606371485313 -7.73560251485e-05 -3.47974227417e-05)
(-0.000616178499386 -4.32900450921e-05 -5.45908919281e-05)
(-0.000317196095228 -2.7407471495e-05 -1.58946611666e-05)
(-0.000393616485781 -5.11547681718e-05 -2.43083926563e-05)
(-0.000398547865215 -2.93560173093e-05 -3.9543015682e-05)
(-0.000191001934659 -1.90959516664e-05 -1.10019192661e-05)
(-0.000245783098503 -3.51030504751e-05 -1.68233899854e-05)
(-0.000247732159476 -2.0608250254e-05 -2.80032319128e-05)
(-0.000103792266719 -1.41635670187e-05 -6.53810700342e-06)
(-0.000142557668202 -2.54251853763e-05 -1.08739285966e-05)
(-0.000142773958856 -1.52186992117e-05 -1.81885213952e-05)
(-4.54681443216e-05 -1.12449407541e-05 -2.30972757717e-06)
(-7.16973589556e-05 -1.96300707436e-05 -5.95110539931e-06)
(-7.09415197103e-05 -1.19292292877e-05 -9.54058737475e-06)
(-1.00756492356e-05 -9.52917413365e-06 1.81880734491e-06)
(-2.56278474012e-05 -1.61838173292e-05 -1.44423458457e-06)
(-2.43731131235e-05 -9.95395529154e-06 -1.52073359747e-06)
(5.59334016458e-06 -8.61895699648e-06 5.62342675432e-06)
(5.19651933168e-07 -1.42972078906e-05 2.94322701235e-06)
(1.93884041573e-06 -8.81114953688e-06 6.45479663796e-06)
(5.20257241127e-06 -8.34330104957e-06 8.47182075173e-06)
(7.57904266703e-06 -1.3607474674e-05 6.71772966275e-06)
(8.78183393049e-06 -8.44909799148e-06 1.3795466775e-05)
(-3.70485545045e-06 -8.44649486499e-06 9.74558218985e-06)
(2.92499956482e-07 -1.36159598904e-05 8.9819798405e-06)
(1.02073802694e-06 -8.47257257292e-06 1.80629310984e-05)
(-1.32964570781e-05 -8.76970463171e-06 9.4608545804e-06)
(-1.06639276595e-05 -1.40375670588e-05 9.23124654073e-06)
(-1.04094953351e-05 -8.67606596788e-06 1.88273423919e-05)
(-1.75398124049e-05 -9.24429163912e-06 8.51502559699e-06)
(-1.74061697468e-05 -1.49160202393e-05 8.19262406946e-06)
(-1.74758290314e-05 -9.21460767262e-06 1.70323941247e-05)
(-1.60005507592e-05 -9.73916437617e-06 7.10391131007e-06)
(-1.97330426994e-05 -1.58136290916e-05 7.26288678714e-06)
(-2.00789717683e-05 -9.77820688161e-06 1.503936296e-05)
(-5.93071301716e-06 -1.01754884918e-05 4.62115482371e-06)
(-1.5367780466e-05 -1.65594374006e-05 5.3985824151e-06)
(-1.6206295603e-05 -1.03021831938e-05 1.15204408052e-05)
(1.77110118636e-05 -1.04933233155e-05 1.51837610534e-06)
(3.05712713595e-06 -1.71651127168e-05 2.14635451963e-06)
(1.87988920473e-06 -1.07447212492e-05 5.34055429016e-06)
(5.42494158209e-05 -1.0491321206e-05 -7.55932630171e-07)
(3.57880034496e-05 -1.75762411362e-05 -1.11861532406e-06)
(3.47562407309e-05 -1.10170419675e-05 -6.96511685424e-07)
(9.55867811356e-05 -9.85248173966e-06 -8.80407212875e-07)
(7.7064799984e-05 -1.71093788901e-05 -2.44965086766e-06)
(7.64631625245e-05 -1.08171187696e-05 -3.56296919537e-06)
(0.000129413265541 -8.7467144777e-06 5.61172281725e-07)
(0.000117122529764 -1.54779572018e-05 -7.45586835461e-07)
(0.000116828998726 -9.9937614993e-06 -1.43926125128e-06)
(0.000152319120342 -7.52432636253e-06 2.68659769982e-06)
(0.000146138343051 -1.36516959542e-05 1.62842800622e-06)
(0.000146092123569 -9.05476229988e-06 2.19445150221e-06)
(0.000161503901714 -6.3826819999e-06 5.36343536733e-06)
(0.000161562449138 -1.16587814082e-05 4.65258682819e-06)
(0.000161841143638 -8.12953549473e-06 7.06191374449e-06)
(0.000156821563961 -5.26182819976e-06 7.8882499281e-06)
(0.000163531002377 -9.9871142698e-06 7.85963422381e-06)
(0.00016396101298 -7.36081730179e-06 1.23239508004e-05)
(0.00013932226935 -4.1905069313e-06 1.0593702947e-05)
(0.000151785436747 -8.17685836407e-06 1.04485075372e-05)
(0.000152301531239 -6.29281219444e-06 1.69225256122e-05)
(0.000107019543689 -3.87858287225e-06 1.41228028274e-05)
(0.000126503107043 -6.77617254549e-06 1.40662370339e-05)
(0.000127169358172 -5.56070418282e-06 2.29237738225e-05)
(6.13918136539e-05 -5.33136825351e-06 1.94833208582e-05)
(8.6867311654e-05 -7.10856978724e-06 1.81604177977e-05)
(8.77376868699e-05 -6.10865023717e-06 2.99183721232e-05)
(3.56313374744e-05 -1.03760097665e-05 2.32555272456e-05)
(3.86864550708e-05 -8.25569067924e-06 4.10676102832e-05)
(0.00317206793602 0.00202326959708 -0.00236253826591)
(0.00143661681063 0.00286398351415 -0.00202603570232)
(0.00185120193118 0.00229356009089 -0.00347180334578)
(0.0062192152674 0.00332569062674 -0.00292206613997)
(0.00552892659082 0.00399225628178 -0.00301382778999)
(0.00551464742994 0.00340485051048 -0.00435215346907)
(0.00642285251059 0.00537112421118 -0.00309712486848)
(0.00767701086312 0.00691159866179 -0.00319791309271)
(0.00725859564082 0.00574538548902 -0.00458488658425)
(0.00359812549402 0.00694939940985 -0.00314329386258)
(0.00597032807283 0.00966336370257 -0.00311476271558)
(0.0056066175674 0.00793316988756 -0.00450758319188)
(-0.000748639909462 0.00754234515353 -0.00312434512043)
(0.00177034828365 0.0111653687943 -0.00311487274029)
(0.00162296708973 0.0091243867041 -0.00449659829135)
(-0.00539180245088 0.00703952556371 -0.00297105573984)
(-0.00324874614925 0.0112183768173 -0.00302267821318)
(-0.00316515802511 0.00915175267251 -0.00435613317019)
(-0.00907442696949 0.00551944953388 -0.00271030919682)
(-0.00800963730736 0.00976634439234 -0.00283424351393)
(-0.00768362755783 0.00797749341079 -0.00408076380306)
(-0.0105657283068 0.00338932319297 -0.00232223962334)
(-0.0109034750952 0.00704088507363 -0.00262560775148)
(-0.010424957209 0.00580735126569 -0.00373451125755)
(-0.0097325800614 0.0014274987495 -0.00179667414051)
(-0.0110093320039 0.00388064109507 -0.00225817062529)
(-0.0106171742373 0.00329302879377 -0.00316218136914)
(-0.00768711785724 0.000212937825936 -0.00124209610967)
(-0.00906538575568 0.00150514043506 -0.00171298521128)
(-0.0088891013702 0.0013732998364 -0.00238769310106)
(-0.00555232647006 -0.000304975410241 -0.000779866597271)
(-0.00666779025314 0.000230097222756 -0.00113633270145)
(-0.00665964766362 0.000318765429191 -0.0016044043679)
(-0.00381111813704 -0.00042836855425 -0.000460684313455)
(-0.0045924243834 -0.000288039376374 -0.000686896836171)
(-0.00466115258512 -0.000136964306054 -0.000988663672394)
(-0.00255256257201 -0.000381835648972 -0.000264245124401)
(-0.00305729830568 -0.000404471543567 -0.000395825406084)
(-0.00314146069938 -0.000264326215605 -0.000581183557272)
(-0.00169680120141 -0.000287337453403 -0.000151490639572)
(-0.00201602447758 -0.00035820473745 -0.000224171473166)
(-0.00208829025968 -0.000249568130814 -0.000334641260832)
(-0.00112719393759 -0.000198600098408 -9.07460241692e-05)
(-0.00133107392623 -0.00026775924638 -0.000129449883929)
(-0.0013846057534 -0.000191765463017 -0.000198155491782)
(-0.000747301923177 -0.000132319465028 -5.72434370251e-05)
(-0.000881857579305 -0.000185027031162 -7.90607847182e-05)
(-0.000918550005533 -0.000134333606533 -0.000123747379688)
(-0.000490913604841 -8.77475538187e-05 -3.75767928492e-05)
(-0.000582666135589 -0.000124356853428 -5.0898584582e-05)
(-0.000607041794638 -9.08320595779e-05 -8.12037819894e-05)
(-0.000314183213531 -5.93092751843e-05 -2.52371214751e-05)
(-0.000379048916546 -8.39214045507e-05 -3.42569994818e-05)
(-0.000394979951142 -6.12488717977e-05 -5.56084139459e-05)
(-0.000190684407182 -4.18418202692e-05 -1.66953993159e-05)
(-0.000237123197726 -5.84576893484e-05 -2.33836980719e-05)
(-0.000247467090122 -4.25205923539e-05 -3.84041820537e-05)
(-0.000104914495958 -3.12692086614e-05 -1.02869269925e-05)
(-0.0001375126927 -4.27893964709e-05 -1.56601704368e-05)
(-0.000144353232953 -3.08973051347e-05 -2.55298513157e-05)
(-4.72192454991e-05 -2.49119723912e-05 -5.08561240671e-06)
(-6.87413931847e-05 -3.31283509328e-05 -9.79006979037e-06)
(-7.34145732707e-05 -2.36818025804e-05 -1.53582071639e-05)
(-1.19672351166e-05 -2.12562034347e-05 -3.19814917124e-07)
(-2.38562589274e-05 -2.72962306855e-05 -4.79939081405e-06)
(-2.71049720324e-05 -1.93470292992e-05 -6.52219058023e-06)
(4.18560529061e-06 -1.94980693697e-05 4.03752992078e-06)
(1.50092817489e-06 -2.41914322579e-05 4.56187357406e-08)
(-9.09963567712e-07 -1.70627792783e-05 1.80957330546e-06)
(3.58515779409e-06 -1.90203064393e-05 7.22788875152e-06)
(7.9705588205e-06 -2.30586722146e-05 4.2090703988e-06)
(5.83634960783e-06 -1.64047875655e-05 9.74370384031e-06)
(-6.24614746664e-06 -1.93845850747e-05 8.46764419138e-06)
(1.16703253118e-07 -2.30350008181e-05 6.57934156453e-06)
(-2.05536706158e-06 -1.64888144134e-05 1.4327605248e-05)
(-1.57733383876e-05 -2.03804032777e-05 7.9630160298e-06)
(-1.12627353335e-05 -2.4056616309e-05 6.67064299771e-06)
(-1.35318958326e-05 -1.72819693851e-05 1.47762385005e-05)
(-1.96786747744e-05 -2.16602627118e-05 6.94048525962e-06)
(-1.80059023059e-05 -2.56847709414e-05 5.45953023133e-06)
(-2.02268889544e-05 -1.86015097208e-05 1.27156991183e-05)
(-1.82472268198e-05 -2.29172186314e-05 5.55755789217e-06)
(-2.01996121961e-05 -2.73228154178e-05 4.51008675932e-06)
(-2.22994122517e-05 -2.00264246641e-05 1.07884017866e-05)
(-7.48230755986e-06 -2.39988775287e-05 2.92378211102e-06)
(-1.57111995289e-05 -2.8997839129e-05 2.59794243434e-06)
(-1.79842108209e-05 -2.13417780609e-05 7.05147189378e-06)
(1.74028108618e-05 -2.4743768175e-05 -4.90636909776e-07)
(3.0313133067e-06 -3.01824267252e-05 -1.02025169836e-06)
(7.35254764085e-07 -2.23226930461e-05 5.70728984733e-07)
(5.53115262459e-05 -2.47151370344e-05 -2.81233356155e-06)
(3.65523917955e-05 -3.07934109513e-05 -4.52992842588e-06)
(3.48347248846e-05 -2.28332809455e-05 -5.74101293137e-06)
(9.80871370936e-05 -2.33714949856e-05 -2.31483049025e-06)
(7.91306026977e-05 -3.00827375632e-05 -5.74238207131e-06)
(7.83091439704e-05 -2.2343665938e-05 -8.41837973841e-06)
(0.000132999978326 -2.11919994925e-05 3.21668889029e-07)
(0.000120045713945 -2.77747497106e-05 -3.29981175332e-06)
(0.000119978331618 -2.06913715549e-05 -5.16391387443e-06)
(0.000155960798508 -1.87092545863e-05 3.59441713459e-06)
(0.000149278294504 -2.53991248078e-05 1.1788336588e-07)
(0.000149715332664 -1.88835032231e-05 2.62348595968e-07)
(0.000164839959684 -1.62319798988e-05 7.14878568468e-06)
(0.000164480548854 -2.2359228922e-05 3.82343781543e-06)
(0.000165322718237 -1.67854438702e-05 6.2560449208e-06)
(0.000159551397205 -1.38898764617e-05 1.04198918329e-05)
(0.000165910810846 -1.97379816028e-05 7.55244000371e-06)
(0.000167010762191 -1.49719975537e-05 1.23905379716e-05)
(0.000141459487443 -1.17408104758e-05 1.39210416241e-05)
(0.000153505918141 -1.71799133332e-05 1.07497530665e-05)
(0.000154737299182 -1.29904956347e-05 1.80448203855e-05)
(0.000107985944609 -1.09798058959e-05 1.81038520043e-05)
(0.000127256958361 -1.52117297629e-05 1.49990751496e-05)
(0.000128588145889 -1.15185880097e-05 2.51683484022e-05)
(5.98490568038e-05 -1.3122829646e-05 2.19326241851e-05)
(8.60238211636e-05 -1.56608290136e-05 1.91355662646e-05)
(8.80858442704e-05 -1.22660691509e-05 3.26163335159e-05)
(3.34209511475e-05 -1.93894690358e-05 2.09588401087e-05)
(3.62166167564e-05 -1.54800071238e-05 3.89333885919e-05)
(0.00366482899574 0.00472002262845 -0.0026773252264)
(0.00178039440128 0.00471022069335 -0.00208344272919)
(0.0021443195519 0.00424577380657 -0.00367866750747)
(0.00724638515076 0.00741942252377 -0.00328967474274)
(0.00677573154235 0.00689957094164 -0.00314101209799)
(0.00639283444634 0.00623141362147 -0.00469810833247)
(0.00741345666349 0.0109600827421 -0.00321555093981)
(0.00919422580955 0.0112447360276 -0.00284780036125)
(0.00823201774092 0.00984249666278 -0.00441668664171)
(0.00416027230805 0.0135591546335 -0.00308634159329)
(0.00705639876776 0.0151410916234 -0.0023352012815)
(0.00627939931672 0.0131076892414 -0.00385114702213)
(-0.00070712431189 0.0144915121246 -0.00301320583304)
(0.00216374286683 0.0172152969489 -0.00216162522818)
(0.00186619414216 0.014842250315 -0.00361623888189)
(-0.00586644255645 0.0136265305688 -0.00288586598727)
(-0.00356399732447 0.0172646064523 -0.00206200658324)
(-0.00335006564455 0.0148632736031 -0.00346657833325)
(-0.00996848478897 0.0110508557837 -0.00274954206859)
(-0.00899977676306 0.0151994316989 -0.00202402172643)
(-0.00826389264507 0.0130965609744 -0.00338207504892)
(-0.0115670406968 0.00738833504724 -0.00256153875343)
(-0.0123244880513 0.0112889207853 -0.0021761712746)
(-0.011260928077 0.00979061337039 -0.00344876993959)
(-0.0104908239872 0.00388611280504 -0.00217448169606)
(-0.012319678538 0.00666904375727 -0.00221931771319)
(-0.0113670685035 0.00591482904155 -0.00332652708907)
(-0.00808154643705 0.00149777711978 -0.00160722180306)
(-0.00992313329926 0.00307009621918 -0.00190054508273)
(-0.00936643644614 0.00283831475891 -0.00276961287118)
(-0.0056670416881 0.000246498774751 -0.00104336294035)
(-0.00706833851748 0.000986491820142 -0.00134263415345)
(-0.0068536508124 0.00100326136977 -0.00196366526882)
(-0.00378489552978 -0.000256468762877 -0.0006220379288)
(-0.00470432054045 1.35585720854e-05 -0.000837428868081)
(-0.00468153468161 0.000106854986266 -0.00124268802604)
(-0.0024782673602 -0.00037075602055 -0.00035575175485)
(-0.00303359131376 -0.000321807840198 -0.000488695608995)
(-0.00308763344018 -0.000222228520705 -0.000735993125844)
(-0.0016202837125 -0.000329982027984 -0.000202130717524)
(-0.00195025927537 -0.000361904929186 -0.0002790583981)
(-0.00201746751977 -0.000282600647587 -0.000425305402173)
(-0.00106603197996 -0.000247988478038 -0.000117764644478)
(-0.00126473751666 -0.000297316360137 -0.000160141869382)
(-0.00132210344921 -0.00024033389849 -0.000247581186376)
(-0.00070395728996 -0.000172860743333 -7.27159322751e-05)
(-0.000829679387956 -0.00021494299931 -9.60988055901e-05)
(-0.00087180705226 -0.000176431349844 -0.000151132722977)
(-0.000461955629612 -0.000117682204125 -4.75787912146e-05)
(-0.000546100748553 -0.0001475832355 -6.14818460056e-05)
(-0.00057488002564 -0.00012181176165 -9.77849337716e-05)
(-0.000295169429328 -8.10691656058e-05 -3.24035760787e-05)
(-0.000354746461528 -0.000100566592693 -4.16815291935e-05)
(-0.00037370255484 -8.29403876469e-05 -6.67577399853e-05)
(-0.000178077087919 -5.79607022409e-05 -2.23484691928e-05)
(-0.000221192788308 -7.03591738672e-05 -2.91881285142e-05)
(-0.000233463161598 -5.77580662097e-05 -4.66540388777e-05)
(-9.62434323037e-05 -4.35641372418e-05 -1.51633132346e-05)
(-0.000126874222532 -5.13874770897e-05 -2.06002749023e-05)
(-0.000134913619901 -4.18565035329e-05 -3.23277753835e-05)
(-4.10357088289e-05 -3.46667756534e-05 -9.50384819771e-06)
(-6.13875590471e-05 -3.94370559291e-05 -1.418125489e-05)
(-6.68074611209e-05 -3.17510849973e-05 -2.13039492146e-05)
(-7.49231483507e-06 -2.94944212438e-05 -4.43395716118e-06)
(-1.86447781096e-05 -3.21274139403e-05 -8.84594067433e-06)
(-2.23440889734e-05 -2.56006392309e-05 -1.19490634567e-05)
(6.70629424231e-06 -2.70912047176e-05 2.17159213766e-07)
(5.14761577039e-06 -2.81749191398e-05 -3.80718101526e-06)
(2.55997289293e-06 -2.24509640517e-05 -3.12401536189e-06)
(5.41602501347e-06 -2.65303365402e-05 3.56052321181e-06)
(1.05164301155e-05 -2.69794525241e-05 6.01039373496e-07)
(8.40580890406e-06 -2.14878562937e-05 4.55823175087e-06)
(-4.52953913859e-06 -2.71536700777e-05 4.78234037085e-06)
(1.8033763249e-06 -2.71712033088e-05 3.05945269832e-06)
(-2.97378121129e-07 -2.16394169881e-05 9.10194485615e-06)
(-1.44981058793e-05 -2.87268208042e-05 4.16715719923e-06)
(-1.02919929126e-05 -2.85157901455e-05 3.03857348322e-06)
(-1.24319489008e-05 -2.29400652722e-05 9.43711505976e-06)
(-1.86072828014e-05 -3.07060061804e-05 3.02913173103e-06)
(-1.7348743925e-05 -3.08024538086e-05 1.57897187597e-06)
(-1.93804315534e-05 -2.49826033492e-05 7.16662414047e-06)
(-1.71322581423e-05 -3.26645409347e-05 1.55047130149e-06)
(-1.96811011865e-05 -3.30779575681e-05 4.17914434298e-07)
(-2.15841794212e-05 -2.71374301319e-05 5.01264409522e-06)
(-6.38954574641e-06 -3.44219735777e-05 -1.34609137503e-06)
(-1.5318713536e-05 -3.52582857135e-05 -1.7543801202e-06)
(-1.73947680455e-05 -2.91924697019e-05 8.84696325958e-07)
(1.84243392245e-05 -3.55579280068e-05 -5.05954321446e-06)
(3.55295495652e-06 -3.71572538138e-05 -5.63971322807e-06)
(1.41048148137e-06 -3.06781107072e-05 -5.43606616167e-06)
(5.70083048584e-05 -3.55031179951e-05 -7.45997693563e-06)
(3.76236827324e-05 -3.78825251676e-05 -9.34218144042e-06)
(3.59916501322e-05 -3.12740947424e-05 -1.22066331292e-05)
(0.000100451524128 -3.38880621094e-05 -6.72736333438e-06)
(8.1066022245e-05 -3.70032296547e-05 -1.04933584513e-05)
(8.02856109056e-05 -3.05389831488e-05 -1.48050332052e-05)
(0.000135899771857 -3.13886135424e-05 -3.50359727647e-06)
(0.000122406901422 -3.45169348522e-05 -7.72857215776e-06)
(0.000122380220398 -2.85071275138e-05 -1.09862734235e-05)
(0.000158392822223 -2.84779509499e-05 3.46904046715e-07)
(0.000151649693237 -3.17314273496e-05 -3.71762109126e-06)
(0.000152096375319 -2.62660290624e-05 -4.91900334568e-06)
(0.000166734260917 -2.53914946337e-05 4.22709213446e-06)
(0.000166616448873 -2.83689249738e-05 3.3024563967e-07)
(0.000167405156433 -2.35523221533e-05 1.83402017516e-06)
(0.000160957722469 -2.25815290126e-05 7.88230123734e-06)
(0.000167518825917 -2.52568062369e-05 4.29129720038e-06)
(0.000168547444829 -2.1084130693e-05 8.40237399738e-06)
(0.000141953599714 -2.01912081711e-05 1.1827786592e-05)
(0.000154519401491 -2.24170840453e-05 7.90703052004e-06)
(0.000155679328403 -1.87843257389e-05 1.47349815436e-05)
(0.000107190906939 -1.93727516007e-05 1.60307894099e-05)
(0.000127345968162 -2.02025507343e-05 1.24468525821e-05)
(0.000128577661268 -1.71336392203e-05 2.23681420774e-05)
(5.78626878994e-05 -2.12115657793e-05 1.81617821882e-05)
(8.47106165948e-05 -2.0346010965e-05 1.62728792435e-05)
(8.6818163892e-05 -1.79889818501e-05 2.93448257815e-05)
(3.23961699606e-05 -2.24396794894e-05 1.63736366769e-05)
(3.45250821638e-05 -2.10515211094e-05 3.19768189965e-05)
(0.00472224742512 0.00681799353337 -0.00254712960078)
(0.00245098866123 0.00604141386085 -0.0020675702599)
(0.00280256815342 0.0058048581255 -0.00369233243194)
(0.00904743705432 0.0105905488009 -0.0026991377165)
(0.00864440440155 0.00897165677217 -0.00278347251085)
(0.00793413606524 0.00839776567277 -0.0042346957773)
(0.00905684964782 0.0151912251625 -0.00196745070293)
(0.0113493570321 0.0141920932957 -0.00166601727682)
(0.00989998593552 0.0128507074143 -0.00295207620712)
(0.00507778205541 0.018480406373 -0.00141048491638)
(0.00859801624481 0.0186819018329 -0.000460879415727)
(0.00743303504755 0.0167601082386 -0.00155128583069)
(-0.000669907168622 0.0196420749342 -0.00121042597838)
(0.00271710594604 0.0210495329527 1.5790496294e-05)
(0.00226940887324 0.0188048142649 -0.000960397347011)
(-0.00670282219279 0.0185233835139 -0.0012001623224)
(-0.00404992574924 0.0210997254129 0.000115685690068)
(-0.00370020314425 0.0188211317675 -0.000818665418337)
(-0.0115049333046 0.0152050423179 -0.00145065093244)
(-0.010453403351 0.0186852213687 -0.000148786848748)
(-0.00932506196538 0.0166842577573 -0.00108473931645)
(-0.0133330189969 0.0104413632266 -0.00183395023436)
(-0.0143599796242 0.0141153850884 -0.000927245982136)
(-0.0127637722354 0.0126531026541 -0.0019124311158)
(-0.011917584014 0.00581084207197 -0.00194538109986)
(-0.014253119317 0.00861679922998 -0.00167017270219)
(-0.0127948666951 0.00785667889956 -0.00265548793987)
(-0.00892729269142 0.0025611283545 -0.00163595743313)
(-0.0112531628007 0.00424759441243 -0.00180200427866)
(-0.0103511553432 0.00397447496637 -0.00267266193186)
(-0.00604988486916 0.000762577585168 -0.00113670008118)
(-0.00777399315167 0.00162543280459 -0.00140273191348)
(-0.00736658511749 0.00158572857605 -0.00207766330349)
(-0.00389017468577 -4.4326051888e-05 -0.000704086548276)
(-0.00498826534456 0.000314106546827 -0.000920258517543)
(-0.00487406744582 0.000358709658846 -0.00138042014478)
(-0.00246049860787 -0.000303141266121 -0.000412002252246)
(-0.00309342961308 -0.000195793598889 -0.000551548773211)
(-0.00311064941211 -0.000137597874316 -0.000840867527046)
(-0.00156416721913 -0.000321622850515 -0.000237069549959)
(-0.00192037563758 -0.000317461651318 -0.000318181122497)
(-0.00197507212011 -0.00026955601311 -0.000492622472229)
(-0.0010092624859 -0.00025903416214 -0.000138476030494)
(-0.00121178966428 -0.000286877518508 -0.00018417829586)
(-0.00126617270965 -0.000251915549944 -0.000287903237674)
(-0.000659617122982 -0.000186325527854 -8.48647193206e-05)
(-0.000781073868125 -0.000216103286513 -0.000109434606248)
(-0.000823475037333 -0.000191821325716 -0.000173673250619)
(-0.000431057361765 -0.000128417329061 -5.55845839846e-05)
(-0.000509832527775 -0.000150698477277 -6.93887776846e-05)
(-0.000539361044794 -0.00013421885759 -0.000111174582137)
(-0.000274776592817 -8.86335350227e-05 -3.8466081629e-05)
(-0.000330125719717 -0.00010305934235 -4.71423264277e-05)
(-0.000349520273267 -9.14588285153e-05 -7.56568854086e-05)
(-0.000164688020412 -6.30540848981e-05 -2.74399342236e-05)
(-0.000205062517148 -7.18509360934e-05 -3.35875091893e-05)
(-0.000217426785223 -6.32826571051e-05 -5.35612774959e-05)
(-8.7254745752e-05 -4.68336537342e-05 -1.96182165576e-05)
(-0.000116207918004 -5.20010402514e-05 -2.43307294258e-05)
(-0.000124081390288 -4.53245464873e-05 -3.81114987365e-05)
(-3.49235281804e-05 -3.66524584435e-05 -1.35233473666e-05)
(-5.41886388225e-05 -3.92822013542e-05 -1.74532519213e-05)
(-5.92797270844e-05 -3.37447335337e-05 -2.63286679791e-05)
(-3.39350203568e-06 -3.06604837869e-05 -8.2191645284e-06)
(-1.37829289946e-05 -3.14414469829e-05 -1.17980488784e-05)
(-1.70841329971e-05 -2.66335781178e-05 -1.64589711575e-05)
(9.40980897574e-06 -2.79335722181e-05 -3.42330085553e-06)
(8.22553809378e-06 -2.71309806676e-05 -6.66721703064e-06)
(6.14158778915e-06 -2.29086343028e-05 -7.45326021445e-06)
(7.14754447172e-06 -2.74973123429e-05 9.99688600043e-08)
(1.23095011241e-05 -2.59710074529e-05 -2.22715847842e-06)
(1.08539167983e-05 -2.2045992505e-05 1.1552304894e-07)
(-3.61892494802e-06 -2.84172847504e-05 1.31568581069e-06)
(2.7338601062e-06 -2.65182737026e-05 4.60228027961e-07)
(1.28367637016e-06 -2.23623291952e-05 4.7237866703e-06)
(-1.41556655167e-05 -3.03752478247e-05 4.50388159949e-07)
(-1.00442550419e-05 -2.81138003489e-05 2.32109982684e-07)
(-1.15993807406e-05 -2.39710219044e-05 4.8605634436e-06)
(-1.84395488692e-05 -3.29163829085e-05 -1.03224542077e-06)
(-1.74718748745e-05 -3.05911082064e-05 -1.66397019962e-06)
(-1.89086557346e-05 -2.65567404729e-05 1.92546939356e-06)
(-1.69262819058e-05 -3.54759333161e-05 -2.88693698739e-06)
(-1.99254607611e-05 -3.35232030349e-05 -3.13738161333e-06)
(-2.12505681659e-05 -2.92817354663e-05 -3.15866527767e-07)
(-6.22462601987e-06 -3.77214439431e-05 -6.04800197323e-06)
(-1.5572286213e-05 -3.61524386209e-05 -5.67287141482e-06)
(-1.71084319348e-05 -3.18057353523e-05 -4.46057980642e-06)
(1.89554398152e-05 -3.91228064641e-05 -9.92235145403e-06)
(3.58810591644e-06 -3.82235550841e-05 -9.72842559183e-06)
(1.90394765216e-06 -3.36081547552e-05 -1.15272189613e-05)
(5.82912207839e-05 -3.90389624588e-05 -1.23755629561e-05)
(3.8354503703e-05 -3.90029750781e-05 -1.3577961477e-05)
(3.70421237087e-05 -3.42695362424e-05 -1.8550788829e-05)
(0.000102387557031 -3.73211355073e-05 -1.14945672747e-05)
(8.26489343814e-05 -3.800655182e-05 -1.46528109065e-05)
(8.20677762167e-05 -3.33482334427e-05 -2.10484290665e-05)
(0.000138200024538 -3.46419647997e-05 -7.94259597254e-06)
(0.000124447607177 -3.5539435188e-05 -1.16780394731e-05)
(0.00012454168937 -3.11709698914e-05 -1.68878454205e-05)
(0.000160541260655 -3.15020236875e-05 -3.73427949831e-06)
(0.000153782352939 -3.26549853026e-05 -7.32355331294e-06)
(0.000154281570521 -2.86210862236e-05 -1.02517180694e-05)
(0.000168558798377 -2.81754468373e-05 3.94450705593e-07)
(0.000168622606844 -2.92500276703e-05 -2.96672625818e-06)
(0.000169370920846 -2.56204261791e-05 -3.13255156308e-06)
(0.000162450595115 -2.51213202253e-05 4.31602648308e-06)
(0.000169161477121 -2.59795376243e-05 1.15468389148e-06)
(0.000170094599398 -2.28167266549e-05 3.77219302237e-06)
(0.000142738049458 -2.25401492622e-05 8.52609651011e-06)
(0.000155739016882 -2.31288700891e-05 5.05749050866e-06)
(0.000156764061014 -2.03305689979e-05 1.05639293722e-05)
(0.000106950361392 -2.13517363352e-05 1.26889424157e-05)
(0.000127887054279 -2.0781783338e-05 9.7662963782e-06)
(0.000128885936997 -1.85008056551e-05 1.84691921578e-05)
(5.70682961242e-05 -2.18022383313e-05 1.44847337322e-05)
(8.44947012926e-05 -2.04725110758e-05 1.34690122426e-05)
(8.62411239937e-05 -1.89680670825e-05 2.50631709993e-05)
(3.23365349517e-05 -2.06606174643e-05 1.38211797993e-05)
(3.38825401864e-05 -2.06836993676e-05 2.67503885819e-05)
(0.00617937174334 0.00807526120625 -0.00230391316998)
(0.00331801585016 0.00664624889114 -0.00206969315187)
(0.00370008250948 0.0067564048084 -0.0036945359875)
(0.0113606787577 0.0123836559513 -0.00175035207117)
(0.0108378962803 0.00983232324859 -0.00227922618151)
(0.00989254902265 0.00960152226404 -0.00345133446188)
(0.0111267163283 0.0174279083753 -0.000159445989617)
(0.0138169776539 0.0152445224886 -0.000221394760764)
(0.0119947290336 0.0143536927583 -0.00093545927869)
(0.00623680130383 0.0209632738151 0.000965395996949)
(0.0103544539608 0.0196873982805 0.00172457217795)
(0.0088916149308 0.0184261321396 0.00143945436073)
(-0.000637949317126 0.0222085402855 0.00134190216474)
(0.00334225971331 0.0220371961859 0.00251511829528)
(0.00278375027787 0.0205450778768 0.00244971034231)
(-0.00779468670633 0.020976244009 0.00116706116372)
(-0.00461606725689 0.0220903907491 0.00261015609745)
(-0.00417317475124 0.0205601579686 0.00258770446405)
(-0.0134602324984 0.0173490269714 0.00037461810156)
(-0.0121269816164 0.0196560124131 0.00201060691083)
(-0.0107069965445 0.0182876991232 0.00186198141846)
(-0.0155887486477 0.0121105477502 -0.000763468449964)
(-0.0166803384823 0.0150553934064 0.000553105216453)
(-0.0146824306373 0.014015275613 0.000124243459298)
(-0.0137946172892 0.0069499131307 -0.00152679588099)
(-0.0165095505981 0.00939305374586 -0.000977968944583)
(-0.0146510724964 0.00886747743601 -0.00167333339517)
(-0.0101075375913 0.00326454388678 -0.00156877875902)
(-0.0128509732961 0.00481426390476 -0.00162797700317)
(-0.0116790934209 0.00464088581415 -0.00241022686432)
(-0.00663997936011 0.00115931789081 -0.00118629034984)
(-0.00867445793147 0.00200084071845 -0.00142243958358)
(-0.00811328320144 0.00198160733164 -0.0021092054067)
(-0.00411549120927 0.000158563808908 -0.000767720742478)
(-0.00539531619259 0.000535547075094 -0.00098473216175)
(-0.00520593242031 0.000570244312175 -0.00148370172783)
(-0.00250223214797 -0.000208027537487 -0.000457727643463)
(-0.00322202481535 -7.36203595263e-05 -0.000604588686542)
(-0.00320738257774 -3.62572190666e-05 -0.000928817930392)
(-0.00153524865301 -0.000279094339925 -0.000265289868399)