/*--------------------------------*- C++ -*----------------------------------*\
| =========                 |                                                 |
| \\      /  F ield         | OpenFOAM: The Open Source CFD Toolbox           |
|  \\    /   O peration     | Version:  3.0.1                                 |
|   \\  /    A nd           | Web:      www.OpenFOAM.org                      |
|    \\/     M anipulation  |                                                 |
\*---------------------------------------------------------------------------*/
FoamFile
{
    version     2.0;
    format      ascii;
    class       volScalarField;
    location    "6.6";
    object      ddt0(k);
}
// * * * * * * * * * * * * * * * * * * * * * * * * * * * * * * * * * * * * * //

dimensions      [0 2 -3 0 0 0 0];

internalField   nonuniform List<scalar> 
7968
(
-9.35465552216e-05
-0.000104170605415
-0.000112640933581
-0.000118103039591
-0.000121504630031
-0.000123552125893
-0.000124632100086
-0.000125232670284
-0.000125596630877
-0.000125837203907
-0.000126062021317
-0.000125988461291
-0.000125691051949
-0.000125115408722
-0.00012402323856
-0.000121959434481
-0.000118490350939
-0.000112942067965
-0.000104373605526
-9.36515074648e-05
-0.000104155614458
-0.000151188368311
-0.000183023125072
-0.000202479259143
-0.000213960629364
-0.000220184800782
-0.000223120154159
-0.000224454635867
-0.000225205429864
-0.000225684723962
-0.000225899730828
-0.000225721100263
-0.000225184954044
-0.000223975187186
-0.000221086428893
-0.00021489724488
-0.000203331346029
-0.000183722218169
-0.000151655515072
-0.000104393496031
-0.000112641924534
-0.000183110519951
-0.000229629603072
-0.000257879157649
-0.00027452849777
-0.000283507077848
-0.000287675016341
-0.000289423941226
-0.000290359265208
-0.00029094599538
-0.000291159262958
-0.000290886211404
-0.000290191805065
-0.000288615198416
-0.000284543549273
-0.000275601564816
-0.000258869457059
-0.000230433617772
-0.000183652446387
-0.000112962469272
-0.000118122397749
-0.000202636588814
-0.000257954674008
-0.000290871711521
-0.000309444664938
-0.000318549337244
-0.000322060636043
-0.000322666142669
-0.000323108943699
-0.000323564509169
-0.000323787329405
-0.00032361984687
-0.000323421394362
-0.00032303886552
-0.000319649912183
-0.00031058924521
-0.000291908104602
-0.000258778148046
-0.000203188039759
-0.000118483420626
-0.000121541485955
-0.000214125387575
-0.000274609467874
-0.000309442558909
-0.000327375986621
-0.000332268919454
-0.000337106841631
-0.000339357319814
-0.000340421982802
-0.000340999153456
-0.000341180182402
-0.0003408413298
-0.000339940015284
-0.000337788891897
-0.000332978208629
-0.000328591386346
-0.00031053253692
-0.000275451665527
-0.000214685119768
-0.000121929085443
-0.000123587249909
-0.000220302866165
-0.000283511935701
-0.000318441590811
-0.000332206822538
-0.000342495006948
-0.000347664993832
-0.000349665652511
-0.000350382443743
-0.000350760199438
-0.000350943457711
-0.000350803035868
-0.000350253035258
-0.000348346275783
-0.000343167810121
-0.000332952117945
-0.000319607593337
-0.000284404847931
-0.000220899467938
-0.000123988919058
-0.000124659107824
-0.000223155077165
-0.000287539837359
-0.000321769494888
-0.000336970936905
-0.000347577489328
-0.000352189912408
-0.00035340678502
-0.000353523948136
-0.000353626808353
-0.00035383642825
-0.000353997247352
-0.00035407726656
-0.000352977276251
-0.000348356215786
-0.000337774200226
-0.000323059099827
-0.000288516529337
-0.000223801387525
-0.00012506964829
-0.000125230914136
-0.00022435053633
-0.000289099906359
-0.000322159360689
-0.000339081849361
-0.000349419357816
-0.000353224983754
-0.000353546560058
-0.000353066720023
-0.000352861155474
-0.000353117035583
-0.000353634010015
-0.000354350762262
-0.000354163858496
-0.00035032727962
-0.000339974314624
-0.000323535231299
-0.00029017159668
-0.000225063451443
-0.000125644388579
-0.000125545195623
-0.00022492224699
-0.000289813787433
-0.000322354729844
-0.000339961132512
-0.00034994075644
-0.000353123557896
-0.000352831449806
-0.000351720905614
-0.0003511936811
-0.000351540727709
-0.000352441332528
-0.000353779247867
-0.000354218633901
-0.000350986053328
-0.000340969121018
-0.000323868051321
-0.000290982008898
-0.000225696447435
-0.00012596113933
-0.000125693827979
-0.000225202952005
-0.000290170304637
-0.000322570405075
-0.000340340669856
-0.000350117075011
-0.00035300109528
-0.000352358868382
-0.000350868766287
-0.000350157074179
-0.000350606790673
-0.000351745213862
-0.00035343278409
-0.000354200912859
-0.000351250197705
-0.000341428352272
-0.000324211710822
-0.000291400223372
-0.000226015644772
-0.000126116416399
-0.000125695584935
-0.000225194168681
-0.000290145550018
-0.000322531998786
-0.000340305258809
-0.000350075793398
-0.00035294935927
-0.000352291021017
-0.000350779178198
-0.000350047901458
-0.000350495059098
-0.000351650267796
-0.000353358573121
-0.000354141845703
-0.000351201378376
-0.000341386187602
-0.000324165135993
-0.000291370962396
-0.000226006926281
-0.000126120232174
-0.000125548751417
-0.00022489290222
-0.000289741092761
-0.000322242383595
-0.000339859421882
-0.000349824468845
-0.000352982651582
-0.000352656195303
-0.000351499305894
-0.000350936785346
-0.000351278186918
-0.000352207610274
-0.000353588131401
-0.000354059644684
-0.000350849697972
-0.000340846364373
-0.000323725429336
-0.000290889000664
-0.0002256594886
-0.000125965860716
-0.000125240661279
-0.000224307649332
-0.000288992017621
-0.000321987399171
-0.000338926932585
-0.000349241738702
-0.000353011100945
-0.000353285533786
-0.000352761035409
-0.000352516723444
-0.000352766879424
-0.000353311677337
-0.00035407219067
-0.000353926639126
-0.000350120994525
-0.000339786245645
-0.000323312993657
-0.000290026275703
-0.000225002098698
-0.000125653515266
-0.000124676511424
-0.000223109579355
-0.000287420688795
-0.000321566738957
-0.000336770977585
-0.000347352752864
-0.000351925738457
-0.00035308981007
-0.000353159310249
-0.000353230599585
-0.000353434267627
-0.000353617888266
-0.000353739693906
-0.000352684532435
-0.000348095359824
-0.000337533561237
-0.000322789829162
-0.000288346583912
-0.000223726820507
-0.000125084513744
-0.000123614257833
-0.000220276130456
-0.000283415400661
-0.000318253190447
-0.000331935457322
-0.000342203015913
-0.000347369238882
-0.000349322710171
-0.00034999663978
-0.00035034878652
-0.00035052602067
-0.00035040150046
-0.000349886911471
-0.000348017818253
-0.00034284285419
-0.000332645915057
-0.000319342173334
-0.000284246843348
-0.000220832164355
-0.000124011021247
-0.000121583022531
-0.000214139062205
-0.000274564445474
-0.000309303388395
-0.000327121704287
-0.000331900013273
-0.000336774485759
-0.000338989932715
-0.000340017877485
-0.000340582593915
-0.000340758460613
-0.000340421063978
-0.000339549259091
-0.000337426510163
-0.000332597727759
-0.000328250849891
-0.000310317020909
-0.00027534377362
-0.000214660010232
-0.000121965484922
-0.000118171718795
-0.000202691463219
-0.000257974384821
-0.000290804619838
-0.000309263772746
-0.000318246000036
-0.000321642202449
-0.000322160317172
-0.000322541747728
-0.000323030142888
-0.000323244712277
-0.000323022843932
-0.000322880916681
-0.000322566345462
-0.000319280945128
-0.000310336324513
-0.000291772525807
-0.000258739363123
-0.00020320528325
-0.000118524039779
-0.000112692068753
-0.000183201810157
-0.000229709132183
-0.000257890373371
-0.000274441845571
-0.000283314318904
-0.000287380781367
-0.000289047197576
-0.000289930620979
-0.000290489354683
-0.000290697815715
-0.000290441677395
-0.000289786512076
-0.000288278608473
-0.000284298494812
-0.000275454141975
-0.000258821594537
-0.00023046359882
-0.00018370861594
-0.000113001788082
-0.000104197249833
-0.000151283455121
-0.000183127668966
-0.000202545079565
-0.00021396296101
-0.000220120614111
-0.000222990472057
-0.000224268302802
-0.000224982704376
-0.000225443584929
-0.000225658362518
-0.00022549427904
-0.000224986101137
-0.00022382047221
-0.000220985945468
-0.000214856163275
-0.000203358859161
-0.000183790496105
-0.000151723076815
-0.000104427543647
-9.35642851241e-05
-0.000104211998495
-0.000112698760388
-0.000118164669883
-0.000121561229693
-0.0001235958897
-0.000124659675512
-0.000125243361594
-0.000125594889107
-0.000125826553004
-0.000126053922374
-0.00012599120153
-0.000125707036365
-0.00012514674132
-0.000124068102404
-0.000122015615842
-0.000118550564266
-0.000112998389921
-0.00010441620844
-9.36701848111e-05
-0.000102337140907
-0.000144677055289
-0.000174196665527
-0.000192645610874
-0.000203936812647
-0.000210463585771
-0.000213848312101
-0.00021540802795
-0.000216069037269
-0.000216358910798
-0.000216511923337
-0.000216433761094
-0.000215899183973
-0.000214393334482
-0.000210999394538
-0.000204427744043
-0.000193039795257
-0.000174474477189
-0.00014486452872
-0.000102522774279
-0.000144594063278
-0.000297077761468
-0.000374760268484
-0.000421815461833
-0.00044985277315
-0.000465311445914
-0.000472808864124
-0.000475882546777
-0.000477029940623
-0.000477469242422
-0.000477672257388
-0.00047752981311
-0.000476588181087
-0.000473615428019
-0.000466145883546
-0.000450702388441
-0.000422554182829
-0.000375313113875
-0.000297383588054
-0.000144931497759
-0.000174117317227
-0.000374884906732
-0.000476916165405
-0.00054023028363
-0.000579203295666
-0.000601620966212
-0.000613127539748
-0.000618327842871
-0.000620785643789
-0.000621886182125
-0.000622119689633
-0.000621367106457
-0.000619149351071
-0.000614105198535
-0.000602644813341
-0.000580187314963
-0.000541070796873
-0.000477529315578
-0.000375217980489
-0.000174552755011
-0.000192599721483
-0.000422017078657
-0.000540321363855
-0.000614019901493
-0.000659240945571
-0.000684903574992
-0.000697306435668
-0.000700967789177
-0.000703696581854
-0.000705040667615
-0.000705255654168
-0.000704231178688
-0.00070174154527
-0.000698393533273
-0.000686062209181
-0.000660311144362
-0.000614898079875
-0.000540944021243
-0.0004223574722
-0.000193087933703
-0.000203912980155
-0.000450052057937
-0.000579299198666
-0.000659255207472
-0.000707251054494
-0.000733675983349
-0.000745815407727
-0.000750570349654
-0.000752649064763
-0.000753605224457
-0.000753858544282
-0.000753304589961
-0.000751567568923
-0.000747098056533
-0.000735048288515
-0.000708468963285
-0.000660203183235
-0.000579965109573
-0.000450437056232
-0.000204444529486
-0.00021042891428
-0.000465400469174
-0.000601618015581
-0.000684824358073
-0.000733558646745
-0.000758153048281
-0.000768754306204
-0.000772486719115
-0.000773733045592
-0.000774305762395
-0.000774594170291
-0.000774494834732
-0.000773698105205
-0.000770311227875
-0.0007597877104
-0.000735037439915
-0.000685913797793
-0.000602393775891
-0.000465890887658
-0.000210999294384
-0.000213773093294
-0.000472747736328
-0.000612948374801
-0.00069704651855
-0.000745453366623
-0.000768459966715
-0.000777207486123
-0.000779470375039
-0.000779864347642
-0.000780116731098
-0.00078043808157
-0.000780737548244
-0.000780928071952
-0.000779135989615
-0.000770434214037
-0.000747168924142
-0.00069827985208
-0.000613876938237
-0.000473381134616
-0.000214388471142
-0.000215254586448
-0.000475618704405
-0.00061792526783
-0.000700595144872
-0.000749853022228
-0.000771721413111
-0.000778932487297
-0.000779950766844
-0.000779930986977
-0.000779902190553
-0.000780230745818
-0.000780927506551
-0.000781673137641
-0.00078126808455
-0.000774092623509
-0.000751814294776
-0.000701655081345
-0.000618993237549
-0.000476410812011
-0.000215911306325
-0.00021580102493
-0.000476523081425
-0.000620102322496
-0.000703068162474
-0.000751533338822
-0.000772482135072
-0.000778799153229
-0.000779390905143
-0.000778557676204
-0.000778179151634
-0.000778615425922
-0.000779677605518
-0.000781320301062
-0.00078147042843
-0.000775209057295
-0.00075377505493
-0.000704252775933
-0.000621330577281
-0.000477453062069
-0.000216494510893
-0.000215947230632
-0.000476710787566
-0.000620899537501
-0.000704127252589
-0.000752119670902
-0.000772642759646
-0.000778614192575
-0.000778929827643
-0.000777648347119
-0.000777302972613
-0.000777830884118
-0.000778960731797
-0.000780926635454
-0.000781457050638
-0.00077555481907
-0.000754525312638
-0.000705412681378
-0.000622234414077
-0.00047772907244
-0.000216668412095
-0.000215938669904
-0.000476669106807
-0.000620839450962
-0.000704061234325
-0.000752031213538
-0.000772539699635
-0.000778495881014
-0.000778788084522
-0.000777474014572
-0.000777112584917
-0.000777639396733
-0.00077878339819
-0.000780772801592
-0.000781318036488
-0.00077542877723
-0.00075441642054
-0.000705332060869
-0.000622161878653
-0.000477682513886
-0.000216662495812
-0.000215777150546
-0.000476404113378
-0.000619929939254
-0.000702874647596
-0.000751275667979
-0.000772180555626
-0.000778457084904
-0.000779002821075
-0.000778086141599
-0.000777665083491
-0.000778098748783
-0.000779189109839
-0.000780889621716
-0.000781075212943
-0.000774846231647
-0.000753457820634
-0.000704014379689
-0.000621115739873
-0.000477310939158
-0.000216470803211
-0.00021522285681
-0.000475437667045
-0.000617661491667
-0.000700286689495
-0.000749446432175
-0.00077123578477
-0.000778372629349
-0.00077930796704
-0.000779251316226
-0.00077912373528
-0.000779443419478
-0.000780178997772
-0.000780982387311
-0.000780638268496
-0.00077352107469
-0.000751315330906
-0.000701270756327
-0.000618656021127
-0.000476184468422
-0.000215873155093
-0.000213742510558
-0.000472520507896
-0.000612625539004
-0.000696632913786
-0.000744951466974
-0.000767849830093
-0.000776471020113
-0.000778618721993
-0.000778923199615
-0.000779112742354
-0.000779418149042
-0.000779753635881
-0.000780015378968
-0.000778312737998
-0.000769710117598
-0.000746540491134
-0.000697747699296
-0.00061345286659
-0.000473087164391
-0.000214344960526
-0.000210408847125
-0.000465170399594
-0.000601284749869
-0.000684386824248
-0.000733025899609
-0.000757500473976
-0.000767930730343
-0.000771514838351
-0.00077266124966
-0.000773173200791
-0.000773441778825
-0.000773374082478
-0.000772653798092
-0.00076937898739
-0.000758989410195
-0.000734342559766
-0.000685326048831
-0.000601937001484
-0.000465573499057
-0.000210961476321
-0.000203912734949
-0.000449860158211
-0.000578998876119
-0.000658830425004
-0.000706713325556
-0.000733008636102
-0.000744972890997
-0.000749577499383
-0.000751557126873
-0.000752452659211
-0.000752687564634
-0.000752162767593
-0.000750496467009
-0.000746133886828
-0.000734212813355
-0.000707725624482
-0.000659626299365
-0.000579535992835
-0.00045015005071
-0.000204424504033
-0.000192620704861
-0.000421883482562
-0.000540091555684
-0.000613653707357
-0.000658724455303
-0.000684239889272
-0.000696494846134
-0.000700127178065
-0.000702797978098
-0.000704105880137
-0.00070430836925
-0.000703296556797
-0.000700840692859
-0.0006974804599
-0.000685256553189
-0.000659648656895
-0.00061439395714
-0.000540591476326
-0.000422129206338
-0.000193088030209
-0.000174156159302
-0.000374820452024
-0.000476778831571
-0.000539964882226
-0.000578783467651
-0.000601047340472
-0.000612411559473
-0.000617509201037
-0.000619895334684
-0.000620952944746
-0.00062117412777
-0.000620440265011
-0.000618271060824
-0.000613303485618
-0.000601961735754
-0.000579648331273
-0.000540686842041
-0.000477282799954
-0.000375067634772
-0.000174570261399
-0.000144639963052
-0.00029707149843
-0.00037471501435
-0.00042167830462
-0.000449596995524
-0.000464943570678
-0.000472338771361
-0.000475332071602
-0.000476428356992
-0.000476840620892
-0.000477037762109
-0.000476908767301
-0.000476002424607
-0.000473087544691
-0.000465701888329
-0.000450361751964
-0.000422328739444
-0.000375184938039
-0.000297313963145
-0.000144962933862
-0.000102364841765
-0.000144711121509
-0.000174236729582
-0.00019267533084
-0.000203944747483
-0.000210438430276
-0.000213789896368
-0.000215319742199
-0.000215960481802
-0.000216239743548
-0.000216394420485
-0.000216327952274
-0.000215811581676
-0.000214330311322
-0.000210963984078
-0.000204421380875
-0.000193053501958
-0.000174498337766
-0.000144889572359
-0.000102553449845
-0.000107925375795
-0.000167795664026
-0.000209582581095
-0.000236152019727
-0.000252757784117
-0.000262589170392
-0.000267818964598
-0.000270158074825
-0.000270916091593
-0.000271038659503
-0.000271115786109
-0.000271133567882
-0.000270501707951
-0.000268242917515
-0.000263022732004
-0.000253142680324
-0.000236431502251
-0.000209736127551
-0.000167898264848
-0.000108174682898
-0.000167641662115
-0.00036029049962
-0.000459588830292
-0.000521491966509
-0.000560046971312
-0.000582631992135
-0.000594617694222
-0.000600213947321
-0.000602456663614
-0.000603217037213
-0.000603389818603
-0.000602902415508
-0.000600850884718
-0.000595358431171
-0.000583391832229
-0.000560743556627
-0.000522039825415
-0.000459904990828
-0.000360366536812
-0.000168048035056
-0.000209400450848
-0.000459714441254
-0.000587483381102
-0.000668769447116
-0.00072065851167
-0.000752178781924
-0.000769611050902
-0.000779098923061
-0.000783645891769
-0.00078551926193
-0.000785776626419
-0.000784320000996
-0.000780053772768
-0.00077066187309
-0.000753225695835
-0.000721604533564
-0.00066948983379
-0.000587909714157
-0.000459822603156
-0.000209934915265
-0.000235988466724
-0.000521669216189
-0.00066883181034
-0.000762845693995
-0.000822835509641
-0.00085893728246
-0.000877060130992
-0.000889524980875
-0.000895147690787
-0.000897493117945
-0.000897799364814
-0.000895968823887
-0.000890712928522
-0.000878330561135
-0.000860232800992
-0.000823980609822
-0.000763731735826
-0.000669398902745
-0.000521891784671
-0.000236620952329
-0.000252585390538
-0.000560157068949
-0.00072067888355
-0.000822814980003
-0.000886975480861
-0.000925309695278
-0.000945317081186
-0.0009567068845
-0.000962729079795
-0.000965021072476
-0.000965362192683
-0.000963695753033
-0.00095942666788
-0.000948687956438
-0.000927147597346
-0.000887806848111
-0.000823912263255
-0.000721463115475
-0.000560590875567
-0.000253327726103
-0.000262356899059
-0.00058255757896
-0.000752026033634
-0.00085877101209
-0.000925138347956
-0.000961744807402
-0.000980642276063
-0.000993454516325
-0.00100056341213
-0.0010025390538
-0.00100286596332
-0.00100156580534
-0.000999717505942
-0.000991825833691
-0.000968620356554
-0.000927211886602
-0.000860151797756
-0.000753128551875
-0.000583289591678
-0.000263222980062
-0.000267480550346
-0.00059428318402
-0.000769198239856
-0.000876663324889
-0.00094476167473
-0.000977092710053
-0.000995393624853
-0.00101015646997
-0.0010181091997
-0.00101964300067
-0.00101989629312
-0.00101902535909
-0.00101991520254
-0.00101669094054
-0.000994779125805
-0.000949022663515
-0.00087842272377
-0.000770660481613
-0.000595357497124
-0.000268478102358
-0.000269679629599
-0.000599569327822
-0.000778339480722
-0.000888609976205
-0.000953916108732
-0.000982759543767
-0.00100100015461
-0.00101620778185
-0.00102419462172
-0.00102525393176
-0.00102543945228
-0.00102500953541
-0.00102777584093
-0.00102777788487
-0.00100873852502
-0.000961565602031
-0.000891110430586
-0.000780210583553
-0.000600970359863
-0.000270780875222
-0.000270291826662
-0.000601484905729
-0.000782487198921
-0.000893727016787
-0.000958031479254
-0.000985748108806
-0.00100344998428
-0.00101820141496
-0.0010255990098
-0.00102645340712
-0.00102667845265
-0.00102662578562
-0.00103029391887
-0.00103167609829
-0.00101407579986
-0.000967354460173
-0.000896671611196
-0.000784673405489
-0.000603146459098
-0.000271453573536
-0.000270287654536
-0.000601937039337
-0.000783954056037
-0.000895599446581
-0.000959802962532
-0.000987250293532
-0.00100459615217
-0.00101883930846
-0.00102603194522
-0.0010269001347
-0.00102713336695
-0.00102712753606
-0.00103109797954
-0.00103288346187
-0.00101572058801
-0.000969354532231
-0.00089876498284
-0.000786321360277
-0.000603755484565
-0.000271480923805
-0.000270258647982
-0.000601848331063
-0.000783853042532
-0.000895493677551
-0.000959692338552
-0.000987141794886
-0.0010044918625
-0.0010187197956
-0.00102589444996
-0.00102675511966
-0.00102699325011
-0.00102699898949
-0.0010309843567
-0.00103276388627
-0.00101558543336
-0.000969214381161
-0.000898633061974
-0.000786201944584
-0.000603657616742
-0.000271457817485
-0.000270216145388
-0.000601237247198
-0.000782202261821
-0.00089341975246
-0.000957702706135
-0.000985415730353
-0.00100311902889
-0.00101781622784
-0.00102517186376
-0.00102601408516
-0.00102625017516
-0.00102620453862
-0.00102992058733
-0.00103129957109
-0.00101366627485
-0.000966939500129
-0.000896285837732
-0.000784326656956
-0.000602861994423
-0.000271384876469
-0.00026957103578
-0.000599191787321
-0.000777904328387
-0.000888128247407
-0.000953272372728
-0.000981790564785
-0.00099971217984
-0.00101470082283
-0.00102256301767
-0.00102358764567
-0.00102379061198
-0.00102339099532
-0.0010262197253
-0.00102636702669
-0.00100762805727
-0.000960784542678
-0.000890503749305
-0.000779669001341
-0.000600521758045
-0.00027067160704
-0.000267351115097
-0.000593816151508
-0.000768641462495
-0.000876063589375
-0.000943925496977
-0.000975520439224
-0.000992884660108
-0.00100707809563
-0.00101480872443
-0.00101629111136
-0.00101654070023
-0.00101570144523
-0.00101672886015
-0.00101398647818
-0.000993020537027
-0.000948010553032
-0.000877667468663
-0.000769962187944
-0.000594786621218
-0.000268338012873
-0.000262221017136
-0.000582052874025
-0.000751407390096
-0.000858068412663
-0.000924330350742
-0.000960419342437
-0.000978264389186
-0.000990234647657
-0.000997044215472
-0.000998950717376
-0.000999258308716
-0.000997989611047
-0.000996378154623
-0.000989272884562
-0.000967098381091
-0.000926167602315
-0.000859213858691
-0.000752337283485
-0.000582660514053
-0.000263069123389
-0.00025246042364
-0.000559660255212
-0.000720071658513
-0.00082208942415
-0.000886127574344
-0.000924307019474
-0.00094401770061
-0.000954997691016
-0.000960786363519
-0.000962998638272
-0.000963312867928
-0.000961676558029
-0.000957599115796
-0.000947229750727
-0.000925909816131
-0.000886330773353
-0.000822960753573
-0.000720685274027
-0.000559962940124
-0.000253180796867
-0.000235888321172
-0.000521236191094
-0.000668278877004
-0.000762156433122
-0.000821987846369
-0.00085789947533
-0.000875948790569
-0.000888209304618
-0.000893704937149
-0.000895972327863
-0.00089625361964
-0.000894454454808
-0.000889289092005
-0.000877079775858
-0.000858969489968
-0.000822913615336
-0.000762864081005
-0.000668689153082
-0.000521334391611
-0.00023649705481
-0.000209333377621
-0.00045937355099
-0.000587029281451
-0.000668171706022
-0.000719890461272
-0.000751245322573
-0.000768525540542
-0.000777871218114
-0.00078231130324
-0.000784115012264
-0.000784352581364
-0.000782928363212
-0.000778737749372
-0.000769455941285
-0.000752139086098
-0.000720682588582
-0.000668743207727
-0.000587319032389
-0.000459371270707
-0.000209844538862
-0.000167614774359
-0.000360067748083
-0.000459272960531
-0.000521058351923
-0.000559477982477
-0.000581919863722
-0.000593786868641
-0.000599280160551
-0.000601447749759
-0.000602163957822
-0.000602325605811
-0.000601859535236
-0.000599860612967
-0.000594446791893
-0.000582580093016
-0.00056006091842
-0.000521492772324
-0.000459483329739
-0.000360062026236
-0.000168007529561
-0.000107941267711
-0.000167773712198
-0.000209541974175
-0.000236085115548
-0.000252658635806
-0.000262449609245
-0.000267642260428
-0.000269949271094
-0.000270686146376
-0.000270798625207
-0.000270878331947
-0.000270909616148
-0.000270298000623
-0.000268064178021
-0.000262872346394
-0.000253025128069
-0.000236341751486
-0.000209671130372
-0.000167861895197
-0.000108194595293
-0.000109703143166
-0.000179248250723
-0.000228113839912
-0.000259889966004
-0.000280109168234
-0.000292229558485
-0.000298645983167
-0.000301298708477
-0.000301878615481
-0.000301740286678
-0.000301716537662
-0.000301854057277
-0.000301348498142
-0.000298803632565
-0.00029244331751
-0.00028030455537
-0.00025998226983
-0.00022804630095
-0.000179131504495
-0.000109984579165
-0.000178987332453
-0.000395104765707
-0.000508203554354
-0.000580557371992
-0.000626703225166
-0.000654683067177
-0.000670231054514
-0.000677717193688
-0.000680650104607
-0.000681481540992
-0.000681582469665
-0.000680941738348
-0.000678188749451
-0.000670839092456
-0.000655315373042
-0.000627236633267
-0.000580879478341
-0.000508255327334
-0.000394883723849
-0.00017945713855
-0.000227786749258
-0.000508287858696
-0.000653568079681
-0.000747979142067
-0.000809889263099
-0.000848780118654
-0.000871587601219
-0.000883954536445
-0.000889926056793
-0.000892322597074
-0.000892596250213
-0.000890681441111
-0.000885062796565
-0.000872877022748
-0.000850003567317
-0.000810982676301
-0.000748793813528
-0.000654006974127
-0.00050828551651
-0.000228458131203
-0.000259554588345
-0.000580588913471
-0.000747937901148
-0.000856667037604
-0.00092753435935
-0.000970620089113
-0.000994976880865
-0.0010116078783
-0.00102053639041
-0.00102365136969
-0.00102405342049
-0.00102168120756
-0.00101632103909
-0.00100333744493
-0.000974243767321
-0.000929184494678
-0.000857990839286
-0.000748852433573
-0.000580974101561
-0.000260410710004
-0.000279704984808
-0.000626538624957
-0.000809667127663
-0.000927396484024
-0.000998151493475
-0.00104090529795
-0.00106773136547
-0.00109069552984
-0.00110413449449
-0.00110730688788
-0.00110770359681
-0.00110536277867
-0.00110415113579
-0.00109605204203
-0.00106489619045
-0.00100812552468
-0.00092927217863
-0.000811177934999
-0.000627481355806
-0.000280788115615
-0.000291679133457
-0.000654156858984
-0.000848229104424
-0.000970165580711
-0.00103628629516
-0.00107382326763
-0.00110407937004
-0.00113543222909
-0.00115374874453
-0.00115639342506
-0.0011566376899
-0.00115460607821
-0.00115958901607
-0.00116128765723
-0.00113298311641
-0.00106894442671
-0.000974315838569
-0.000850415582836
-0.000655809317727
-0.000293019996297
-0.000297897461873
-0.000669256227237
-0.000870598910421
-0.000990764287012
-0.00105042826185
-0.00108511285185
-0.00111851065543
-0.0011565904553
-0.00117801099139
-0.00117984763765
-0.00117986108018
-0.00117830970485
-0.00118910083758
-0.00120170557461
-0.00117928884859
-0.00111173642167
-0.00100691509539
-0.000873659129884
-0.00067163410788
-0.000299488818519
-0.00030035856561
-0.000676310349636
-0.000882537575422
-0.000999822581588
-0.00105608065366
-0.0010885085879
-0.00112376335321
-0.00116420498746
-0.00118629674049
-0.00118733076168
-0.00118713342029
-0.0011861438755
-0.00120054539388
-0.00121994340221
-0.00120371561482
-0.00113549935207
-0.0010264320601
-0.000886233101099
-0.000679262542669
-0.000302109289947
-0.000300813550775
-0.000678872636977
-0.000888050606995
-0.00100486057607
-0.0010601015228
-0.00109180593384
-0.00112684286407
-0.00116677086461
-0.0011882037193
-0.00118883770486
-0.00118856514883
-0.00118802047957
-0.00120391705004
-0.00122581586803
-0.00121227166315
-0.00114508323134
-0.00103513417568
-0.000892208089217
-0.000682206927118
-0.000302617101348
-0.000300616661059
-0.000679395125476
-0.000889964079565
-0.0010073601892
-0.00106271597571
-0.00109426833528
-0.00112887701732
-0.00116812761208
-0.0011892068936
-0.00118967587726
-0.00118932377567
-0.00118884183805
-0.00120517176369
-0.00122763053025
-0.00121472043066
-0.00114794542668
-0.00103796138238
-0.000894392718877
-0.000682949235364
-0.000302436275344
-0.000300561610705
-0.000679249726889
-0.000889810558741
-0.00100721899329
-0.00106260198895
-0.00109419337031
-0.00112883409043
-0.00116808113303
-0.00118917087153
-0.00118964277105
-0.00118929917782
-0.0011888225315
-0.00120515763979
-0.00122758103057
-0.00121461463299
-0.00114778660429
-0.00103777490065
-0.000894209403012
-0.000682791754946
-0.000302391538429
-0.000300663178474
-0.000678467283145
-0.000887618137896
-0.00100444657905
-0.00105975393451
-0.0010915543119
-0.00112666187118
-0.00116654083906
-0.00118801703471
-0.00118866995159
-0.00118841076252
-0.00118783722936
-0.00120378062323
-0.00122561259795
-0.00121192627578
-0.00114460205045
-0.00103458556734
-0.000891679346765
-0.000681757147152
-0.000302487655284
-0.000300132016215
-0.000675692889052
-0.000881877169531
-0.000998895868993
-0.00105452391547
-0.00108621491289
-0.00112078819241
-0.00116067162805
-0.00118249301399
-0.00118349870805
-0.00118335399638
-0.00118237894565
-0.00119674393945
-0.0012162950981
-0.00120077469679
-0.00113355971054
-0.00102527457593
-0.000885408178097
-0.000678555883238
-0.0003018998195
-0.000297611837031
-0.000668473286496
-0.000869756707953
-0.000989309395493
-0.00104738193291
-0.00107984339779
-0.00111106495614
-0.0011475683341
-0.00116832765375
-0.00117011624584
-0.00117013096257
-0.00116859792653
-0.00117940603336
-0.00119281302165
-0.00117282792815
-0.00110811708968
-0.0010051522577
-0.000872605806916
-0.000670724542768
-0.00029920987053
-0.000291354840272
-0.000653267487146
-0.000847277987112
-0.000968806192368
-0.00103334017838
-0.00106797273229
-0.0010952467639
-0.00112439607442
-0.00114187448808
-0.00114443070797
-0.00114464460557
-0.00114263322784
-0.00114790626339
-0.00115127284545
-0.00112624052697
-0.00106558858015
-0.000972555672098
-0.000849213837524
-0.000654778005268
-0.000292695419595
-0.000279372643918
-0.000625618827027
-0.000808688331219
-0.000926341088353
-0.000996372177212
-0.00103695499177
-0.00106126486191
-0.00108244315983
-0.0010951848666
-0.00109823760585
-0.00109858637918
-0.00109627808014
-0.00109551012443
-0.00108901631355
-0.00106052502661
-0.00100641835718
-0.000927970798879
-0.000809999722517
-0.000626427276326
-0.000280451217948
-0.000259241493231
-0.00057972168924
-0.000746998080594
-0.000855630281931
-0.000926319013696
-0.000968017368144
-0.000992245800818
-0.00100785917009
-0.00101633998787
-0.0010193338572
-0.00101968934267
-0.00101734849479
-0.00101235567548
-0.00100030997991
-0.000971815499137
-0.000927727318961
-0.000856744909475
-0.000747752188311
-0.00057998666865
-0.00026008762385
-0.000227511468748
-0.000507538860203
-0.000652722945101
-0.000747011962114
-0.000808751613037
-0.000847415748555
-0.000870055297584
-0.000882249143449
-0.000888073950222
-0.000890370049341
-0.000890610052031
-0.000888733908695
-0.000883215345358
-0.000871163036993