/*--------------------------------*- C++ -*----------------------------------*\
| =========                 |                                                 |
| \\      /  F ield         | OpenFOAM: The Open Source CFD Toolbox           |
|  \\    /   O peration     | Version:  3.0.1                                 |
|   \\  /    A nd           | Web:      www.OpenFOAM.org                      |
|    \\/     M anipulation  |                                                 |
\*---------------------------------------------------------------------------*/
FoamFile
{
    version     2.0;
    format      ascii;
    class       volScalarField;
    location    "6.6";
    object      epsilon;
}
// * * * * * * * * * * * * * * * * * * * * * * * * * * * * * * * * * * * * * //

dimensions      [0 2 -3 0 0 0 0];

internalField   nonuniform List<scalar> 
7968
(
0.000105516016029
0.000135214082278
0.000160173188006
0.000176417998272
0.000185606613913
0.00018947735156
0.000189928674407
0.000188212973568
0.000185796507405
0.000183746705887
0.000183507443784
0.00018536478082
0.000187710414531
0.000189414380338
0.000189004002275
0.00018520274498
0.000176122842424
0.000159993140803
0.000135123725135
0.000105487453144
0.000135253531433
0.000258169847256
0.000349907798371
0.000404717029822
0.00043113708107
0.00043796194918
0.000434041328992
0.000425308818239
0.000416984070536
0.000411968823346
0.000411573026153
0.000415978365902
0.000423897887472
0.000432441327344
0.000436349679663
0.000429602708057
0.000403409138695
0.000348957111128
0.000257642708336
0.000135076605337
0.000160278032951
0.000349924825491
0.00049019827238
0.00057368664603
0.000613761546222
0.000624077934596
0.00061783325247
0.000605299604632
0.000593901017313
0.000587260236929
0.000586679735752
0.000592399263629
0.000603201716834
0.000615465816144
0.000621659296397
0.000611427211976
0.000571625988711
0.000488644576458
0.000349033131568
0.000159944016378
0.000176548124992
0.000404766527794
0.000573722274208
0.000672867079581
0.000718295384738
0.000727404640836
0.000717203535083
0.000701113383177
0.000687770782386
0.000680316191256
0.000679541254587
0.000685792016229
0.000698430982251
0.000714241364667
0.00072443038465
0.000715384453976
0.000670216021074
0.000571644878468
0.0004035089207
0.000176039821391
0.00018575542405
0.000431202249967
0.000613840482048
0.000718326592054
0.000761651120725
0.000767428171353
0.000769691616971
0.000762908428829
0.000753763858053
0.000747494711406
0.000746709561428
0.000751819293656
0.00076039155797
0.000767094589602
0.000764857735211
0.000758500327138
0.00071530875721
0.000611353580996
0.000429605768973
0.000185073592083
0.000189642225451
0.000438063955844
0.000624176032156
0.000727366266496
0.000767294715893
0.00079369871289
0.000801137777056
0.000795616637992
0.000786044344113
0.000779023832695
0.000778063785571
0.000783714139291
0.000792703779094
0.000798322967771
0.000791225791348
0.000764948973516
0.000724338334062
0.000621509485709
0.000436277126907
0.000188836032431
0.000190094514512
0.000434167230515
0.00061792177747
0.000717033930873
0.000769453232005
0.000801022547222
0.000808630113896
0.00080100303544
0.00078877408542
0.000779859939574
0.000778658507482
0.000785904678267
0.000797493401513
0.000805379228427
0.000798395510993
0.000767235655888
0.000714191520334
0.00061525516852
0.000432303217805
0.000189232734552
0.000188375946507
0.000425505076973
0.000605475794045
0.000700990916707
0.000762706137239
0.000795583814851
0.000801127361008
0.00078963001995
0.000773303851712
0.000761725873776
0.000760264342776
0.000769860615561
0.000785427493217
0.000797309254059
0.000792634067316
0.000760437891551
0.000698295765708
0.00060284038218
0.000423633292662
0.000187510871602
0.000185965944318
0.000417331454043
0.000594344152486
0.000688035442723
0.000753907587618
0.000786460811341
0.000789469893075
0.000773956715737
0.000753384382385
0.000738282371946
0.00073652299891
0.000749328075833
0.00076912515038
0.000785067941098
0.000783106623933
0.000751424014258
0.000685198245374
0.000591664520808
0.000415459360465
0.000185115628544
0.000183958445363
0.000412532203727
0.000588098618273
0.000681197653196
0.000748237566265
0.000780203074494
0.000781524182471
0.000763525897848
0.000739558709575
0.000721323992075
0.000719304859448
0.00073503863027
0.000758213575663
0.000776705989767
0.000776537786915
0.000745542048987
0.000678156772439
0.000585333718665
0.000410631939744
0.00018310052841
0.000183860196009
0.000412392367963
0.000587944565883
0.000681056619429
0.000748097598663
0.000780073277614
0.000781399741346
0.000763393602933
0.000739396175447
0.000721119929506
0.000719092606758
0.000734862938115
0.000758068794897
0.000776569004961
0.000776394165914
0.000745382065415
0.000677977174185
0.000585130412732
0.000410444627907
0.000182971773154
0.000185765361388
0.000416952468009
0.000593906977815
0.000687623635268
0.000753510535657
0.000786094126517
0.000789122003213
0.000773599897
0.000752982356891
0.000737817195578
0.000736043591179
0.00074890087762
0.000768743776639
0.000784693761629
0.000782708898045
0.000750979914638
0.0006846948558
0.000591112923621
0.000414973182663
0.000184856616641
0.000188122285057
0.000424923279013
0.00060476383238
0.000700274516224
0.000762042656235
0.000794963006771
0.000800529137742
0.000789019643006
0.000772666916728
0.000761041187481
0.000759566017827
0.000769197499209
0.000784787525494
0.000796678302716
0.000791973376715
0.000759713710457
0.000697464194228
0.000601986793162
0.000422918729377
0.000187188920108
0.000189826052188
0.000433452147432
0.000616990376336
0.000716023073557
0.000768542182054
0.000800160128873
0.000807790207883
0.000800154426145
0.000787898154863
0.000778953489662
0.000777738494931
0.000784998493594
0.0007966067269
0.000804496959371
0.0007974842911
0.000766253545624
0.000713053884259
0.000614172479333
0.000431445250628
0.000188895231266
0.00018939739659
0.000437306726571
0.000623129086312
0.00072616217041
0.000766164450761
0.000792631366591
0.000800101687542
0.000794577204824
0.000784985692834
0.000777944130809
0.000776968835241
0.000782617567875
0.000791611722252
0.000797227697742
0.00079009539283
0.000763729842942
0.000722992048498
0.000620297548441
0.000435371515543
0.000188526844122
0.000185559229118
0.000430480252497
0.000612809475319
0.000717092870004
0.000760245125919
0.000766196821537
0.000768484260073
0.000761697770454
0.000752529535382
0.000746234823817
0.00074542859254
0.000750530984052
0.000759100404364
0.000765793180646
0.000763528608409
0.000756945067696
0.00071389752351
0.00061013696267
0.000428731609646
0.000184819552518
0.000176421051749
0.000404191418561
0.000572858231532
0.000671790028841
0.000717021747279
0.000725952656238
0.000715614256475
0.000699490282019
0.000686108175639
0.000678603759113
0.000677791074525
0.000684036715794
0.000696658270892
0.000712471347453
0.000722788423677
0.00071390295352
0.000668923049587
0.000570578876018
0.000402779911244
0.000175865684354
0.000160214295637
0.000349553522073
0.000489611703707
0.000572909958865
0.000612798025202
0.00062294921376
0.000616577122553
0.000603956575579
0.000592483663363
0.0005857824828
0.000585160561451
0.000590869336542
0.000601687542865
0.000614009834737
0.000620317313248
0.00061023772637
0.000570633005373
0.0004878683849
0.000348524163887
0.00015984777942
0.000135243087227
0.000258018224625
0.000349647445408
0.000404328831847
0.000430589548758
0.000437276478316
0.000433251600143
0.000424435418112
0.000416033091739
0.000410953508327
0.000410518933043
0.000414927364955
0.000422878045166
0.000431485588625
0.000435491300581
0.00042887884919
0.000402860919299
0.000348558013354
0.000257399693036
0.000135048865002
0.000105520158602
0.000135204575099
0.000160139363467
0.000176344086004
0.00018547254949
0.00018927692633
0.000189673829765
0.000187909352151
0.00018544769607
0.000183357178319
0.000183089982964
0.000184957922585
0.000187330765527
0.000189078334703
0.000188724912779
0.000184995804141
0.000175989397309
0.000159913043182
0.000135083217651
0.000105480813643
0.000130833214802
0.000225348649028
0.000304668983699
0.000358808458943
0.000391220840161
0.000407103898376
0.000411983419297
0.000410590295498
0.000407146953358
0.000404502241196
0.000404189155342
0.000406356377751
0.000409507810803
0.000410785523646
0.000405932354905
0.000390173976261
0.000357985246598
0.000304121181212
0.000225068001411
0.000130750825989
0.000225494179884
0.000283056128648
0.000349938386548
0.000398629191332
0.000429205858826
0.000445410777159
0.00045179156826
0.000452372035962
0.000450692491467
0.000449147966933
0.000448951453111
0.000450184556885
0.000451662570234
0.000450990857329
0.000444602404799
0.00042842507664
0.000397906317509
0.000349270888145
0.000282408232176
0.000224858063223
0.000304913201347
0.000350098716302
0.000419558759163
0.000471841129553
0.000505047651123
0.000522620376675
0.000529380260676
0.000529901192552
0.000528000988767
0.000526260564021
0.000526040778937
0.000527431857435
0.00052911431401
0.000528496577844
0.000521714287221
0.000504132399333
0.000470911510218
0.000418597443504
0.000349065908703
0.000303845934354
0.000359100961165
0.000398902296705
0.000471956699288
0.000528001468272
0.000564066235189
0.000583643483077
0.000591813748937
0.000593533985716
0.000592457167282
0.00059104335374
0.000590805768393
0.000591845153774
0.000592693778581
0.000590843949057
0.000582657802103
0.000563049022671
0.000526915523876
0.000470762722294
0.000397555150828
0.000357682685665
0.000391542595029
0.000429548256744
0.000505226902728
0.000564116712119
0.000602981628925
0.000626492392788
0.00064016022444
0.000645443419474
0.000645926219075
0.000644989723554
0.000644731913857
0.000645272268773
0.000644569917408
0.000639237509139
0.000625600412395
0.000601965090111
0.000562972079674
0.000503891024651
0.000427971459198
0.000389836299002
0.000407437258921
0.000445780994834
0.000522810347362
0.000583674145475
0.000626464003788
0.00065703394537
0.000674992167221
0.000682555168147
0.000683840405581
0.0006830143328
0.00068271730272
0.000683093685539
0.000681550543844
0.000673945034278
0.000656107046282
0.000625609597307
0.000582572538923
0.000521430612109
0.000444080182906
0.000405550896243
0.000412312044967
0.000452161200261
0.000529551556081
0.000591797938517
0.000640101402851
0.000674976586607
0.000695451675719
0.000703888375779
0.000705017996868
0.000703830713621
0.000703487309502
0.000704160797181
0.000702705743923
0.000694198471116
0.000673912631135
0.000639241678423
0.000590770478767
0.000528191286604
0.000450424200758
0.000410360378478
0.000410936242938
0.00045275189384
0.000530079957957
0.000593513800772
0.000645410345015
0.000682613138878
0.000704000913937
0.000712012423642
0.000712111280565
0.000710294938308
0.000709914138158
0.000711169285586
0.000710644134653
0.000702523305032
0.000681372283385
0.000644487323556
0.000592581671523
0.000528748176403
0.000451027312128
0.00040899275207
0.000407562888737
0.000451118907082
0.000528248884808
0.000592523216606
0.000646008681468
0.000684074379965
0.000705361024474
0.000712368132727
0.000711486708339
0.000708507828376
0.000708048122704
0.000710390322625
0.000710856313694
0.000703683035173
0.00068266779405
0.000644995306594
0.000591571650536
0.000526912141236
0.000449409776693
0.000405645402194
0.000405047530973
0.00044965687982
0.00052662909265
0.000591258617566
0.000645251901888
0.000683481213091
0.000704456286448
0.00071086318426
0.000708855025388
0.000704772099479
0.000704240006091
0.000707614696781
0.000709202165586
0.000702638424916
0.000681964855249
0.000644168349146
0.000590268565106
0.000525267507202
0.000447940860378
0.000403127128125
0.000404913455202
0.000449565814744
0.000526545749164
0.000591181079414
0.00064517649696
0.000683405311612
0.000704374943481
0.000710770512354
0.000708742325564
0.000704639599267
0.000704105300506
0.000707496190098
0.000709101199465
0.0007025476926
0.000681880711167
0.000644085046987
0.000590180563628
0.000525166628399
0.000447823790524
0.000402954753966
0.000407201076948
0.00045086579104
0.000528014289258
0.000592304754447
0.000645799711534
0.000683868704122
0.000705145899693
0.000712130975741
0.000711216132333
0.000708201963396
0.000707737006737
0.000710104466087
0.000710598984617
0.000703445050531
0.000682441988035
0.000644767285067
0.000591327905865
0.000526636018334
0.000449096594538
0.000405198958383
0.000410402376396
0.000452367097458
0.000529713676
0.000593168739529
0.000645090631433
0.000682310657213
0.000703699521861
0.000711691134044
0.000711769214598
0.00070992571825
0.000709537216389
0.00071080919052
0.000710292971162
0.00070219078345
0.000681042806618
0.000644141786451
0.000592203024404
0.000528329207406
0.0004505674316
0.000408357516599
0.000411684517946
0.000451693407335
0.000529086681113
0.000591342971973
0.000639695763563
0.000674610683464
0.000695108665167
0.000703544674719
0.000704658032806
0.000703450310962
0.000703097634803
0.000703777349139
0.000702330878185
0.000693822769774
0.000673515300371
0.000638804621637
0.000590274690082
0.000527668480079
0.000449876282835
0.000409629397392
0.000406798988083
0.000445285923675
0.00052228972322
0.000583140690876
0.000625982635665
0.000656610235102
0.000674611657497
0.000682195259113
0.000683480805474
0.000682645336308
0.000682339955305
0.000682713698066
0.00068116367019
0.000673531964015
0.000655647827481
0.000625090895626
0.000581991372846
0.000520846142817
0.000443501932327
0.000404810737915
0.000390967879754
0.000429073582339
0.000504695955711
0.000563544223384
0.000602402387596
0.000625988278163
0.000639700798736
0.00064501715294
0.00064550953557
0.000644568859049
0.000644302129927
0.000644833630015
0.000644113669492
0.000638740266582
0.00062505456651
0.000601336258227
0.000562339067319
0.00050328600872
0.000427408259914
0.000389161052519
0.000358657119914
0.000398495613308
0.000471460272891
0.000527436077497
0.000563458211498
0.000583019009585
0.000591194112135
0.000592961259061
0.000591892358686
0.000590472425348
0.000590223612573
0.000591251106093
0.000592077422924
0.000590167051895
0.000581969775572
0.000562370750332
0.000526272279653
0.000470180762605
0.000397056383332
0.000357145526648
0.000304628385419
0.000349778847067
0.000419123441342
0.000471311598308
0.000504447583492
0.000521969505113
0.000528695056684
0.000529194157724
0.000527268009597
0.00052550252502
0.00052526604796
0.000526653872038
0.000528340199814
0.000527731647722
0.000520977286065
0.000503441618157
0.00047028919384
0.000418069482353
0.00034865721107
0.000303484094262
0.000225371151391
0.000282822334365
0.000349570964094
0.000398145918691
0.000428621985891
0.000444743397144
0.000451058795035
0.000451586265082
0.000449856023785
0.000448269817772
0.000448050572661
0.000449287670417
0.000450787564605
0.000450155960503
0.000443828446859
0.000427733765551
0.000397320256112
0.00034880993175
0.000282095757231
0.000224685253958
0.000130826160951
0.000225167048093
0.000304348998298
0.000358375118303
0.000390674842317
0.000406451494755
0.000411242119663
0.00040976955234
0.000406247747623
0.000403537733555
0.000403191161696
0.000405371064504
0.000408564826146
0.000409911424308
0.000405148989032
0.000389503567795
0.000357442038645
0.000303710394079
0.00022482305124
0.0001307281833
0.000153152553096
0.000296147880919
0.000418237289879
0.000503431185754
0.000556291783067
0.000584438025329
0.000596008914637
0.00059820726147
0.00059689983594
0.000595472950628
0.000595108117213
0.000595897856345
0.000596730754445
0.000594266126036
0.000582639018931
0.00055461110468
0.000502035582482
0.000417246392754
0.000295602555645
0.000153023253758
0.000296424403284
0.000347223849291
0.000422770940543
0.000481969798125
0.000522351411126
0.000546674758162
0.000559189712924
0.000564147374711
0.000565293670062
0.000565183707469
0.00056499608619
0.000564779948624
0.000563397446967
0.00055830454956
0.000545743940411
0.000521425353258
0.000481063595074
0.000421852152543
0.000346201215849
0.00029519877053
0.00041868302142
0.000423046141561
0.00048359209102
0.000535319791043
0.000571987592296
0.000594741886823
0.000606901628916
0.000611988628456
0.000613212863176
0.000613067387992
0.00061288201517
0.000612711757497
0.000611272652128
0.000606071972122
0.000593843996266
0.000571019557409
0.000534233278682
0.000482309259837
0.000421447987882
0.000416661115701
0.000503980338688
0.000482437038358
0.000535523484896
0.000584066320408
0.000619758350825
0.000642909348227
0.000656430268182
0.000662890609549
0.000664819791547
0.000664910806637
0.000664712977787
0.00066428741308
0.000662138918796
0.000655605312817
0.000641975426524
0.000618714619126
0.00058281219893
0.000533939376599
0.000480383961556
0.000501361985398
0.000556932328151
0.000522946055874
0.000572324413507
0.000619880850642
0.00065656656686
0.000682507785559
0.000698225627427
0.000705989181033
0.000708593256027
0.000708903098103
0.000708681950752
0.000707980488647
0.000705050489221
0.000697167375489
0.00068149615521
0.000655486159873
0.000618535021536
0.000570534839368
0.000520559639575
0.000553828799762
0.000585153288595
0.000547339611297
0.000595145705193
0.000643075900411
0.000682553868233
0.000711138916269
0.000729100433936
0.000738077980406
0.000741120102491
0.000741503842157
0.000741258129162
0.000740393199987
0.000736788833061
0.000727486581931
0.000709747808662
0.000681402324773
0.000641706740562
0.000593244365702
0.000544748323984
0.000581722060345
0.000596776884522
0.000559883028
0.00060732935111
0.000656607138217
0.00069833146271
0.000729290497115
0.000748925718808
0.000758564783012
0.000761598747681
0.000761822286756
0.000761577227744
0.00076078981069
0.000756878274817
0.000746576133813
0.000727236570404
0.000696957448882
0.000655280434655
0.000605391204548
0.000557207453443
0.000593196079946
0.000599046073814
0.000564864813208
0.000612449053877
0.000663136066805
0.00070629018287
0.00073873785872
0.00075919851413
0.000768777642532
0.000771247391943
0.000770982239427
0.000770753178393
0.000770424225083
0.000766839890822
0.000756264984934
0.00073604857732
0.000704582138209
0.000661674471199
0.000610484923504
0.000562190409843
0.000595463849216
0.000597846102768
0.000566055527735
0.000613745010219
0.000665187527375
0.00070915505062
0.000742249018411
0.000762846034214
0.000771904429423
0.000773402350647
0.000772412636935
0.000772189834724
0.000772537497459
0.000769809081937
0.000759607793825
0.000739204177796
0.000707209979938
0.000663627875698
0.000611756536584
0.000563410931632
0.000594337184864
0.000596566565694
0.000566014760547
0.000613704792262
0.00066543054087
0.000709686557792
0.000742938500351
0.000763418970076
0.000771998674054
0.000772765314978
0.000771197440765
0.00077097737719
0.000771867511161
0.000769804738833
0.000760053400117
0.00073975617004
0.000707636550937
0.00066381000272
0.000611687894472
0.000563375305642
0.000593096228365
0.000596401889963
0.000565919108778
0.000613630567797
0.000665372049851
0.000709639047473
0.000742896684959
0.000763375306999
0.00077194198824
0.000772688640064
0.000771104610742
0.000770884838142
0.000771787957413
0.000769739421688
0.000759999628566
0.000739706710433
0.00070758192341
0.000663741895888
0.000611595676959
0.000563247680392
0.000592878372046
0.000597362196067
0.000565776078718
0.000613529564699
0.000665019477586
0.000709021877383
0.000742139953305
0.000762741350244
0.000771779141343
0.000773241834041
0.000772222344787
0.000771998017321
0.000772362494904
0.000769656655237
0.000759477114643
0.000739074998661
0.000707059465314
0.000663437106618
0.000611499322515
0.000563059167028
0.000593739187289
0.000598286896429
0.000564431876775
0.00061211155369
0.000662873278131
0.000706091790537
0.000738603697767
0.000759113107646
0.000768698729493
0.000771147475079
0.000770856419097
0.00077062026844
0.000770297229812
0.000766721296937
0.000756139619583
0.000735885299339
0.000704359969866
0.000661382604067
0.000610095996757
0.000561668600106
0.000594572480479
0.000595843379121
0.000559353144902
0.000606902065061
0.000656266802376
0.000698071598443
0.000729133314714
0.000748871682076
0.000758568664167
0.000761611881827
0.000761823655694
0.000761568614078
0.000760773164834
0.000756840699219
0.000746481429323
0.000727047320108
0.000696668609159
0.000654907238714
0.000604908808009
0.000556583466252
0.000592130335235
0.000584169294181
0.000546776785486
0.00059466009401
0.000642647112472
0.000682207938133
0.000710896388321
0.000728970945251
0.000738029607202
0.000741102004495
0.000741486031588
0.000741232910333
0.000740355502197
0.000736713210766
0.000727324572631
0.000709468914755
0.000681023759861
0.000641241582867
0.00059269881004
0.000544086424602
0.000580605004654
0.000556014323744
0.000522404394743
0.000571811197073
0.000619384678343
0.000656113011233
0.000682127826901
0.000697922969043
0.000705740133499
0.000708369014179
0.00070868030434
0.000708450893096
0.000707736181483
0.000704773690892
0.000696827842873
0.000681077218118
0.000655001952138
0.000617991498448
0.000569951508743
0.000519912617822
0.000552774111643
0.000503229388065
0.000481954695413
0.000535004068957
0.000583512455122
0.000619197536137
0.000642366865285
0.000655954334077
0.000662413531754
0.000664341475574
0.000664424636058
0.000664215796347
0.000663780529502
0.00066162080007
0.000655080553146
0.000641379206196
0.000618095412474
0.000582190604509
0.000533335399993
0.000479791839762
0.000500476242016
0.000418157098793
0.000422629653305
0.000483069014242
0.000534706549849
0.000571314301403
0.000594031733635
0.000606171184965
0.000611231235274
0.000612425246934
0.00061225290657
0.00061205017418
0.000611877042506
0.000610444789425
0.000605259127961
0.000593045876261
0.000570255381027
0.000533526319835
0.000481687537179
0.000420923798495
0.000416016489237
0.000296156923116
0.00034685332624
0.000422224013731
0.000481275065782
0.000521535388706
0.000545760828644
0.000558198185015
0.000563091432249
0.000564175283655
0.000564016618562
0.000563802085593
0.000563589132141
0.000562231758431
0.000557187232926
0.000544699221532
0.000520479896188
0.000480246125917
0.000421193011985
0.000345730543178
0.000294846735814
0.00015314431216
0.000295756385851
0.000417584115654
0.000502594159774
0.000555289845267
0.000583286915645
0.000594732094533
0.000596822428794
0.000595410528915
0.000593903093991
0.000593494192691
0.000594291467665
0.000595173488004
0.000592803028684
0.0005813061242
0.00055343706445
0.000501043698609
0.000416463672706
0.000295121382333
0.000152995695188
0.000172202218131
0.000360903775338
0.000521399380619
0.000634114980213
0.000706209753394
0.000747569717247
0.000768336261215
0.000777221249696
0.000780826029271
0.000782217739071
0.000781896850906
0.000779871123933
0.00077571226402
0.000766412824811
0.000745457201605
0.000704156726324
0.000632377173134
0.000520178070952
0.000360246409767
0.000172056688203
0.000361380632544
0.000407681975132
0.00049462437511
0.000565153823449
0.000615294018542
0.000647500652828
0.000666077702358
0.000675434176802
0.000679542553656
0.000680989382449
0.000680823719902
0.000679062757908
0.000674703473862
0.000665181577509
0.000646546656184
0.000614347536287
0.0005642180828
0.000493623681455
0.000406420434781
0.000359516893237
0.000522164491774
0.000495029535488
0.00055478826247
0.000609759258746
0.000650705181079
0.000677777092889
0.000693847339845
0.000701977081363
0.00070530957125
0.000706256566122
0.00070606984317
0.000704792579625
0.00070122885929
0.00069297487128
0.000676846764749
0.000649693770446
0.000608579080666
0.000553305422476
0.000493002894896
0.000519078202059
0.000635082606995
0.00056582761742
0.000610047408857
0.000656296335525
0.000692575330642
0.000717707067455
0.000733820062389
0.000741896622228
0.000745014497406
0.000745734843356
0.000745483166185
0.000744309128795
0.000740787026824
0.000732522659348
0.000716558272043
0.000691415203314
0.000654865549374
0.000608156045988
0.00056319942404
0.000631041277622
0.000707403417651
0.000616147453178
0.000651193890305
0.000692765239744
0.000727933431295
0.000753514097733
0.000769513231348
0.000777515133185
0.000780404851489
0.000780921357884
0.000780593133248
0.000779403383681
0.000775676001057
0.00076709242557
0.000751340779863
0.000726389754355
0.000691145285205
0.000648987832766
0.000613059190293
0.000702520002732
0.00074898420916
0.000648463915904
0.000678387185136
0.000718000143539
0.000753776879412
0.000780141467511
0.00079648815832
0.000804333073425
0.000806870457988
0.000807127841845
0.000806745838957
0.000805560171707
0.000801572042136
0.000792410716016
0.000776157231176
0.000751049671377
0.000716132968499
0.000675951599614
0.000645054145057
0.000743474031048
0.000769914863983
0.000667092298175
0.000694519928671
0.000734326022559
0.00077044211146
0.00079745138416
0.000813963263723
0.000821486909976
0.000823531860157
0.0008235032798
0.000823136525806
0.000822061436725
0.000817905430068
0.000808268845607
0.000791521886286
0.000766176358099
0.000731840235011
0.00069193107955
0.000663520269788
0.000764090197824
0.00077890724695
0.000676472179303
0.000702702180258
0.000742796788226
0.000779368026484
0.000806737996261
0.000823176336984
0.0008301384311
0.000831534061835
0.000831155659753
0.000830861973269
0.000830156877571
0.000826224515214
0.000816440664386
0.000799422082744
0.000773912954482
0.000739695023066
0.000700035162146
0.000672897709745
0.000773111934717
0.000782554647813
0.00068059785236
0.000706122017352
0.000746268591815
0.000782990865126
0.000810381021053
0.000826514586452
0.000832849498091
0.000833485548589
0.000832669581256
0.000832447814163
0.000832218554175
0.000828911276079
0.000819435368982
0.000802475516401
0.000776978151259
0.00074283830553
0.000703406042735
0.000677100214614
0.000777004566179
0.000783992511395
0.000682076667209
0.000707188075783
0.000747246818137
0.000783938025624
0.000811219823722
0.000827084266948
0.000833007190844
0.000833132206817
0.000831999375667
0.000831829909455
0.000831937415655
0.000829058363559
0.00081993019563
0.000803156809735
0.000777757275888
0.000743698433664
0.000704431930261
0.000678621597572
0.000778615451822
0.000783823345697
0.000681985384956
0.000707126059259
0.000747209783471
0.000783923257907
0.000811219527529
0.000827086612863
0.000832993637997
0.000833092832891
0.000831941898719
0.000831775098032
0.000831898136881
0.000829035766583
0.000819921189176
0.000803149429262
0.000777736780963
0.000743652884577
0.000704349312583
0.000678488753438
0.000778368755706
0.000782018141854
0.000680316189792
0.000705933767572
0.000746158974159
0.000782955516509
0.000810404791947
0.000826561021085
0.000832877318587
0.000833466150015
0.000832615103658
0.000832395058217
0.000832184675065
0.000828902901747
0.00081945094055
0.000802476739694
0.000776928319576
0.000742709706992
0.000703171888758
0.000676726844458
0.000776306420321
0.000778032313422
0.000676030263833
0.000702402589234
0.000742631852253
0.000779350801443
0.000806868148353
0.000823412360608
0.000830393774061
0.00083175731088
0.000831347746025
0.00083104561641
0.00083034681149
0.000826425752726
0.000816615853774
0.000799510164349
0.00077387340218
0.000739505125769
0.000699680471751
0.000672342145908
0.000772051387237
0.000768820383943
0.000666557083528
0.000694140473582
0.000734106733166
0.000770434074262
0.000797684731529
0.000814409438172
0.000822041344019
0.000824100571418
0.000824053793827
0.0008236734248
0.000822584256871
0.000818390478493
0.000808643049461
0.00079170792226
0.00076613530997
0.000731588419683
0.000691491415636
0.000662862412598
0.000762810079051
0.000747833389918
0.0006479121042
0.000677958237021
0.000717682176135
0.000753670759553
0.000780311773838
0.000796917189015
0.000804922313659
0.000807510499178
0.0008077678226
0.000807377675946
0.000806173276303
0.000802116253836
0.00079278719245
0.000776275396582
0.000750904356125
0.000715789247549
0.000675455197237
0.000644370344507
0.000742132759864
0.000706343778478
0.000615633414302
0.00065073585727
0.000692352846024
0.000727655150449
0.000753407160361
0.000769623787992
0.000777776464175
0.000780721797887
0.000781244330272
0.000780907373434
0.000779698388948
0.000775900881751
0.000767154099863
0.000751184834456
0.000726057977107
0.000690685074445
0.000648449176309
0.000612407065973
0.000701264175755
0.000634222321498
0.000565375442528
0.000609566646677
0.000655791030956
0.000692081701517
0.000717267864142
0.000733468475263
0.00074161229757
0.000744752458651
0.000745469508238
0.000745206591109
0.000744018265967
0.000740458130741
0.00073211341013
0.0007160718863
0.000690859630208
0.000654287081148
0.000607577230173
0.000562608502299
0.000629989112239
0.000521560182968
0.00049462453773
0.000554268585422
0.000609143627565
0.000650029049149
0.000677064233409
0.000693104582382
0.000701202405829
0.000704500512666
0.000705419273431
0.000705213175152
0.000703931286629
0.000700373308807
0.000692135586923
0.000676030936697
0.000648911558593
0.000607855149449
0.000552670115993
0.000492465470803
0.000518307766582
0.000361067763796
0.00040726957225
0.00049401238894
0.000564373133216
0.000614370899907
0.000646454166883
0.000664926464914
0.000674199107778
0.000678230467883
0.000679623225253
0.00067942471485
0.00067766329306
0.000673331288527
0.000663871140429
0.000645334336995
0.000613262768098
0.000563287761462
0.000492876618481
0.000405885957903
0.000359086177022
0.00017222943309
0.000360361716542
0.000520510656394
0.000632979832117
0.000704838793128
0.00074597925622
0.000766568298261
0.000775324067877
0.000778812462895
0.000780118853815
0.000779736791254
0.000777695991169
0.000773571332444
0.000764381220509
0.000743612518641
0.000702549592403
0.000631033522772
0.000519117340754
0.000359587501372
0.000172061321461
0.000191293101459
0.000430721321762
0.000631268735312
0.000772880003111
0.00086692709231
0.000925458340632
0.000959871136763
0.000979431909582
0.00099073933358
0.000996289605589
0.000996177549938
0.000990338934786
0.000978690282571
0.000958696548379
0.000923933211157
0.000865312320255
0.000771547918606
0.000630538926373
0.000430471757434
0.000191195147901
0.000431504911855
0.000468806563132
0.000566564499886
0.000647751183068
0.000706778368992
0.000746209498107
0.000770561122388
0.00078431308465
0.00079140812909