/*--------------------------------*- C++ -*----------------------------------*\
| =========                 |                                                 |
| \\      /  F ield         | OpenFOAM: The Open Source CFD Toolbox           |
|  \\    /   O peration     | Version:  3.0.1                                 |
|   \\  /    A nd           | Web:      www.OpenFOAM.org                      |
|    \\/     M anipulation  |                                                 |
\*---------------------------------------------------------------------------*/
FoamFile
{
    version     2.0;
    format      ascii;
    class       surfaceVectorField;
    location    "6.6";
    object      Uf;
}
// * * * * * * * * * * * * * * * * * * * * * * * * * * * * * * * * * * * * * //

dimensions      [0 1 -1 0 0 0 0];

internalField   nonuniform List<vector> 
22672
(
(0.0016465611268 0.000386836256524 -0.00125147343897)
(0.000425390276543 0.00157512508658 -0.00125145536305)
(0.00108612605411 0.00104756146773 -0.00322171434669)
(0.00414094429372 -5.94215751662e-06 -0.00127805087161)
(0.00251976525473 0.00111516537328 -0.00237461506193)
(0.00347087883378 0.00105971088769 -0.00360957658361)
(0.00664934307164 -0.000107477454471 -0.00109046270708)
(0.00559926296203 0.00107300874227 -0.00267795739787)
(0.0062485919023 0.00121293579048 -0.00358143882305)
(0.00850887283009 4.75103104371e-05 -0.000795827761072)
(0.0080180500383 0.00139626034565 -0.00251675111985)
(0.00840405314953 0.00154962896036 -0.00325582359767)
(0.00933611289294 0.000420987172783 -0.000509495765996)
(0.00952167219337 0.00203924651501 -0.00223949088006)
(0.00972433488209 0.0020506867537 -0.00286652226514)
(0.00901044833583 0.000833413666397 -0.000300261291766)
(0.00971728151713 0.00283941618498 -0.00195894386632)
(0.00979677138325 0.00262702555222 -0.00251378901808)
(0.00777096534523 0.00121300700699 -0.000168400497726)
(0.00889356188094 0.00351240293615 -0.00176911551426)
(0.00893950934849 0.00306727628556 -0.00227295813751)
(0.00573752820785 0.00156155049019 -8.71184759874e-05)
(0.00712441921476 0.00412967724734 -0.00162760230615)
(0.00715659188983 0.00349108528205 -0.00209627822985)
(0.00318803994342 0.00178676872115 -5.88368599316e-05)
(0.00467353789516 0.0045744405851 -0.00156306110278)
(0.00469573008844 0.00379699657203 -0.00202498976408)
(0.000400053975505 0.00186523846137 -5.30795659988e-05)
(0.00186664667135 0.00480267613083 -0.00154715045375)
(0.00187579500754 0.00395345370786 -0.00201472671747)
(-0.0023985675791 0.00179463641039 -5.40975663597e-05)
(-0.0010566074808 0.00480876031898 -0.00154399411533)
(-0.00106218290669 0.00395792625724 -0.00201017447216)
(-0.0049795904683 0.00157558175205 -7.64009020376e-05)
(-0.00388624664276 0.00459107726829 -0.00155289587062)
(-0.00390421797699 0.00380930208998 -0.00201008927487)
(-0.00706442667263 0.00123054645853 -0.000149959180964)
(-0.00638165112897 0.00415303362544 -0.00160925578153)
(-0.00640857014527 0.00350847060863 -0.00206823134835)
(-0.00837288577359 0.00084793560535 -0.00027580818725)
(-0.00821493191377 0.00353828666245 -0.00174240328282)
(-0.00825520559564 0.00308648491244 -0.00222986022143)
(-0.0087752222466 0.00043685967871 -0.000477752956957)
(-0.00911157614595 0.0028631535009 -0.00192792930397)
(-0.0091860214083 0.00264074734366 -0.00246084829119)
(-0.00804995834363 6.78718120787e-05 -0.000757614923221)
(-0.009007766984 0.00207387974865 -0.00220024115455)
(-0.00920501812378 0.00207708995478 -0.00279917387399)
(-0.00630050798981 -8.6499492357e-05 -0.00105046992517)
(-0.00761130952644 0.00143389459095 -0.0024754285904)
(-0.0079953302637 0.0015765019853 -0.00318337502595)
(-0.00391024707841 1.71803036381e-05 -0.00123761439198)
(-0.00531019477044 0.00111571354559 -0.00263638946585)
(-0.00595832509881 0.00124358528405 -0.00350600632211)
(-0.00153428611784 0.00041026958365 -0.00121224409038)
(-0.0023484223163 0.00115908707402 -0.00233524354798)
(-0.00330223638406 0.00109006221109 -0.00353508498054)
(-0.000363986471607 0.0016158446871 -0.00121252729811)
(-0.00102949834856 0.00107289811112 -0.00315015824155)
(0.00118535813177 0.00241298556611 -0.00237459698601)
(3.36076445724e-05 0.00400084589696 -0.00128295135777)
(0.00110007372094 0.00336373754538 -0.00361110542205)
(0.00409122234242 0.00232045641018 -0.00377452158818)
(0.00242706190405 0.00395228811141 -0.00377635951339)
(0.00363847533927 0.00352741143979 -0.00574301452766)
(0.00705583754558 0.00272583614431 -0.00410424581064)
(0.0060666468062 0.00438616099388 -0.00450882736849)
(0.00659320835894 0.00402515148277 -0.00627779814864)
(0.00913586469963 0.00357492979073 -0.00396041423884)
(0.00882903725183 0.00536495675086 -0.00437343097628)
(0.00878806605127 0.00492363556094 -0.00604875659045)
(0.00999673124727 0.00469082708572 -0.00368893898039)
(0.0104206567439 0.00676504032757 -0.00399014918137)
(0.0100032104339 0.00610726894798 -0.00558669566936)
(0.00963898667258 0.00579273841529 -0.00342779808882)
(0.0106161332378 0.00829679695717 -0.00358669177216)
(0.0100559536403 0.0073503158753 -0.00509967318153)
(0.00822055863127 0.00673677216873 -0.00322831732269)
(0.00960698062605 0.00963569696439 -0.00327767463006)
(0.00907436873183 0.00842454219071 -0.00470490370032)
(0.00602240925273 0.00747877874971 -0.00310354493295)
(0.00762182158668 0.0107533483753 -0.0030756274733)
(0.00721168452836 0.00931982833021 -0.00442555932213)
(0.00333032555506 0.00794502893809 -0.0030513746966)
(0.00496395331734 0.0115475352352 -0.00298537512507)
(0.00471839380751 0.00995273795386 -0.00428104785303)
(0.000410408722062 0.00810730347612 -0.00303806500308)
(0.00196746582793 0.0119553685688 -0.00296206073295)
(0.00188743297284 0.0102789654907 -0.00423281168046)
(-0.00252153187924 0.00796028373608 -0.00304279241959)
(-0.00113760103864 0.0119669026074 -0.00295738512326)
(-0.00105568455671 0.0102893222064 -0.00422623698188)
(-0.0052486578744 0.00750542316024 -0.00308575075011)
(-0.00416085294411 0.0115785773373 -0.00297093565573)
(-0.00391125622564 0.00998091338856 -0.00426040856389)
(-0.00750129494351 0.00676918727457 -0.00320169988339)
(-0.00686869076248 0.0107955556977 -0.00305197442178)
(-0.00645136256234 0.00935874276361 -0.00438991844653)
(-0.00898824447636 0.00582800240816 -0.00339452439954)
(-0.00892037838469 0.00968055190847 -0.0032463663448)
(-0.00837888141458 0.00846685093356 -0.00465534779989)
(-0.00943082375555 0.00473368269039 -0.00365041750156)
(-0.010003479684 0.00834459404937 -0.00354943376691)
(-0.00943544814964 0.00739542081853 -0.00503889199047)
(-0.00866911405021 0.00362804624713 -0.00391805482173)
(-0.0098996006838 0.00682678974581 -0.00394631716627)
(-0.00947496059012 0.00616410640713 -0.00551464967744)
(-0.00670292027554 0.00278681617282 -0.00406134813108)
(-0.00841483882674 0.00543684848798 -0.00432549888106)
(-0.00836683025383 0.00499035275868 -0.00596917818644)
(-0.00385854013498 0.00238577289926 -0.00373401862185)
(-0.00577333560032 0.00446731624122 -0.00446120656731)
(-0.00629191579723 0.00410044240198 -0.00619601596288)
(-0.00107143483175 0.00247574349944 -0.00233552675571)
(-0.00225296958037 0.00403572649016 -0.00373335870038)
(-0.00345732136624 0.00360333944153 -0.00566378288365)
(3.0437783708e-05 0.004076565781 -0.00124093441639)
(-0.00103570376481 0.00342861967985 -0.00353218372778)
(0.00114454478192 0.00542976335758 -0.00268471388515)
(-6.74605380197e-05 0.00645266588613 -0.00110116056194)
(0.00125515619263 0.00607624454513 -0.00359639052123)
(0.00452548317821 0.005897208523 -0.0045106652937)
(0.00283214069605 0.00685668631669 -0.00411117505651)
(0.00413852372347 0.00641755586335 -0.00628536302127)
(0.00792890397296 0.006890027533 -0.00477801253414)
(0.00705884877756 0.00772939922777 -0.00478147890383)
(0.00741172804802 0.00723509559591 -0.00674668849436)
(0.0102399994253 0.00839013003041 -0.00440316591881)
(0.0102005732692 0.00924162652693 -0.00435411990287)
(0.00975853421148 0.00857585085294 -0.00618779716948)
(0.0111281618424 0.0101592721096 -0.00388790197313)
(0.0119130572621 0.0111968711743 -0.00362928439029)
(0.0109667117742 0.0102583146227 -0.00532002751655)
(0.0106337015206 0.0118751286054 -0.0034365683134)
(0.0120235763338 0.0132493103757 -0.0029300960845)
(0.0109171095152 0.0120040777963 -0.00445808889549)
(0.00898485089304 0.0133374897348 -0.00312498478067)
(0.0107608276825 0.0150606764861 -0.0024085860672)
(0.00973991455517 0.0135478475336 -0.00377616514822)
(0.00652337708387 0.0144631722409 -0.00295745766543)
(0.00844595087684 0.0165402574124 -0.00209451915916)
(0.0076652858639 0.0148026684412 -0.00332547098871)
(0.00357960459336 0.0151695661785 -0.00289606116142)
(0.00544998414669 0.0175847741328 -0.00196347964903)
(0.00498119679616 0.0156872545396 -0.00309350115055)
(0.000420096529747 0.0154162694378 -0.00288138085313)
(0.00213360313845 0.0181232910403 -0.00193089406263)
(0.00197843603713 0.0161469300467 -0.00300844805518)
(-0.0027543953013 0.0151959664496 -0.0028855283594)
(-0.00128155520227 0.0181407347293 -0.0019241628719)
(-0.00113142713836 0.0161636472439 -0.00299937300091)
(-0.00573998321757 0.0145081801671 -0.0029371593274)
(-0.00463234275002 0.017630934897 -0.00194378459361)
(-0.0041646047836 0.015732092779 -0.00306680148259)
(-0.00826105513023 0.0133904188934 -0.00309664088319)
(-0.00768777457751 0.0166005757037 -0.00206546303476)
(-0.00690238451932 0.0148625554948 -0.00328397888313)
(-0.00997991682822 0.0119313623478 -0.00340127571217)
(-0.0100726220382 0.0151216878079 -0.00237313615699)
(-0.00904356414513 0.0136108214999 -0.00372230371926)
(-0.0105563351267 0.0102246075527 -0.00384533343162)
(-0.0114075937815 0.0133120834231 -0.00288810088651)
(-0.0102940081343 0.0120700292855 -0.00439109948337)
(-0.00976514606375 0.00846874518505 -0.00435376122561)
(-0.0113828461118 0.0112735105908 -0.00357773370163)
(-0.0104307437314 0.0103366052252 -0.00523793810289)
(-0.00756798995369 0.00698026021248 -0.0047253573173)
(-0.00977547671536 0.00933257048643 -0.00429478334314)
(-0.00932637553062 0.00866730921938 -0.00609290770155)
(-0.00428760223097 0.00599452567529 -0.00446054664584)
(-0.00675649175588 0.00783323643716 -0.0047204913612)
(-0.00709953630292 0.00733839075228 -0.00664634119221)
(-0.00102860013199 0.00552407348094 -0.00263876636106)
(-0.00265247651228 0.00696506166151 -0.00405654293557)
(-0.00394814182802 0.00652496313738 -0.00618837640168)
(0.000134029455651 0.00655137149464 -0.00105160068266)
(-0.00118590054573 0.0061746219954 -0.00350343438581)
(0.00146639632303 0.00779504512147 -0.0025276217333)
(8.77092632567e-05 0.00826467983865 -0.000809024722205)
(0.00159206971977 0.00817597447212 -0.00327843289716)
(0.0055028588745 0.00860380000841 -0.00438198866665)
(0.00367964154067 0.00888768775175 -0.00397237556608)
(0.00503631301354 0.00855579827932 -0.00606748717243)
(0.00944018068718 0.00997547973374 -0.00435758627257)
(0.00855802959913 0.00999141459993 -0.00441375726952)
(0.00875188606863 0.00952552683754 -0.00619936355177)
(0.012027640288 0.0119025232112 -0.00358023837435)
(0.0121266963888 0.0117810335946 -0.00358407688746)
(0.0113298844645 0.0110983216966 -0.00512689577279)
(0.0129143792153 0.0140921063797 -0.00267147850166)
(0.0139768718409 0.0140161884475 -0.0024080287754)
(0.0125519922543 0.0130364334442 -0.00370608780011)
(0.0121948446316 0.0161959390712 -0.00190211383831)
(0.0139543539647 0.0163217904195 -0.00130672966841)
(0.0123347042669 0.0150250068166 -0.00235297861193)
(0.0101956841181 0.0179900148864 -0.00137812044569)
(0.0123674280751 0.0183537509676 -0.000465090184041)
(0.0108717435799 0.016792751042 -0.00129394738788)
(0.00732914216822 0.0193622512987 -0.00110054114276)
(0.00962183588156 0.0200131171734 6.73145924656e-05)
(0.00846178903942 0.0182250909878 -0.000606350383116)
(0.00398248880956 0.0202220663398 -0.000998312550228)
(0.00615895661893 0.0211844790691 0.000320796305546)
(0.00544793399287 0.019231385508 -0.0002530826716)
(0.000433043265276 0.0205250829924 -0.000973676081391)
(0.0023790785967 0.0217935790557 0.000404481824207)
(0.00213803630802 0.0197563997128 -0.000120872020491)
(-0.00313642450959 0.0202585884802 -0.000982419106107)
(-0.00149603763815 0.0218163224181 0.000415774313841)
(-0.00126957013945 0.0197791482638 -0.000106148193997)
(-0.0065358920269 0.0194228980338 -0.00107208830098)
(-0.0053230785754 0.0212444811081 0.000351526047458)
(-0.00461986218995 0.0192918051519 -0.0002141059314)
(-0.00947096025026 0.0180578226851 -0.00134195830856)
(-0.00886142508243 0.020087719374 0.000107489552936)
(-0.00769977614562 0.0183029429532 -0.000552101618729)
(-0.0115405635047 0.0162631677973 -0.00185996133134)
(-0.011683628932 0.0184229543083 -0.000422696349516)
(-0.010181078087 0.016869749882 -0.00123168830573)
(-0.0123355248469 0.0141655606235 -0.00262050115652)
(-0.0133382347226 0.0163863773091 -0.00126066481239)
(-0.0117126563218 0.0150994193798 -0.00227935688624)
(-0.0115407128628 0.0119900863897 -0.00351875581916)
(-0.0134371566895 0.014091420574 -0.00234894486565)
(-0.0120083252957 0.0131199730369 -0.0036127467829)
(-0.00906637730336 0.0100778830368 -0.00428991738704)
(-0.0116877137942 0.0118722357814 -0.00351166428418)
(-0.0108849358273 0.0111962885838 -0.00501402804531)
(-0.00525531731335 0.00871609921915 -0.00431648765092)
(-0.00824339288109 0.0100984000315 -0.0043366006742)
(-0.00842642191881 0.00963825108594 -0.00607625560431)
(-0.00134520596911 0.00790505937663 -0.00246937725718)
(-0.0034924384775 0.0090015822242 -0.00390194569764)
(-0.00483546408081 0.00867570652723 -0.00594667069545)
(-1.82950236944e-05 0.00836980190844 -0.000748994526224)
(-0.00151708526695 0.00828928744732 -0.00316366480592)
(0.00210953825672 0.00925501568691 -0.00225377855498)
(0.000460782268272 0.00905389095252 -0.000527607659714)
(0.0020940338481 0.00945227012175 -0.00289876877567)
(0.00690192668896 0.0101518921509 -0.00400414416895)
(0.00479414843196 0.00971038652431 -0.00370649034112)
(0.00621873150061 0.0097268545509 -0.00561510723865)
(0.0113947044149 0.0116457205929 -0.00364024788441)
(0.0103270495913 0.0108424170394 -0.00390573860974)
(0.010433639074 0.0106905743023 -0.00534380373672)
(0.0142606822555 0.0137125506062 -0.00241186728851)
(0.0143166936717 0.0126326264656 -0.0026812913429)
(0.0132666466884 0.0122795057185 -0.00371759756716)
(0.0151268057743 0.0160455801884 -0.00104327994215)
(0.0163083047479 0.0148496529459 -0.00104373703321)
(0.0144979449213 0.0142293042913 -0.00169961784938)
(0.0141495607569 0.0182772766113 0.000130293985856)
(0.0161082924323 0.0171065910463 0.000492050383767)
(0.0140891587692 0.0162392667895 0.000192412730406)
(0.0117452903676 0.0201763263216 0.000980344854118)
(0.0141695854293 0.0190970500379 0.00167276752234)
(0.0123129045778 0.0180317613641 0.0016609394088)
(0.00839557583764 0.0216353144399 0.00148865204077)
(0.0109537216872 0.0207273635241 0.00245116411431)
(0.00952065407592 0.0194929391778 0.00263543746085)
(0.00453217042485 0.0225572111566 0.00172359067998)
(0.00696959862704 0.0218864378691 0.00285102007244)
(0.00609421503825 0.0205270213959 0.00316141795305)
(0.00045110029873 0.0228869389769 0.00179393221944)
(0.00266294115591 0.0224977968169 0.00299744351357)
(0.00236552866549 0.0210730824229 0.00337682588926)
(-0.0036573184397 0.0226035645035 0.00174971946741)
(-0.00174154769339 0.0225257322034 0.00301603760505)
(-0.0014660841566 0.0211021205484 0.00339898426807)
(-0.00759177236145 0.0217096651281 0.00153110390137)
(-0.00611414922853 0.0219598424077 0.00289870841306)
(-0.00525140549386 0.02060347073 0.00321906929365)
(-0.0110251105132 0.0202532094593 0.00102675151198)
(-0.0101978057153 0.0208157098673 0.00250524598191)
(-0.00876490535651 0.0195875959204 0.00270532549413)
(-0.0135014022006 0.0183450460017 0.00017660016943)
(-0.0134996129277 0.0191715528173 0.00171720293734)
(-0.0116379801929 0.0181172346409 0.00172767201858)
(-0.0145454008965 0.0161132009563 -0.00098910852152)
(-0.0154981564479 0.0171666886228 0.000533296335822)
(-0.0134765127222 0.0163130393471 0.000263666604962)
(-0.0137619684968 0.0137920964036 -0.00234185333067)
(-0.0157602996205 0.0149140056066 -0.000986346921034)
(-0.013950081732 0.0143054955462 -0.00160603929961)
(-0.0110065084692 0.0117412998625 -0.00355834757134)
(-0.0138625087335 0.0127108412382 -0.00260222244865)
(-0.0128088393611 0.012368336942 -0.00359409060445)
(-0.00664375512763 0.0102596608334 -0.00392205872092)
(-0.00999825517055 0.0109366768622 -0.00381615780813)
(-0.0100941537517 0.0107956004975 -0.0052010611057)
(-0.0019834143212 0.00936253495232 -0.00218156296669)
(-0.00459866562378 0.0098119352847 -0.00362301488694)
(-0.00600788354053 0.00984074822962 -0.00547073230629)
(-0.00038788961326 0.00914787160676 -0.000459093857947)
(-0.00201467264529 0.00956116006161 -0.00276151226964)
(0.00290809073578 0.00941907211856 -0.00198031944584)
(0.000873052559411 0.00870302959089 -0.000323120306107)
(0.00266870281269 0.00949500326177 -0.00255724574531)
(0.00843322814634 0.0103152404978 -0.00360808478191)
(0.00589557335927 0.00932493620533 -0.00345186076417)
(0.00746045748256 0.00974768891209 -0.00513970424214)
(0.0134484367457 0.0117253098664 -0.00294678206824)
(0.0120444649796 0.0103195012278 -0.00346023482607)
(0.0121798523025 0.0106091480403 -0.00449231405234)
(0.0165668956951 0.0136612385596 -0.0013131610876)
(0.0164233765205 0.0118841107228 -0.00191394913171)
(0.0152557860141 0.0120317484252 -0.00236996861401)
(0.0173819631995 0.0158195260801 0.000491593292709)
(0.0185412702568 0.0138434592455 0.000132052350624)
(0.0165058947946 0.0137920155038 0.000191096956015)
(0.0161203658819 0.0178574121517 0.00203452392025)
(0.0181449520005 0.0158173590108 0.00203909371554)
(0.0158959780989 0.0156032183275 0.00255079763084)
(0.0132954578981 0.0195973642181 0.00314358678253)
(0.0158761747613 0.017558861411 0.0034844941365)
(0.0138090136991 0.0172290238185 0.0043630643447)
(0.00945455149325 0.0209433768055 0.00381353214598)
(0.0122105304458 0.0190056988433 0.00445219823244)
(0.0106241645917 0.0185645048694 0.00556254013847)
(0.00507512301239 0.0218020180518 0.00412487290604)
(0.00772987631796 0.0200529485038 0.00495863951338)
(0.00676941472118 0.0195195492132 0.00621288942197)
(0.000470570672064 0.0221149659353 0.00421954889918)
(0.00292974031785 0.0206218490123 0.0051516032284)
(0.00260569440803 0.0200328309845 0.0064804744944)
(-0.0041709810535 0.0218566982417 0.0041650265507)
(-0.00196600118356 0.0206528924268 0.00517882429092)
(-0.00166689127641 0.0200673716058 0.0065143681532)
(-0.00864576882682 0.0210305645106 0.0038728504936)
(-0.00685391377315 0.0201360484832 0.00502607181137)
(-0.00590908232398 0.0196111288249 0.00629856005701)
(-0.0125899601444 0.0196838952004 0.00319569740727)
(-0.0114640396066 0.0191046778604 0.00451864327228)
(-0.00988111664062 0.0186767618768 0.0056552030436)
(-0.0154874957418 0.0179259261183 0.00207389910373)
(-0.0152269736939 0.0176406291899 0.00352467993616)
(-0.0131604007357 0.017325330658 0.00442844000896)
(-0.0168015143835 0.0158784314973 0.000536057936308)
(-0.0175472001668 0.0158780799035 0.00206823267483)
(-0.0153010157504 0.0156774102809 0.00260260844724)
(-0.0160564321529 0.013726171072 -0.00124671603902)
(-0.0179886409035 0.0138997560494 0.000179820904778)
(-0.0159580413967 0.0138595504275 0.000269147021503)
(-0.0130438408718 0.0118034934895 -0.00286003268544)
(-0.015955761145 0.0119491847778 -0.00183686920501)
(-0.0147856848467 0.0121058017177 -0.00225095892786)
(-0.0081623544365 0.0104036598464 -0.00351711397415)
(-0.0117022620533 0.0103960095155 -0.0033649734373)
(-0.0118255549638 0.0106963774989 -0.00434084965642)
(-0.00277530385542 0.00950725580386 -0.0019005457782)
(-0.00569252043227 0.00940663232754 -0.00336121718721)
(-0.00723980799074 0.00984152125399 -0.0049817861531)
(-0.000798151051713 0.00877971871887 -0.000251033436823)
(-0.00258229286296 0.00958327554895 -0.00240717929503)
(0.00358205344898 0.00857275372059 -0.00179466162444)
(0.00125238959286 0.00744419966724 -0.000194502230536)
(0.00311069386727 0.00861621497089 -0.00232323669799)
(0.00977402904359 0.00928205765733 -0.00330401080833)
(0.00683837910135 0.00788654826163 -0.00325774201895)
(0.00853459477557 0.00874316055884 -0.00475360173825)
(0.015263331743 0.0104359852813 -0.00242740188954)
(0.0135069294393 0.00864720853543 -0.00315341049832)
(0.0137248438797 0.00940662978467 -0.00381702888862)
(0.0186020114519 0.0120452137168 -0.000468735693478)
(0.0182189554232 0.00985597851316 -0.00139137773802)
(0.0170246767187 0.0105402585721 -0.00131057159151)
(0.0193737017958 0.0138506262204 0.00167955277345)
(0.0204412901248 0.0114051772032 0.000985689986933)
(0.018297143225 0.0119847828147 0.00166656260554)
(0.0178622076035 0.0155584154586 0.00348906393179)
(0.0198847888139 0.0129551424897 0.00315732204488)
(0.0175195043039 0.013484189113 0.00437367810654)
(0.0146686049097 0.0170357304138 0.00479310558641)
(0.0173537682862 0.0143245341577 0.00480078658531)
(0.0151691304448 0.0148446779644 0.00642789608455)
(0.0103914678433 0.0182024359391 0.00559730559983)
(0.0133060253456 0.0154806690752 0.0059421124423)
(0.0116370997476 0.015985422596 0.00780213399678)
(0.00555756275295 0.0189506237655 0.00598536983574)
(0.0083799918234 0.0163250852857 0.00656447319296)
(0.00739589135521 0.0168227951563 0.00856173806513)
(0.00049191510232 0.0192216501036 0.00611087862014)
(0.00316046087583 0.0167978960334 0.0066543589802)
(0.00283382115067 0.017276545949 0.00888957341559)
(-0.00462006244305 0.0190059462818 0.00603986955159)
(-0.00215771899388 0.0168265896543 0.00667911556037)
(-0.0018451723014 0.0173123142832 0.00893825569457)
(-0.00957571334466 0.0182946103068 0.00567186459005)
(-0.00748477907799 0.0164077284343 0.00662336769241)
(-0.00650895788321 0.0169195204543 0.00868394832579)
(-0.0139783981695 0.0171297127726 0.00484762580117)
(-0.012563161986 0.0155801370579 0.00602297339922)
(-0.0109018019146 0.0161070542503 0.00792720460799)
(-0.0172488053645 0.0156319833041 0.00351901350726)
(-0.0167245353311 0.0144096360518 0.00483812130234)
(-0.0145464318528 0.0149501884326 0.0065013806558)
(-0.0188014494867 0.0139088686433 0.0017119956433)
(-0.0193027693638 0.0130188689714 0.00317716006912)
(-0.0169468037997 0.0135640719575 0.00441183591814)
(-0.0180858183689 0.0121025437973 -0.000410332261216)
(-0.0198906962569 0.0114594526541 0.00102450172581)
(-0.0177561549886 0.0120503491263 0.00172465184053)
(-0.0148468717957 0.01050044345 -0.00234180995688)
(-0.017744560332 0.009913307972 -0.00131781716793)
(-0.0165489541316 0.010605248455 -0.00120309413633)
(-0.00949391748513 0.0093526010301 -0.00320907665036)
(-0.0131579890232 0.00870815555142 -0.00305631207855)
(-0.0133609329878 0.00947745927251 -0.00366513144167)
(-0.00344653969424 0.00864310892431 -0.00171170484583)
(-0.00663220124444 0.00794918368444 -0.00316407574687)
(-0.00830827822791 0.00881667694706 -0.00458996840008)
(-0.00117853079538 0.00750299592672 -0.00012278989665)
(-0.00302335241548 0.00868518592966 -0.0021698457002)
(0.00419662708441 0.0067871945449 -0.00165758262505)
(0.00159762758994 0.00540041913482 -0.000116201564975)
(0.00353227718061 0.00681824393274 -0.00215285588033)
(0.0108892302517 0.00727744524742 -0.00310714170894)
(0.00757506352954 0.00567657605013 -0.00313801151104)
(0.00942604831044 0.00686375306029 -0.00448264124179)
(0.0167412784414 0.00809557044814 -0.0021173863468)
(0.0146262448063 0.00616886259383 -0.00299174638115)
(0.0149755368134 0.00731092018976 -0.00337371793402)
(0.020260445882 0.00926613181776 6.30479423894e-05)
(0.0195846688872 0.00696414529453 -0.00111976684587)
(0.0184525782543 0.00810163841037 -0.000627356190733)
(0.0210029750817 0.0105938658808 0.00246345925836)
(0.0218936829054 0.00802031098303 0.00149003895974)
(0.0197534587044 0.00915605851913 0.00264230877353)
(0.0193083550362 0.0118453478518 0.00446904469841)
(0.0212233623384 0.00906922867189 0.00382778001008)
(0.018850686243 0.0102554483774 0.00558050082297)
(0.0158274890926 0.0129347532823 0.0059497934412)
(0.0185140346124 0.00999289745221 0.00560923627084)
(0.0163083596527 0.011260118298 0.00781246726296)
(0.0111821133984 0.0137847256558 0.00690928003542)
(0.0141552150717 0.0107728048359 0.00690719330925)
(0.0125040893048 0.0121201104792 0.00935320479692)
(0.005929429846 0.0143669229246 0.00723346233741)
(0.0089193143247 0.0113263664539 0.00731347815624)
(0.00793229152358 0.0127498559719 0.0102513693654)
(0.000506534541302 0.0146164505937 0.00722259592042)
(0.00334344687347 0.0116750627056 0.00732336371452)
(0.00303622463861 0.0131312481148 0.0105456983807)
(-0.00497080430642 0.0144270215082 0.00726261370119)
(-0.00231294198985 0.0117006396936 0.00734681023747)
(-0.00199689880319 0.013164321964 0.010603261078)
(-0.0103517838849 0.0138747030633 0.00697447650158)
(-0.00800686013998 0.011395358799 0.00736467415414)
(-0.00701511945541 0.0128409222204 0.0103933236087)
(-0.0151462780585 0.0130227414687 0.00601346890039)
(-0.0134190613633 0.0108525497559 0.00696826001098)
(-0.0117642783022 0.012228950604 0.00952205782803)
(-0.0187121650743 0.0119196466078 0.00449626786419)
(-0.01789491135 0.0100677211834 0.00565344082152)
(-0.015703880316 0.0113606202541 0.00790777999334)
(-0.0204426546097 0.0106524721888 0.00248966615162)
(-0.020654388699 0.00912850868485 0.00384853288476)
(-0.0182984836087 0.0103340438946 0.00562082893933)
(-0.0197457709856 0.00931975209641 0.000117016819095)
(-0.0213487657986 0.00807054725929 0.0015276619096)
(-0.0192234170276 0.00921929010376 0.00269199994577)
(-0.0163224380078 0.00814953659243 -0.0020323192896)
(-0.0191108654033 0.00701396554969 -0.00104476869319)
(-0.0179784768127 0.00816028843463 -0.000524016145132)
(-0.0106077589181 0.00733115054765 -0.00301131117507)
(-0.0142782126022 0.00621613083543 -0.00289336523317)
(-0.0146111866374 0.00736739914694 -0.00322268666642)
(-0.00406183725048 0.00683924412979 -0.00157516079769)
(-0.00737050315673 0.00572210272457 -0.00304460878133)
(-0.00920053300288 0.00691797943646 -0.00431888115176)
(-0.00152579548772 0.00544364726538 -4.67069683979e-05)
(-0.00344609065957 0.00686795391004 -0.00200251811949)
(0.00463548045793 0.00432985400382 -0.00159663045096)
(0.00181820663232 0.00285083174047 -8.98559433175e-05)
(0.00383350388337 0.0043520270947 -0.00208589766628)
(0.0116743314881 0.00460984814154 -0.00302261618326)
(0.00803237770714 0.00298350548252 -0.00309002572204)
(0.0100498382125 0.00436377857894 -0.00434578593586)
(0.0177744692203 0.00508308151888 -0.00199412688022)
(0.0153198211767 0.00322052428611 -0.00293704128286)
(0.0158475627087 0.00461547184057 -0.003151810669)
(0.0214195287661 0.00577685180996 0.00030722417148)
(0.0204284439722 0.0036070626101 -0.00102738561786)
(0.0194436116451 0.00506840060201 -0.000287995225408)
(0.0221483744281 0.00657137860684 0.00285435971145)
(0.0227975877996 0.00413789682599 0.00171156477535)
(0.0207708050223 0.00569974201479 0.00315354271984)
(0.0203418273491 0.00731374515164 0.00496797158251)
(0.0220615794039 0.00466082130934 0.00412284894486)
(0.0197876962135 0.00635804357777 0.00621492258234)
(0.0166626878418 0.00794672883391 0.00656663613889)
(0.0192436544503 0.00512058144836 0.00597832100051)
(0.0171303071661 0.00696251713881 0.00855142002913)
(0.0117318517626 0.00847840586654 0.00731139143007)
(0.0147220305457 0.00547651813012 0.00722251986138)
(0.0131278481561 0.00747916454454 0.0102270864075)
(0.00624478746941 0.00885944216869 0.00740337953335)
(0.00929643599047 0.00578771884601 0.00739185684146)
(0.00835507882864 0.00789565675587 0.0110256766647)
(0.000517546075731 0.0090041617323 0.00744757803156)
(0.00346934117085 0.0059750903173 0.00748597457645)
(0.00318411424556 0.00812413817242 0.0114271806527)
(-0.0052689393335 0.00889698734413 0.00744887069042)
(-0.00241871048323 0.00598957843391 0.00751612246146)
(-0.00210615200807 0.00814570975572 0.0114975156933)
(-0.0109027371908 0.00854385879635 0.00735845766354)
(-0.00836726419788 0.00582665292627 0.00745975313237)
(-0.0074067060603 0.00795390469422 0.0112024747398)
(-0.0159838489124 0.00801639201218 0.00660823193211)
(-0.0139881446376 0.00552801360852 0.00725936262337)
(-0.012383862423 0.00755852561367 0.0104056210955)
(-0.0197557350217 0.00737146552604 0.00500570584208)
(-0.0186236755666 0.00516353827367 0.00603511801067)
(-0.0165297054364 0.00703514379432 0.00867604451705)
(-0.0215972870748 0.00661986221497 0.00288652864273)
(-0.021498839126 0.00469812933176 0.00415210856167)
(-0.0192475504169 0.00641879437685 0.00627190840977)
(-0.0209099053824 0.00582108111486 0.000365876397308)
(-0.0222569100278 0.00417136448365 0.00175461694879)
(-0.020250369791 0.00575047922349 0.00321177756609)
(-0.0173594717541 0.00512475993363 -0.00190581463675)
(-0.0199578645869 0.00364138906775 -0.000948042635)
(-0.0189759478545 0.00511469664718 -0.000177884163234)
(-0.0113962604221 0.00464830920647 -0.00292666283943)
(-0.0149749557675 0.00325212048884 -0.00283679344419)
(-0.0154885749459 0.00465673579078 -0.00299923456507)
(-0.0045036492496 0.00436641161588 -0.00151615495204)
(-0.00783079707688 0.00301366069344 -0.00299766486456)
(-0.00982871139824 0.00440146061176 -0.0041842107704)
(-0.0017485611231 0.00288026656329 -2.21599147489e-05)
(-0.00375042466085 0.00438646783611 -0.00194029874329)
(0.00485623532074 0.0015278295711 -0.00158325121439)
(0.00189200217244 7.29192594093e-05 -8.55420971632e-05)
(0.00398432807833 0.00153728190136 -0.00207832207623)
(0.0120691983748 0.00161731617054 -0.00300445082163)
(0.0081849434978 7.42058055972e-05 -0.00308009298304)
(0.0103640763458 0.00153822606371 -0.00430366326423)
(0.0182950825508 0.00176814170779 -0.00197030002049)
(0.0155513874747 7.21883718479e-05 -0.0029284030945)
(0.0162895570728 0.00161669953795 -0.00307755395072)
(0.0220069026429 0.00199357791952 0.000376954986016)
(0.0207113005412 6.92654508489e-05 -0.00101284430415)
(0.0199455094275 0.00175954785776 -0.000174036170046)
(0.0227343554678 0.00225406688952 0.00298005400876)
(0.023102789789 6.68512881277e-05 0.00176533542338)
(0.0212892721414 0.00196631453169 0.00334357131292)
(0.020884084084 0.00249526936848 0.00513319836286)
(0.0223459843155 6.45355654971e-05 0.00419255390454)