/*--------------------------------*- C++ -*----------------------------------*\
| =========                 |                                                 |
| \\      /  F ield         | OpenFOAM: The Open Source CFD Toolbox           |
|  \\    /   O peration     | Version:  3.0.1                                 |
|   \\  /    A nd           | Web:      www.OpenFOAM.org                      |
|    \\/     M anipulation  |                                                 |
\*---------------------------------------------------------------------------*/
FoamFile
{
    version     2.0;
    format      ascii;
    class       surfaceScalarField;
    location    "0.3";
    object      alphaPhi;
}
// * * * * * * * * * * * * * * * * * * * * * * * * * * * * * * * * * * * * * //

dimensions      [0 3 -1 0 0 0 0];

internalField   nonuniform List<scalar> 
3742
(
3.26514e-17
-5.20465e-17
5.68776e-18
-3.28634e-17
-1.25157e-17
-1.79877e-17
-1.70624e-17
-9.72029e-18
-1.29501e-17
-6.16321e-18
-6.73929e-18
-4.73444e-18
-1.87914e-18
-3.95262e-18
9.98274e-19
-3.3212e-18
2.42177e-18
-2.76774e-18
3.03697e-18
-2.31816e-18
3.31184e-18
-2.02612e-18
3.63438e-18
-2.04506e-18
4.59324e-18
-2.80253e-18
7.41769e-18
-5.2724e-18
1.45802e-17
-1.12652e-17
3.04789e-17
-2.35666e-17
6.16691e-17
-4.54397e-17
1.16459e-16
-7.9746e-17
2.04367e-16
-1.28475e-16
3.3545e-16
-1.92474e-16
5.19336e-16
-2.71146e-16
7.67878e-16
-3.6422e-16
1.09667e-15
-4.71996e-16
1.53361e-15
-5.99814e-16
-7.69102e-16
-3.24733e-23
2.04026e-22
-1.76363e-22
8.11146e-22
-1.29087e-21
3.89346e-21
-4.45481e-21
9.55014e-21
-8.94828e-21
1.39305e-20
-1.20369e-20
8.52654e-21
-4.82831e-21
-3.4758e-20
4.88798e-20
-2.06446e-19
2.60825e-19
-7.24608e-19
8.75997e-19
-1.97328e-18
2.28415e-18
-4.4563e-18
5.14432e-18
-8.85326e-18
1.00706e-17
-1.55382e-17
1.6608e-17
-2.37086e-17
2.35825e-17
-3.18224e-17
3.02573e-17
-3.87635e-17
3.50914e-17
-4.28146e-17
3.68193e-17
-4.28669e-17
3.57526e-17
-3.99594e-17
3.19084e-17
-3.51547e-17
2.50749e-17
-2.89508e-17
1.6535e-17
-2.21073e-17
9.449e-18
-1.58546e-17
5.33356e-18
-1.09377e-17
3.53695e-18
-7.40748e-18
2.84761e-18
-4.98683e-18
2.49891e-18
-3.3664e-18
2.21524e-18
-2.3003e-18
1.95636e-18
-1.61031e-18
1.74539e-18
-1.1798e-18
1.63425e-18
-9.68671e-19
1.77788e-18
-1.07798e-18
2.6423e-18
-1.91715e-18
5.42356e-18
-4.51962e-18
1.27121e-17
-1.09432e-17
2.93032e-17
-2.45332e-17
6.24553e-17
-4.93715e-17
1.21363e-16
-8.91835e-17
2.16542e-16
-1.46718e-16
3.58941e-16
-2.23246e-16
5.58557e-16
-3.18073e-16
8.27347e-16
-4.30354e-16
1.18091e-15
-5.61503e-16
1.65292e-15
-7.31742e-16
-1.04144e-15
-7.3688e-24
4.11415e-23
-4.01695e-23
1.57004e-22
-2.82361e-22
7.09446e-22
-9.2372e-22
1.57178e-21
-1.67383e-21
1.46674e-21
-1.22154e-21
-3.87405e-21
5.78018e-21
-2.96034e-20
3.9073e-20
-1.20334e-19
1.53715e-19
-3.76263e-19
4.63507e-19
-9.67553e-19
1.14756e-18
-2.11614e-18
2.4788e-18
-4.07482e-18
4.69718e-18
-6.96059e-18
7.69189e-18
-1.05623e-17
1.10227e-17
-1.43421e-17
1.42701e-17
-1.76836e-17
1.66845e-17
-1.96965e-17
1.76226e-17
-1.98076e-17
1.72803e-17
-1.84331e-17
1.5956e-17
-1.62179e-17
1.37697e-17
-1.3573e-17
1.10088e-17
-1.07816e-17
8.26431e-18
-8.12537e-18
5.97081e-18
-5.83868e-18
4.23962e-18
-4.03578e-18
2.99786e-18
-2.71158e-18
2.13079e-18
-1.79078e-18
1.53769e-18
-1.17675e-18
1.14096e-18
-7.81936e-19
8.89654e-19
-5.46197e-19
7.80847e-19
-4.62719e-19
9.33236e-19
-6.49791e-19
1.79077e-18
-1.53937e-18
4.57498e-18
-4.26115e-18
1.20509e-17
-1.11788e-17
2.94837e-17
-2.62877e-17
6.48951e-17
-5.457e-17
1.28365e-16
-1.0064e-16
2.31305e-16
-1.67944e-16
3.85309e-16
-2.58128e-16
6.0047e-16
-3.70573e-16
8.87857e-16
-5.04453e-16
1.26543e-15
-6.71238e-16
1.93438e-15
-9.8482e-16
-1.50564e-15
-1.39127e-24
6.48343e-24
-7.47371e-24
2.32257e-23
-4.97762e-23
9.41002e-23
-1.47242e-22
1.40164e-22
-1.70857e-22
-3.39061e-22
5.3859e-22
-3.3883e-21
4.78111e-21
-1.61769e-20
2.21333e-20
-5.8606e-20
7.76166e-20
-1.73487e-19
2.2113e-19
-4.31925e-19
5.30544e-19
-9.25363e-19
1.11152e-18
-1.74516e-18
2.05154e-18
-2.931e-18
3.34389e-18
-4.44214e-18
4.85245e-18
-6.11468e-18
6.36598e-18
-7.66337e-18
7.51596e-18
-8.64148e-18
7.98573e-18
-8.76587e-18
7.83074e-18
-8.16593e-18
7.2445e-18
-7.14686e-18
6.36588e-18
-5.95622e-18
5.30478e-18
-4.74451e-18
4.19315e-18
-3.61321e-18
3.16149e-18
-2.63522e-18
2.29509e-18
-1.84806e-18
1.62195e-18
-1.25324e-18
1.12893e-18
-8.27509e-19
7.83764e-19
-5.36979e-19
5.51811e-19
-3.48698e-19
4.09711e-19
-2.42506e-19
3.70202e-19
-2.36424e-19
5.56433e-19
-4.63321e-19
1.41577e-18
-1.38284e-18
4.2226e-18
-4.24414e-18
1.1969e-17
-1.17812e-17
3.04783e-17
-2.87599e-17
6.86186e-17
-6.11767e-17
1.37367e-16
-1.14576e-16
2.48889e-16
-1.93018e-16
4.15244e-16
-2.98618e-16
6.468e-16
-4.31236e-16
9.54924e-16
-5.92435e-16
1.37806e-15
-8.10645e-16
2.77345e-15
-1.37792e-15
-2.72545e-15
-2.0667e-25
7.2779e-25
-1.06534e-24
2.25066e-24
-6.39294e-24
5.56797e-24
-1.27236e-23
-2.496e-23
3.83049e-23
-2.95897e-22
4.5724e-22
-1.69687e-21
2.53782e-21
-7.26428e-21
1.04771e-20
-2.513e-20
3.48033e-20
-7.23557e-20
9.6055e-20
-1.76923e-19
2.25885e-19
-3.74401e-19
4.63792e-19
-6.9869e-19
8.42242e-19
-1.16717e-18
1.37221e-18
-1.77704e-18
2.02046e-18
-2.481e-18
2.69707e-18
-3.16004e-18
3.22755e-18
-3.61741e-18
3.46374e-18
-3.72255e-18
3.40495e-18
-3.50406e-18
3.13833e-18
-3.08287e-18
2.75048e-18
-2.57674e-18
2.30201e-18
-2.0616e-18
1.84146e-18
-1.58155e-18
1.41107e-18
-1.16349e-18
1.04048e-18
-8.21576e-19
7.42762e-19
-5.58216e-19
5.17106e-19
-3.66548e-19
3.54484e-19
-2.34506e-19
2.43721e-19
-1.49843e-19
1.79903e-19
-1.08527e-19
1.86643e-19
-1.38834e-19
3.90252e-19
-3.81564e-19
1.2459e-18
-1.32713e-18
4.09975e-18
-4.3692e-18
1.22259e-17
-1.26895e-17
3.21132e-17
-3.19852e-17
7.35802e-17
-6.94207e-17
1.4853e-16
-1.31541e-16
2.6974e-16
-2.23009e-16
4.49828e-16
-3.46987e-16
7.00043e-16
-5.04589e-16
1.03624e-15
-6.90877e-16
1.65316e-15
-1.19237e-15
4.07462e-15
-2.05974e-15
-4.82564e-15
-2.1996e-26
4.58607e-26
-9.9669e-26
3.09983e-26
-3.66519e-25
-1.48172e-24
2.19642e-24
-1.86717e-23
3.24272e-23
-1.32539e-22
2.2229e-22
-6.92159e-22
1.10698e-21
-2.8657e-21
4.36628e-21
-9.72423e-21
1.41148e-20
-2.76427e-20
3.82801e-20
-6.70649e-20
8.89671e-20
-1.41362e-19
1.80862e-19
-2.63605e-19
3.269e-19
-4.42354e-19
5.35425e-19
-6.79389e-19
8.00252e-19
-9.5997e-19
1.08663e-18
-1.23853e-18
1.32141e-18
-1.4404e-18
1.44023e-18
-1.51046e-18
1.43232e-18
-1.44895e-18
1.32876e-18
-1.29537e-18
1.16939e-18
-1.09572e-18
9.84211e-19
-8.84179e-19
7.93937e-19
-6.82326e-19
6.14212e-19
-5.03554e-19
4.56331e-19
-3.55395e-19
3.26512e-19
-2.40203e-19
2.26058e-19
-1.56017e-19
1.52715e-19
-9.8255e-20
1.03216e-19
-6.2513e-20
7.92203e-20
-5.11554e-20
1.07604e-19
-9.64412e-20
3.14612e-19
-3.44797e-19
1.16627e-18
-1.32281e-18
4.09916e-18
-4.59748e-18
1.27279e-17
-1.38904e-17
3.43362e-17
-3.60458e-17
7.98195e-17
-7.95947e-17
1.6206e-16
-1.52201e-16
2.94431e-16
-2.59322e-16
4.909e-16
-4.06407e-16
7.64842e-16
-5.97677e-16
1.12192e-15
-8.61652e-16
2.75904e-15
-1.53167e-15
6.85972e-15
-3.40611e-15
-7.7948e-15
-1.32052e-27
-1.01587e-27
-1.32721e-27
-4.67369e-26
9.4542e-26
-7.66067e-25
1.593e-24
-7.25018e-24
1.40901e-23
-4.84801e-23
8.80122e-23
-2.48639e-22
4.24105e-22
-1.02001e-21
1.64165e-21
-3.44189e-21
5.2419e-21
-9.76138e-21
1.41123e-20
-2.37105e-20
3.26856e-20
-5.02092e-20
6.64324e-20
-9.43481e-20
1.20688e-19
-1.59989e-19
1.99531e-19
-2.48171e-19
3.02031e-19
-3.53662e-19
4.15741e-19
-4.60354e-19
5.14058e-19
-5.4312e-19
5.71457e-19
-5.81255e-19
5.79723e-19
-5.70424e-19
5.4703e-19
-5.20792e-19
4.87675e-19
-4.47732e-19
4.14332e-19
-3.6503e-19
3.36466e-19
-2.8299e-19
2.6127e-19
-2.08736e-19
1.94075e-19
-1.46563e-19
1.38139e-19
-9.81163e-20
9.45743e-20
-6.28619e-20
6.28487e-20
-3.90255e-20
4.22475e-20
-2.54072e-20
3.65768e-20
-2.69282e-20
7.30596e-20
-7.73098e-20
2.77132e-19
-3.284e-19
1.12954e-18
-1.34957e-18
4.17557e-18
-4.91311e-18
1.34314e-17
-1.5392e-17
3.71357e-17
-4.10739e-17
8.74095e-17
-9.21047e-17
1.78211e-16
-1.77455e-16
3.23754e-16
-3.03752e-16
5.40947e-16
-4.80184e-16
8.48041e-16
-7.15472e-16
1.41935e-15
-1.17129e-15
3.62233e-15
-2.14492e-15
1.05093e-14
-5.59099e-15
-1.24841e-14
2.79766e-29
-8.73586e-28
1.93652e-27
-1.66501e-26
4.73849e-26
-2.52817e-25
5.99667e-25
-2.35312e-24
4.99851e-24
-1.5685e-23
3.06782e-23
-8.04346e-23
1.46543e-22
-3.30482e-22
5.64308e-22
-1.11923e-21
1.79841e-21
-3.19435e-21
4.84945e-21
-7.83134e-21
1.12887e-20
-1.67818e-20
2.31311e-20
-3.19562e-20
4.24854e-20
-5.4874e-20
7.09792e-20
-8.58842e-20
1.08423e-19
-1.23049e-19
1.50668e-19
-1.61095e-19
1.89115e-19
-1.92222e-19
2.14709e-19
-2.094e-19
2.22994e-19
-2.09837e-19
2.15045e-19
-1.95397e-19
1.94983e-19
-1.7056e-19
1.67474e-19
-1.40324e-19
1.36689e-19
-1.09102e-19
1.06115e-19
-8.02689e-20
7.84218e-20
-5.59579e-20
5.52763e-20
-3.70471e-20
3.73098e-20
-2.34053e-20
2.44204e-20
-1.44194e-20
1.67771e-20
-1.02469e-20
1.8782e-20
-1.67397e-20
5.70138e-20
-6.8096e-20
2.5632e-19
-3.22212e-19
1.11583e-18
-1.39833e-18
4.30654e-18
-5.31069e-18
1.43123e-17
-1.7227e-17
4.05338e-17
-4.7288e-17
9.64914e-17
-1.07558e-16
1.97374e-16
-2.08568e-16
3.5867e-16
-3.58472e-16
6.01856e-16
-5.70866e-16
9.51703e-16
-8.77654e-16
2.16675e-15
-1.67573e-15
6.10582e-15
-3.74575e-15
1.62114e-14
-9.80691e-15
-2.0583e-14
2.30777e-29
-2.50144e-28
6.67974e-28
-4.73441e-27
1.51575e-26
-7.21906e-26
1.88622e-25
-6.75335e-25
1.56774e-24
-4.52829e-24
9.6247e-24
-2.33853e-23
4.60621e-23
-9.69214e-23
1.78082e-22
-3.31821e-22
5.71328e-22
-9.59651e-22
1.55547e-21
-2.389e-21
3.66546e-21
-5.20414e-21
7.61406e-21
-1.00666e-20
1.41674e-20
-1.75062e-20
2.38923e-20
-2.762e-20
3.67095e-20
-3.97406e-20
5.13322e-20
-5.22511e-20
6.51984e-20
-6.28556e-20
7.53857e-20
-6.937e-20
7.99897e-20
-7.06125e-20
7.87153e-20
-6.67339e-20
7.24986e-20
-5.89005e-20
6.28615e-20
-4.8749e-20
5.14672e-20
-3.79297e-20
3.98553e-20
-2.77947e-20
2.92392e-20
-1.92214e-20
2.03736e-20
-1.25808e-20
1.3551e-20
-7.84856e-21
8.79327e-21
-4.88927e-21
6.58559e-21
-4.38665e-21
1.13455e-20
-1.23948e-20
4.87033e-20
-6.32438e-20
2.43342e-19
-3.21773e-19
1.11577e-18
-1.46485e-18
4.47936e-18
-5.79426e-18
1.5365e-17
-1.94668e-17
4.46106e-17
-5.50385e-17
1.07333e-16
-1.26846e-16
2.20157e-16
-2.47232e-16
4.00197e-16
-4.26262e-16
6.73897e-16
-6.8188e-16
1.19861e-15
-1.21646e-15
3.17643e-15
-2.36267e-15
1.05095e-14
-7.16995e-15
2.58722e-14
-1.73526e-14
-3.1236e-14
6.3518e-30
-6.16707e-29
1.83917e-28
-1.16479e-27
4.19333e-27
-1.79095e-26
5.24327e-26
-1.69162e-25
4.38467e-25
-1.14674e-24
2.71159e-24
-5.99565e-24
1.30938e-23
-2.52015e-23
5.11877e-23
-8.76682e-23
1.66453e-22
-2.58053e-22
4.60293e-22
-6.54437e-22
1.10295e-21
-1.45183e-21
2.32805e-21
-2.85422e-21
4.38834e-21
-5.02675e-21
7.46275e-21
-7.99847e-21
1.15191e-20
-1.15706e-20
1.61823e-20
-1.52851e-20
2.07286e-20
-1.85051e-20
2.42902e-20
-2.0606e-20
2.61895e-20
-2.11912e-20
2.61645e-20
-2.0215e-20
2.43728e-20
-1.79576e-20
2.12629e-20
-1.49007e-20
1.74219e-20
-1.15763e-20
1.34357e-20
-8.43825e-21
9.77485e-21
-5.78475e-21
6.72981e-21
-3.74289e-21
4.41657e-21
-2.31574e-21
2.89489e-21
-1.54337e-21
2.73368e-21
-2.25822e-21
8.13283e-21
-1.0407e-20
4.37092e-20
-6.03785e-20
2.34324e-19
-3.24971e-19
1.12438e-18
-1.54814e-18
4.68897e-18
-6.38109e-18
1.66113e-17
-2.22389e-17
4.95259e-17
-6.48352e-17
1.20361e-16
-1.51175e-16
2.47343e-16
-2.95477e-16
4.49546e-16
-5.11107e-16
7.5786e-16
-8.39177e-16
1.92495e-15
-1.82315e-15
6.18171e-15
-4.61964e-15
1.84621e-14
-1.39782e-14
3.82144e-14
-2.76456e-14
-4.11224e-14
1.50718e-30
-1.27011e-29
4.3801e-29
-2.40436e-28
1.00717e-27
-3.74117e-27
1.27102e-26
-3.5815e-26
1.07466e-25
-2.46428e-25
6.72978e-25
-1.30942e-24
3.29637e-24
-5.60106e-24
1.30962e-23
-1.98528e-23
4.33519e-23
-5.95904e-23
1.2215e-22
-1.54113e-22
2.98137e-22
-3.48312e-22
6.39709e-22
-6.96181e-22
1.22146e-21
-1.24294e-21
2.0954e-21
-1.99881e-21
3.25255e-21
-2.91518e-21
4.59197e-21
-3.87765e-21
5.92107e-21
-4.72624e-21
7.002e-21
-5.29984e-21
7.62859e-21
-5.48762e-21
7.69374e-21
-5.26378e-21
7.21372e-21
-4.69076e-21
6.30924e-21
-3.89291e-21
5.16106e-21
-3.01528e-21
3.95804e-21
-2.18442e-21
2.85323e-21
-1.48386e-21
1.94063e-21
-9.49811e-22
1.26197e-21
-5.92218e-22
8.83988e-22
-5.00985e-22
1.35955e-21
-1.50339e-21
6.58667e-21
-9.32822e-21
4.01796e-20
-5.84646e-20
2.27412e-19
-3.30942e-19
1.1394e-18
-1.65081e-18
4.93946e-18
-7.10507e-18
1.81058e-17
-2.57303e-17
5.55144e-17
-7.73297e-17
1.36115e-16
-1.81991e-16
2.79703e-16
-3.55483e-16
5.08542e-16
-6.18981e-16
9.73016e-16
-1.1103e-15
3.00392e-15
-2.59055e-15
1.15525e-14
-9.28402e-15
2.99572e-14
-2.49126e-14
4.94709e-14
-3.8351e-14
-4.93161e-14
2.98936e-31
-2.08297e-30
8.74597e-30
-3.96859e-29
2.03479e-28
-6.26628e-28
2.60131e-27
-6.0979e-27
2.23238e-26
-4.2704e-26
1.42089e-25
-2.31165e-25
7.08339e-25
-1.00819e-24
2.86767e-24
-3.64582e-24
9.68123e-24
-1.11677e-23
2.78209e-23
-2.94666e-23
6.91881e-23
-6.78884e-23
1.5095e-22
-1.38127e-22
2.92224e-22
-2.50579e-22
5.06711e-22
-4.08639e-22
7.93078e-22
-6.03227e-22
1.12754e-21
-8.10821e-22
1.46384e-21
-9.97294e-22
1.74336e-21
-1.12713e-21
1.91239e-21
-1.17458e-21
1.93932e-21
-1.13187e-21
1.82389e-21
-1.01105e-21
1.59517e-21
-8.38924e-22
1.30057e-21
-6.47893e-22
9.9087e-22
-4.66652e-22
7.07371e-22
-3.14317e-22
4.7561e-22
-2.00002e-22
3.11394e-22
-1.34406e-22
2.76554e-22
-2.11495e-22
8.71171e-22
-1.2019e-21
5.67395e-21
-8.59176e-21
3.73267e-20
-5.7082e-20
2.21771e-19
-3.39787e-19
1.16106e-18
-1.77931e-18
5.24431e-18
-8.01537e-18
1.99284e-17
-3.01693e-17
6.28355e-17
-9.32389e-17
1.55114e-16
-2.20804e-16
3.17728e-16
-4.29554e-16
5.80012e-16
-7.56156e-16
1.46815e-15
-1.66294e-15
5.78873e-15
-4.80875e-15
2.04602e-14
-1.79786e-14
4.17407e-14
-3.66139e-14
5.88657e-14
-5.13984e-14
-6.41119e-14
4.72151e-32
-2.51773e-31
1.39489e-30
-4.8528e-30
3.29171e-29
-7.79522e-29
4.27525e-28
-7.73201e-28
3.73395e-27
-5.52568e-27
2.42125e-26
-3.0546e-26
1.23073e-25
-1.36126e-25
5.08355e-25
-5.032e-25
1.75145e-24
-1.57591e-24
5.13522e-24
-4.2508e-24
1.3019e-23
-1.00076e-23
2.89153e-23
-2.07921e-23
5.68808e-23
-3.84778e-23
1.00022e-22
-6.39298e-23
1.58455e-22
-9.60069e-23
2.27644e-22
-1.31066e-22
2.98233e-22
-1.6344e-22
3.57951e-22
-1.86915e-22
3.95137e-22
-1.96694e-22
4.02481e-22
-1.90978e-22
3.79328e-22
-1.71472e-22
3.3159e-22
-1.42643e-22
2.69444e-22
-1.1013e-22
2.03984e-22
-7.90608e-23
1.44295e-22
-5.29833e-23
9.63641e-23
-3.43463e-23
6.79332e-23
-3.25615e-23
1.12095e-22
-1.3228e-22
6.67814e-22
-1.03646e-21
5.00351e-21
-7.99865e-21
3.4835e-20
-5.61368e-20
2.17254e-19
-3.52415e-19
1.19172e-18
-1.94291e-18
5.6223e-18
-9.16708e-18
2.21575e-17
-3.57804e-17
7.1682e-17
-1.13218e-16
1.77648e-16
-2.68905e-16
3.61571e-16
-5.20415e-16
7.51374e-16
-9.55359e-16
2.39035e-15
-2.45206e-15
1.0061e-14
-9.04484e-15
3.17781e-14
-3.07183e-14
5.06825e-14
-4.41325e-14
7.48719e-14
-6.10478e-14
-2.30781e-13
5.49337e-33
-1.9637e-32
1.64563e-31
-3.8649e-31
3.94821e-30
-6.34274e-30
5.22362e-29
-6.4433e-29
4.65509e-28
-4.72252e-28
3.08248e-27
-2.67971e-27
1.60095e-26
-1.22671e-26
6.75949e-26
-4.66091e-26
2.38098e-25
-1.50097e-25
7.13636e-25
-4.1639e-25
1.84873e-24
-1.00815e-24
4.19269e-24
-2.15336e-24
8.41308e-24
-4.0945e-24
1.50713e-23
-6.98383e-24
2.42873e-23
-1.07549e-23
3.54343e-23
-1.50354e-23
4.70572e-23
-1.91688e-23
5.71404e-23
-2.23704e-23
6.36797e-23
-2.39703e-23
6.53344e-23
-2.364e-23
6.18704e-23
-2.14998e-23
5.41968e-23
-1.80596e-23
4.40022e-23
-1.40302e-23
3.31805e-23
-1.01005e-23
2.33348e-23
-6.82389e-24
1.58616e-23
-5.17703e-24
1.5758e-23
-1.28845e-23
6.70494e-23
-1.03113e-22
5.50015e-22
-9.13744e-22
4.44223e-21
-7.49546e-21
3.26178e-20
-5.57184e-20
2.14166e-19
-3.70156e-19
1.23454e-18
-2.15072e-18
6.08833e-18
-1.06043e-17
2.48307e-17
-4.27243e-17
8.20718e-17
-1.37719e-16
2.03553e-16
-3.27041e-16
4.11242e-16
-6.3016e-16
9.04809e-16
-1.33853e-15
3.5557e-15
-3.44989e-15
1.7079e-14
-1.60372e-14
4.03207e-14
-4.35112e-14
5.40466e-14
-4.92917e-14
1.09375e-13
-6.60536e-14
-6.94734e-13
4.11958e-34
-7.61876e-34
1.26203e-32
-1.56662e-32
3.09109e-31
-2.65771e-31
4.18584e-30
-2.80041e-30
3.8251e-29
-2.13258e-29
2.59972e-28
-1.25888e-28
1.38687e-27
-6.00174e-28
6.01815e-27
-2.37722e-27
2.17959e-26
-7.98714e-27
6.71807e-26
-2.31319e-26
1.78961e-25
-5.84922e-26
4.17205e-25
-1.30502e-25
8.60043e-25
-2.59163e-25
1.58141e-24
-4.61477e-25
2.61279e-24
-7.41336e-25
3.90273e-24
-1.07989e-24
5.29745e-24
-1.43231e-24
6.56205e-24
-1.73544e-24
7.44369e-24
-1.92569e-24
7.75399e-24
-1.96045e-24
7.43404e-24
-1.83347e-24
6.57172e-24
-1.5766e-24
5.36522e-24
-1.24763e-24
4.05401e-24
-9.13404e-25
2.8717e-24
-6.72294e-25
2.28225e-24
-1.12089e-24
5.94561e-24
-8.47279e-24
4.97749e-23
-8.53127e-23
4.61161e-22
-8.11479e-22
3.95318e-21
-7.08191e-21
3.06956e-20
-5.59754e-20
2.12917e-19
-3.94045e-19
1.29116e-18
-2.40721e-18
6.64156e-18
-1.23409e-17
2.79047e-17
-5.10418e-17
9.37653e-17
-1.66889e-16
2.32026e-16
-3.9505e-16
4.6572e-16
-7.52242e-16
1.48821e-15
-1.86484e-15
5.82775e-15
-5.80173e-15
2.54252e-14
-2.55788e-14
4.37799e-14
-5.37316e-14
5.42657e-14
-5.58311e-14
1.54443e-13
-7.91084e-14
-8.13542e-13
1.53417e-35
-8.08461e-36
4.91434e-34
-1.82245e-34
1.24324e-32
-3.29691e-33
1.74519e-31
-3.72923e-32
1.6567e-30
-3.06101e-31
1.17124e-29
-1.95425e-30
6.50636e-29
-1.01098e-29
2.94288e-28
-4.35814e-29
1.11184e-27
-1.59775e-28
3.57709e-27
-5.05932e-28
9.95011e-27
-1.40064e-27
2.42247e-26
-3.42325e-27
5.21432e-26
-7.44476e-27
1.00067e-25
-1.44997e-26
1.72414e-25
-2.54204e-26
2.68253e-25
-4.02806e-26
3.78665e-25
-5.78706e-26
4.86783e-25
-7.55535e-26
5.71541e-25
-8.97731e-26
6.14241e-25
-9.71677e-26
6.05196e-25
-9.58447e-26
5.47291e-25
-8.61789e-26
4.54774e-25
-7.08299e-26
3.49148e-25
-5.59668e-26
2.69183e-25
-7.93274e-26
4.69636e-25
-5.71593e-25
3.71158e-24
-6.50706e-24
3.90442e-23
-7.14133e-23
3.87743e-22
-7.26048e-22
3.53089e-21
-6.76841e-21
2.91048e-20
-5.69732e-20
2.13561e-19
-4.23955e-19
1.3592e-18
-2.70799e-18
7.25592e-18
-1.43459e-17
3.12349e-17
-6.06267e-17
1.06244e-16
-2.00544e-16
2.61517e-16
-4.71556e-16
5.96293e-16
-9.29019e-16
2.17319e-15
-2.64298e-15
8.95601e-15
-9.62304e-15
3.34453e-14
-3.63608e-14
4.8481e-14
-6.54056e-14
5.7932e-14
-6.78756e-14
1.65222e-13
-9.26428e-14
-4.38946e-13
1.55905e-37
-5.78657e-38
5.47681e-36
-1.43608e-36
1.47626e-34
-2.78058e-35
2.2233e-33
-3.38249e-34
2.2745e-32
-2.99202e-33
1.73885e-31
-2.06131e-32
1.04798e-30
-1.15202e-31
5.15795e-30
-5.36985e-31
2.1259e-29
-2.12987e-30
7.47647e-29
-7.29877e-30
2.2763e-28
-2.18612e-29
6.06909e-28
-5.77636e-29
1.43014e-27
-1.35645e-28
3.00088e-27
-2.84761e-28
5.6404e-27
-5.36896e-28
9.54195e-27
-9.1234e-28
1.45826e-26
-1.40078e-27
2.01881e-26
-1.94637e-27
2.53662e-26
-2.44941e-27
2.89638e-26
-2.79203e-27
3.00756e-26
-2.88188e-27
2.84159e-26
-2.69867e-27
2.45016e-26
-2.40692e-27
2.02821e-26
-3.80945e-27
3.00799e-26
-3.10824e-26
2.26537e-25
-4.04727e-25
2.69292e-24
-5.10782e-24
3.08345e-23
-6.01968e-23
3.26825e-22
-6.56792e-22
3.17419e-21
-6.55094e-21
2.78189e-20
-5.85677e-20
2.15403e-19
-4.5798e-19
1.43084e-18
-3.03789e-18
7.87828e-18
-1.65422e-17
3.45845e-17
-7.12378e-17
1.18767e-16
-2.38224e-16
2.89769e-16
-5.53866e-16
6.9693e-16
-1.17632e-15
2.94511e-15
-3.60887e-15
1.3232e-14
-1.48829e-14
4.06087e-14
-4.89349e-14
5.51393e-14
-8.18774e-14
6.39688e-14
-8.89855e-14
1.30163e-13
-1.21432e-13
-3.68569e-13
1.06558e-39
-9.54667e-41
4.1215e-38
-2.63829e-39
1.1881e-36
-5.52747e-38
1.92328e-35
-7.32726e-37
2.12001e-34
-7.09298e-36
1.74868e-33
-5.36769e-35
1.13835e-32
-3.30666e-34
6.05678e-32
-1.70417e-33
2.70008e-31
-7.49366e-33
1.02734e-30
-2.85277e-32
3.38289e-30
-9.50704e-32
9.74735e-30
-2.79725e-31
2.47912e-29
-7.31419e-31
5.60443e-29
-1.70805e-30
1.13228e-28
-3.57517e-30
2.05299e-28
-6.72363e-30
3.35091e-28
-1.13766e-29
4.93382e-28
-1.7326e-29
6.56086e-28
-2.37377e-29
7.88294e-28
-2.92335e-29
8.55791e-28
-3.25215e-29
8.4127e-28
-3.65982e-29
7.86337e-28
-1.09542e-28
1.30234e-27
-1.34958e-27
1.1105e-26
-2.04691e-26
1.5094e-25
-2.96624e-25
1.9864e-24
-4.03643e-24
2.43887e-23
-5.12774e-23
2.76991e-22
-6.0136e-22
2.87366e-21
-6.39765e-21
2.67041e-20
-6.03582e-20
2.16902e-19
-4.92439e-19
1.49349e-18
-3.37256e-18
8.43635e-18
-1.88182e-17
3.76633e-17
-8.25445e-17
1.30481e-16
-2.79301e-16
3.14071e-16
-6.38197e-16
1.00088e-15
-1.55602e-15
4.36395e-15
-5.4027e-15
1.77835e-14
-2.13398e-14
4.80458e-14
-6.5892e-14
6.52021e-14
-1.01078e-13
8.2784e-14
-1.14229e-13
2.05788e-13
-1.8107e-13
-9.40969e-13
1.67297e-42
-1.38059e-43
7.20595e-41
-4.15524e-42
2.24608e-39
-9.19594e-41
3.96018e-38
-1.29038e-39
4.77632e-37
-1.32047e-38
4.32685e-36
-1.05429e-37
3.10399e-35
-6.83898e-37
1.82552e-34
-3.70413e-36
9.01927e-34
-1.70809e-35
3.81085e-33
-6.80351e-35
1.39562e-32
-2.36641e-34
4.47574e-32
-7.24777e-34
1.26687e-31
-1.96742e-33
3.18398e-31
-4.75522e-33
7.13679e-31
-1.02679e-32
1.4311e-30
-1.98518e-32
2.57223e-30
-3.44063e-32
4.14761e-30
-5.34804e-32
5.99912e-30
-7.476e-32
7.77988e-30
-9.923e-32
9.09346e-30
-2.34938e-31
1.07305e-29
-2.68756e-30
3.36182e-29
-4.80329e-29
4.32859e-28
-8.40243e-28
6.85162e-27
-1.39504e-26
1.03493e-25
-2.18637e-25
1.46631e-24
-3.22135e-24
1.93753e-23
-4.41703e-23
2.36132e-22
-5.54742e-22
2.60846e-21
-6.25089e-21
2.55336e-20
-6.17577e-20
2.15986e-19
-5.22595e-19
1.53258e-18
-3.68319e-18
8.85364e-18
-2.10477e-17
4.01787e-17
-9.41826e-17
1.40543e-16
-3.23067e-16
3.31714e-16
-7.21815e-16
1.25929e-15
-2.13819e-15
5.90956e-15
-7.92532e-15
2.25645e-14
-2.98731e-14
5.5016e-14
-8.45779e-14
7.33148e-14
-1.13759e-13
1.22862e-13
-1.5474e-13
4.29941e-13
-4.29628e-13
-3.44118e-12
2.29325e-45
-2.6089e-48
1.07594e-43
-8.10265e-47
3.54046e-42
-1.80944e-45
6.60492e-41
-2.57238e-44
8.41972e-40
-2.67346e-43
8.04563e-39
-2.17298e-42
6.076e-38
-1.43895e-41
3.75413e-37
-7.98226e-41
1.9443e-36
-3.78504e-40
8.59139e-36
-1.5574e-39
3.28218e-35
-5.62511e-39
1.09505e-34
-1.80017e-38
3.21572e-34
-5.14364e-38
8.35887e-34
-1.32101e-37
1.93133e-33
-3.07093e-37
3.97801e-33
-6.56647e-37
7.31699e-33
-1.46008e-36
1.20297e-32
-7.38247e-36
1.77342e-32
-1.30216e-34
2.47584e-32
-2.97732e-33
6.15117e-32
-6.59695e-32
7.36863e-31
-1.39654e-30
1.37653e-29
-2.79072e-29
2.51279e-28
-5.2934e-28
4.34711e-27
-9.54153e-27
7.08968e-26
-1.6254e-25
1.08572e-24
-2.59539e-24
1.5457e-23
-3.82427e-23
2.01366e-22
-5.10438e-22
2.35156e-21
-6.04404e-21
2.40591e-20
-6.21567e-20
2.10668e-19
-5.43783e-19
1.53527e-18
-3.94227e-18
9.06508e-18
-2.31109e-17
4.188e-17
-1.05798e-16
1.48196e-16
-3.68749e-16
3.4125e-16
-8.22289e-16
1.63662e-15
-2.62179e-15
7.79561e-15
-1.1327e-14
2.77388e-14
-4.18745e-14
5.80289e-14
-9.74497e-14
8.1975e-14
-1.20477e-13
2.50236e-13
-2.91559e-13
1.21564e-12
-1.31591e-12
-1.16432e-11
4.08914e-50
-5.00729e-54
1.98077e-48
-1.94587e-52
6.57409e-47
-5.27956e-51
1.24207e-45
-9.21866e-50
1.60778e-44
-1.18814e-48
1.56363e-43
-1.21073e-47
1.20505e-42
-1.01777e-46
7.62258e-42
-7.2738e-46
4.05756e-41
-4.52661e-45
1.85109e-40
-2.50564e-44
7.33882e-40
-1.26043e-43
2.55658e-39
-5.90584e-43
7.89641e-39
-2.68231e-42
2.17914e-38
-1.35001e-41
5.4155e-38
-1.21307e-40
1.23239e-37
-2.53381e-39
2.90493e-37
-7.0955e-38
1.5517e-36
-1.99074e-36
2.88261e-35
-5.33572e-35
6.92284e-34
-1.35535e-33
1.60725e-32
-3.2462e-32
3.55738e-31
-7.43588e-31
7.41798e-30
-1.61347e-29
1.46568e-28
-3.33952e-28
2.74778e-27
-6.5667e-27
4.86155e-26
-1.21612e-25
8.05237e-25
-2.09357e-24
1.22939e-23
-3.28833e-23
1.69851e-22
-4.62744e-22
2.07991e-21
-5.72432e-21
2.21026e-20
-6.11012e-20
1.9966e-19
-5.5247e-19
1.49351e-18
-4.12821e-18
9.02752e-18
-2.49069e-17
4.25787e-17
-1.17058e-16
1.52776e-16
-4.15408e-16
4.26841e-16
-9.48486e-16
1.97688e-15
-3.45591e-15
9.89121e-15
-1.58102e-14
3.28569e-14
-5.75003e-14
5.82666e-14
-1.02551e-13
1.12823e-13
-1.47085e-13
6.51733e-13
-7.4886e-13
3.57233e-12
-4.08684e-12
-3.34994e-11
7.36793e-56
-3.14542e-58
4.47086e-54
-1.47628e-56
1.80245e-52
-4.70812e-55
4.18129e-51
-9.76298e-54
6.71059e-50
-1.51047e-52
8.1796e-49
-1.87632e-51
7.99901e-48
-1.9675e-50
6.51542e-47
-1.81318e-49
4.54895e-46
-1.52208e-48
2.78995e-45
-1.20827e-47
1.53932e-44
-9.70917e-47
7.84466e-44
-9.98611e-46
3.84772e-43
-1.95196e-44
2.07874e-42
-6.23625e-43
1.99456e-41
-2.20703e-41
4.42838e-40
-7.57246e-40
1.31286e-38
-2.46252e-38
3.88568e-37
-7.54591e-37
1.09518e-35
-2.18818e-35
2.91713e-34
-6.02808e-34
7.30772e-33
-1.56919e-32
1.74683e-31
-3.92004e-31
3.94727e-30
-9.31265e-30
8.49245e-29
-2.11145e-28
1.73296e-27
-4.52491e-27
3.32555e-26
-9.05634e-26
5.92434e-25
-1.66684e-24
9.6179e-24
-2.76941e-23
1.39748e-22
-4.08735e-22
1.7833e-21
-5.26955e-21
1.96199e-20
-5.84026e-20
1.82722e-19
-5.4687e-19
1.4054e-18
-4.22766e-18
8.72262e-18
-2.6358e-17
4.21452e-17
-1.27622e-16
1.53659e-16
-4.61752e-16
4.4318e-16
-1.0812e-15
2.3609e-15
-4.47269e-15
1.21051e-14
-2.13761e-14
3.67126e-14
-7.51016e-14
6.77511e-14
-1.15702e-13
2.53408e-13
-2.88079e-13
1.96767e-12
-2.30116e-12
1.16405e-11
-1.32166e-11
-9.47534e-11
4.31997e-60
-3.7929e-62
3.17314e-58
-2.19687e-60
1.50368e-56
-8.53262e-59
4.14116e-55
-2.21368e-57
7.976e-54
-4.43611e-56
1.18465e-52
-7.4429e-55
1.44434e-51
-1.10522e-53
1.51605e-50
-1.53641e-52
1.42676e-49
-2.28852e-51
1.25387e-48
-5.00375e-50
1.10408e-47
-1.82437e-48
1.23381e-46
-8.20522e-47
2.60155e-45
-3.68508e-45
8.9107e-44
-1.56745e-43
3.36278e-42
-6.25442e-42
1.22459e-40
-2.34182e-40
4.20915e-39
-8.27687e-39
1.35826e-37
-2.76082e-37
4.13404e-36
-8.7026e-36
1.19178e-34
-2.61972e-34
3.23781e-33
-7.47815e-33
8.42108e-32
-2.05033e-31
2.07823e-30
-5.35355e-30
4.8852e-29
-1.32564e-28
1.08345e-27
-3.07761e-27
2.24054e-26
-6.60252e-26
4.25471e-25
-1.28998e-24
7.28438e-24
-2.25729e-23
1.10662e-22
-3.48866e-22
1.46714e-21
-4.69186e-21
1.67082e-20
-5.41513e-20
1.60659e-19
-5.27057e-19
1.27474e-18
-4.23554e-18
8.15369e-18
-2.74034e-17
4.04891e-17
-1.37085e-16
1.50195e-16
-5.05935e-16
4.47812e-16
-1.21566e-15
2.72389e-15
-5.64887e-15
1.40942e-14
-2.76499e-14
4.2118e-14
-9.23514e-14
1.12549e-13
-1.87161e-13
6.53276e-13
-5.66113e-13
6.72651e-12
-9.12378e-12
3.34081e-11
-3.27388e-11
-2.94609e-10
4.83148e-64
-7.74494e-66
4.39729e-62
-5.7794e-64
2.53795e-60
-2.88572e-62
8.7409e-59
-9.99957e-61
2.17969e-57
-2.82237e-59
4.37016e-56
-7.65916e-58
7.54002e-55
-2.65151e-56
1.19289e-53
-1.37402e-54
1.99018e-52
-8.60657e-53
4.81244e-51
-5.36289e-51
1.92053e-49
-3.11151e-49
9.37317e-48
-1.67144e-47
4.53474e-46
-8.32076e-46
2.06476e-44
-3.86667e-44
8.77097e-43
-1.6856e-42
3.4793e-41
-6.88916e-41
1.29721e-39
-2.65622e-39
4.54687e-38
-9.7162e-38
1.50085e-36
-3.35863e-36
4.71609e-35
-1.11332e-34
1.40123e-33
-3.50665e-33
3.98825e-32
-1.05609e-31
1.07845e-30
-3.02349e-30
2.75953e-29
-8.12112e-29
6.60705e-28
-2.02794e-27
1.4592e-26
-4.63645e-26
2.93026e-25
-9.58268e-25
5.26285e-24
-1.76532e-23
8.33835e-23
-2.86173e-22
1.1485e-21
-4.02981e-21
1.35649e-20
-4.86582e-20
1.35038e-19
-4.94674e-19
1.10958e-18
-4.15318e-18
7.33939e-18
-2.79849e-17
3.754e-17
-1.44888e-16
1.41701e-16
-5.45445e-16
4.36689e-16
-1.34422e-15
2.97983e-15
-6.86915e-15
1.56705e-14
-3.41109e-14
5.54797e-14
-1.14005e-13
3.44197e-13
-4.33574e-13
2.28643e-12
-2.40969e-12
2.73713e-11
-2.46093e-11
1.12408e-10
-1.09633e-10
-8.61906e-10
9.09143e-68
-2.8475e-69
1.07303e-65
-3.12142e-67
7.95983e-64
-2.53792e-65
3.65875e-62
-1.98049e-63
1.28413e-60
-1.87775e-61
4.16083e-59
-1.925e-59
1.67207e-57
-1.84946e-57
9.85086e-56
-1.59287e-55
6.9033e-54
-1.22741e-53
4.75128e-52
-8.55636e-52
3.01312e-50
-5.44579e-50
1.75373e-48
-3.202e-48
9.38893e-47
-1.74993e-46
4.66189e-45
-8.90416e-45
2.15917e-43
-4.25659e-43
9.32861e-42
-1.91718e-41
3.78506e-40
-8.12125e-40
1.45107e-38
-3.28248e-38
5.23746e-37
-1.25335e-36
1.80661e-35
-4.59296e-35
5.90268e-34
-1.59693e-33
1.83869e-32
-5.26292e-32
5.42998e-31
-1.64213e-30
1.50075e-29
-4.76047e-29
3.84734e-28
-1.2724e-27
9.01151e-27
-3.09563e-26
1.90456e-25
-6.77084e-25
3.58186e-24
-1.31696e-23
5.91946e-23
-2.24867e-22
8.4881e-22
-3.33519e-21
1.04277e-20
-4.23651e-20
1.07807e-19
-4.52358e-19
9.20355e-19
-3.98494e-18
6.30779e-18
-2.80294e-17
3.32421e-17
-1.50273e-16
1.27538e-16
-5.77092e-16
4.05282e-16
-1.45651e-15
3.02093e-15
-7.91845e-15
1.67012e-14
-4.03731e-14
7.89649e-14
-1.45728e-13
6.83849e-13
-6.88412e-13
5.54304e-12
-6.21992e-12
4.96994e-11
-4.01199e-11
2.43958e-10
-2.82122e-10
-1.75977e-09
3.06347e-71
-4.20794e-72
5.36202e-69
-1.68762e-69
6.46833e-67
-4.74762e-67
6.68561e-65
-9.50135e-65
7.87251e-63
-1.47778e-62
9.62457e-61
-1.87897e-60
1.07202e-58
-2.03104e-58
1.04827e-56
-1.91913e-56
9.02403e-55
-1.61846e-54
6.93748e-53
-1.23827e-52
4.81797e-51
-8.67709e-51
3.06362e-49
-5.60197e-49
1.7969e-47
-3.37579e-47
9.74735e-46
-1.90212e-45
4.93839e-44
-1.00213e-43
2.34488e-42
-5.00652e-42
1.04217e-40
-2.34899e-40
4.4002e-39
-1.05354e-38
1.74799e-37
-4.45662e-37
6.63932e-36
-1.80489e-35
2.38422e-34
-6.90584e-34
8.08874e-33
-2.48172e-32
2.58997e-31
-8.39304e-31
7.68227e-30
-2.62377e-29
2.09515e-28
-7.50056e-28
5.18767e-27
-1.94565e-26
1.15203e-25
-4.52115e-25
2.27013e-24
-9.33569e-24
3.91966e-23
-1.69012e-22
5.86948e-22
-2.65927e-21
7.51883e-21
-3.57452e-20
8.09087e-20
-4.02973e-19
7.18259e-19
-3.73459e-18
5.09458e-18
-2.74395e-17
2.75854e-17
-1.52287e-16
1.07263e-16
-5.96954e-16
3.49478e-16
-1.53979e-15
2.73781e-15
-8.54309e-15
1.64397e-14
-4.57311e-14
1.17693e-13
-1.99507e-13
1.17694e-12
-1.23482e-12
1.03065e-11
-1.00816e-11
6.20734e-11
-6.95595e-11
4.72638e-10
-4.5612e-10
-2.4154e-09
4.13794e-74
-1.59422e-73
2.68127e-71
-9.50588e-71
1.11505e-68
-3.15909e-68
2.94756e-66
-7.02077e-66
5.68206e-64
-1.19035e-63
8.60014e-62
-1.64875e-61
1.07587e-59
-1.9498e-59
1.15216e-57
-2.02718e-57
1.08349e-55
-1.88479e-55
9.12407e-54
-1.58744e-53
6.96171e-52
-1.232e-51
4.84942e-50
-8.85091e-50
3.12831e-48
-5.90443e-48
1.87392e-46
-3.70241e-46
1.04311e-44
-2.17081e-44
5.4752e-43
-1.20641e-42
2.68515e-41
-6.30711e-41
1.25282e-39
-3.14132e-39
5.48833e-38
-1.47208e-37
2.29208e-36
-6.58308e-36
9.0068e-35
-2.76757e-34
3.31111e-33
-1.08442e-32
1.14118e-31
-3.96661e-31
3.62217e-30
-1.33933e-29
1.04757e-28
-4.11171e-28
2.7396e-27
-1.14212e-26
6.39663e-26
-2.83977e-25
1.3229e-24
-6.27391e-24
2.39164e-23
-1.21495e-22
3.74787e-22
-2.04172e-21
5.00609e-21
-2.92037e-20
5.59931e-20
-3.48915e-19
5.14471e-19
-3.40375e-18
3.74934e-18
-2.61047e-17
2.06812e-17
-1.49865e-16
8.08978e-17
-6.00141e-16
2.09589e-16
-1.52628e-15
2.14095e-15