/*--------------------------------*- C++ -*----------------------------------*\
| =========                 |                                                 |
| \\      /  F ield         | OpenFOAM: The Open Source CFD Toolbox           |
|  \\    /   O peration     | Version:  3.0.1                                 |
|   \\  /    A nd           | Web:      www.OpenFOAM.org                      |
|    \\/     M anipulation  |                                                 |
\*---------------------------------------------------------------------------*/
FoamFile
{
    version     2.0;
    format      ascii;
    class       volScalarField;
    location    "0.3";
    object      alpha.water;
}
// * * * * * * * * * * * * * * * * * * * * * * * * * * * * * * * * * * * * * //

dimensions      [0 0 0 0 0 0 0];

internalField   nonuniform List<scalar> 
1915
(
6.66514e-13
1.11398e-13
-2.35657e-13
-3.093e-13
-2.26204e-13
-1.13456e-13
-3.04772e-14
1.55811e-14
3.63123e-14
4.36419e-14
4.54786e-14
4.75313e-14
5.70034e-14
8.7032e-14
1.61176e-13
3.1651e-13
6.0032e-13
1.0615e-12
1.74402e-12
2.68255e-12
3.89833e-12
5.4225e-12
7.30408e-12
9.65897e-12
1.25084e-11
-1.05806e-17
-3.31727e-17
-1.7191e-16
-4.53023e-16
-7.33954e-16
-8.27378e-16
-2.85643e-16
2.53786e-15
1.20644e-14
3.65306e-14
8.67171e-14
1.79249e-13
3.24284e-13
4.97175e-13
6.59743e-13
7.94746e-13
8.69017e-13
8.62917e-13
7.95659e-13
6.76289e-13
5.07427e-13
3.20149e-13
1.75327e-13
9.49489e-14
6.04476e-14
4.67247e-14
3.93487e-14
3.34412e-14
2.82706e-14
2.40964e-14
2.15043e-14
2.2239e-14
3.13325e-14
6.08006e-14
1.34388e-13
2.91521e-13
5.83833e-13
1.06521e-12
1.78442e-12
2.77889e-12
4.06756e-12
5.67652e-12
7.64811e-12
1.01251e-11
1.29009e-11
-2.48693e-18
-7.71505e-18
-3.80725e-17
-9.48082e-17
-1.38362e-16
-8.45346e-17
3.44e-16
2.03947e-15
7.14372e-15
1.94097e-14
4.37238e-14
8.66311e-14
1.51608e-13
2.30632e-13
3.08596e-13
3.74715e-13
4.12568e-13
4.11813e-13
3.82812e-13
3.35994e-13
2.76238e-13
2.10781e-13
1.51226e-13
1.04514e-13
7.10216e-14
4.80621e-14
3.26792e-14
2.25407e-14
1.59658e-14
1.18649e-14
9.90649e-15
1.12399e-14
2.04319e-14
4.93474e-14
1.22659e-13
2.82752e-13
5.85762e-13
1.08994e-12
1.84748e-12
2.89631e-12
4.25158e-12
5.92841e-12
7.97931e-12
1.04714e-11
1.6234e-11
-4.84003e-19
-1.46211e-18
-6.79064e-18
-1.52514e-17
-1.42352e-17
3.7533e-17
2.86318e-16
1.16174e-15
3.62516e-15
9.30095e-15
2.02919e-14
3.89701e-14
6.6381e-14
1.00433e-13
1.35961e-13
1.67123e-13
1.85582e-13
1.86083e-13
1.72705e-13
1.51601e-13
1.26659e-13
1.00514e-13
7.57532e-14
5.44989e-14
3.77654e-14
2.54757e-14
1.69194e-14
1.12001e-14
7.51105e-15
5.3052e-15
4.55337e-15
6.49056e-15
1.56363e-14
4.40876e-14
1.17976e-13
2.83298e-13
6.00995e-13
1.13322e-12
1.93387e-12
3.0399e-12
4.46404e-12
6.21858e-12
8.47567e-12
1.10074e-11
2.50065e-11
-7.37784e-20
-2.11877e-19
-8.81975e-19
-1.33006e-18
3.21738e-18
3.2097e-17
1.52984e-16
5.5323e-16
1.63435e-15
4.05976e-15
8.67619e-15
1.63192e-14
2.7331e-14
4.13004e-14
5.6679e-14
7.08174e-14
7.96143e-14
8.05239e-14
7.4808e-14
6.53144e-14
5.43275e-14
4.32184e-14
3.28959e-14
2.40021e-14
1.68578e-14
1.14626e-14
7.59887e-15
4.95731e-15
3.2409e-15
2.27243e-15
2.23683e-15
4.432e-15
1.33915e-14
4.16561e-14
1.17308e-13
2.90729e-13
6.2816e-13
1.19534e-12
2.04631e-12
3.21747e-12
4.72296e-12
6.59809e-12
8.93163e-12
1.68134e-11
3.8754e-11
-8.02607e-21
-2.0123e-20
-5.11231e-20
2.31756e-19
2.74682e-18
1.57257e-17
6.72087e-17
2.32076e-16
6.66827e-16
1.62677e-15
3.43392e-15
6.39098e-15
1.06457e-14
1.616e-14
2.24922e-14
2.85587e-14
3.25902e-14
3.34353e-14
3.13817e-14
2.75364e-14
2.29628e-14
1.83388e-14
1.40518e-14
1.03327e-14
7.29912e-15
4.9659e-15
3.26835e-15
2.09798e-15
1.34645e-15
9.8052e-16
1.26248e-15
3.4957e-15
1.22602e-14
4.0732e-14
1.19451e-13
3.04158e-13
6.67064e-13
1.27742e-12
2.18883e-12
3.44227e-12
5.0601e-12
7.00546e-12
1.02111e-11
2.60195e-11
6.04127e-11
-4.90915e-22
-2.71777e-22
1.33333e-20
1.69731e-19
1.20434e-18
6.27896e-18
2.59526e-17
8.79013e-17
2.49346e-16
6.03528e-16
1.26888e-15
2.3596e-15
3.94801e-15
6.04486e-15
8.51405e-15
1.09488e-14
1.26914e-14
1.32654e-14
1.26849e-14
1.13064e-14
9.53761e-15
7.67786e-15
5.91354e-15
4.35808e-15
3.07346e-15
2.07712e-15
1.35003e-15
8.51407e-16
5.42867e-16
4.45529e-16
8.42973e-16
3.02664e-15
1.16677e-14
4.07658e-14
1.23858e-13
3.23292e-13
7.1812e-13
1.38137e-12
2.3675e-12
3.73206e-12
5.52069e-12
7.77274e-12
1.48681e-11
3.73552e-11
8.68583e-11
1.057e-23
4.02032e-22
6.75922e-21
6.45594e-20
4.3145e-19
2.20909e-18
9.04707e-18
3.04697e-17
8.62258e-17
2.08937e-16
4.41269e-16
8.26814e-16
1.39777e-15
2.1612e-15
3.06953e-15
3.9817e-15
4.68099e-15
4.99192e-15
4.88172e-15
4.44174e-15
3.80616e-15
3.09368e-15
2.3918e-15
1.76003e-15
1.2334e-15
8.24496e-16
5.27741e-16
3.27486e-16
2.13221e-16
2.26108e-16
6.49786e-16
2.76394e-15
1.13773e-14
4.14971e-14
1.30264e-13
3.48314e-13
7.82604e-13
1.51061e-12
2.59012e-12
4.1009e-12
6.11897e-12
8.36417e-12
2.27734e-11
5.8237e-11
1.27777e-10
8.84594e-24
1.40601e-22
2.18832e-21
2.05368e-20
1.36793e-19
7.0032e-19
2.87237e-18
9.70849e-18
2.76462e-17
6.76077e-17
1.44476e-16
2.74292e-16
4.69494e-16
7.32316e-16
1.04547e-15
1.36365e-15
1.62093e-15
1.75893e-15
1.75571e-15
1.62852e-15
1.41605e-15
1.16067e-15
8.99202e-16
6.59346e-16
4.58226e-16
3.02518e-16
1.90644e-16
1.17194e-16
8.31234e-17
1.3557e-16
5.50701e-16
2.60246e-15
1.12808e-14
4.27933e-14
1.38644e-13
3.80063e-13
8.63129e-13
1.67073e-12
2.8657e-12
4.55315e-12
6.77796e-12
1.29432e-11
3.68365e-11
9.606e-11
1.89261e-10
2.46777e-24
3.9269e-23
6.13314e-22
5.78006e-21
3.87237e-20
1.99641e-19
8.25927e-19
2.82183e-18
8.14184e-18
2.02155e-17
4.39098e-17
8.46697e-17
1.46746e-16
2.30691e-16
3.30663e-16
4.33024e-16
5.18752e-16
5.70075e-16
5.77757e-16
5.43609e-16
4.77664e-16
3.93581e-16
3.0488e-16
2.22446e-16
1.53181e-16
9.9848e-17
6.20427e-17
3.85008e-17
3.44136e-17
9.68816e-17
4.92535e-16
2.49676e-15
1.13237e-14
4.4617e-14
1.49283e-13
4.20222e-13
9.63945e-13
1.86936e-12
3.20573e-12
5.09876e-12
7.34121e-12
2.28632e-11
6.82862e-11
1.52573e-10
2.51776e-10
5.93339e-25
9.49509e-24
1.4942e-22
1.42066e-21
9.62113e-21
5.02165e-20
2.1068e-19
7.31319e-19
2.14738e-18
5.43093e-18
1.20116e-17
2.35361e-17
4.13028e-17
6.54686e-17
9.43219e-17
1.24068e-16
1.4953e-16
1.65728e-16
1.69613e-16
1.60996e-16
1.42292e-16
1.17459e-16
9.07747e-17
6.58174e-17
4.48799e-17
2.8883e-17
1.7774e-17
1.17819e-17
1.71449e-17
7.85743e-17
4.53285e-16
2.42544e-15
1.14845e-14
4.70351e-14
1.62824e-13
4.71331e-13
1.09075e-12
2.11498e-12
3.6278e-12
5.71836e-12
1.227e-11
4.10965e-11
1.21081e-10
2.15287e-10
2.91243e-10
1.19284e-25
1.9274e-24
3.06686e-23
2.95311e-22
2.02967e-21
1.07658e-20
4.59613e-20
1.62544e-19
4.86644e-19
1.25494e-18
2.82727e-18
5.63121e-18
1.00157e-17
1.60411e-17
2.32937e-17
3.08416e-17
3.74085e-17
4.17351e-17
4.29843e-17
4.10034e-17
3.6331e-17
2.99738e-17
2.30757e-17
1.66131e-17
1.12131e-17
7.13058e-18
4.41627e-18
3.71033e-18
1.10558e-17
6.81006e-17
4.23609e-16
2.37908e-15
1.17701e-14
5.02227e-14
1.80229e-13
5.36487e-13
1.24989e-12
2.41556e-12
4.15934e-12
6.21553e-12
2.17608e-11
7.839e-11
1.86406e-10
2.74279e-10
3.15442e-10
1.91125e-26
3.13035e-25
5.05003e-24
4.93945e-23
3.45493e-22
1.86683e-21
8.12546e-21
2.93146e-20
8.95546e-20
2.35582e-19
5.40942e-19
1.09657e-18
1.98135e-18
3.21719e-18
4.72721e-18
6.3227e-18
7.73614e-18
8.69509e-18
9.0086e-18
8.62834e-18
7.65846e-18
6.31274e-18
4.84184e-18
3.46256e-18
2.31503e-18
1.46181e-18
9.74591e-19
1.521e-18
8.57005e-18
6.07207e-17
3.99694e-16
2.35626e-15
1.22137e-14
5.44344e-14
2.02592e-13
6.18736e-13
1.4471e-12
2.77856e-12
4.66142e-12
1.00557e-11
3.75049e-11
1.37595e-10
2.34626e-10
3.13688e-10
5.97017e-10
2.25897e-27
3.76877e-26
6.17951e-25
6.15655e-24
4.39399e-23
2.42449e-22
1.07819e-21
3.97586e-21
1.24167e-20
3.33865e-20
7.83255e-20
1.62102e-19
2.98722e-19
4.94053e-19
7.38302e-19
1.00261e-18
1.24326e-18
1.4134e-18
1.47802e-18
1.42558e-18
1.27109e-18
1.04969e-18
8.04257e-19
5.72767e-19
3.80652e-19
2.44615e-19
2.29803e-19
9.24745e-19
7.17426e-18
5.47949e-17
3.80417e-16
2.36116e-15
1.28627e-14
5.99305e-14
2.30841e-13
7.2033e-13
1.68599e-12
3.21316e-12
5.58386e-12
1.51731e-11
6.54025e-11
2.0885e-10
2.57159e-10
3.19549e-10
2.29691e-09
1.72425e-28
2.95712e-27
4.94874e-26
5.04623e-25
3.69337e-24
2.09174e-23
9.55464e-23
3.62106e-22
1.1627e-21
3.21486e-21
7.75511e-21
1.64975e-20
3.12302e-20
5.30119e-20
8.12135e-20
1.12904e-19
1.43085e-19
1.65925e-19
1.76595e-19
1.72921e-19
1.56083e-19
1.30069e-19
1.00205e-19
7.15069e-20
4.78659e-20
3.59638e-20
8.86011e-20
7.01548e-19
6.14783e-18
4.98437e-17
3.65994e-16
2.40024e-15
1.37581e-14
6.68731e-14
2.65406e-13
8.42086e-13
1.96671e-12
3.72394e-12
6.39094e-12
2.39171e-11
1.06783e-10
2.67599e-10
2.70236e-10
2.9846e-10
3.84659e-09
6.55231e-30
1.18167e-28
2.04208e-27
2.15857e-26
1.64137e-25
9.67018e-25
4.59988e-24
1.81715e-23
6.08685e-23
1.75679e-22
4.42528e-22
9.83152e-22
1.94338e-21
3.44301e-21
5.50081e-21
7.96583e-21
1.04989e-20
1.26354e-20
1.39201e-20
1.40635e-20
1.30465e-20
1.11229e-20
8.72279e-21
6.32537e-21
4.60907e-21
7.6036e-21
5.68387e-20
5.65647e-19
5.31452e-18
4.57846e-17
3.56995e-16
2.47743e-15
1.49086e-14
7.52296e-14
3.06004e-13
9.83123e-13
2.28463e-12
4.12099e-12
1.03496e-11
3.78388e-11
1.5578e-10
3.08518e-10
3.01603e-10
3.85959e-10
3.33981e-09
6.81571e-32
1.35605e-30
2.49621e-29
2.83094e-28
2.32009e-27
1.47825e-26
7.6295e-26
3.27996e-25
1.19869e-24
3.7822e-24
1.04292e-23
2.53774e-23
5.49232e-23
1.06407e-22
1.85485e-22
2.92106e-22
4.16888e-22
5.40415e-22
6.37265e-22
6.84196e-22
6.69098e-22
5.96152e-22
4.85257e-22
3.79526e-22
5.32157e-22
3.79095e-21
4.26406e-20
4.62077e-19
4.63559e-18
4.26117e-17
3.53424e-16
2.58936e-15
1.62709e-14
8.47244e-14
3.51614e-13
1.14108e-12
2.62975e-12
4.88001e-12
1.46445e-11
5.84409e-11
2.07596e-10
3.62354e-10
3.66065e-10
4.53904e-10
1.55256e-09
4.78605e-34
1.05481e-32
2.0758e-31
2.53047e-30
2.23477e-29
1.53647e-28
8.56639e-28
3.98175e-27
1.57418e-26
5.37469e-26
1.6032e-25
4.21684e-25
9.85277e-25
2.0571e-24
3.85549e-24
6.50955e-24
9.92553e-24
1.36892e-23
1.70904e-23
1.9316e-23
1.97576e-23
1.83241e-23
1.61766e-23
2.53265e-23
2.04286e-22
2.62791e-21
3.27426e-20
3.80691e-19
4.09478e-18
4.02325e-17
3.54044e-16
2.72275e-15
1.77466e-14
9.4867e-14
4.00672e-13
1.31273e-12
2.98705e-12
5.63663e-12
2.16693e-11
8.49842e-11
2.68974e-10
4.32502e-10
4.45483e-10
5.94969e-10
6.82986e-10
7.75324e-37
1.91421e-35
4.07126e-34
5.40567e-33
5.22422e-32
3.94528e-31
2.42443e-30
1.24588e-29
5.46021e-29
2.07081e-28
6.87194e-28
2.01244e-27
5.23495e-27
1.2156e-26
2.52879e-26
4.72416e-26
7.93615e-26
1.19932e-25
1.62957e-25
1.98912e-25
2.19198e-25
2.44198e-25
7.231e-25
8.80777e-24
1.31982e-22
1.88827e-21
2.53498e-20
3.17463e-19
3.66731e-18
3.83994e-17
3.56254e-16
2.85568e-15
1.91976e-14
1.05045e-13
4.51388e-13
1.49464e-12
3.33838e-12
7.18178e-12
3.08261e-11
1.16556e-10
3.45831e-10
4.91153e-10
5.23575e-10
6.09878e-10
5.67506e-10
1.10193e-39
2.9801e-38
6.68696e-37
9.39436e-36
9.59733e-35
7.64655e-34
4.94771e-33
2.67188e-32
1.2279e-31
4.87199e-31
1.68726e-30
5.14286e-30
1.38865e-29
3.33691e-29
7.15994e-29
1.37482e-28
2.36519e-28
3.64715e-28
5.0548e-28
6.64793e-28
1.55858e-27
1.76433e-26
3.11824e-25
5.39033e-24
8.83732e-23
1.36663e-21
1.98526e-20
2.68169e-19
3.31515e-18
3.67376e-17
3.56636e-16
2.9625e-15
2.04765e-14
1.14641e-13
5.02052e-13
1.68362e-12
3.67332e-12
8.96651e-12
4.36909e-11
1.59762e-10
4.12001e-10
5.0091e-10
5.52878e-10
9.09611e-10
1.98175e-10
2.04828e-44
5.7481e-43
1.29984e-41
1.8494e-40
1.9188e-39
1.55627e-38
1.02794e-37
5.68521e-37
2.68651e-36
1.10106e-35
3.95938e-35
1.2609e-34
3.58335e-34
9.1485e-34
2.11304e-33
4.48665e-33
9.90075e-33
4.96522e-32
8.68109e-31
1.96623e-29
4.31278e-28
9.03178e-27
1.78413e-25
3.34282e-24
5.9474e-23
9.99203e-22
1.57224e-20
2.28096e-19
2.99488e-18
3.48523e-17
3.51926e-16
3.02012e-15
2.14558e-14
1.23131e-13
5.51207e-13
1.87665e-12
3.94806e-12
1.30668e-11
6.01428e-11
2.19446e-10
4.39348e-10
5.02276e-10
5.68022e-10
1.76945e-09
9.22823e-10
3.87062e-50
1.36637e-48
3.74925e-47
6.54961e-46
8.42692e-45
8.56882e-44
7.18467e-43
5.1192e-42
3.17464e-41
1.75031e-40
8.76552e-40
4.08683e-39
1.84601e-38
9.23527e-38
8.24425e-37
1.70978e-35
4.75111e-34
1.32192e-32
3.51143e-31
8.83392e-30
2.09404e-28
4.74391e-27
1.01726e-25
2.07915e-24
4.03391e-23
7.36496e-22
1.24887e-20
1.93042e-19
2.67092e-18
3.2454e-17
3.39931e-16
3.01306e-15
2.20479e-14
1.30129e-13
5.97633e-13
2.07025e-12
4.46373e-12
1.67332e-11
8.12902e-11
2.90835e-10
4.31336e-10
5.32162e-10
7.95912e-10
5.22239e-09
1.45933e-08
2.39614e-54
1.02676e-52
3.30739e-51
6.85951e-50
1.05944e-48
1.31323e-47
1.3735e-46
1.26193e-45
1.05562e-44
8.34644e-44
6.67686e-43
6.8331e-42
1.3283e-40
4.21811e-39
1.48296e-37
5.05161e-36
1.62998e-34
4.9528e-33
1.42322e-31
3.8826e-30
1.00014e-28
2.47055e-27
5.79904e-26
1.29806e-24
2.74401e-23
5.41269e-22
9.80949e-21
1.60334e-19
2.32564e-18
2.94374e-17
3.19989e-16
2.93567e-15
2.22114e-14
1.35385e-13
6.40166e-13
2.25952e-12
5.00419e-12
2.12366e-11
1.06085e-10
3.63636e-10
5.13746e-10
1.27082e-09
6.93651e-09
6.72593e-08
1.70232e-07
2.85024e-58
1.51437e-56
5.93336e-55
1.53922e-53
3.07928e-52
5.15543e-51
7.63581e-50
1.05827e-48
1.57082e-47
3.42086e-46
1.24168e-44
5.5567e-43
2.48186e-41
1.04927e-39
4.15914e-38
1.54609e-36
5.42183e-35
1.79324e-33
5.60117e-32
1.6696e-30
4.71584e-29
1.2784e-27
3.29772e-26
8.06056e-25
1.84563e-23
3.90159e-22
7.50425e-21
1.29145e-19
1.96099e-18
2.58841e-17
2.92883e-16
2.79167e-15
2.19456e-14
1.38734e-13
6.77363e-13
2.43727e-12
5.55167e-12
2.63375e-11
1.32095e-10
4.24835e-10
9.89138e-10
1.18071e-09
8.63338e-08
7.80285e-08
4.29838e-06
5.74687e-62
3.95101e-60
1.98767e-58
6.88581e-57
1.94026e-55
5.25434e-54
1.81437e-52
9.37397e-51
5.85133e-49
3.63168e-47
2.09773e-45
1.12129e-43
5.55146e-42
2.56427e-40
1.1105e-38
4.50617e-37
1.72392e-35
6.2529e-34
2.14184e-32
7.03038e-31
2.19109e-29
6.5244e-28
1.84532e-26
4.89248e-25
1.20485e-23
2.7141e-22
5.52163e-21
1.00023e-19
1.59275e-18
2.20071e-17
2.60435e-16
2.59191e-15
2.12775e-14
1.40018e-13
7.07123e-13
2.59363e-12
6.07706e-12
3.14506e-11
1.57581e-10
5.2089e-10
2.06059e-09
2.35141e-09
1.39229e-07
1.60752e-07
7.35785e-06
2.08838e-65
2.1175e-63
1.73272e-61
1.3516e-59
1.2794e-57
1.30891e-55
1.25441e-53
1.0772e-51
8.27229e-50
5.74427e-48
3.64003e-46
2.12982e-44
1.1577e-42
5.85576e-41
2.78116e-39
1.24378e-37
5.22823e-36
2.09559e-34
7.92971e-33
2.87774e-31
9.90135e-30
3.22662e-28
9.94683e-27
2.84648e-25
7.50359e-24
1.79875e-22
3.87263e-21
7.40663e-20
1.24217e-18
1.80751e-17
2.24983e-16
2.35105e-15
2.02433e-14
1.38992e-13
7.26454e-13
2.71618e-12
6.5408e-12
3.5547e-11
1.80218e-10
6.64403e-10
3.22597e-09
2.47548e-08
1.97063e-07
5.50617e-07
8.60648e-06
3.05328e-68
1.13663e-65
3.215e-63
6.43104e-61
9.98671e-59
1.26727e-56
1.36652e-54
1.28752e-52
1.08219e-50
8.24834e-49
5.75528e-47
3.69793e-45
2.21664e-43
1.24174e-41
6.50051e-40
3.22507e-38
1.50176e-36
6.6806e-35
2.80108e-33
1.12363e-31
4.25519e-30
1.51234e-28
5.05422e-27
1.55999e-25
4.39903e-24
1.12454e-22
2.57255e-21
5.22393e-20
9.28985e-19
1.43406e-17
1.88878e-16
2.08361e-15
1.88692e-14
1.3528e-13
7.31525e-13
2.78974e-12
6.99068e-12
3.60187e-11
1.96772e-10
8.7952e-10
5.75712e-09
4.88063e-08
3.19778e-07
2.29472e-06
9.19273e-06
1.1455e-69
6.35931e-67
2.12333e-64
4.71645e-62
7.98455e-60
1.10384e-57
1.30233e-55
1.35027e-53
1.25138e-51
1.05008e-49
8.11581e-48
5.8036e-46
3.85175e-44
2.40165e-42
1.39946e-40
7.72508e-39
4.00915e-37
1.98098e-35
9.20371e-34
4.07782e-32
1.69728e-30
6.57921e-29
2.37885e-27
7.93291e-26
2.40311e-24
6.58035e-23
1.61123e-21
3.50167e-20
6.66264e-19
1.09872e-17
1.54011e-16
1.80066e-15
1.71637e-14
1.28415e-13
7.1797e-13
2.79514e-12
6.89855e-12
3.74041e-11
2.05455e-10
1.07567e-09
8.45839e-09
7.33563e-08
5.40135e-07
3.45796e-06
1.83106e-05
5.56226e-71
3.33366e-68
1.19373e-65
2.87878e-63
5.3417e-61
8.14765e-59
1.06159e-56
1.21548e-54
1.25258e-52
1.1739e-50
1.00793e-48
8.0414e-47
5.97715e-45
4.14836e-43
2.71048e-41
1.6657e-39
9.68915e-38
5.32289e-36
2.74406e-34
1.34458e-32
6.15459e-31
2.60898e-29
1.02278e-27
3.69424e-26
1.21149e-24
3.58369e-23
9.48291e-22
2.22778e-20
4.57685e-19
8.10891e-18
1.21518e-16
1.50878e-15
1.51251e-14
1.17963e-13
6.81339e-13
2.70885e-12
6.59783e-12
3.47627e-11
1.89685e-10
1.10216e-09
9.1924e-09
8.18519e-08
6.3376e-07
4.27762e-06
2.50786e-05
2.09981e-72
1.35603e-69
5.31306e-67
1.41977e-64
2.91855e-62
4.93723e-60
7.16917e-58
9.2201e-56
1.06109e-53
1.11014e-51
1.07246e-49
9.54873e-48
7.98599e-46
6.22245e-44
4.57264e-42
3.149e-40
2.06104e-38
1.26564e-36
7.28107e-35
3.95465e-33
1.99055e-31
9.25446e-30
3.95944e-28
1.55869e-26
5.5777e-25
1.80398e-23
5.22347e-22
1.33856e-20
2.99029e-19
5.72403e-18
9.1923e-17
1.21107e-15
1.27463e-14
1.0375e-13
6.19222e-13
2.51164e-12
6.06523e-12
2.70177e-11
1.54174e-10
8.2346e-10
6.81224e-09
6.31155e-08
5.39411e-07
4.21494e-06
3.06379e-05
5.46081e-74
4.01004e-71
1.77668e-68
5.34649e-66
1.23554e-63
2.36346e-61
3.88759e-59
5.60162e-57
7.28442e-55
8.63051e-53
9.34149e-51
9.46344e-49
8.87811e-47
7.8869e-45
6.55531e-43
5.13346e-41
3.77871e-39
2.59512e-37
1.67604e-35
1.0081e-33
5.61054e-32
2.87841e-30
1.35774e-28
5.87201e-27
2.31651e-25
8.28529e-24
2.64953e-22
7.4863e-21
1.83212e-19
3.80425e-18
6.60594e-17
9.12105e-16
9.85592e-15
8.18208e-14
5.04097e-13
2.15637e-12
4.14404e-12
1.88835e-11
9.86136e-11
5.80912e-10
4.82964e-09
4.28725e-08
3.59368e-07
2.80154e-06
2.10687e-05
8.41813e-76
7.77135e-73
4.08779e-70
1.43411e-67
3.81599e-65
8.41935e-63
1.57519e-60
2.5808e-58
3.83006e-56
5.12382e-54
6.39142e-52
7.324e-50
7.95024e-48
8.00338e-46
7.60904e-44
6.76985e-42
5.6201e-40
4.37874e-38
3.18231e-36
2.13701e-34
1.32511e-32
7.58493e-31
3.99306e-29
1.928e-27
8.5203e-26
3.41381e-24
1.21973e-22
3.83721e-21
1.0212e-19
2.19134e-18
3.79393e-17
5.28471e-16
5.88241e-15
5.15957e-14
3.47195e-13
1.70074e-12
3.11527e-12
9.08996e-12
5.35388e-11
4.43085e-10
3.75666e-09
3.39264e-08
2.67714e-07
1.86068e-06
1.13705e-05
6.48947e-78
8.52896e-75
5.78884e-72
2.49317e-69
7.8409e-67
2.01794e-64
4.35717e-62
8.30717e-60
1.40993e-57
2.1966e-55
3.13216e-53
4.1774e-51
5.15295e-49
6.03037e-47
6.56089e-45
6.67186e-43
6.4048e-41
5.69025e-39
4.68503e-37
3.57052e-35
2.50581e-33
1.6186e-31
9.64964e-30
5.29434e-28
2.65119e-26
1.20346e-24
4.70276e-23
1.49826e-21
3.9046e-20
8.34529e-19
1.46598e-17
2.11853e-16
2.51484e-15
2.43757e-14
1.90054e-13
1.15043e-12
2.21052e-12
5.37634e-12
4.49778e-11
3.35576e-10
3.21572e-09
2.97167e-08
2.37603e-07
1.63719e-06
9.65596e-06
2.00048e-80
4.60496e-77
4.53291e-74
2.4724e-71
9.58273e-69
2.94071e-66
7.47743e-64
1.68048e-61
3.31594e-59
6.03463e-57
9.93273e-55
1.54854e-52
2.22483e-50
3.00049e-48
3.82768e-46
4.53025e-44
4.98816e-42
5.11234e-40
4.88548e-38
4.30351e-36
3.47921e-34
2.58912e-32
1.76994e-30
1.11218e-28
6.30205e-27
2.91363e-25
1.1061e-23
3.46511e-22
9.00395e-21
1.95053e-19
3.53924e-18
5.39924e-17
6.93812e-16
7.4987e-15
6.76515e-14
5.00373e-13
1.44087e-12
3.58962e-12
1.72952e-11
1.58576e-10
1.57305e-09
1.34786e-08
9.47956e-08
5.12048e-07
2.38532e-06
2.03005e-83
1.05361e-79
1.6733e-76
1.24312e-73
6.12491e-71
2.29201e-68
7.05669e-66
1.8723e-63
4.37771e-61
9.3504e-59
1.80565e-56
3.31056e-54
5.60231e-52
8.79099e-50
1.31825e-47
1.84045e-45
2.39768e-43
2.89637e-41
3.23499e-39
3.34475e-37
3.18542e-35
2.7766e-33
2.21832e-31
1.5196e-29
8.44502e-28
3.84625e-26
1.44744e-24
4.5337e-23
1.18967e-21
2.63075e-20
4.92825e-19
7.85709e-18
1.07015e-16
1.24888e-15
1.25125e-14
1.07768e-13
7.269e-13
1.5206e-12
4.15546e-12
1.67787e-11
1.21142e-10
8.27757e-10
4.86779e-09
2.45139e-08
1.03583e-07
4.88285e-87
8.21704e-83
2.48493e-79
2.63354e-76
1.69932e-73
7.99591e-71
3.0197e-68
9.52009e-66
2.70162e-63
6.81467e-61
1.57924e-58
3.42169e-56
6.82901e-54
1.27931e-51
2.27739e-49
3.79538e-47
5.89156e-45
8.50068e-43
1.14155e-40
1.4173e-38
1.6113e-36
1.67575e-34
1.45899e-32
1.0161e-30
5.73678e-29
2.65546e-27
1.01755e-25
3.25471e-24
8.75223e-23
1.99105e-21
3.85297e-20
6.37392e-19
9.05473e-18
1.1092e-16
1.17617e-15
1.08311e-14
8.68107e-14
5.91829e-13
9.20699e-13
2.53513e-12
3.9946e-12
4.52699e-12
-2.0159e-11
-3.54064e-10
-2.70024e-09
1.70347e-91
1.73027e-86
1.17306e-82
1.88157e-79
1.63961e-76
9.74878e-74
4.52923e-71
1.78215e-68
6.04289e-66
1.84973e-63
5.21473e-61
1.34235e-58
3.24347e-56
7.4268e-54
1.5957e-51
3.20843e-49
6.03956e-47
1.06822e-44
1.7651e-42
2.69535e-40
3.79216e-38
4.49243e-36
4.18342e-34
3.1087e-32
1.868e-30
9.18289e-29
3.73048e-27
1.26334e-25
3.59363e-24
8.64328e-23
1.76802e-21
3.09184e-20
4.64405e-19
6.01702e-18
6.7512e-17
6.58387e-16
5.59941e-15
4.16544e-14
2.71706e-13
1.07934e-12
1.31368e-12
8.39981e-13
-7.88782e-12
-5.19226e-11
-2.49912e-10
3.143e-97
6.14267e-91
1.21168e-86
3.15686e-83
3.83066e-80
2.98962e-77
1.76318e-74
8.58833e-72
3.6796e-69
1.39538e-66
4.79501e-64
1.55636e-61
4.68669e-59
1.32458e-56
3.51316e-54
8.77324e-52
2.07996e-49
4.63664e-47
9.69279e-45
1.89397e-42
3.25257e-40
4.32782e-38
4.53352e-36
3.79241e-34
2.56527e-32
1.41826e-30
6.46817e-29
2.4527e-27
7.78632e-26
2.08195e-24
4.7142e-23
9.08424e-22
1.49663e-20
2.11736e-19
2.58346e-18
2.73018e-17
2.50964e-16
2.01512e-15
1.41921e-14
8.80119e-14
4.74122e-13
8.20773e-13
1.27206e-12
-1.32767e-13
-9.50795e-12
1.79461e-105
2.06114e-96
1.65738e-91
7.50396e-88
1.33815e-84
1.43096e-81
1.12494e-78
7.15913e-76
3.93766e-73
1.95514e-70
8.75546e-68
3.60947e-65
1.4085e-62
5.22955e-60
1.82284e-57
5.97839e-55
1.85556e-52
5.42586e-50
1.47902e-47
3.75566e-45
7.5577e-43
1.17913e-40
1.45096e-38
1.42915e-36
1.14093e-34
7.4601e-33
4.03054e-31
1.81274e-29
6.82966e-28
2.16712e-26
5.81829e-25
1.32703e-23
2.58035e-22
4.29106e-21
6.12088e-20
7.50989e-19
7.94735e-18
7.2747e-17
5.77745e-16
3.9946e-15
2.41421e-14
1.28172e-13
5.676e-13
9.24154e-13
1.26833e-12
2.13207e-118
1.85729e-103
1.14651e-97
1.11974e-93
3.17407e-90
5.07779e-87
5.706e-84
5.10301e-81
3.86859e-78
2.62958e-75
1.63451e-72
9.36885e-70
5.03398e-67
2.53976e-64
1.2097e-61
5.48807e-59
2.36554e-56
9.5939e-54
3.66577e-51
1.21337e-48
3.04489e-46
5.9195e-44
9.08107e-42
1.11635e-39
1.11376e-37
9.11358e-36
6.17025e-34
3.48203e-32
1.6481e-30
6.57751e-29
2.22354e-27
6.3923e-26
1.56821e-24
3.29334e-23
5.93706e-22
9.21164e-21
1.23312e-19
1.42763e-18
1.43282e-17
1.2495e-16
9.48902e-16
6.28801e-15
3.64147e-14
1.84412e-13
7.80206e-13
1.15788e-147
2.75217e-113
6.43234e-106
2.09197e-101
1.1427e-97
3.20226e-94
5.74237e-91
7.95003e-88
9.21824e-85
9.32939e-82
8.73155e-79
7.58018e-76
6.17514e-73
4.7215e-70
3.40409e-67
2.33295e-64
1.51408e-61
9.19823e-59
5.23802e-56
2.39271e-53
8.25848e-51
2.20546e-48
4.64652e-46
7.84595e-44
1.07559e-41
1.20983e-39
1.12638e-37
8.74383e-36
5.69429e-34
3.12726e-32
1.45483e-30
5.75519e-29
1.94258e-27
5.61142e-26
1.39099e-24
2.96631e-23
5.45469e-22
8.66903e-21
1.19345e-19
1.42656e-18
1.48419e-17
1.34754e-16
1.07065e-15
7.46398e-15
4.57569e-14
7.26053e-172
1.64035e-129
4.60658e-118
1.08539e-112
1.66087e-108
9.63902e-105
3.28019e-101
8.31432e-98
1.74377e-94
3.17695e-91
5.22558e-88
7.97202e-85
1.15626e-81
1.58249e-78
2.0371e-75
2.48771e-72
2.86809e-69
3.08243e-66
3.09611e-63
2.31021e-60
1.30663e-57
5.73413e-55
1.98975e-52
5.54331e-50
1.25537e-47
2.33472e-45
3.59601e-43
4.6194e-41
4.97858e-39
4.52435e-37
3.48172e-35
2.27728e-33
1.27002e-31
6.05605e-30
2.47529e-28
8.69116e-27
2.62664e-25
6.8449e-24
1.54058e-22
2.99915e-21
5.0573e-20
7.39636e-19
9.39398e-18
1.03742e-16
9.97031e-16
1.62063e-210
2.46631e-188
4.25704e-142
2.77397e-135
2.14314e-130
4.24805e-126
4.75167e-122
3.80474e-118
2.47711e-114
1.40385e-110
7.22218e-107
3.46148e-103
1.57669e-99
6.75874e-96
2.74797e-92
1.05689e-88
3.80191e-85
1.28529e-81
3.35001e-78
6.63406e-75
1.01989e-71
1.23943e-68
1.20856e-65
9.57325e-63
6.22431e-60
3.35075e-57
1.5045e-54
5.66922e-52
1.80219e-49
4.85428e-47
1.11197e-44
2.17291e-42
3.63159e-40
5.20272e-38
6.40144e-36
6.77595e-34
6.17918e-32
4.86054e-30
3.30092e-28
1.93656e-26
9.81574e-25
4.29588e-23
1.62073e-21
5.25494e-20
1.45706e-18
)
;

boundaryField
{
    leftWall
    {
        type            zeroGradient;
    }
    rightWall
    {
        type            zeroGradient;
    }
    lowerWall
    {
        type            zeroGradient;
    }
    atmosphere
    {
        type            inletOutlet;
        inletValue      uniform 0;
        value           uniform 0;
    }
    defaultFaces
    {
        type            empty;
    }
    procBoundary2to0
    {
        type            processor;
        value           nonuniform List<scalar> 
46
(
3.0747e-13
-1.17849e-12
-1.95742e-12
-1.85632e-12
-1.29995e-12
-7.25407e-13
-3.21245e-13
-9.10901e-14
2.30357e-14
7.41769e-14
9.5342e-14
1.0527e-13
1.17657e-13
1.48864e-13
2.23406e-13
3.76615e-13
6.51436e-13
1.09108e-12
1.73351e-12
2.60858e-12
3.7365e-12
5.14705e-12
6.89017e-12
9.03357e-12
1.1728e-11
-3.87551e-17
-1.20755e-16
-6.54215e-16
-1.80642e-15
-3.06003e-15
-3.89499e-15
-3.72325e-15
6.07313e-17
1.58332e-14
6.08174e-14
1.58098e-13
3.45569e-13
6.47872e-13
1.0027e-12
1.32592e-12
1.58587e-12
1.71789e-12
1.68662e-12
1.51237e-12
1.17521e-12
1.17521e-12
)
;
    }
    procBoundary2to3
    {
        type            processor;
        value           nonuniform List<scalar> 
43
(
1.66675e-11
2.07343e-11
3.11685e-11
5.37803e-11
8.03797e-11
1.13711e-10
1.63074e-10
2.42147e-10
3.15483e-10
3.53785e-10
3.77884e-10
4.07996e-10
7.18796e-10
2.5918e-09
4.59831e-09
4.40184e-09
2.20366e-09
1.75389e-09
5.89422e-09
9.7084e-09
1.4864e-08
1.00426e-07
1.15636e-06
2.07477e-06
4.26578e-06
9.16489e-06
7.06109e-05
8.78266e-05
0.000119761
0.000172539
0.000130942
5.90531e-05
4.84203e-05
9.55116e-06
3.73236e-07
-1.21628e-08
-1.0474e-09
-6.58246e-11
7.27626e-13
1.28822e-12
2.6513e-13
8.59357e-15
3.46853e-17
)
;
    }
}


// ************************************************************************* //
