/*--------------------------------*- C++ -*----------------------------------*\
| =========                 |                                                 |
| \\      /  F ield         | OpenFOAM: The Open Source CFD Toolbox           |
|  \\    /   O peration     | Version:  3.0.1                                 |
|   \\  /    A nd           | Web:      www.OpenFOAM.org                      |
|    \\/     M anipulation  |                                                 |
\*---------------------------------------------------------------------------*/
FoamFile
{
    version     2.0;
    format      ascii;
    class       volScalarField;
    location    "1.6";
    object      epsilon_0;
}
// * * * * * * * * * * * * * * * * * * * * * * * * * * * * * * * * * * * * * //

dimensions      [0 2 -3 0 0 0 0];

internalField   nonuniform List<scalar> 
15984
(
0.0043663036235
0.00471052323169
0.00481963253589
0.00483820943036
0.00483659098636
0.00483733303494
0.00484173951311
0.00484361159942
0.00483841060283
0.00482678057864
0.00481402303116
0.0048047592651
0.00479764704099
0.00479278039172
0.00478975175374
0.00478806696608
0.00478724754652
0.00478693779337
0.00478687753099
0.00478691513209
0.00478696258344
0.00478699365773
0.00478699241276
0.00478695848075
0.00478689446133
0.00478680736194
0.00478670624683
0.00478660054443
0.00478648438849
0.00478635150383
0.00478620583634
0.00478605117404
0.0047858917092
0.00478572511701
0.00478551994116
0.00478493498249
0.00478163088957
0.00476170811606
0.0046638686241
0.00434179523079
0.00586036621677
0.00780539889385
0.00847855121772
0.00861258666726
0.00862401645559
0.0086238652345
0.00863837111994
0.0086691304734
0.00868458305365
0.0086646435494
0.00862775961007
0.00859336163793
0.00856875407876
0.00855180568266
0.00854115397991
0.00853489432499
0.00853142793668
0.00852968483011
0.00852888877509
0.00852853200153
0.00852833750537
0.00852817424883
0.00852798209207
0.00852775057545
0.00852748384729
0.00852721239412
0.00852697533881
0.00852680159703
0.00852668174012
0.00852654604047
0.00852639489419
0.00852623144479
0.00852605475102
0.00852580156921
0.00852496004557
0.00851975480946
0.00848795295559
0.00832381172192
0.00765924577401
0.0057673005254
0.00642706290564
0.00998745886125
0.0112591725013
0.011536362298
0.011569482751
0.0115744089813
0.0116084574949
0.0116826257251
0.0117321566702
0.0117101715155
0.0116518417447
0.0115978698675
0.011557688529
0.0115314237855
0.0115150623413
0.0115055488457
0.0115002891289
0.011497579133
0.0114962386745
0.0114955697351
0.0114951712439
0.0114948298492
0.0114944632287
0.0114940496843
0.011493594957
0.0114931278608
0.0114926961291
0.0114923422077
0.0114921089113
0.0114919599208
0.0114917984264
0.0114916221392
0.01149141465
0.0114909803323
0.0114888791316
0.0114757143092
0.011401761535
0.0110568829486
0.00978209514426
0.0062962664845
0.00664068965696
0.0112137531683
0.0129028582897
0.0132665086623
0.0133055435997
0.0133182009659
0.0133909663325
0.0135469684222
0.0136748539931
0.0136756715043
0.0136041130363
0.0135330519355
0.0134812468914
0.0134475489449
0.0134269937301
0.0134150750305
0.0134085704306
0.0134052033685
0.0134035155813
0.0134026378305
0.0134020996367
0.0134016452601
0.0134011588837
0.0134006135064
0.0134000226782
0.0133994160738
0.0133988301552
0.0133983048442
0.0133978853913
0.013397615806
0.0133974444028
0.0133972581302
0.0133970148909
0.0133963453208
0.0133926918213
0.013370589326
0.0132540455693
0.0127473463063
0.010997649284
0.00648795264394
0.00672444398828
0.0118161879788
0.0137219290157
0.0141670738339
0.0142467168855
0.0142741127035
0.0143600353378
0.0145454635658
0.0147957058559
0.0148490736182
0.014774224916
0.0146894583985
0.0146270456347
0.0145872706746
0.0145634928679
0.0145497670511
0.0145423288782
0.014538508205
0.0145365988691
0.0145355798102
0.0145349517146
0.0145344248102
0.01453387038
0.0145332528934
0.0145325805195
0.0145318896042
0.0145312180188
0.014530601238
0.0145300781658
0.014529678131
0.0145294492053
0.0145292553402
0.0145289762858
0.0145280675611
0.0145229131168
0.014492726814
0.0143404714356
0.0137099245167
0.0116378952778
0.00655852772291
0.00675821194747
0.0120551041929
0.0140712762742
0.0146255108494
0.0147050630487
0.0147394650918
0.0148593477574
0.0150789430836
0.0153715391875
0.0154978542707
0.0154283248106
0.0153334812125
0.0152621259602
0.0152170848315
0.0151905651051
0.0151756103307
0.0151674394371
0.0151632955095
0.0151612511573
0.0151601453033
0.0151594495121
0.015158878476
0.0151582829071
0.0151576228284
0.0151569131933
0.0151561909157
0.0151554784305
0.0151548183829
0.0151542481829
0.015153793879
0.0151535099556
0.0151533097033
0.0151529999282
0.0151518901238
0.015145528534
0.0151091527288
0.0149310562029
0.0142171000908
0.0119494182456
0.00658475723929
0.00677181455697
0.0121122439733
0.0142198050396
0.0147749365154
0.0148381770296
0.0148770642194
0.0150356194437
0.0153193053762
0.0156262668013
0.015828105583
0.0157682892425
0.0156664797802
0.0155880948267
0.0155387452303
0.0155100226917
0.0154940893558
0.0154854351939
0.0154810549604
0.0154789027039
0.0154777651897
0.015477027259
0.0154764211927
0.015475803399
0.0154751256147
0.0154743932869
0.0154736496461
0.0154729293436
0.0154722561115
0.0154716744172
0.0154712096318
0.0154709153244
0.0154707101465
0.015470377965
0.0154691253868
0.0154619336528
0.0154214558947
0.0152269650899
0.0144631115769
0.0120886827697
0.00659429971835
0.00677790718703
0.0121033270821
0.0142477583297
0.0147836590002
0.0148252326932
0.0148669189809
0.0150609783964
0.0153994472212
0.0157230847593
0.0159837884296
0.0159328249412
0.0158262493613
0.0157426834508
0.0156901008242
0.0156597444812
0.0156429831595
0.0156341081079
0.015629528891
0.0156273130972
0.0156261425734
0.01562538105
0.0156247468789
0.0156241137322
0.0156234286225
0.0156226967291
0.0156219414195
0.0156212162054
0.0156205508938
0.0156199689464
0.0156195162473
0.0156192338407
0.0156190284008
0.0156186822387
0.0156173426277
0.0156096551128
0.0155667958687
0.0153631109617
0.0145726252518
0.0121457459264
0.00659760711668
0.00678150799699
0.0120867883626
0.0142396171278
0.0147577296808
0.0147800207787
0.0148235700059
0.015044534722
0.0154184351204
0.0157609816242
0.0160524855495
0.0160066371438
0.0158968295615
0.0158098256587
0.0157550910691
0.0157236379249
0.0157063500791
0.0156972971785
0.0156926234779
0.0156903661405
0.0156891762965
0.0156884013599
0.015687752135
0.015687110228
0.0156864194089
0.0156856834486
0.0156849376553
0.0156842088414
0.015683545543
0.0156829759934
0.0156825402956
0.0156822723853
0.0156820660693
0.0156817126213
0.0156803271049
0.0156723827273
0.0156283165349
0.0154200985961
0.0146170148073
0.0121670698603
0.00659867863719
0.00678352782598
0.012078887137
0.0142313795449
0.0147401503337
0.014750537287
0.0147953180122
0.0150311821169
0.0154214571634
0.015776966578
0.0160784521509
0.0160343983135
0.0159228617549
0.015834128972
0.0157783096907
0.0157463281801
0.0157287833141
0.0157196091782
0.0157149122725
0.0157126382186
0.0157114393593
0.0157106579897
0.0157100034357
0.0157093585043
0.0157086635731
0.0157079266122
0.0157071817546
0.0157064601534
0.0157057978121
0.0157052361254
0.0157048053699
0.0157045501375
0.0157043436807
0.0157039873537
0.0157025828203
0.0156945335647
0.0156499832629
0.0154399823347
0.0146320932258
0.0121738299988
0.00659898165235
0.00678356653233
0.0120791883103
0.0142316274763
0.0147405006521
0.0147510542456
0.0147957910091
0.0150315451369
0.0154216750749
0.0157771164323
0.0160785116518
0.0160343739094
0.0159228241088
0.015834098104
0.0157782870809
0.015746310288
0.0157287697725
0.0157196027264
0.0157149078279
0.0157126322959
0.0157114335521
0.0157106532761
0.0157099963832
0.0157093514743
0.0157086563499
0.0157079190939
0.0157071742469
0.0157064536269
0.0157057914329
0.0157052313085
0.0157048009621
0.0157045472755
0.015704341026
0.0157039847795
0.0157025801919
0.0156945305597
0.0156499796773
0.0154399774241
0.0146320871471
0.0121738239216
0.00659898189237
0.00678160113357
0.0120876165515
0.0142403347129
0.0147587137395
0.0147813261003
0.0148248387373
0.0150454869136
0.0154190285884
0.0157615104939
0.016052644685
0.0160065584733
0.0158967163279
0.0158097308268
0.0157550205441
0.0157235809005
0.015706305089
0.0156972698638
0.0156926053167
0.0156903474431
0.0156891578188
0.0156883840454
0.0156877300629
0.0156870871422
0.0156863959685
0.0156856604598
0.0156849149184
0.015684186521
0.0156835251716
0.015682957993
0.0156825255094
0.0156822626304
0.015682056904
0.0156817037273
0.0156803180562
0.0156723724669
0.0156283044647
0.0154200825256
0.0146169955294
0.0121670509186
0.0065986788476
0.0067780120949
0.01210452148
0.0142488428968
0.0147851408033
0.0148270141353
0.0148686446388
0.015062337824
0.0154002919672
0.0157243204034
0.0159839689493
0.015932668708
0.0158260515658
0.0157425201352
0.0156899794216
0.015659647029
0.0156428963215
0.0156340504587
0.0156294841558
0.0156272752551
0.0156261061935
0.0156253401828
0.0156247023866
0.0156240684309
0.0156233830743
0.0156226519089
0.0156218976608
0.0156211722235
0.0156205077024
0.0156199321808
0.0156194884656
0.0156192128291
0.0156190081644
0.0156186624144
0.0156173225476
0.0156096329488
0.0155667706341
0.0153630791258
0.0145725891464
0.0121457123451
0.0065976063323
0.00677187156153
0.0121135090089
0.0142210690549
0.0147766820673
0.014840160591
0.0148789668573
0.015037138717
0.0153202265889
0.0156275766705
0.0158281940537
0.0157680134841
0.0156661801569
0.0155878595055
0.0155385655083
0.0155098781885
0.0154939636192
0.0154853510142
0.01548097441
0.0154788351939
0.0154776988977
0.0154769554306
0.0154763461407
0.0154757275254
0.0154750512398
0.0154743190816
0.0154735759385
0.0154728586709
0.01547219086
0.0154716140537
0.0154711579984
0.0154708743163
0.0154706714342
0.015470339387
0.0154690865576
0.0154618918308
0.0154214097596
0.0152269102413
0.0144630527962
0.0120886315664
0.00659429579969
0.00675817029148
0.0120561589943
0.0140725599708
0.0146272177759
0.014706975961
0.0147412951278
0.0148607937149
0.015079850256
0.0153725483831
0.0154977244519
0.0154278984113
0.0153330720928
0.0152618159434
0.0152168372778
0.0151903481059
0.0151754608587
0.0151673088792
0.015163171465
0.0151611366915
0.0151600354956
0.0151593391272
0.0151587671838
0.0151581716709
0.0151575126503
0.0151568029775
0.0151560772262
0.0151553752178
0.0151547214872
0.015154152766
0.0151537139781
0.0151534422785
0.0151532438658
0.0151529342096
0.0151518237149
0.0151454584302
0.0151090771771
0.0149309703108
0.0142170127086
0.0119493462725
0.00658474730778
0.00672428431076
0.0118168616474
0.0137241899245
0.0141685650139
0.0142484461281
0.0142757789
0.0143613382915
0.0145474662512
0.0147961696701
0.0148486604231
0.0147736334093
0.0146889673351
0.0146266656289
0.0145869390342
0.0145632141608
0.0145495806386
0.0145421556215
0.014538342035
0.0145364447958
0.0145354287412
0.0145348015485
0.0145342759962
0.0145337213119
0.0145331060103
0.0145324397128
0.0145317508327
0.0145310823393
0.0145304728117
0.0145299592385
0.0145295710577
0.014529351573
0.0145291590292
0.0145288802668
0.0145279702534
0.0145228118395
0.0144926196019
0.0143403527817
0.0137098068472
0.0116378024864
0.00655850860459
0.00664041434146
0.0112138934936
0.0129042097062
0.0132689259164
0.0133086074642
0.0133211226439
0.0133932827308
0.013548084583
0.0136747422123
0.0136750169447
0.013603438271
0.0135325015703
0.0134808063372
0.0134471674935
0.0134267469195
0.0134148555778
0.0134083751388
0.0134050179223
0.0134033363523
0.0134024625466
0.0134019281411
0.0134014744457
0.0134009904656
0.0134004484238
0.0133998618595
0.0133992600618
0.0133986787174
0.0133981659357
0.0133977536407
0.0133974964133
0.0133973278308
0.013397143049
0.0133969000325
0.0133962294278
0.0133925718902
0.0133704632163
0.0132539072477
0.0127472100194
0.0109975432827
0.00648792351682
0.00642671492799
0.00998723213075
0.0112595666161
0.0115376663873
0.0115711702387
0.0115760438891
0.0116096186153
0.0116829306259
0.0117316810075
0.0117094503057
0.0116511903274
0.0115973396517
0.0115572370415
0.0115311204593
0.0115148279282
0.0115053501311
0.0115001098009
0.0114974117406
0.0114960804753
0.0114954155667
0.011495020734
0.0114946837529
0.0114943230375
0.0114939116994
0.011493460392
0.011492999259
0.01149257784
0.0114922264167
0.0114920040984
0.0114918576718
0.0114916975125
0.0114915227027
0.0114913157216
0.0114908812261
0.0114887770287
0.0114756069084
0.0114016422956
0.0110567623022
0.00978200061269
0.00629623642484
0.0058600570238
0.00780501900898
0.00847848191978
0.00861298582777
0.00862464737852
0.0086244738169
0.00863872112342
0.00866899544404
0.00868406971393
0.00866405407269
0.00862725632566
0.00859292132304
0.00856844721274
0.00855159683085
0.00854100146928
0.00853476504331
0.00853131647611
0.00852958456695
0.00852879501925
0.00852844191296
0.00852825526193
0.00852809283176
0.00852790658708
0.00852767890863
0.008527415479
0.00852715374439
0.00852692047063
0.00852675646214
0.00852663830949
0.00852650356734
0.00852635344604
0.00852619128061
0.00852601548787
0.00852576309693
0.00852492064198
0.0085197125523
0.0084879020775
0.00832375381787
0.00765919846167
0.00576729013762
0.00436618916456
0.00471031899795
0.0048194383864
0.00483811215219
0.00483656190688
0.00483729375051
0.00484161680308
0.00484339194811
0.00483814019797
0.00482651900291
0.00481381966381
0.0048046273752
0.0047975635885
0.00479272934725
0.00478972198467
0.00478804893924
0.0047872391159
0.00478693459319
0.00478688304528
0.00478692051021
0.00478697049427
0.00478700314436
0.00478700647121
0.00478697596775
0.00478691539832
0.00478683272702
0.00478673687172
0.00478663570852
0.00478651989452
0.004786387458
0.00478624242721
0.0047860887338
0.00478593030817
0.00478576503093
0.00478556098334
0.00478497672916
0.00478167154537
0.00476174300523
0.00466389840914
0.00434182313471
0.00578874049072
0.00769054841921
0.00835809442954
0.00850083670539
0.00851556210974
0.00851915190235
0.00853728823242
0.00856782307163
0.00858942108353
0.00858851859339
0.00857462909901
0.00855947176901
0.0085472815252
0.00854016161236
0.00853535136263
0.00853224051275
0.00853043539772
0.00852952413294
0.00852911059217
0.0085289222543
0.0085288125888
0.00852872559681
0.00852862407573
0.00852849708991
0.00852834536135
0.00852817378913
0.00852799020645
0.00852779995265
0.00852759165877
0.00852737752672
0.00852716088871
0.0085269442168
0.00852672712184
0.00852644048754
0.00852558040492
0.00852034695167
0.00848852867411
0.00832435672701
0.00765983698723
0.00576815072169
0.00702033921519
0.00840793270472
0.00901519194486
0.0091606125607
0.00918081359066
0.00918469765431
0.00919896945806
0.00922642615619
0.00924957049346
0.00925394706037
0.009246010743
0.00923592923566
0.00922759506156
0.00922176128611
0.00921807270107
0.00921578279398
0.00921440413811
0.00921358975775
0.00921309590448
0.00921277393243
0.00921253753929
0.00921234215538
0.0092121648839
0.00921199964815
0.00921184665598
0.00921171037689
0.00921159607156
0.00921150713405
0.00921144605283
0.0092114023252
0.00921136902386
0.00921134426676
0.00921131951267
0.00921121268033
0.00921040799301
0.00920468413714
0.00917056328516
0.00900493128701
0.0083903774072
0.00700762176107
0.00838940991976
0.00962769275866
0.0103504203308
0.010538871753
0.0105679975123
0.0105754112275
0.0105985118198
0.0106421094598
0.0106807950275
0.0106918648438
0.0106839735021
0.010672261507
0.0106624099335
0.0106554097453
0.0106509648357
0.010648278094
0.010646688005
0.0106457476452
0.0106451714386
0.0106447940092
0.010644520058
0.0106442981191
0.0106441066945
0.0106439379794
0.0106437902349
0.0106436665145
0.0106435706267
0.0106435046249
0.0106434694275
0.0106434631809
0.0106434669339
0.0106434734888
0.0106434644486
0.0106432886687
0.0106418763251
0.0106326163172
0.0105821571049
0.0103593249182
0.00961190423094
0.008344778793
0.00896832079275
0.0103948250444
0.0112430953735
0.0114761577932
0.0115156984836
0.0115273598358
0.0115598039974
0.0116202882002
0.0116770751391
0.0116947316334
0.011684698611
0.0116693974027
0.0116569764889
0.0116485111582
0.0116431820934
0.0116400283848
0.0116382027456
0.0116371375597
0.0116364874441
0.0116360615559
0.0116357538882
0.0116355073073
0.0116352961885
0.0116351120695
0.011634953382
0.0116348215746
0.0116347186107
0.0116346458062
0.0116346047608
0.0116345954884
0.0116346116372
0.0116346287175
0.0116346138255
0.011634330842
0.011632191506
0.0116190064477
0.0115514342703
0.0112709416729
0.0103816740055
0.0089019335107
0.00921597154085
0.0108031706561
0.0117448537228
0.0120238756464
0.0120800039184
0.0120968979169
0.0121331124143
0.0121982082789
0.0122766326381
0.0123049911515
0.0122936113454
0.0122745086173
0.0122592523187
0.0122492253066
0.0122430924514
0.0122395135636
0.0122374711597
0.0122362970554
0.0122355866495
0.0122351207082
0.0122347855157
0.0122345184411
0.0122342909136
0.0122340928445
0.0122339219105
0.0122337796184
0.0122336670461
0.0122335851691
0.0122335347608
0.0122335157499
0.0122335274256
0.0122335485603
0.012233522425
0.0122331294311
0.0122303001343
0.0122135763503
0.0121313407763
0.0118037842711
0.0108025018212
0.00913881809168
0.00931860549533
0.0109900363626
0.0119946720028
0.0123149063758
0.0123786969974
0.0123991603466
0.0124432895429
0.0125155404735
0.0126013042179
0.0126442904376
0.0126335407341
0.0126113522236
0.0125935278535
0.0125820264117
0.0125751749538
0.0125712509811
0.0125690245162
0.0125677613422
0.0125670055678
0.012566510764
0.0125661545566
0.0125658731677
0.0125656344055
0.0125654268246
0.0125652484068
0.0125651004058
0.0125649819091
0.0125648944834
0.0125648388304
0.0125648144956
0.0125648212343
0.0125648425395
0.0125648049149
0.0125643186588
0.0125609334404
0.0125414722174
0.0124483735199
0.0120876074616
0.0110119022623
0.00923943086754
0.00935694522938
0.0110589794358
0.0121055485967
0.0124420508011
0.0125060187446
0.0125289312429
0.0125837457307
0.0126694983208
0.012758655018
0.0128176258794
0.0128090626393
0.0127847535348
0.0127648832673
0.0127521540117
0.0127446959867
0.0127404907427
0.0127381285429
0.0127367956125
0.0127360052736
0.0127354932047
0.0127351233583
0.01273483191
0.0127345867361
0.0127343745511
0.0127341918716
0.0127340404801
0.0127339205668
0.0127338316707
0.01273377497
0.0127337500731
0.0127337563667
0.0127337772765
0.0127337303676
0.0127331766133
0.0127294035151
0.0127080938348
0.0126079221849
0.0122264964668
0.0111074666996
0.00928077512776
0.00936898130254
0.0110757890877
0.0121424572158
0.0124825265775
0.0125422572214
0.0125666974918
0.0126326175078
0.0127325723153
0.0128267345882
0.0128991168487
0.0128930336586
0.012867394893
0.0128460468029
0.0128323981554
0.0128244770099
0.0128200505882
0.0128176029138
0.0128162177373
0.0128154042551
0.0128148799363
0.0128145017585
0.0128142035315
0.0128139547736
0.0128137408929
0.0128135576722
0.0128134049521
0.0128132850967
0.0128131975853
0.0128131420256
0.0128131190529
0.0128131273249
0.0128131485352
0.0128130953896
0.0128124993269
0.0128084896064
0.0127860814671
0.0126818330499
0.0122889811941
0.0111474991548
0.00929681423791
0.00937211383219
0.0110759167996
0.0121493731546
0.0124879211448
0.0125423049536
0.0125676035788
0.0126426572265
0.0127536821611
0.0128541398129
0.0129342894878
0.0129299608963
0.0129035253463
0.0128812259285
0.0128669727464
0.0128587427275
0.012854169825
0.0128516643973
0.0128502492623
0.0128494213904
0.0128488899702
0.0128485070064
0.0128482053211
0.0128479548303
0.0128477400462
0.0128475567702
0.0128474052168
0.01284728569
0.0128471994488
0.0128471461019
0.0128471256743
0.0128471366479
0.0128471580008
0.0128471013573
0.0128464823659
0.0128423472449
0.012819368911
0.0127130564667
0.0123146234852
0.0111628073066
0.00930258141608
0.00937286263937
0.0110739800635
0.0121487425475
0.0124854365217
0.0125362402448
0.0125619542954
0.0126421963876
0.0127590760009
0.0128636486675
0.0129470444724
0.0129435135065
0.0129166855291
0.012893918939
0.0128793660154
0.0128709848957
0.012866339287
0.012863802158
0.0128623751671
0.0128615408907
0.0128610061959
0.0128606212373
0.0128603183631
0.0128600672875
0.0128598519758
0.0128596687499
0.0128595178375
0.0128593993692
0.0128593139819
0.012859262077
0.0128592430837
0.0128592558358
0.0128592773546
0.0128592192219
0.0128585905456
0.0128544033401
0.0128311918485
0.0127240504131
0.0123234352583
0.0111677604309
0.00930435980015
0.00937290220516
0.0110740727622
0.0121488063833
0.0124854919202
0.0125363065134
0.0125620160899
0.0126422401417
0.0127591059567
0.0128636803155
0.0129470581889
0.012943507523
0.0129166762807
0.0128939110078
0.0128793599092
0.0128709798556
0.012866335069
0.0128637991653
0.0128623727334
0.0128615385354
0.0128610039682
0.0128606191594
0.0128603160139
0.0128600649396
0.012859849659
0.0128596664881
0.0128595156652
0.0128593973641
0.0128593121306
0.0128592604863
0.0128592417073
0.0128592547617
0.0128592763694
0.012859218254
0.0128585895422
0.0128544021827
0.0128311904167
0.0127240484337
0.0123234326862
0.0111677571425
0.00930435575567
0.00937221883852
0.011076176114
0.0121495545519
0.0124880727289
0.0125424683855
0.0125677552087
0.0126427735718
0.0127537659721
0.0128542462594
0.012934325439
0.0129299409348
0.0129034966616
0.0128812012213
0.0128669534246
0.0128587265496
0.0128541559859
0.0128516540266
0.0128502406304
0.0128494134927
0.0128488824674
0.0128484996329
0.0128481974183
0.0128479468814
0.012847732205
0.0128475492347
0.012847397942
0.0128472787257
0.0128471930352
0.0128471403877
0.0128471207362
0.0128471326014
0.0128471542077
0.0128470976192
0.0128464785131
0.0128423429067
0.0128193637425
0.0127130496899
0.0123146151016
0.011162797001
0.00930256823383
0.00936911747951
0.0110761658724
0.0121427324407
0.0124827475932
0.0125424691362
0.012566895507
0.0126327786677
0.0127326963406
0.0128269616503
0.0128991571536
0.0128929923169
0.0128673430407
0.0128460026185
0.0128323629956
0.0128244472352
0.0128200238648
0.0128175817082
0.0128161989477
0.0128153876336
0.0128148640864
0.0128144854396
0.0128141868232
0.0128139381607
0.0128137245755
0.0128135418359
0.0128133896122
0.0128132701665
0.0128131835247
0.0128131291511
0.0128131077419
0.0128131174763
0.0128131390775
0.0128130859856
0.0128124897293
0.0128084791816
0.0127860696666
0.012681818701
0.0122889647608
0.0111474805062
0.00929678984349
0.00935706317374
0.0110593953086
0.0121058846931
0.0124423171373
0.0125062544755
0.0125291523679
0.0125839355728
0.0126696457283
0.0127589207419
0.0128176411947
0.0128089881432
0.0127846720535
0.0127648154016
0.0127520982475
0.0127446472779
0.012740448231
0.0127380928538
0.0127367615324
0.0127359745631
0.0127354634971
0.0127350933264
0.0127348016244
0.0127345567018
0.0127343451427
0.0127341629993
0.0127340121283
0.0127338933697
0.0127338057309
0.0127337505977
0.0127337275053
0.0127337355888
0.012733757239
0.012733710317
0.0127331562862
0.0127293820111
0.0127080704433
0.0126078955791
0.0122264681474
0.0111074373968
0.00928073553295
0.00931866136114
0.0109904124902
0.0119950601031
0.0123152135443
0.0123789730345
0.0123994206169
0.0124435135031
0.0125157289348
0.0126015161594
0.0126442513858
0.0126334231494
0.0126112364693
0.0125934319793
0.0125819442822
0.0125751010725
0.012571189749
0.0125689681108
0.0125677067731
0.0125669542921
0.0125664611012
0.0125661053992
0.0125658242256
0.0125655859118
0.0125653790148
0.0125652012175
0.0125650535009
0.0125649369964
0.0125648511616
0.0125647969181
0.0125647750945
0.012564783935
0.0125648058894
0.0125647681882
0.0125642814939
0.0125608947925
0.0125414312375
0.0124483289562
0.0120875625551
0.0110118594328
0.00923937135798
0.00921594733347
0.0108034549086
0.0117454416624
0.0120242604792
0.0120803856164
0.0120972639471
0.0121334235768
0.0121986145187
0.0122767473575
0.0123048836279
0.0122934482332
0.0122743597577
0.0122591265763
0.0122491128027
0.0122429931542
0.0122394299924
0.0122373917989
0.012236220073
0.0122355130999
0.0122350487165
0.0122347144157
0.0122344479629
0.0122342209393
0.0122340237026
0.012233854078
0.0122337126732
0.0122336014107
0.0122335212567
0.0122334728738
0.0122334561142
0.0122334697397
0.0122334911807
0.0122334649917
0.0122330713171
0.0122302403387
0.0122135139124
0.0121312745047
0.0118037193438
0.0108024434355
0.00913873515333
0.00896822517916
0.0103949804231
0.0112435513738
0.0114767921758
0.0115164323867
0.0115280693367
0.0115603790652
0.0116206068902
0.0116770767579
0.01169456429
0.0116845034931
0.0116692221994
0.0116568248589
0.0116483748308
0.0116430703329
0.0116399259536
0.0116381057593
0.0116370436281
0.0116363961304
0.0116359718213
0.0116356653971
0.0116354193496
0.0116352090423
0.0116350256668
0.0116348682218
0.0116347376967
0.0116346358542
0.0116345650371
0.0116345257448
0.011634518392
0.0116345355041
0.0116345529366
0.0116345379801
0.0116342543043
0.0116321131482
0.0116189251018
0.0115513486233
0.0112708582889
0.0103816011268
0.00890182971003
0.00838929272225
0.00962773622721
0.0103506774536
0.0105393351827
0.0105685571592
0.010575958196
0.0105989309319
0.0106422725408
0.0106807038839
0.0106916621202
0.0106837658252
0.0106720747819
0.0106622467688
0.0106552740861
0.0106508487765
0.0106481711057
0.0106465868684
0.0106456495103
0.0106450760342
0.0106446999846
0.0106444270355
0.0106442059651
0.0106440154397
0.0106438469072
0.0106437001327
0.0106435776721
0.0106434829315
0.0106434178371
0.0106433842637
0.0106433790224
0.0106433832122
0.0106433902058
0.0106433811732
0.0106432049292
0.0106417908101
0.0106325275594
0.0105820630545
0.010359231749
0.0096118231698
0.00834467284765
0.00702027788711
0.00840789331963
0.00901526256755
0.00916084119907
0.00918111878219
0.0091849969013
0.00919916710211
0.00922642625682
0.00924939637967
0.0092537150681
0.00924579435561
0.00923573478948
0.00922743679065
0.00922163512394
0.00921796538044
0.00921568449393
0.00921431189503
0.00921350018021
0.00921300882295
0.00921268739313
0.00921245182771
0.00921225634024
0.00921207914644
0.00921191402028
0.00921176178694
0.00921162603057
0.00921151219221
0.00921142389416
0.00921136388425
0.00921132067759
0.00921128792008
0.00921126377358
0.00921123925396
0.00921113238835
0.00921032614865
0.00920459888755
0.00917047077296
0.00900483513225
0.00839029162766
0.00700753408784
0.00578863755396
0.00769038335882
0.00835799139435
0.00850095054224
0.00851580502435
0.00851938223391
0.00853735011177
0.00856762906198
0.00858904430962
0.00858810884941
0.00857427603166
0.00855918032924
0.00854706577584
0.00854000520013
0.00853523000549
0.00853213865577
0.00853034711485
0.00852943837576
0.00852902598988
0.00852883671241
0.00852872561193
0.00852863674802
0.00852853171112
0.0085284025881
0.00852825216622
0.00852807752995
0.00852789248562
0.00852769776351
0.00852748946585
0.0085272756023
0.00852705949028
0.00852684378199
0.00852662723405
0.00852634133779
0.0085254791808
0.00852023990577
0.00848840658294
0.00832421622728
0.00765970652726
0.00576809617723
0.00631391495984
0.00976532172278
0.0110231987972
0.0113258212492
0.0113709632723
0.0113820415132
0.0114151316686
0.0114742524711
0.0115264371915
0.0115445050144
0.0115384746641
0.0115259078272
0.0115142229763
0.0115059038308
0.0115014548293
0.0114985028538
0.0114967674924
0.0114959279317
0.0114955853656
0.0114954566116
0.0114954072692
0.0114953799101
0.0114953307379
0.0114952466024
0.0114951301678
0.011494973963
0.0114947785155
0.0114945573626
0.0114943173075
0.0114940628512
0.0114938008183
0.0114935325165
0.0114932432472
0.0114927286655
0.0114905540867
0.0114773100329
0.0114032646585
0.0110583794544
0.00978371047278
0.00629827043253
0.00833104353461
0.00960399185922
0.010347063235
0.0105545985483
0.0105929253695
0.0106011931857
0.010616653563
0.0106434984204
0.0106667556496
0.0106736109687
0.010669058697
0.0106619068199
0.010655760762
0.0106514482307
0.0106488144739
0.0106471442587
0.0106461238102
0.0106455192423
0.01064515276
0.0106449155766
0.0106447411779
0.0106445932526
0.0106444520673
0.0106443124757
0.010644175929
0.0106440445448
0.0106439222085
0.0106438125403
0.0106437178559
0.0106436409818
0.0106435782012
0.0106435268374
0.0106434688968
0.0106432513088
0.0106418051307
0.0106325150124
0.0105820331855
0.0103592101404
0.00961191757296
0.00834603950258
0.0102284990214
0.0106438375098
0.011305911675
0.0115121240983
0.0115531328494
0.0115642648919
0.0115860250666
0.0116230753006
0.0116570462192
0.0116707319905
0.0116690187851
0.0116629140597
0.0116572302934
0.0116530883415
0.0116503817506
0.0116486999218
0.0116476773535
0.0116470601456
0.0116466801981
0.0116464329207
0.0116462545891
0.0116461097227
0.0116459811825
0.011645862916
0.0116457542857
0.011645656973
0.0116455731946
0.0116455045293
0.0116454507892
0.0116454128125
0.0116453883148
0.0116453704337
0.0116453290172
0.0116450389957
0.0116430446849
0.011631238078
0.0115728771872
0.0113402858809
0.0106549308059
0.0102171283244
0.011108824563
0.0113668041015
0.0120392048534
0.012262321045
0.0123095197152
0.0123241259109
0.0123523490786
0.0123992345209
0.012443287239
0.0124618807749
0.0124602332985
0.0124528902513
0.0124462236642
0.0124415178142
0.0124384771903
0.0124366324031
0.0124355336486
0.0124348794242
0.0124344794513
0.0124342215636
0.01243403895
0.012433894538
0.0124337703976
0.0124336597488
0.0124335612491
0.0124334758209
0.0124334047996
0.0124333488451
0.0124333082239
0.0124332825593
0.012433269788
0.0124332599605
0.0124332076903
0.0124327987009
0.0124301155778
0.0124151999969
0.0123461236825
0.0120884961186
0.0113789057108
0.0110777633718
0.0115197074175
0.0117810013482
0.0124864981422
0.0127313076206
0.0127852367967
0.0128033216555
0.012837718342
0.0128924406505
0.0129469935036
0.0129714367983
0.0129695593566
0.0129603540562
0.012952236134
0.0129467266137
0.0129432928862
0.012941252589
0.0129400597779
0.0129393601847
0.012938936626
0.0129386650743
0.0129384746466
0.0129383261189
0.0129382003212
0.0129380897221
0.0129379925349
0.0129379093932
0.0129378410819
0.0129377881319
0.0129377506438
0.0129377280666
0.0129377186831
0.012937710126
0.0129376411419
0.0129371106977
0.0129337686562
0.0129159525439
0.0128368350321
0.0125534781238
0.0117991091901
0.011480160962
0.011704294664
0.0119893619621
0.0127258025404
0.0129861886028
0.0130426255123
0.0130635470442
0.0131063611081