/*--------------------------------*- C++ -*----------------------------------*\
| =========                 |                                                 |
| \\      /  F ield         | OpenFOAM: The Open Source CFD Toolbox           |
|  \\    /   O peration     | Version:  3.0.1                                 |
|   \\  /    A nd           | Web:      www.OpenFOAM.org                      |
|    \\/     M anipulation  |                                                 |
\*---------------------------------------------------------------------------*/
FoamFile
{
    version     2.0;
    format      ascii;
    class       volScalarField;
    location    "1.6";
    object      epsilon;
}
// * * * * * * * * * * * * * * * * * * * * * * * * * * * * * * * * * * * * * //

dimensions      [0 2 -3 0 0 0 0];

internalField   nonuniform List<scalar> 
15984
(
0.00424084968093
0.0045805025447
0.00468903262088
0.00470768731715
0.00470609466674
0.00470683191825
0.00471125503422
0.00471316464635
0.00470800440918
0.00469640103318
0.00468367107375
0.00467443022274
0.00466729289211
0.00466238922982
0.00465931632427
0.00465758589579
0.00465672557166
0.00465638413124
0.00465630427063
0.00465633640439
0.00465638724062
0.00465642708953
0.00465643644186
0.00465641321666
0.00465635878272
0.00465627938815
0.00465618360511
0.00465608082595
0.00465597154122
0.00465584499017
0.00465570437907
0.00465555343098
0.00465539631913
0.00465523055324
0.00465502329104
0.00465442563353
0.00465107129245
0.00463107042579
0.0045338487836
0.00421634797145
0.005703282488
0.00761578375416
0.00828210087515
0.00841575297518
0.00842721069091
0.00842708839058
0.00844187865732
0.00847313534854
0.00848907045115
0.00846941668968
0.00843258748652
0.00839815836675
0.00837355242367
0.00835654792737
0.00834582194044
0.00833947509744
0.00833592525082
0.00833411695184
0.00833328546377
0.00833292731506
0.00833275114728
0.00833261524089
0.00833245178806
0.00833224426959
0.00833199334783
0.00833172710815
0.0083314842477
0.00833129223867
0.00833117017682
0.00833103959372
0.00833089231918
0.00833073129234
0.00833055513713
0.00833029775591
0.00832943058433
0.00832410780048
0.00829195473843
0.00812785062687
0.00746994808412
0.00561046345909
0.00626072408385
0.00975934028599
0.0110161319367
0.0112918384146
0.011324956985
0.0113300276399
0.0113647004466
0.0114398857819
0.0114904300376
0.0114690718951
0.0114108980354
0.0113568605359
0.0113165596864
0.0112901939836
0.0112737162968
0.0112640803264
0.0112587089225
0.0112559150881
0.0112545359717
0.0112538688094
0.0112534978349
0.0112531967362
0.0112528716754
0.0112524928803
0.0112520613615
0.0112516036583
0.0112511668011
0.01125079349
0.0112505258739
0.0112503700298
0.0112502106945
0.0112500350545
0.0112498253592
0.0112493779563
0.0112472113271
0.0112337810752
0.0111591839694
0.0108150153571
0.00955456473366
0.0061301803412
0.00647225429073
0.0109675935127
0.0126359261823
0.0129971625195
0.0130361833732
0.0130491356673
0.0131228766383
0.0132803667946
0.0134098255437
0.0134117306031
0.013340476285
0.0132693139989
0.0132173153976
0.0131834479645
0.0131627305617
0.0131506577973
0.0131440208207
0.013140557274
0.0131388281372
0.0131379556283
0.0131374520634
0.013137046505
0.0131366107788
0.0131361082604
0.0131355468606
0.0131349541574
0.0131343668296
0.0131338255948
0.0131333762843
0.0131330634731
0.013132882012
0.0131326946872
0.0131324462016
0.0131317524589
0.0131279854066
0.013105452749
0.0129879646499
0.0124824956287
0.0107524663712
0.00631969415482
0.00655578917075
0.0115634350001
0.0134454116531
0.0138878322886
0.0139677143812
0.0139956842452
0.0140829442596
0.0142698619382
0.0145221209254
0.0145770775027
0.0145027227735
0.0144178125814
0.0143551292204
0.0143151015624
0.0142911163905
0.0142772080797
0.0142696214735
0.0142656958579
0.0142637419946
0.0142627315425
0.0142621426711
0.0142616698864
0.0142611709595
0.0142606004448
0.0142599610465
0.0142592865606
0.01425861516
0.0142579839169
0.0142574336707
0.014256993461
0.0142567215148
0.0142565251375
0.0142562379501
0.0142552934815
0.0142499755094
0.0142191896804
0.0140656462308
0.0134363818631
0.011386556088
0.00638996488559
0.00658969777582
0.0118008143424
0.0137922566237
0.0143437007244
0.0144236906055
0.0144588400442
0.0145803728294
0.0148023592615
0.0150968366349
0.0152252178488
0.0151563915496
0.0150613642536
0.0149896435945
0.0149442813
0.0149175054495
0.0149023442694
0.0148940127482
0.014889757981
0.0148876670207
0.0148865722898
0.0148859188823
0.0148854045324
0.014884866795
0.0148842556249
0.0148835798376
0.0148828740906
0.014882162086
0.0148814876505
0.0148808903389
0.0148803970569
0.0148800622855
0.0148798507383
0.0148795304441
0.0148783745378
0.0148718038739
0.0148346705836
0.0146549203914
0.0139418995641
0.0116969937735
0.00641627765595
0.00660343049421
0.0118579978894
0.0139407613794
0.0144934072906
0.0145572313806
0.0145969941925
0.0147574870795
0.0150439382999
0.0153530443488
0.0155573977666
0.0154984986498
0.0153964797365
0.0153176433146
0.0152679057875
0.0152388892109
0.0152227302391
0.0152139070662
0.0152094124763
0.0152072119968
0.0152060877391
0.0152053936645
0.0152048455001
0.0152042860651
0.0152036572418
0.0152029590352
0.015202231847
0.0152015109998
0.0152008225108
0.0152002126097
0.0151997076378
0.0151993614019
0.0151991417311
0.0151987973028
0.0151974904842
0.0151900532634
0.0151486878589
0.014952211389
0.0141887826702
0.0118367729298
0.00642592590901
0.00660959181636
0.0118492799907
0.0139691204457
0.0145027570507
0.0145449694614
0.0145876154274
0.0147838786973
0.0151254646791
0.0154515436367
0.0157151283627
0.0156652807412
0.0155584874993
0.0154744054215
0.0154213820847
0.0153907025008
0.0153737019093
0.0153646523254
0.0153599573882
0.0153576920042
0.0153565365559
0.0153558197584
0.0153552439554
0.0153546690765
0.0153540324392
0.0153533334926
0.0153525943943
0.0153518679125
0.0153511860271
0.0153505743486
0.0153500798138
0.0153497439033
0.0153495272418
0.0153491677189
0.0153477682723
0.0153398098706
0.0152959698079
0.0150900463625
0.0142995219624
0.0118945038536
0.00642929772595
0.0066132222343
0.0118327792929
0.0139611589919
0.0144770892219
0.0144999982959
0.0145445486049
0.0147679415045
0.0151452709389
0.0154910187207
0.0157851837251
0.0157406007145
0.0156305795059
0.0155430184386
0.0154878085332
0.015456013293
0.0154384771469
0.0154292471415
0.0154244571442
0.0154221494938
0.0154209760227
0.015420246343
0.0154196552609
0.0154190712467
0.0154184285316
0.0154177251422
0.0154169942659
0.0154162637743
0.0154155830283
0.015414982531
0.015414503867
0.0154141830518
0.015413967958
0.015413600505
0.0154121518744
0.0154039214661
0.0153588178639
0.0151482020179
0.0143447645807
0.011916257185
0.00643039952283
0.00661525365794
0.0118248458446
0.0139529364667
0.0144595289976
0.0144705086489
0.0145162998768
0.0147547185274
0.0151486061738
0.0155076631111
0.0158117704466
0.015769064195
0.015657318969
0.0155680096092
0.0155116987962
0.0154793649704
0.0154615682822
0.0154522161198
0.0154474028825
0.0154450782585
0.0154438965142
0.0154431604252
0.0154425636169
0.0154419762457
0.0154413293812
0.015440624683
0.0154398943845
0.0154391704539
0.0154384902449
0.0154378970984
0.0154374219659
0.015437115259
0.0154369015174
0.0154365309
0.0154350617921
0.0154267196792
0.0153811061327
0.0151686331276
0.0143602390648
0.0119232046981
0.00643071356041
0.00661529330631
0.011825153387
0.0139531911696
0.0144598874937
0.0144710364336
0.014516783552
0.0147550894266
0.0151488293019
0.0155078105179
0.0158118314294
0.0157690392531
0.0156572804212
0.0155679780345
0.0155116756921
0.0154793467033
0.0154615545118
0.0154522095088
0.0154473983596
0.015445072479
0.0154438907324
0.0154431556901
0.015442556503
0.0154419691308
0.0154413220495
0.0154406170019
0.0154398866921
0.015439163662
0.0154384835575
0.0154378919451
0.0154374170996
0.0154371120522
0.0154368987341
0.015436528197
0.0154350590328
0.0154267165425
0.0153811024188
0.015168628118
0.0143602329322
0.0119231986218
0.0064307137428
0.00661331823106
0.0118336254929
0.0139618956306
0.0144780961044
0.0145013322655
0.0145458455067
0.0147689151538
0.0151458787029
0.0154915321449
0.0157853467531
0.0157405202887
0.0156304636211
0.0155429215793
0.0154877365811
0.0154559552072
0.0154384313341
0.0154292192288
0.0154244387559
0.0154221311765
0.0154209576216
0.0154202289523
0.0154196329286
0.0154190478094
0.0154184047038
0.0154177016445
0.0154169708887
0.0154162406844
0.0154155616993
0.0154149633936
0.0154144875553
0.0154141723508
0.0154139583925
0.0154135912039
0.0154121424129
0.0154039107965
0.0153588053972
0.0151481856452
0.0143447451396
0.0119162382617
0.00643039957189
0.00660970043813
0.0118505007911
0.0139702338572
0.0145042739511
0.0145467928216
0.0145893816061
0.0147852695236
0.0151263309725
0.0154527953511
0.0157153136549
0.0156651207432
0.0155582849802
0.0154742385978
0.0154212583557
0.0153906033571
0.0153736138022
0.0153645937288
0.0153599122526
0.0153576545199
0.0153565001098
0.015355778677
0.0153551990655
0.0153546232224
0.0153539862728
0.0153532877787
0.0153525495382
0.0153518226586
0.0153511412966
0.0153505356844
0.0153500499143
0.015349721024
0.0153495062965
0.0153491471741
0.0153477474606
0.0153397869845
0.0152959438796
0.0150900140214
0.0142994856
0.0118944703294
0.00642929669068
0.00660349132575
0.0118592936395
0.013942059899
0.0144951955704
0.0145592646086
0.0145989439877
0.0147590427554
0.0150448842358
0.0153543806215
0.015557489458
0.0154982168759
0.0153961736379
0.0153174033575
0.0152677230745
0.0152387426166
0.0152226027839
0.0152138215789
0.0152093315341
0.0152071447128
0.0152060213814
0.0152053214329
0.0152047699313
0.0152042094962
0.0152035819225
0.0152028836526
0.0152021567114
0.0152014386115
0.0152007551504
0.0152001497451
0.0151996528239
0.0151993167201
0.0151991020504
0.0151987577587
0.0151974506598
0.015190010472
0.0151486408074
0.0149521559098
0.0141887236387
0.0118367218957
0.00642592169261
0.00658965903854
0.0118018980396
0.0137935773244
0.0143454516901
0.0144256545423
0.0144607180415
0.0145818561415
0.0148032919015
0.0150978681989
0.0152250873824
0.0151559569138
0.0150609473391
0.0149893280535
0.0149440301528
0.01491728644
0.0149021930562
0.0148938810997
0.0148896336577
0.0148875529165
0.0148864625478
0.0148858081989
0.0148852927398
0.0148847548056
0.0148841444564
0.0148834685122
0.0148827592327
0.0148820570215
0.0148813885211
0.0148807920074
0.014880313683
0.0148799914029
0.0148797839522
0.0148794637833
0.0148783071573
0.0148717328391
0.0148345941846
0.0146548340189
0.0139418121543
0.0116969222365
0.00641626744487
0.00655563046363
0.011564130627
0.0134477251583
0.0138893663001
0.0139694941353
0.0139973974414
0.0140842848448
0.0142719027209
0.0145225981022
0.0145766593994
0.0145021212497
0.0144173131191
0.0143547436004
0.0143147669611
0.0142908361131
0.0142770206832
0.0142694477735
0.0142655299328
0.0142635887152
0.014262581061
0.0142619927824
0.014261521136
0.0142610217823
0.0142604532038
0.0142598194012
0.0142591467295
0.0142584781116
0.014257853704
0.0142573124483
0.0142568833784
0.014256623398
0.0142564283546
0.0142561414379
0.0142551956933
0.0142498737823
0.0142190820961
0.0140655276184
0.0134362647166
0.011386464165
0.00638994560423
0.00647197802102
0.0109677464486
0.0126373151567
0.0129996351257
0.0130393131852
0.0130521182212
0.0131252406982
0.0132815082786
0.0134097173264
0.0134110676746
0.0133397913162
0.0132687556388
0.0132168694973
0.0131830642082
0.0131624827054
0.0131504384731
0.0131438260948
0.0131403728467
0.0131386503813
0.0131377816598
0.0131372815011
0.0131368766691
0.0131364430892
0.0131359437247
0.0131353863163
0.0131347980548
0.0131342148368
0.0131336856685
0.0131332429644
0.013132941884
0.0131327657417
0.013132579891
0.0131323316095
0.0131316368378
0.0131278657753
0.0131053270206
0.0129878271084
0.0124823605235
0.0107523617232
0.00631966509292
0.00626037313854
0.00975911734271
0.0110165462016
0.0112931768859
0.0113266860353
0.0113317001
0.0113658889865
0.0114402022074
0.011489951072
0.0114683412682
0.0114102374385
0.0113563217255
0.0113161051007
0.0112898888445
0.0112734814993
0.0112638821308
0.0112585306016
0.0112557489111
0.0112543793224
0.0112537159825
0.0112533484643
0.0112530515965
0.0112527321175
0.011252355535
0.0112519272347
0.0112514751652
0.0112510483788
0.0112506764988
0.011250419946
0.0112502684413
0.0112501104405
0.0112499362559
0.0112497270464
0.0112492794435
0.011247109822
0.0112336743191
0.011159065667
0.0108148959903
0.00955447157147
0.00613015054023
0.00570296968468
0.00761540274356
0.00828203974697
0.00841616864374
0.00842786214141
0.00842771500934
0.00844224056257
0.00847300314693
0.00848855236118
0.00846881999762
0.0084320766513
0.00839771527346
0.00837324296289
0.00835633792326
0.00834566911293
0.00833934597894
0.00833581410947
0.00833401710243
0.0083331925064
0.00833283779195
0.00833266893563
0.00833253389468
0.00833237605573
0.0083321723456
0.00833192454803
0.00833166775201
0.00833142786563
0.00833124582242
0.00833112697883
0.00833099735297
0.00833085108791
0.00833069132303
0.00833051604118
0.0083302594162
0.00832939128497
0.0083240656451
0.00829190409247
0.00812779323201
0.00746990144738
0.00561045316485
0.0042407343601
0.0045802972738
0.00468883931375
0.00470759301012
0.00470606996535
0.00470679619517
0.00471113414116
0.00471294471031
0.00470773236598
0.00469613773593
0.0046834673152
0.004674296749
0.00466720831271
0.00466233750324
0.00465928602483
0.00465756739568
0.00465671664448
0.0046563804397
0.00465631079111
0.00465634275446
0.00465639453508
0.0046564356285
0.00465644937885
0.0046564294301
0.00465637827891
0.00465630310568
0.00465621235684
0.00465611488032
0.0046560065272
0.00465588041397
0.00465574042357
0.00465559042461
0.00465543432493
0.00465526984142
0.0046550636688
0.00465446667908
0.00465111122683
0.00463110466243
0.00453387805738
0.00421637541766
0.0056319411098
0.00750116771399
0.00816193240698
0.00830446861466
0.00831937383766
0.00832303485651
0.0083413701084
0.00837222762197
0.00839412685818
0.00839338297989
0.00837950798947
0.00836430388163
0.00835205502152
0.00834487857534
0.00833998126151
0.0083367901723
0.00833491817957
0.00833395568686
0.00833351027156
0.00833332007661
0.00833322049282
0.00833314787763
0.00833306259014
0.00833295104935
0.00833281230262
0.00833265041193
0.00833247279202
0.00833228842665
0.008332084577
0.00833187200338
0.00833165513219
0.00833143655965
0.00833121566107
0.00833092069113
0.00833003108328
0.00832467688631
0.00829250475799
0.00812836863505
0.00747051405236
0.00561129436699
0.00684011823477
0.00820892282951
0.0088109287194
0.00895625090203
0.00897666062022
0.00898065669864
0.00899516479001
0.00902298310423
0.00904645082616
0.00905097388656
0.00904301957368
0.00903285867308
0.00902444651244
0.00901855323769
0.00901481280886
0.00901248381999
0.00901107919985
0.00901025138776
0.00900975441636
0.00900943627361
0.00900920693358
0.00900901930449
0.00900884853808
0.00900868726189
0.00900853518066
0.00900839677301
0.00900827776563
0.009008182156
0.00900811338223
0.00900806567011
0.0090080284642
0.00900799983906
0.00900797081806
0.00900785590716
0.00900702001241
0.00900116364099
0.00896665456868
0.00880089974647
0.00819142014811
0.00682727754607
0.00818183209165
0.00940855831213
0.0101252880629
0.0103134634774
0.0103428195888
0.0103504182385
0.0103739195416
0.0104181248398
0.0104573818744
0.0104687508585
0.0104608823944
0.0104490758727
0.0104391165727
0.0104320292924
0.0104275216907
0.0104247916267
0.0104231751816
0.0104222225402
0.0104216443068
0.0104212706906
0.0104210029121
0.0104207870467
0.0104205997464
0.0104204323087
0.0104202828133
0.0104201545334
0.0104200518871
0.0104199776438
0.0104199334346
0.0104199200715
0.0104199208654
0.0104199247402
0.0104199122146
0.0104197259204
0.0104182646982
0.0104088040763
0.0103578060352
0.0101348119937
0.00939298023515
0.00813716906078
0.00875244540977
0.0101657752169
0.0110070712186
0.0112397350172
0.0112795581967
0.0112914982374
0.011324536774
0.0113859038707
0.0114435655988
0.0114617275269
0.011451778789
0.0114363689415
0.0114238117772
0.0114152322857
0.0114098277043
0.0114066231687
0.0114047680556
0.0114036898583
0.0114030382
0.0114026166147
0.0114023153742
0.0114020746937
0.0114018672279
0.0114016836865
0.0114015224454
0.0114013853574
0.0114012750422
0.011401193504
0.0114011430753
0.0114011244249
0.0114011348786
0.0114011497956
0.0114011312539
0.0114008334412
0.0113986224605
0.0113851550173
0.0113168614424
0.0110361054803
0.0101531111618
0.00868604431649
0.00899807413163
0.0105706089457
0.0115047745886
0.0117834968314
0.0118400651698
0.0118573610653
0.0118943306716
0.0119604494482
0.0120399904312
0.0120690638169
0.0120578335493
0.0120386037113
0.0120231782055
0.0120130150391
0.0120067889402
0.0120031513004
0.0120010759432
0.0119998877605
0.011999175973
0.0119987147282
0.0119983862717
0.0119981252013
0.0119979012027
0.0119977034294
0.0119975295832
0.0119973816287
0.0119972613386
0.0119971704165
0.011997110359
0.0119970816306
0.0119970842689
0.0119971025675
0.0119970721292
0.0119966593028
0.0119937344736
0.0119766442564
0.0118934899326
0.0115654630216
0.0105707416599
0.00892089910691
0.00910051961592
0.0107567903628
0.011753851007
0.0120739885749
0.0121383697364
0.0121593374968
0.0122043748177
0.0122779003215
0.0123648494479
0.0124087391514
0.0123982045956
0.0123758693222
0.0123578407852
0.0123461791955
0.0123392194608
0.0123352293296
0.0123329665543
0.0123316881049
0.0123309308214
0.0123304408607
0.0123300915208
0.0123298161018
0.0123295807274
0.0123293732091
0.0123291915517
0.0123290375393
0.0123289110057
0.0123288142288
0.0123287486272
0.0123287142613
0.0123287115154
0.012328728045
0.0123286853483
0.0123281745487
0.0123246720114
0.0123047673889
0.012210557874
0.0118490385826
0.0107797818988
0.00902133318104
0.00913904546687
0.0108258901075
0.0118650593927
0.0122016941276
0.0122663662071
0.0122898662421
0.0123457360863
0.0124329480757
0.0125233799776
0.0125834235739
0.0125751421156
0.0125506713961
0.0125305653947
0.0125176528816
0.0125100743616
0.0125057965823
0.0125033952142
0.0125020459292
0.0125012537816
0.0125007465225
0.0125003834373
0.012500097815
0.0124998558019
0.0124996434048
0.0124994572112
0.0124992995017
0.0124991712349
0.0124990726914
0.0124990057463
0.0124989705525
0.0124989671053
0.0124989826831
0.01249893005
0.0124983479433
0.0124944400636
0.0124726244647
0.0123711777471
0.0119887107935
0.0108758285209
0.00906290648685
0.00915123553991
0.0108429006259
0.0119023605322
0.0122427173409
0.0123032087402
0.0123282954957
0.0123954097691
0.0124970025705
0.0125925656805
0.0126661398121
0.0126604012784
0.0126345936273
0.0126129858012
0.0125991356018
0.0125910841793
0.0125865802413
0.0125840912766
0.0125826889183
0.012581873315
0.0125813536796
0.01258098211
0.0125806895099
0.0125804436706
0.0125802293119
0.0125800422952
0.0125798830143
0.0125797545387
0.0125796571466
0.0125795910875
0.0125795576237
0.0125795559775
0.012579572181
0.0125795128564
0.0125788857655
0.0125747289928
0.0125517703808
0.0124461254602
0.0120519995265
0.0109163640963
0.00907916082906
0.00915443854566
0.0108431066339
0.0119094683642
0.0122483727599
0.0123035256709
0.0123295065174
0.0124058704783
0.0125186875487
0.0126207294282
0.0127020942886
0.0126981584694
0.0126715526344
0.0126489782093
0.0126345112895
0.0126261442974
0.0126214905983
0.0126189425906
0.0126175097093
0.0126166795135
0.0126161526444
0.0126157761513
0.0126154798839
0.0126152321144
0.0126150166721
0.0126148294071
0.0126146710986
0.0126145427772
0.0126144464717
0.0126143824714
0.0126143514589
0.0126143523583
0.0126143693073
0.0126143062108
0.0126136545862
0.0126093650181
0.0125858090521
0.0124780243185
0.0120781653531
0.0109319859069
0.00908505296375
0.00915520903075
0.0108411792143
0.0119088894608
0.0122459568265
0.0122975222714
0.0123239349534
0.012405553698
0.0125243150097
0.0126305694203
0.0127152039273
0.0127120923614
0.0126850946274
0.0126620457965
0.0126472732142
0.0126387516668
0.0126340237697
0.0126314434509
0.0126299984615
0.0126291617677
0.0126286315582
0.0126282529641
0.0126279553653
0.0126277068995
0.0126274908467
0.0126273035371
0.012627145769
0.0126270184168
0.0126269228632
0.0126268602412
0.0126268305956
0.0126268332181
0.0126268507539
0.012626786043
0.0126261240062
0.0126217789831
0.0125979773836
0.0124893283977
0.0120872151648
0.0109370756003
0.00908688322855
0.00915524978122
0.0108412745732
0.0119089557149
0.0122460146164
0.0122975914107
0.0123239992636
0.0124055994157
0.0125243460231
0.0126306008771
0.0127152179807
0.0127120861976
0.0126850851056
0.012662037654
0.0126472669519
0.0126387465057
0.0126340194635
0.0126314403952
0.0126299959797
0.0126291593694
0.0126286292877
0.0126282508391
0.0126279529586
0.0126277044866
0.0126274884581
0.0126273011933
0.0126271435063
0.0126270163132
0.0126269209056
0.0126268585438
0.0126268291051
0.0126268320287
0.0126268497134
0.0126267850207
0.0126261229486
0.0126217777718
0.0125979758999
0.0124893263771
0.012087212566
0.0109370723023
0.00908687916336
0.00915454684454
0.0108433734073
0.0119096565141
0.0122485308492
0.0123036963888
0.0123296648595
0.0124059919501
0.0125187742968
0.012620834961
0.0127021311443
0.0126981379252
0.0126715231257
0.0126489528669
0.012634491501
0.0126261277518
0.0126214764787
0.0126189320131
0.0126175009271
0.0126166714831
0.0126161450069
0.0126157686273
0.0126154717959
0.0126152239566
0.0126150086033
0.0126148216174
0.0126146635447
0.0126145355076
0.0126144397303
0.0126143764133
0.0126143461719
0.0126143479584
0.0126143653426
0.012614302303
0.0126136505645
0.0126093605131
0.0125858037235
0.0124780174149
0.0120781568892
0.0109319755764
0.00908503974287
0.00915137630929
0.0108432884052
0.0119026458697
0.0122429478644
0.012303430515
0.0123285026483
0.0123955779125
0.0124971310984
0.0125927947708
0.0126661812734
0.0126603587787
0.0126345403465
0.0126129405363
0.0125990996683
0.0125910538035
0.012586553063
0.0125840697266
0.0125826698681
0.0125818564519
0.0125813375745
0.0125809655188
0.0125806724868
0.012580426703
0.0125802126059
0.012580026023
0.0125798671967
0.0125797390979
0.0125796425265
0.0125795776342
0.0125795457368
0.0125795455264
0.0125795624261
0.0125795031606
0.0125788758769
0.0125747182817
0.0125517583076
0.0124461109009
0.0120519829668
0.0109163454181
0.00907913640696
0.00913916823181
0.0108263187127
0.0118654078875
0.0122019719034
0.0122666133069
0.0122900978806
0.0123459341041
0.0124331012942
0.0125236524232
0.0125834397644
0.0125750658051
0.0125505879606
0.0125304960915
0.0125175961104
0.0125100249354
0.0125057534984
0.0125033590982
0.0125020115397
0.0125012227587
0.0125007164923
0.0125003530383
0.012500067124
0.0124998253101
0.0124996134863
0.0124994277737
0.012499270531
0.0124991433745
0.0124990460527
0.0124989806337
0.0124989472177
0.0124989455662
0.012498962264
0.0124989096312
0.0124983272473
0.0124944182
0.0124726007365
0.0123711508976
0.0119886823526
0.0108757992235
0.00906286695797
0.00910057938583
0.0107571789488
0.0117542535155
0.0120743088594
0.0121386589019
0.0121596099038
0.0122046084992
0.0122780961593
0.0123650680051
0.0124087001216
0.0123980846261
0.0123757512901
0.0123577432827
0.0123460959935
0.0123391449018
0.0123351676042
0.0123329098281
0.01233163331
0.0123308793174
0.0123303909445
0.0123300420522
0.012329766802
0.012329531816
0.0123293249254
0.0123291438382
0.0123289900517
0.012328865457
0.0123287702327
0.0123287059552
0.0123286741114
0.012328673468
0.0123286910773
0.0123286483184
0.0123281370824
0.0123246330758
0.0123047261539
0.0122105131745
0.0118489936808
0.0107797391969
0.0090212739636
0.00899805202461
0.010570903815
0.0115053811911
0.0117838972738
0.0118404631955
0.0118577424448
0.0118946544963
0.0119608670908
0.0120401102951
0.0120689553926
0.012057667742
0.0120384525549
0.0120230509349
0.0120129015336
0.0120066892574
0.0120030675792
0.0120009965994
0.0119998108606
0.0119991024912
0.0119986427737
0.0119983151546
0.0119980546546
0.0119978311023
0.0119976341019
0.0119974615057
0.0119973143824
0.0119971953466
0.0119971061124
0.0119970480431
0.0119970215512
0.0119970263082
0.0119970451539
0.0119970146679
0.0119966011706
0.0119936746723
0.0119765818485
0.0118934238241
0.0115653983946
0.0105706836431
0.00892081687172
0.00875234994614
0.0101659381564
0.011007543541
0.0112403895754
0.0112803147775
0.0112922291717
0.0113251291472
0.0113862331458
0.0114435702784
0.0114615585203
0.0114515810044
0.0114361916791
0.0114236589333
0.0114150956166
0.0114097159743
0.0114065210749
0.0114046715493
0.0114035964404
0.0114029473838
0.0114025273414
0.011402227284
0.0114019871094
0.0114017803917
0.0114015975466
0.0114014374939
0.0114013016324
0.0114011923809
0.0114011128127
0.0114010641214
0.0114010473739
0.0114010591071
0.0114010743901
0.0114010557865
0.011400757289
0.0113985444993
0.0113850741043
0.0113167763593
0.0110360227792
0.0101530389757
0.00868594178067
0.00818171327973
0.00940860617666
0.0101255567309
0.0103139431927
0.0103433978749
0.0103509825153
0.0103743522332
0.0104182951504
0.0104572916107
0.0104685459139
0.0104606721303
0.0104488872878
0.0104389525186
0.0104318935297
0.0104274059519
0.0104246852684
0.0104230747946
0.0104221251797
0.0104215496653
0.0104211773858
0.0104209105742
0.0104206955301
0.0104205090772
0.0104203418131
0.0104201932404
0.0104200661761
0.0104199646539
0.0104198912615
0.0104198487177
0.0104198365467
0.0104198377824
0.010419842094
0.0104198295732
0.0104196428128
0.0104181798205
0.0104087159865
0.0103577127734
0.0101347197478
0.00939290010926
0.0081370647115
0.00684005406962
0.0082088857192
0.00881100677381
0.00895649085938
0.00897697908026
0.00898096806922
0.00899537136888
0.00902298703414
0.00904627595368
0.00905073931987
0.00904280054406
0.00903266250654
0.00902428731212
0.00901842696679
0.0090147057798
0.00901238610068
0.00901098768659
0.00901016257195
0.00900966808552
0.00900935046538
0.00900912192812
0.0090089341831
0.00900876346876
0.00900860228906
0.00900845094663
0.00900831303254
0.00900819441767
0.00900809947606
0.00900803191009
0.00900798468525
0.00900794800752
0.00900791997725
0.00900789117769
0.00900777621992
0.00900693876737
0.00900107901683
0.00896656280919
0.00880080456589
0.00819133547124
0.00682719126013
0.00563183692914
0.00750100455578
0.00816183640194
0.0083045944869
0.00831963180389
0.00832327867483
0.00834144104263
0.00837203639784
0.00839374781588
0.0083929693616
0.0083791512667
0.00836401012135
0.00835183905456
0.00834472221097
0.00833986019358
0.00833668903438
0.00833483086388
0.0083338709876
0.00833342638158
0.00833323558866
0.00833313443029
0.00833306013801
0.00833297140183
0.00833285773682
0.00833272027595
0.0083325552593
0.00833237607494
0.00833218811351
0.00833198354534
0.00833177119678
0.00833155483042
0.00833133718057
0.00833111679523
0.00833082253548
0.00832993083126
0.00832457085077
0.00829238391058
0.00812822995465
0.00747038587356
0.00561124083888
0.00614783499016
0.00953763720949
0.0107809177411
0.011082481886
0.0111279568238
0.0111392382569
0.0111727061853
0.0112323849571
0.0112850752646
0.0113034164105
0.0112974223361
0.0112847818383
0.0112729980629
0.0112645738735
0.0112600215557
0.0112569683974
0.011255150939
0.0112542480581
0.0112538719037
0.0112537379358
0.0112536959225
0.0112536826833
0.0112536512909
0.0112535855447
0.011253486429
0.011253345756
0.0112531628914
0.0112529506576
0.0112527164397
0.0112524649412
0.0112522032386
0.0112519329537
0.0112516383916
0.0112511075492
0.0112488643596
0.0112353522103
0.0111606612345
0.0108164843285
0.00955615463023
0.00613215856115
0.00812359947827
0.00938496797377
0.0101222586718
0.0103297081275
0.0103683719141
0.0103768253849
0.0103925832291
0.0104198523485
0.0104434691323
0.0104504725471
0.0104458909706
0.0104386488991
0.0104324172356
0.0104280389695
0.0104253545242
0.010423645521
0.0104225985425
0.0104219787981
0.0104216076567
0.0104213721164
0.0104212032688
0.0104210624756
0.0104209281282
0.0104207937235
0.0104206601115
0.0104205292994
0.0104204053376
0.0104202923322
0.0104201925042
0.0104201103886
0.0104200424238
0.0104199856578
0.0104199212868
0.0104196902383
0.0104181923916
0.0104086992796
0.0103576769475
0.0101346913167
0.00939298953019
0.00813843042925
0.00998387608323
0.0104089577767
0.0110675727091
0.0112739182973
0.0113152948193
0.011326673633
0.0113488528757
0.011386511847
0.0114210355978
0.0114350002436
0.0114333062551
0.0114271136686
0.011421333548
0.0114171150127
0.0114143559202
0.0114126376667
0.011411591969
0.0114109620371
0.0114105774551
0.011410330429
0.0114101551962
0.0114100143255
0.0114098891783
0.0114097727695
0.0114096641218
0.0114095649504
0.0114094777829
0.0114094046474
0.0114093458776
0.0114093022533
0.0114092733424
0.0114092510144
0.0114092036556
0.0114088974584
0.0114068358363
0.0113947741841
0.0113357471822
0.0111025949046
0.010420312379
0.00997246030731
0.010851436824
0.0111234219928
0.0117930756866
0.0120164614551
0.0120640918781
0.0120790273325
0.0121078284002
0.0121555655762
0.0122004252665
0.0122194742772
0.0122179070583
0.0122104748502
0.0122036955964
0.0121988992488
0.0121957977389
0.0121939133051
0.0121927903987
0.0121921231935
0.0121917181306
0.0121914598195
0.0121912793093
0.0121911376844
0.0121910156748
0.0121909057165
0.0121908062165
0.0121907181896
0.0121906432921
0.0121905826116
0.0121905368411
0.0121905059974
0.0121904886676
0.012190474884
0.0121904163229
0.0121899865066
0.0121872144716
0.0121719729654
0.0121020624558
0.0118435411826
0.0111360625825
0.0108203967453
0.0112585793935
0.0115344795705
0.012237455215
0.012482724599
0.01253719787
0.0125557055965
0.0125908232722
0.0126465950734
0.0127021602547
0.0127272361122
0.0127255001488
0.0127161994363
0.0127079477105
0.0127023328215
0.0126988271548
0.0126967426069
0.0126955237194
0.0126948105009
0.0126943815334
0.0126941092556
0.0126939205301
0.0126937743004
0.0126936501072
0.012693539695
0.0126934410641
0.0126933549769
0.0126932825391
0.0126932246906
0.0126931819523
0.0126931541326
0.0126931398501
0.0126931274178
0.0126930513349
0.0126924947735
0.0126890410788
0.0126708252814
0.0125906984122
0.0123061461604
0.0115534443317
0.0112191059632
0.0114425082747
0.0117422128835
0.0124763137595
0.0127373601985
0.0127944570853
0.0128158860827
0.0128595489711