/*--------------------------------*- C++ -*----------------------------------*\
| =========                 |                                                 |
| \\      /  F ield         | OpenFOAM: The Open Source CFD Toolbox           |
|  \\    /   O peration     | Version:  3.0.1                                 |
|   \\  /    A nd           | Web:      www.OpenFOAM.org                      |
|    \\/     M anipulation  |                                                 |
\*---------------------------------------------------------------------------*/
FoamFile
{
    version     2.0;
    format      ascii;
    class       volScalarField;
    location    "1.6";
    object      k;
}
// * * * * * * * * * * * * * * * * * * * * * * * * * * * * * * * * * * * * * //

dimensions      [0 2 -2 0 0 0 0];

internalField   nonuniform List<scalar> 
15984
(
0.00404243949119
0.00425879268729
0.00432730592436
0.00433913850708
0.00433815016349
0.0043386120223
0.00434141348396
0.00434264105129
0.00433940865626
0.00433209674565
0.00432406971807
0.0043182381806
0.00431370654908
0.00431058008866
0.00430860751885
0.00430748365189
0.00430691331286
0.00430667704179
0.00430661369141
0.00430662875704
0.00430666147952
0.00430669148994
0.00430670371859
0.00430669560785
0.00430666720729
0.00430662194637
0.00430656491369
0.00430650177744
0.00430643603035
0.00430635989121
0.0043062740853
0.00430618091798
0.00430608300729
0.00430597865551
0.00430584614584
0.00430545947776
0.00430330201567
0.00429056682709
0.00422901653851
0.00402640513435
0.00493164351267
0.00599042341363
0.00633974787108
0.00640915208489
0.00641511723387
0.00641507032274
0.00642289246451
0.00643935258051
0.00644785155666
0.00643781366158
0.00641873787361
0.00640084313701
0.00638805056422
0.00637917652059
0.00637355728617
0.00637020912699
0.00636831757007
0.00636734107987
0.00636688641134
0.00636669558377
0.00636661106678
0.00636655316692
0.00636648253769
0.00636638729012
0.00636626576946
0.00636613113982
0.0063660031605
0.00636589531831
0.00636582715477
0.00636576174365
0.00636568706805
0.00636560451022
0.00636551310346
0.00636537686509
0.00636491148859
0.00636207564649
0.00634512189195
0.00625919290793
0.00591198951327
0.00487667795758
0.00525125736288
0.00707431007049
0.00767579443776
0.00780539452236
0.00782097241865
0.00782342595938
0.00784000781116
0.00787574517151
0.00789987566976
0.00789016880645
0.00786298427979
0.00783759163263
0.00781860171759
0.00780615654513
0.00779835084777
0.00779375924377
0.00779117798964
0.00778982158873
0.00778914969997
0.00778883236429
0.00778866769992
0.00778854314699
0.0077884090904
0.00778824750729
0.00778805634699
0.00778784675844
0.00778764035495
0.00778745734296
0.00778731688535
0.00778723572374
0.00778716166482
0.00778707928856
0.00778697952243
0.00778676253204
0.00778571047318
0.00777925526767
0.00774374831164
0.00758060312731
0.00697300393571
0.00517622843284
0.00537077547081
0.00765131639367
0.00841590385518
0.0085777615322
0.00859526251077
0.00860120391931
0.00863466565476
0.00870564845026
0.00876393441233
0.00876525780252
0.00873371708471
0.00870198246002
0.00867870615471
0.0086635144499
0.00865419060395
0.00864872872322
0.00864570303477
0.00864411011415
0.00864331361066
0.0086429215886
0.00864270868886
0.00864254728538
0.00864237451255
0.00864216947538
0.00864193284445
0.00864167565679
0.00864141417117
0.00864116682225
0.0086409543724
0.00864079675228
0.00864070610028
0.00864062188428
0.00864050842745
0.00864018717272
0.00863845071851
0.00862817508829
0.00857508653704
0.00834715948753
0.00754917655207
0.00528396550224
0.00541794293954
0.00792895978922
0.00877471125911
0.00896880390866
0.00900393654751
0.00901643749776
0.00905518673104
0.00913732564453
0.00924758850632
0.00927201628727
0.00924009444309
0.00920326919752
0.00917596779781
0.00915848089188
0.00914797215671
0.00914184906572
0.0091384858191
0.00913673177279
0.0091358570673
0.00913541697679
0.00913517459479
0.00913499056983
0.0091347971478
0.00913456999741
0.00913430754472
0.00913402302287
0.00913373289147
0.00913345379217
0.00913320424083
0.00913299703694
0.00913285809832
0.00913276915195
0.00913264065773
0.00913221393057
0.00912982803151
0.00911616571163
0.00904862420606
0.00877201621798
0.00784680990866
0.00532391097307
0.00543715928076
0.00803870199421
0.00892688473022
0.00916671205682
0.00920159557897
0.00921714635484
0.00927041308389
0.00936704930157
0.00949393677339
0.00954951726515
0.00952051082065
0.00947989773656
0.00944909290106
0.00942954699815
0.00941797394165
0.00941139163803
0.00940775204663
0.0094058795829
0.00940495731029
0.00940448830742
0.00940422307224
0.00940402500107
0.00940381877533
0.00940357837015
0.0094033045696
0.00940301087846
0.00940270771468
0.0094024141956
0.00940214809431
0.00940192151342
0.00940175740207
0.00940165663944
0.00940151472624
0.00940099889976
0.00939809026005
0.00938183216133
0.00930381091423
0.00899428388856
0.00799134543562
0.00533893991743
0.005444974385
0.00806520945352
0.00899208589578
0.00923170590583
0.00925954561936
0.00927709475449
0.0093470751894
0.00947103782834
0.00960355286503
0.0096911215052
0.0096666190376
0.00962334188418
0.00958971038612
0.00956842034874
0.0095559614896
0.00954899362565
0.00954516724299
0.00954320462379
0.00954224142684
0.00954176399685
0.00954148407403
0.00954127361598
0.00954105993847
0.00954081385348
0.00954053266342
0.00954023200406
0.00953992689305
0.00953962920027
0.00953935924193
0.00953912883122
0.00953896075463
0.00953885560022
0.00953870365812
0.00953812371433
0.00953485124825
0.00951685082201
0.00943208826799
0.00910255660286
0.00805645423327
0.00534448794944
0.00544848587224
0.00806126162999
0.00900468314085
0.00923601046183
0.00925453003816
0.00927336532829
0.00935885325393
0.00950641360946
0.00964599953552
0.00975847489971
0.00973795626689
0.00969281934797
0.00965706192131
0.0096344315213
0.00962129749582
0.00961399019215
0.0096100781199
0.00960803649226
0.00960704824332
0.00960655988945
0.00960627173719
0.0096060505292
0.00960583104282
0.00960558232563
0.00960530133683
0.00960499658087
0.00960468986354
0.0096043954583
0.00960412509435
0.00960389923801
0.00960373516029
0.00960363306318
0.00960347472699
0.00960285496206
0.00959936129086
0.00958033024262
0.00949171185391
0.00915127361153
0.0080834779587
0.00534644195053
0.00545054875388
0.00805363712243
0.00900127099528
0.00922501385826
0.00923518674969
0.00925488278053
0.00935221915134
0.00951520506452
0.00966338056954
0.00978850749698
0.0097702986351
0.00972387771084
0.00968669030254
0.00966315456188
0.00964955938694
0.00964203180668
0.00963804769693
0.0096359684787
0.00963496331561
0.00963446857317
0.00963417568231
0.00963394828259
0.00963372512788
0.00963347407463
0.00963319147959
0.00963289013577
0.00963258202729
0.0096322882147
0.00963202249709
0.00963180321369
0.00963164500108
0.00963154560986
0.00963138385147
0.00963074268551
0.00962713216777
0.00960756815385
0.00951700817859
0.00917129388507
0.0080937320067
0.00534708576541
0.00545170007321
0.00804994762442
0.00899767434993
0.00921742033929
0.00922242279498
0.00924267310529
0.0093465909308
0.00951676144624
0.00967069377464
0.00979993899289
0.00978256474384
0.00973544875297
0.00969753697898
0.00967354184848
0.00965972156423
0.00965208595666
0.00964805170129
0.00964596367871
0.0096449516806
0.0096444540126
0.00964415861216
0.00964392877213
0.00964370419231
0.0096434515069
0.00964316838804
0.00964286730923
0.00964256187042
0.00964226828848
0.00964200561145
0.00964178744176
0.00964163516386
0.00964153757875
0.00964137443436
0.00964072427452
0.00963706530425
0.00961728394328
0.00952594691036
0.00917818266376
0.0080970293262
0.00534727067791
0.00545172291706
0.00805009304478
0.00899778896161
0.00921757912578
0.00922265594504
0.00924288688546
0.00934675380983
0.0095168587732
0.00967075527301
0.00979996524478
0.00978255402858
0.00973543212428
0.00969752334363
0.00967353186765
0.00965971366612
0.0096520800304
0.00964804883382
0.00964596171802
0.00964494930571
0.00964445158819
0.00964415660276
0.00964392573729
0.00964370114676
0.00964344836044
0.0096431650708
0.00964286397912
0.00964255888725
0.00964226533353
0.00964200329164
0.00964178519883
0.009641633569
0.00964153634408
0.00964137323382
0.0096407230491
0.0096370639185
0.00961728231284
0.0095259447325
0.00917817997713
0.00809702651749
0.00534727075025
0.00545060438099
0.0080540374227
0.00900160217803
0.00922545959446
0.0092357762107
0.00925545540895
0.00935264694961
0.00951547022362
0.00966359223678
0.00978857767719
0.00977026406558
0.00972382771763
0.0096866485092
0.00966312351184
0.00964953434615
0.00964201205715
0.00963803561989
0.00963596055864
0.0096349557403
0.00963446084722
0.00963416829701
0.00963393872418
0.00963371506162
0.00963346382813
0.00963318132216
0.00963287997663
0.00963257193864
0.00963227879521
0.00963201393717
0.00963179571044
0.009631639891
0.00963154138369
0.00963137973486
0.00963073849816
0.00962712746927
0.00960756269384
0.00951700106731
0.00917128536901
0.00809372326479
0.00534708570555
0.00544854910341
0.00806183908101
0.00900518365097
0.0092366819019
0.00925533615648
0.009274145344
0.00935946449158
0.00950679223901
0.00964653608295
0.0097585549356
0.0097378872716
0.00969273181287
0.0096569898306
0.00963437810682
0.00962125477183
0.00961395229067
0.00961005286227
0.00960801712955
0.00960703251272
0.00960654445695
0.00960625424407
0.00960603133711
0.00960581137485
0.0096055624973
0.00960528158825
0.00960497711395
0.00960467016065
0.00960437588282
0.00960410794171
0.0096038857017
0.00960372424895
0.00960362387068
0.00960346570077
0.00960284581748
0.00959935126824
0.00958031892997
0.00949169783031
0.00915125768864
0.00808346247335
0.00534644122554
0.0054450107806
0.00806582349191
0.00899267041909
0.00923249825109
0.00926044558889
0.00927795677297
0.00934775988786
0.00947145258203
0.00960413093779
0.00969116165367
0.009666497355
0.00962320938938
0.00958960650672
0.00956834139302
0.00955589822766
0.0095489386628
0.00954513030669
0.00954316995672
0.00954221289549
0.00954173579197
0.00954145319891
0.00954124126098
0.00954102708109
0.00954078142615
0.00954050011381
0.0095401994583
0.00953989540018
0.00953959968383
0.0095393314918
0.00953910425862
0.00953894013885
0.0095388382924
0.0095386864108
0.00953810633496
0.00953483261305
0.00951683037604
0.009432064241
0.00910253075906
0.00805643065875
0.00534448539006
0.00543713907275
0.00803921796889
0.00892748227477
0.00916749159949
0.00920246895992
0.00921798045173
0.00927106979823
0.00936746096352
0.0094943865283
0.00954946158107
0.00952032213999
0.00947971636554
0.00944895554231
0.00942943793269
0.00941787923131
0.00941132609078
0.009407695147
0.00940582611957
0.00940490855364
0.00940444135653
0.00940417554623
0.00940397690305
0.00940377048502
0.00940353033285
0.00940325641422
0.00940296119308
0.00940266193785
0.00940237080307
0.00940210480665
0.00940188441348
0.00940172531379
0.00940162759486
0.00940148573875
0.00940096959055
0.00939805939529
0.0093817990023
0.00930377346992
0.00899424554361
0.0079913123476
0.00533893395631
0.00541785386972
0.00792929490997
0.00877576140678
0.00896949628019
0.00900473857266
0.00901720827283
0.00905578898257
0.00913822973849
0.00924780068162
0.00927183376173
0.00923982998109
0.00920304908692
0.00917579793701
0.00915833421347
0.00914784961207
0.00914176714779
0.00913841007238
0.00913665966398
0.00913579074455
0.0091353518385
0.00913510956957
0.00913492593934
0.00913473225452
0.00913450584177
0.00913424562244
0.00913396179741
0.00913367275228
0.00913339645459
0.00913315061969
0.0091329480117
0.00913281451905
0.00913272683853
0.00913259845309
0.00913217117431
0.00912978356819
0.00911611869725
0.0090485723698
0.00877196442758
0.00784676714457
0.00532389989976
0.00537061825784
0.00765139523655
0.00841655034316
0.00857889631405
0.00859669529713
0.00860256809654
0.00863574451182
0.00870616835468
0.00876388807181
0.00876495982365
0.00873340785801
0.00870173002427
0.00867850468901
0.00866334190867
0.00865407932844
0.00864863071121
0.00864561618892
0.00864402806329
0.00864323477123
0.00864284442407
0.00864263287557
0.00864247180398
0.00864229988349
0.00864209617903
0.00864186121545
0.00864160586315
0.00864134602809
0.00864110386708
0.00864089421418
0.00864074132311
0.00864065421557
0.00864057065503
0.00864045728067
0.00864013556652
0.00863839732492
0.00862811896917
0.00857502511236
0.00834709851431
0.00754912708877
0.00528394891884
0.00525105441275
0.00707420190474
0.00767600069114
0.00780604048457
0.0078218046407
0.00782422957513
0.0078405786616
0.00787589883665
0.00789965021954
0.00788982254266
0.00786267026752
0.00783733464271
0.00781838648795
0.0078060120432
0.00779824008056
0.00779366612707
0.00779109444404
0.00778974385289
0.00778907662304
0.00778876104011
0.0077885979025
0.00778847525532
0.00778834368257
0.00778818314833
0.00778799341252
0.00778778633376
0.00778758454269
0.00778740180157
0.00778726633268
0.00778718814341
0.00778711472204
0.00778703302176
0.00778693347394
0.00778671637852
0.00778566290879
0.00777920523015
0.00774369283766
0.00758054670919
0.00697295819998
0.00517621135679
0.00493145629526
0.00599021828913
0.00633972032744
0.00640937653568
0.00641546598414
0.00641540487269
0.00642308635202
0.00643928561165
0.00644758096809
0.00643750084402
0.00641846895612
0.00640061136513
0.00638788816691
0.00637906655957
0.0063734775031
0.00637014194245
0.00636825983002
0.0063672892652
0.00636683838976
0.00636664928782
0.00636656829362
0.00636651085671
0.00636644300111
0.00636634972683
0.00636622976378
0.00636609990198
0.00636597311938
0.00636587052216
0.00636580473847
0.00636573983785
0.00636566568248
0.00636558377122
0.00636549280559
0.00636535694385
0.00636489105272
0.00636205371693
0.0063450955685
0.00625916299911
0.00591196464306
0.00487667188171
0.00404236353828
0.00425866129129
0.00432718431564
0.00433908086913
0.0043381373196
0.00433859169462
0.00434133834357
0.00434250213142
0.00433923595327
0.00433192935984
0.0043239405588
0.00431815272067
0.00431365228516
0.00431054689037
0.00430858799192
0.00430747164249
0.004306907354
0.00430667440811
0.00430661838677
0.00430663337828
0.00430666623401
0.00430669634113
0.00430671124835
0.00430670512296
0.00430667870514
0.00430663599564
0.00430658201201
0.00430652222784
0.00430645786856
0.00430638200444
0.00430629658355
0.00430620400637
0.00430610672113
0.00430600316255
0.00430587132017
0.00430548505415
0.00430332688215
0.00429058815688
0.00422903493865
0.00402642282944
0.0048894795904
0.00592881367543
0.00627698497891
0.00635145852591
0.00635932580778
0.00636127220844
0.00637093021453
0.00638716093603
0.00639870400209
0.00639839833424
0.00639119094616
0.00638325721291
0.00637685730191
0.00637309209311
0.00637049759637
0.0063687942107
0.00636778417071
0.00636725586506
0.00636700526422
0.00636690256967
0.00636685426375
0.00636682325351
0.00636678686585
0.00636673671756
0.00636667134968
0.00636659235503
0.0063665032794
0.00636640931377
0.00636630636661
0.00636619663582
0.00636608371189
0.00636596902148
0.00636585210141
0.00636569414833
0.00636521506353
0.00636236122228
0.0063453964702
0.00625945179966
0.00591228264895
0.0048771617
0.00884366608312
0.0121392973841
0.0132200838004
0.0134648121868
0.0134934589025
0.0135036847582
0.0135481021286
0.0136313100204
0.013710839744
0.0137479113488
0.0137512685088
0.013742791968
0.0137326190173
0.0137239449303
0.0137180969704
0.0137143390056
0.0137120150434
0.0137106241447
0.0137097914432
0.0137092664162
0.0137088908765
0.0137085773859
0.0137082793068
0.0137079817983
0.0137076850017
0.0137073970392
0.0137071274937
0.0137068824099
0.0137066669132
0.0137064996911
0.0137063698952
0.0137062729709
0.013706182776
0.0137058777649
0.0137038379888
0.0136906832375
0.013619580803
0.0133039699286
0.0121746268081
0.0088321998476
0.00997153848204
0.0148818578147
0.0164726753931
0.016879905522
0.016947966176
0.0169689940692
0.0170272128994
0.0171318430201
0.0172273659472
0.0172653160024
0.0172602061531
0.0172427474418
0.0172262599741
0.0172137634824
0.0172055252211
0.0172004113572
0.0171973315552
0.0171955175985
0.0171944459061
0.0171937791943
0.0171933103506
0.0171929215048
0.0171925557478
0.0171921930461
0.0171918325441
0.0171914856911
0.0171911650123
0.0171908786673
0.0171906285073
0.0171904214553
0.0171902683889
0.0171901523198
0.0171900113358
0.0171893735665
0.0171852282869
0.0171608083266
0.0170402074481
0.0165494926745
0.0149088269658
0.00993428414155
0.0104346722942
0.0163620354081
0.0183158366332
0.0188401160527
0.018935177605
0.0189673219642
0.0190487504994
0.0191919515662
0.0193217136821
0.0193711753547
0.0193610361509
0.0193354926976
0.0193130436487
0.0192971727866
0.0192869201268
0.0192807088494
0.0192770539627
0.0192749374547
0.0192737042913
0.0192729455681
0.0192724190599
0.0192719863724
0.0192715806424
0.0192711791373
0.0192707826714
0.0192704030643
0.0192700540757
0.0192697443947
0.0192694822834
0.0192692695358
0.0192691021781
0.0192689671145
0.0192687602039
0.0192677238806
0.0192612783874
0.0192255948193
0.0190598516475
0.0184243883847
0.0164033186403
0.0103805367778
0.0106320837642
0.0171354865365
0.0193227723221
0.0199174134686
0.0200231768113
0.0200652548417
0.0201794035285
0.0203768525188
0.0205613277225
0.0206354223174
0.0206250733829
0.0205929072869
0.0205649690219
0.0205458998014
0.0205339362824
0.0205268075084
0.0205226795722
0.0205203253864
0.020518969054
0.0205181394574
0.020517568569
0.0205171030511
0.0205166684486
0.0205162394411
0.020515817152
0.0205154140385
0.0205150439587
0.0205147180953
0.0205144438286
0.0205142237502
0.0205140553181
0.0205139061075
0.0205136321663
0.0205122012878
0.0205035987673
0.0204579515564
0.0202547242595
0.019507361989
0.0172176698528
0.0105697363844
0.010714388937
0.0174980754062
0.0198155893676
0.0204206053601
0.0205204707382
0.0205707145803
0.0207259297057
0.0210023400732
0.0212548247181
0.0213637544115
0.0213578393005
0.0213209168473
0.021288268455
0.0212663011479
0.0212528570674
0.0212449828217
0.0212404665327
0.0212379231772
0.0212364721834
0.0212355873114
0.0212349795043
0.0212344871924
0.0212340301062
0.0212335805318
0.0212331395005
0.0212327201754
0.0212323348092
0.0212319963387
0.0212317124694
0.0212314844359
0.0212313097372
0.0212311523907
0.0212308204792
0.0212290539616
0.0212186823747
0.0211651917687
0.0209337969287
0.0201069792648
0.017641543061
0.0106506691808
0.0107454620797
0.0176366929181
0.0200043369446
0.0205986379115
0.0206838491884
0.0207398061367
0.020935574191
0.0212856837472
0.0216115850215
0.0217581895572
0.0217594825059
0.0217195951036
0.0216832312051
0.0216588601061
0.0216441768063
0.02163569911
0.0216308894506
0.0216281978974
0.0216266732582
0.0216257491645
0.0216251115548
0.0216245968313
0.0216241223018
0.0216236577495
0.021623202923
0.0216227712462
0.0216223762026
0.0216220290682
0.0216217378172
0.0216215045212
0.0216213241188
0.0216211583747
0.0216207830636
0.0216187670863
0.0216071144828
0.0215481089311
0.0212975934096
0.0204193006168
0.0178482082524
0.0106843201229
0.0107553613828
0.0176717085513
0.0200512387241
0.0206276016997
0.0206967858587
0.0207561665616
0.0209850174333
0.0213928349711
0.0217791855427
0.0219565983448
0.0219651116821
0.0219235673617
0.0218845247126
0.0218583426911
0.0218427072673
0.0218337672642
0.0218287571196
0.0218259584545
0.0218243814294
0.0218234273491
0.0218227678842
0.0218222352337
0.0218217476613
0.021821272845
0.0218208088809
0.0218203687232
0.0218199676032
0.0218196159155
0.0218193201761
0.0218190825405
0.0218188988512
0.0218187257995
0.0218183219105
0.0218161433049
0.0218036697731
0.0217412051614
0.0214790188676
0.0205705182744
0.0179415192283
0.01069756351
0.0107579867572
0.0176714595993
0.0200509868269
0.0206131956482
0.0206705893824
0.0207316838129
0.0209822981204
0.0214259130453
0.0218525473957
0.0220478996185
0.0220615457485
0.0220191223403
0.0219783633647
0.0219509868588
0.0219347148637
0.0219254676934
0.0219203281698
0.0219174633522
0.0219158532113
0.0219148804025
0.0219142061827
0.0219136613879
0.0219131651683
0.0219126835335
0.0219122143356
0.0219117694156
0.0219113639622
0.0219110092098
0.0219107112917
0.0219104721885
0.0219102858513
0.0219101091961
0.0219096891128
0.0219074186911
0.0218944866713
0.0218301204843
0.0215616508473
0.0206374073366
0.0179799998175
0.0107024004234
0.0107586225802
0.0176665843647
0.0200449963455
0.0206002084243
0.0206520189231
0.0207137097398
0.0209743667506
0.0214340733968
0.0218782133209
0.0220825095523
0.0220986744679
0.022055847593
0.0220142516993
0.0219862849115
0.0219696973461
0.0219602991333
0.0219550938706
0.021952199946
0.0219505745731
0.0219495927194
0.0219489110874
0.021948360221
0.0219478596712
0.0219473747138
0.0219469027216
0.0219464557555
0.021946048601
0.0219456924566
0.0219453938354
0.0219451545728
0.0219449664742
0.0219447883356
0.0219443612856
0.0219420507967
0.021928920182
0.0218637392821
0.0215926155319
0.0206618759511
0.0179932681126
0.0107039134681
0.0107586561962
0.0176668368706
0.0200453421727
0.0206006305275
0.0206525284237
0.0207141832087
0.0209748216951
0.0214343863782
0.0218783645348
0.0220825482248
0.0220986642203
0.0220558290122
0.0220142357011
0.0219862723996
0.0219696870501
0.0219602905556
0.021955087194
0.0219521944876
0.0219505696666
0.0219495881477
0.0219489066288
0.021948355209
0.0219478544327
0.0219473693593
0.0219468972215
0.021946450183
0.0219460429773
0.0219456868464
0.0219453884244
0.0219451492628
0.0219449613329
0.0219447833725
0.0219443564041
0.0219420458268
0.0219289148296
0.0218637333768
0.0215926085919
0.0206618680896
0.0179932598907
0.0107039101844
0.0107580762142
0.0176721750479
0.0200520024082
0.0206144135227
0.0206719977958
0.0207330871121
0.0209835214944
0.0214267735818
0.0218529589628
0.0220480007773
0.0220615099675
0.0220190641786
0.0219783134288
0.0219509474166
0.0219346819672
0.0219254395745
0.021920306034
0.0219174446362
0.0219158367464
0.0219148648492
0.0219141904187
0.0219136442494
0.0219131473368
0.021912665356
0.0219121960193
0.0219117507734
0.0219113450743
0.0219109904113
0.0219106929938
0.0219104545099
0.0219102684981
0.021910092329
0.021909672438
0.0219074017784
0.0218944686082
0.0218301007387
0.0215616280864
0.0206373822472
0.0179799743289
0.0107023897655
0.0107554779362
0.0176727674348
0.0200528173924
0.0206295348072
0.0206989196348
0.0207582609462
0.0209868403476
0.0213940936412
0.0217796830299
0.021956718267
0.0219650334797
0.0219234612605
0.0218844344199
0.0218582706659
0.0218426467198
0.0218337136507
0.0218287127453
0.0218259191216
0.0218243465446
0.0218233937492
0.0218227333062
0.021822199276
0.0218217108524
0.0218212356298
0.021820771208
0.0218203306919
0.0218199290958
0.0218195778535
0.0218192824948
0.0218190462191
0.0218188633078
0.0218186908528
0.021818287223
0.0218161081931
0.0218036327194
0.0217411653611
0.0214789745628
0.0205704715568
0.0179414742865
0.0106975438526
0.0107455644442
0.0176379058669
0.0200062619918
0.0206010775477
0.0206864846873
0.0207423484159
0.0209377431806
0.0212871493075
0.0216122990498
0.0217582684989
0.0217593382951
0.0217194290412
0.0216830923206
0.0216587466236
0.0216440787091
0.0216356135748
0.0216308147525
0.0216281282586
0.0216266095784
0.0216256870642
0.0216250483975
0.0216245324407
0.0216240570315
0.0216235920406
0.0216231366964
0.0216227044344
0.0216223100873
0.0216219631429
0.0216216734324
0.0216214408023
0.0216212623947
0.0216210964445
0.0216207211869
0.0216187045658
0.0216070493106
0.0215480400945
0.0212975191845
0.0204192259019
0.0178481406845
0.0106842883734
0.0107144401306
0.0174992311014
0.0198175567616
0.0204231811598
0.02052326336
0.020573391453
0.0207281665502
0.0210037885478
0.0212554361416
0.0213637245316
0.0213576096615
0.0213206833414
0.0212880733228
0.0212661374538
0.0212527139544
0.0212448592653
0.0212403530127
0.0212378142759
0.021236369134
0.0212354864957
0.0212348784235
0.0212343853747
0.0212339275055
0.0212334774727
0.0212330361004
0.0212326158903
0.0212322319146
0.0212318942922
0.0212316104744
0.0212313847578
0.0212312118168
0.0212310548563
0.0212307230425
0.0212289553886
0.0212185806099
0.0211650855851
0.020933684838
0.020106870652
0.0176414501909
0.0106506216948
0.0106320676934
0.0171364164082
0.0193244680113
0.0199197159946
0.0200257708062
0.0200677493654
0.0201814471959
0.0203780657575
0.0205617003114
0.0206352510024
0.0206247557865
0.0205926090708
0.0205647177516
0.0205456837773
0.0205337489784
0.0205266442244
0.0205225255422
0.0205201764095
0.020518825456
0.0205179978107
0.0205174272182
0.0205169615859
0.0205165263752
0.0205160970121
0.0205156748627
0.0205152716188
0.020514901907
0.0205145770312
0.0205143045815
0.0205140860333
0.0205139187925
0.0205137707265
0.0205134967212
0.0205120645971
0.0205034583788
0.0204578061519
0.0202545726582
0.01950721817
0.0172175519327
0.0105696704226
0.0104345947829
0.0163626566089
0.0183170723052
0.0188419420439
0.0189372776334
0.018969352331
0.0190504061181
0.0191928389213
0.0193218323816
0.0193708837156
0.019360659929
0.0193351495289
0.0193127511961
0.0192969204159
0.0192867093767
0.0192805171611
0.0192768725502
0.0192747611765
0.0192735317366
0.0192727748154
0.0192722489095
0.0192718163996
0.0192714103661
0.0192710083799
0.0192706125379
0.019270233446
0.0192698838233
0.0192695756167
0.019269315605
0.0192691038916
0.0192689377484
0.0192688039744
0.0192685968875
0.0192675594099
0.0192611098018
0.0192254208715
0.0190596706402
0.0184242175256
0.0164031813769
0.0103804540921
0.00997143827913
0.0148821957867
0.0164734520584
0.0168811806214
0.0169494747633
0.0169704613575
0.0170283783139
0.0171323906313
0.0172273094003
0.0172649745045
0.017259825228
0.017242399643
0.017225963591
0.0172135181352
0.0172053165983
0.0172002199341
0.0171971507288
0.0171953408087
0.0171942727034
0.0171936073074
0.0171931388879
0.0171927503383
0.0171923842729
0.0171920205017
0.0171916603943
0.0171913142076
0.0171909932599
0.0171907065423
0.0171904582997
0.0171902528544
0.017190101071
0.0171899863729
0.0171898454166
0.0171892068007
0.0171850576374
0.0171606321716
0.0170400224258
0.0165493158036
0.014908685088
0.00993419837178
0.00884360689695
0.0121394444818
0.0132205259291
0.0134656278392
0.0134944506072
0.0135046553598
0.0135488540369
0.0136316238504
0.0137107305348
0.0137476146694
0.0137509523981
0.0137424970953
0.013732372868
0.0137237483025
0.0137179307121
0.0137141868739
0.0137118716773
0.0137104838914
0.0137096543675
0.0137091294974
0.0137087539822
0.0137084396771
0.0137081403664
0.0137078419769
0.0137075452948
0.0137072563522
0.01370698593
0.0137067400036
0.0137065256508
0.013706359599
0.0137062309771
0.0137061350521
0.0137060450465
0.0137057397775
0.0137036969157
0.0136905372447
0.01361942419
0.0133038139558
0.0121744963465
0.00883212468617
0.0048894169307
0.00592872667392
0.00627693838932
0.00635153055517
0.00635946819498
0.0063614063669
0.00637097193998
0.00638706298498
0.00639850589042
0.00639818138336
0.00639100355065
0.00638310312816
0.00637674473573
0.00637301061576
0.00637043465151
0.00636874186967
0.00636773915645
0.00636721225819
0.00636696211839
0.00636685905602
0.00636680974967
0.00636677808387
0.00636673993221
0.0063666886843
0.00636662396703
0.00636654332364
0.00636645341159
0.00636635811818
0.00636625432851
0.00636614466517
0.00636603198722
0.00636591775567
0.00636580108581
0.00636564348835
0.00636516329869
0.00636230645107
0.00634533401449
0.00625937983846
0.0059122145227
0.0048771304118
0.00518643069517
0.00696449514125
0.00756411148975
0.00770710139803
0.00772877875578
0.00773421054705
0.0077502040991
0.00777862662451
0.00780368335215
0.00781244112666
0.00780963789633
0.00780365561078
0.00779806396787
0.00779405612592
0.00779186420474
0.00779037868812
0.00778948355433
0.00778902828924
0.00778883241207
0.00778876423818
0.00778874665499
0.00778874610108
0.00778873911802
0.0077887165349
0.0077886778992
0.00778861896495
0.00778853891007
0.00778844349977
0.00778833615504
0.00778821934128
0.00778809646906
0.00778796844011
0.00778782736559
0.00778756965724
0.00778648011322
0.00777998536563
0.00774443507043
0.00758129240706
0.00697378365889
0.00517735728167
0.00992309850561
0.0147951837235
0.0163638540254
0.0167603384279
0.0168246256491
0.0168473878404
0.0169121622597
0.0170270827644
0.0171404527086
0.0172023265638
0.0172197513557
0.0172186578588
0.0172123549005
0.0172061058121
0.0172012757717
0.0171980523698
0.0171960236069
0.0171947940017
0.0171940507733
0.0171935774939
0.0171932395878
0.0171929593411
0.0171926948562
0.0171924333034
0.0171921765654
0.0171919283254
0.017191695567
0.017191485016
0.0171912996365
0.0171911525544
0.0171910392842
0.017190950031
0.0171908219531
0.0171901844961
0.0171860210728
0.0171615816218
0.0170409378449
0.0165502568129
0.0149096766963
0.00993533644688
0.0113929275303
0.0182561599857
0.0204391378287
0.0210519628458
0.0211753079269
0.0212155344031
0.0212973367413
0.0214323573198
0.0215584363968
0.0216202445661
0.0216297026925
0.021620072266
0.0216077432642
0.0215977127388
0.0215906835236
0.0215862219218
0.0215834973577
0.0215818716591
0.021580900874
0.0215802909711
0.0215798605149
0.021579505268
0.0215791734493
0.0215788474718
0.0215785279426
0.0215782228986
0.021577941988
0.0215776928387
0.0215774772834
0.0215772984205
0.021577166652
0.021577057525
0.0215768364588
0.0215755805425
0.021567820795
0.0215258902164
0.0213355347673
0.0206203314103
0.0183716238807
0.0113839956654
0.0120497848257
0.020178284767
0.0228019253419
0.023573286547
0.0237388001798
0.0237960094799
0.0239047348821
0.024077021925
0.0242321972064
0.0243036212089
0.0243082943478
0.0242908881553
0.0242727729372
0.0242593154747
0.0242503767161
0.0242448824906
0.0242416104494
0.0242396971945
0.024238569938
0.0242378716027
0.024237384572
0.0242369853617
0.0242366137636
0.024236249214
0.0242358927123
0.0242355540253
0.0242352443378
0.0242349714359
0.0242347403909
0.0242345525333
0.0242344041799
0.0242342694302
0.0242339293051
0.0242319641373
0.0242204247963
0.0241615817766
0.0239094564807
0.0230127334211
0.0203158078912
0.0120262750412
0.0123535284439
0.0212298670623
0.0241541028608
0.0250262876085
0.0252102843861
0.025282140834
0.0254314229657
0.0256632453856
0.0258667965006
0.0259604789581
0.0259652530204
0.0259415686063
0.0259181108211
0.0259014507797