/*--------------------------------*- C++ -*----------------------------------*\
| =========                 |                                                 |
| \\      /  F ield         | OpenFOAM: The Open Source CFD Toolbox           |
|  \\    /   O peration     | Version:  3.0.1                                 |
|   \\  /    A nd           | Web:      www.OpenFOAM.org                      |
|    \\/     M anipulation  |                                                 |
\*---------------------------------------------------------------------------*/
FoamFile
{
    version     2.0;
    format      ascii;
    class       surfaceScalarField;
    location    "3.5";
    object      alphaPhi;
}
// * * * * * * * * * * * * * * * * * * * * * * * * * * * * * * * * * * * * * //

dimensions      [0 3 -1 0 0 0 0];

internalField   nonuniform List<scalar> 
45932
(
7.30179154683e-06
4.6410705525e-06
-1.19428774335e-05
1.34164873423e-05
5.53577224205e-06
-1.16504823119e-05
1.36953572593e-05
1.15245628903e-05
-1.18034343543e-05
7.47618429217e-06
1.78522783333e-05
-1.16331211358e-05
-2.14475386344e-06
2.14209205081e-05
-1.17999993977e-05
-1.24735142314e-05
2.16299037606e-05
-1.13011576381e-05
-2.05986228515e-05
1.83128242301e-05
-1.01877385312e-05
-2.39443367664e-05
1.21506944627e-05
-8.80500207295e-06
-2.2300308278e-05
5.37132254743e-06
-7.0153772447e-06
-1.79690935263e-05
7.62718095573e-07
-5.09396236696e-06
-1.33215108821e-05
-1.28514208213e-06
-3.36247373053e-06
-9.46864878872e-06
-1.74564046476e-06
-2.10725237402e-06
-6.65350675676e-06
-1.53978262796e-06
-1.27537970653e-06
-4.72092398351e-06
-1.14919564934e-06
-7.8341066769e-07
-3.42669811815e-06
-7.89935831242e-07
-5.04312088232e-07
-2.56324240776e-06
-5.22631919936e-07
-3.40845198062e-07
-1.98553764888e-06
-3.4454512312e-07
-2.33158890951e-07
-1.59233223214e-06
-2.31617134954e-07
-1.61587375368e-07
-1.31870446666e-06
-1.61578897946e-07
-1.12033081632e-07
-1.11952353481e-06
-1.19113607604e-07
-8.00493107863e-08
-9.61875531465e-07
-9.39604714906e-08
-6.36760685e-08
-8.23265629096e-07
-7.91792923566e-08
-5.94237178408e-08
-6.90426206656e-07
-7.10741995916e-08
-6.17871512016e-08
-5.55603834388e-07
-6.65009747992e-08
-6.8338442939e-08
-4.12031245832e-07
-6.59987637812e-08
-7.75851340578e-08
-2.57164757097e-07
-6.6717575903e-08
-8.8148635987e-08
-9.8320589125e-08
-6.85208433402e-08
-9.03226646374e-08
4.95116420352e-08
-7.04272451747e-08
-7.74243663477e-08
1.83589018162e-07
-7.55543378702e-08
-5.85449538775e-08
3.00229146414e-07
-7.86903365928e-08
-3.79706842202e-08
3.98642687576e-07
-8.05924786957e-08
-1.78406819531e-08
4.73382077153e-07
-7.99131711596e-08
5.15515868627e-09
5.09856811671e-07
-7.53914803334e-08
3.88985752974e-08
5.1274409537e-07
-7.03687945852e-08
6.74634687132e-08
4.83731821927e-07
-6.38679496495e-08
9.28625369087e-08
4.29118275683e-07
-5.87780667327e-08
1.13374864529e-07
3.57453472357e-07
-5.20087471846e-08
1.23657892604e-07
2.65275535115e-07
-4.65346075882e-08
1.38696771587e-07
1.51712024855e-07
-4.66246098812e-08
1.60169654192e-07
-5.71935836943e-08
2.08885209521e-07
7.2136669552e-06
1.33694183683e-05
-1.59420318485e-05
1.42651331535e-05
1.86627179005e-05
-2.01784142769e-05
1.47498572229e-05
3.25959139858e-05
-2.15560800034e-05
8.13236832827e-06
4.5951330218e-05
-2.14815737016e-05
-2.0556999827e-06
5.31677517092e-05
-2.15587710444e-05
-1.29340965211e-05
5.3410211909e-05
-2.09019241402e-05
-2.1537484667e-05
4.64141145149e-05
-1.94979233152e-05
-2.49264897873e-05
3.32135219375e-05
-1.76738358946e-05
-2.28780451308e-05
1.81164302378e-05
-1.47935745652e-05
-1.81018564868e-05
7.01239199039e-06
-1.10258909901e-05
-1.32297405666e-05
1.1566391491e-06
-7.31392873376e-06
-9.31467964993e-06
-1.19330291685e-06
-4.46743159207e-06
-6.51274047253e-06
-1.73059987527e-06
-2.61114829355e-06
-4.61877364183e-06
-1.54795336186e-06
-1.49523046334e-06
-3.36187643567e-06
-1.16904931645e-06
-8.77806826687e-07
-2.52589463118e-06
-8.20340997663e-07
-5.38295131663e-07
-1.96520912797e-06
-5.63571354284e-07
-3.41681280168e-07
-1.58309518621e-06
-3.90739986711e-07
-2.23012747477e-07
-1.31609400829e-06
-2.79279971898e-07
-1.49321413829e-07
-1.12063043035e-06
-2.08846123926e-07
-1.05751939977e-07
-9.64907887528e-07
-1.64833668622e-07
-8.4869561015e-08
-8.27176869911e-07
-1.37736738032e-07
-7.91929923557e-08
-6.94497908399e-07
-1.22608886104e-07
-8.11631032145e-08
-5.59601596046e-07
-1.14968212734e-07
-8.64478254223e-08
-4.16817781232e-07
-1.13483908884e-07
-9.53179961137e-08
-2.61858604919e-07
-1.15140100458e-07
-1.06557092882e-07
-1.02300607322e-07
-1.19453977414e-07
-1.08646452737e-07
4.71186901206e-08
-1.25103691101e-07
-9.47650506955e-08
1.80462317244e-07
-1.32346687467e-07
-7.6573210249e-08
2.98131402121e-07
-1.39128577322e-07
-5.72517264274e-08
3.98734709904e-07
-1.42461650376e-07
-3.87536940419e-08
4.75761505655e-07
-1.41493000968e-07
-1.54655466401e-08
5.14177337333e-07
-1.35038026762e-07
2.1212435704e-08
5.17430935676e-07
-1.29334806781e-07
5.56940401771e-08
4.87884797979e-07
-1.19235570143e-07
8.48956039364e-08
4.32076981345e-07
-1.10451087823e-07
1.07463677502e-07
3.59992232842e-07
-1.0126517816e-07
1.2132523031e-07
2.66315776818e-07
-9.3174059563e-08
1.40299754406e-07
1.48694283909e-07
-9.31161031614e-08
1.64093827206e-07
-1.0343283165e-07
1.94912528197e-07
8.40434242295e-06
2.18949673859e-05
-1.69299065532e-05
1.67623116033e-05
3.22085780182e-05
-2.19038264914e-05
1.71929224175e-05
5.30868806833e-05
-2.09215874736e-05
9.52848576291e-06
7.21169325606e-05
-1.85011601736e-05
-1.95890898286e-06
8.21570827658e-05
-1.75019403669e-05
-1.41293124547e-05
8.23792536091e-05
-1.67986427945e-05
-2.37721124034e-05
7.23700733366e-05
-1.63131721698e-05
-2.74087057627e-05
5.33344241575e-05
-1.64843417792e-05
-2.47330198789e-05
3.11377446478e-05
-1.56970175227e-05
-1.90553301643e-05
1.41950063962e-05
-1.28603286386e-05
-1.35156920479e-05
4.58223374239e-06
-8.96526308345e-06
-9.26937541688e-06
1.62588283126e-07
-5.60223948696e-06
-6.35552501424e-06
-1.35306114333e-06
-3.29141517063e-06
-4.4540681212e-06
-1.55773655894e-06
-1.89169754471e-06
-3.22933245077e-06
-1.30007833295e-06
-1.0937297038e-06
-2.43121953765e-06
-9.59733437717e-07
-6.58743540626e-07
-1.90106829421e-06
-6.78341737896e-07
-4.15403591129e-07
-1.5398426343e-06
-4.7870779898e-07
-2.73280151129e-07
-1.28636609286e-06
-3.45899624784e-07
-1.8687887331e-07
-1.09938400238e-06
-2.58792522298e-07
-1.37057127169e-07
-9.49134727198e-07
-2.02331173997e-07
-1.12772403782e-07
-8.14841694499e-07
-1.66653496979e-07
-1.05395932652e-07
-6.84790064118e-07
-1.46418385336e-07
-1.06260950244e-07
-5.51899657861e-07
-1.36797587409e-07
-1.11079539999e-07
-4.10584254128e-07
-1.34477054805e-07
-1.20341302964e-07
-2.56777008242e-07
-1.37383839343e-07
-1.3158377243e-07
-9.79854248791e-08
-1.44025855232e-07
-1.3424132869e-07
4.95656569314e-08
-1.52473157749e-07
-1.20204069945e-07
1.8327479001e-07
-1.6259403496e-07
-1.03484118706e-07
3.01195183912e-07
-1.71505375427e-07
-8.55649053514e-08
4.02766478025e-07
-1.75761523055e-07
-6.82913451758e-08
4.80555920935e-07
-1.74560251506e-07
-4.47410613549e-08
5.20489782587e-07
-1.6720262069e-07
-7.78780030911e-09
5.22100500497e-07
-1.60732166247e-07
2.97679916823e-08
4.91364969855e-07
-1.49371884124e-07
6.0853377441e-08
4.34727689916e-07
-1.38444910373e-07
8.46136171143e-08
3.60681463038e-07
-1.28164235087e-07
1.00928998388e-07
2.64769345422e-07
-1.18757793275e-07
1.21479228561e-07
1.44807712557e-07
-1.16844497622e-07
1.43670061795e-07
-1.19053684846e-07
1.60406598759e-07
1.09301097021e-05
2.80571545691e-05
-1.70923114863e-05
2.11256695262e-05
4.19504589063e-05
-1.9937448389e-05
2.1226859478e-05
6.71520054164e-05
-1.41663160753e-05
1.17863632375e-05
8.91904455779e-05
-7.63301279562e-06
-1.87658180433e-06
0.000100703444918
-4.88341896284e-06
-1.62113631587e-05
0.000100909165044
-4.19513057941e-06
-2.75789780291e-05
8.91851887692e-05
-5.44750524814e-06
-3.17409756219e-05
6.68692205938e-05
-9.3728153273e-06
-2.81802696581e-05
4.03291115247e-05
-1.2752099652e-05
-2.10660959218e-05
1.96438402678e-05
-1.2563032118e-05
-1.44167435771e-05
7.48568238218e-06
-9.55282345776e-06
-9.52508975268e-06
1.51206810158e-06
-6.24116221682e-06
-6.32892239573e-06
-7.92392903359e-07
-3.75686387137e-06
-4.33937417125e-06
-1.36118726216e-06
-2.1861192473e-06
-3.11084530371e-06
-1.25728981228e-06
-1.27133923033e-06
-2.33790988915e-06
-9.71840565228e-07
-7.60850644434e-07
-1.83520784939e-06
-7.01652942465e-07
-4.79412783061e-07
-1.4952635031e-06
-5.00181776533e-07
-3.18492078388e-07
-1.25608943341e-06
-3.62152359979e-07
-2.22942675144e-07
-1.07844445025e-06
-2.69140020978e-07
-1.6731831043e-07
-9.344558928e-07
-2.07131022641e-07
-1.39208614119e-07
-8.04587570579e-07
-1.6729068457e-07
-1.29249809613e-07
-6.77627670893e-07
-1.44492861958e-07
-1.28902908942e-07
-5.47072043854e-07
-1.34073882597e-07
-1.33296219932e-07
-4.07417556474e-07
-1.31531925177e-07
-1.4261690922e-07
-2.54877479117e-07
-1.35434837497e-07
-1.54507648841e-07
-9.68367528688e-08
-1.43594970061e-07
-1.58491736909e-07
4.98800207259e-08
-1.53714608309e-07
-1.45496512166e-07
1.83778528197e-07
-1.65922007409e-07
-1.30591761948e-07
3.02348056166e-07
-1.75765208407e-07
-1.1432993684e-07
4.05168036659e-07
-1.80408585682e-07
-9.81917234146e-08
4.83970362167e-07
-1.78924126183e-07
-7.44561438938e-08
5.24425591503e-07
-1.71634354306e-07
-3.6040859937e-08
5.25917800226e-07
-1.63547019036e-07
1.30507069691e-09
4.94586497522e-07
-1.52852959491e-07
3.47948512188e-08
4.3752453222e-07
-1.41111498815e-07
5.9711893609e-08
3.62146193822e-07
-1.30552307858e-07
7.7750873242e-08
2.64476578284e-07
-1.20312920206e-07
9.92087281738e-08
1.4381831379e-07
-1.1640236884e-07
1.20196499927e-07
-1.1015321795e-07
1.34895918078e-07
1.44093657033e-05
3.08744314726e-05
-1.72266507607e-05
2.67322754265e-05
4.60812870393e-05
-1.64537374983e-05
2.62931444506e-05
7.22982851122e-05
-4.70714439055e-06
1.46224582534e-05
9.41830900025e-05
6.67804141966e-06
-1.8128784878e-06
0.000105624445422
1.15143285125e-05
-1.89064155566e-05
0.00010583673551
1.21659820167e-05
-3.24068039234e-05
9.40085336911e-05
8.677070017e-06
-3.72711482609e-05
7.15038678151e-05
2.29692083907e-07
-3.27128282748e-05
4.40759396731e-05
-8.30516479814e-06
-2.38643949288e-05
2.23036353609e-05
-1.15082504062e-05
-1.57964996696e-05
9.1990782966e-06
-9.78131415624e-06
-1.00514684928e-05
2.50165388561e-06
-6.7346413633e-06
-6.43595963139e-06
-2.54761955119e-07
-4.15316632582e-06
-4.28653669656e-06
-1.07572130607e-06
-2.43491231263e-06
-3.01906332666e-06
-1.10241806785e-06
-1.42236554037e-06
-2.25503554697e-06
-8.90185409865e-07
-8.45703797668e-07
-1.77353426345e-06
-6.54374472845e-07
-5.28800827524e-07
-1.45254209551e-06
-4.69245552147e-07
-3.51949464559e-07
-1.22680508751e-06
-3.39273987148e-07
-2.48636036229e-07
-1.05823227817e-06
-2.49895949318e-07
-1.87837113681e-07
-9.20612975674e-07
-1.88735300034e-07
-1.56034219094e-07
-7.95486783701e-07
-1.48897403112e-07
-1.43537186598e-07
-6.71888585222e-07
-1.26014242473e-07
-1.4209297883e-07
-5.43797745629e-07
-1.15885100067e-07
-1.46294878986e-07
-4.05937970582e-07
-1.13580443572e-07
-1.55826772671e-07
-2.54718263778e-07
-1.17947031022e-07
-1.68724370594e-07
-9.73604890917e-08
-1.26678506667e-07
-1.74292862055e-07
4.93512575823e-08
-1.37450997455e-07
-1.62995278984e-07
1.83113513772e-07
-1.49937251908e-07
-1.49767121049e-07
3.02550237954e-07
-1.59842766573e-07
-1.35378310571e-07
4.06759965291e-07
-1.64419486081e-07
-1.20216460769e-07
4.86699024518e-07
-1.62750109303e-07
-9.61295195162e-08
5.27789655501e-07
-1.55928936472e-07
-5.68121655455e-08
5.29143111456e-07
-1.4785734272e-07
-1.705955826e-08
4.97798297932e-07
-1.37371282236e-07
1.58466037121e-08
4.40652965956e-07
-1.26050800513e-07
4.20688277979e-08
3.64525548985e-07
-1.16058930817e-07
6.1619251473e-08
2.66008039692e-07
-1.05619091117e-07
8.38082860051e-08
1.45061662463e-07
-1.0066692717e-07
1.05191698406e-07
-9.00154047541e-08
1.24902077267e-07
1.82494747287e-05
2.99565177528e-05
-1.73315783358e-05
3.2673869979e-05
4.4206563652e-05
-1.25496700406e-05
3.15466640588e-05
6.83002689364e-05
5.12522064255e-06
1.75039218654e-05
8.73977159681e-05
2.08281123896e-05
-1.75791613764e-06
9.75555601821e-05
2.73307524017e-05
-2.16636641005e-05
9.78064648419e-05
2.79360299623e-05
-3.74010079266e-05
8.72288102373e-05
2.25170742433e-05
-4.31030205418e-05
6.72465233292e-05
9.95937772089e-06
-3.76366175853e-05
4.21725571643e-05
-3.56303428649e-06
-2.70128654996e-05
2.19259743483e-05
-1.02461091818e-05
-1.74332158812e-05
9.49151014072e-06
-9.87210530693e-06
-1.07400972619e-05
2.95139161904e-06
-7.14287862978e-06
-6.63658295775e-06
1.42514503154e-07
-4.50081506283e-06
-4.28390363504e-06
-7.75679893387e-07
-2.65274453537e-06
-2.95495784599e-06
-8.91664776289e-07
-1.53971924682e-06
-2.18655900891e-06
-7.46270961341e-07
-9.12332870305e-07
-1.71942688667e-06
-5.58931803522e-07
-5.62595182611e-07
-1.41414439771e-06
-4.02304905597e-07
-3.72243613664e-07
-1.20005269722e-06
-2.89629201203e-07
-2.63756958979e-07
-1.03955845207e-06
-2.11444077018e-07
-1.98966000154e-07
-9.07882705943e-07
-1.56666831233e-07
-1.63763051339e-07
-7.87359537536e-07
-1.20453268101e-07
-1.48984427444e-07
-6.67137890861e-07
-9.96556808712e-08
-1.46595470589e-07
-5.41436949042e-07
-9.07162335702e-08
-1.50883891614e-07
-4.05345661569e-07
-8.88533247584e-08
-1.60832634183e-07
-2.55417334895e-07
-9.31386878139e-08
-1.74752318645e-07
-9.87010979441e-08
-1.0144854348e-07
-1.81963814124e-07
4.79623793565e-08
-1.11711488228e-07
-1.72422104554e-07
1.81875460268e-07
-1.23037648266e-07
-1.60832099364e-07
3.02326762559e-07
-1.32128430282e-07
-1.48184063011e-07
4.079415696e-07
-1.36236433116e-07
-1.3381465897e-07
4.88985853468e-07
-1.34517426521e-07
-1.09292469371e-07
5.30702155691e-07
-1.28502551695e-07
-6.91578539471e-08
5.32084357685e-07
-1.21167951977e-07
-2.8087157727e-08
5.0083125258e-07
-1.11663132967e-07
5.52913291171e-09
4.43761967432e-07
-1.01738924293e-07
3.27421675517e-08
3.67335794787e-07
-9.28559237942e-08
5.32088453135e-08
2.68795437769e-07
-8.30964531295e-08
7.60026922077e-08
1.47447158527e-07
-7.81387780797e-08
9.88011029813e-08
-6.69696051483e-08
1.24379644588e-07
2.18179680631e-05
2.55392171659e-05
-1.74006851177e-05
3.80138244086e-05
3.70559945963e-05
-9.04528298391e-06
3.62260664567e-05
5.66867747902e-05
1.34012487301e-05
2.00608155371e-05
7.13503110491e-05
3.22126618448e-05
-1.69609442939e-06
7.93165735551e-05
3.99959063253e-05
-2.40842582338e-05
7.95875200333e-05
4.06071191234e-05
-4.18448145353e-05
7.13092927874e-05
3.36800901385e-05
-4.84071902438e-05
5.56827097133e-05
1.81261976047e-05
-4.22584848093e-05
3.53785301917e-05
6.45315705365e-07
-3.00568105209e-05
1.87957964198e-05
-9.07151340165e-06
-1.90726405636e-05
8.41004954956e-06
-9.90272845658e-06
-1.14689046437e-05
2.82067945843e-06
-7.47304815118e-06
-6.88086215187e-06
3.46765282878e-07
-4.79231684802e-06
-4.31491132273e-06
-5.09183858194e-07
-2.83246866812e-06
-2.91433119961e-06
-6.60702368027e-07
-1.63156485112e-06
-2.13415501858e-06
-5.68893337903e-07
-9.57571732936e-07
-1.67522481146e-06
-4.33959220689e-07
-5.83922775604e-07
-1.38184544004e-06
-3.12995359082e-07
-3.8270914168e-07
-1.17737765519e-06
-2.24547662559e-07
-2.69569677935e-07
-1.02349787136e-06
-1.6218076161e-07
-2.03163093981e-07
-8.96876332957e-07
-1.18008321354e-07
-1.6529884208e-07
-7.80463354653e-07
-8.84670175431e-08
-1.48416205753e-07
-6.63323675658e-07
-7.15250485082e-08
-1.45285189353e-07
-5.39757330918e-07
-6.4438844515e-08
-1.49857228908e-07
-4.05258674651e-07
-6.30737597292e-08
-1.60291788917e-07
-2.56479075974e-07
-6.67646783448e-08
-1.75168678161e-07
-1.00339339209e-07
-7.37924854679e-08
-1.83813000614e-07
4.6169199768e-08
-8.24796726098e-08
-1.7575921783e-07
1.80439574482e-07
-9.15684042939e-08
-1.6575883147e-07
3.01928131103e-07
-9.9066583354e-08
-1.54568548486e-07
4.08844464012e-07
-1.02312689805e-07
-1.40856448577e-07
4.90866620947e-07
-1.00724289424e-07
-1.15830246088e-07
5.33154238991e-07
-9.57982252448e-08
-7.50065319034e-08
5.34590106262e-07
-8.98311364384e-08
-3.27877518993e-08
5.03448398859e-07
-8.18863514417e-08
1.34945693495e-09
4.46576402515e-07
-7.39586132717e-08
2.90766727852e-08
3.70047627466e-07
-6.69286316807e-08
5.05873129106e-08
2.7199469344e-07
-5.90845847142e-08
7.40261240798e-08
1.49913863864e-07
-5.42763732579e-08
9.81993899365e-08
-4.47479753213e-08
1.27670444989e-07
2.47283379309e-05
1.83517892561e-05
-1.75409282062e-05
4.22279231985e-05
2.61778460941e-05
-6.62143835931e-06
4.00206164985e-05
3.97986152271e-05
1.90954628527e-05
2.22041673338e-05
4.93678267356e-05
3.97989498877e-05
-1.61740160901e-06
5.47573413552e-05
4.83808147191e-05
-2.60345202991e-05
5.49896410487e-05
4.90149923656e-05
-4.5407927943e-05
4.94543891436e-05
4.12283112604e-05
-5.26320181547e-05
3.91000817344e-05
2.38067277376e-05
-4.60259554651e-05
2.50913040251e-05
3.68116414796e-06
-3.26106930666e-05
1.35558961423e-05
-8.17537606376e-06
-2.04891234681e-05
6.20173454759e-06
-9.91327507796e-06
-1.21227298973e-05
2.17436862578e-06
-7.72010412961e-06
-7.11632468019e-06
3.54163564062e-07
-5.01382695647e-06
-4.36026828693e-06
-2.97566528098e-07
-2.9676952336e-06
-2.8914791599e-06
-4.31128394349e-07
-1.69838338441e-06
-2.09740993464e-06
-3.79788177057e-07
-9.83194968409e-07
-1.64206121607e-06
-2.92153277157e-07
-5.97173149425e-07
-1.35702770763e-06
-2.11336091739e-07
-3.86712945606e-07
-1.15963817836e-06
-1.50954828403e-07
-2.71002856102e-07
-1.01086150797e-06
-1.08020410234e-07
-2.02957270392e-07
-8.88192843909e-07
-7.74190024885e-08
-1.63277095954e-07
-7.75083854941e-07
-5.67561728664e-08
-1.44837011753e-07
-6.60471780444e-07
-4.49657928841e-08
-1.41186265824e-07
-5.3862433557e-07
-4.01985476717e-08
-1.46101158244e-07
-4.05415823994e-07
-3.93355796894e-08
-1.56960142064e-07
-2.57569379922e-07
-4.20103643127e-08
-1.72615785431e-07
-1.01895085634e-07
-4.70232344874e-08
-1.8246083507e-07
4.44277518752e-08
-5.32253212806e-08
-1.75596232004e-07
1.79109883527e-07
-5.94372580542e-08
-1.66832669675e-07
3.01522746938e-07
-6.46095751836e-08
-1.56888090928e-07
4.09524527396e-07
-6.67149541847e-08
-1.43615799868e-07
4.92326816516e-07
-6.54219851118e-08
-1.18119326282e-07
5.3506748925e-07
-6.1880859679e-08
-7.66723745835e-08
5.36548571248e-07
-5.77366933905e-08
-3.35904097742e-08
5.05491701195e-07
-5.21566334775e-08
1.31174891244e-09
4.48801771376e-07
-4.6680753101e-08
2.93970166662e-08
3.7227544651e-07
-4.18132360896e-08
5.1396662257e-08
2.743017446e-07
-3.63975621471e-08
7.52716098048e-08
1.51926926936e-07
-3.24951738908e-08
1.00574415536e-07
-2.47520561982e-08
1.31909051192e-07
2.67320587344e-05
9.39965363678e-06
-1.77799427111e-05
4.50727518079e-05
1.32756603265e-05
-5.43851782227e-06
4.2628989841e-05
2.01325086767e-05
2.21098675443e-05
2.36681615852e-05
2.47420010906e-05
4.35866694044e-05
-1.54242833659e-06
2.74849527885e-05
5.24829837432e-05
-2.7325241054e-05
2.76226673148e-05
5.31497866043e-05
-4.77982116532e-05
2.48597836192e-05
4.50675763233e-05
-5.54657765731e-05
1.98312783258e-05
2.69363752741e-05
-4.86226641383e-05
1.27945155214e-05
5.45368194848e-06
-3.44124485612e-05
6.97532352776e-06
-7.62965454543e-06
-2.15129826793e-05
3.22509736051e-06
-9.92284778165e-06
-1.26075979689e-05
1.15140660609e-06
-7.88244577189e-06
-7.29848977256e-06
2.04627857527e-07
-5.15959530396e-06
-4.40170535507e-06
-1.38776901153e-07
-3.05559536106e-06
-2.88038037592e-06
-2.12166875518e-07
-1.7403063774e-06
-2.0741328743e-06
-1.88322982191e-07
-9.97732986919e-07
-1.62028223881e-06
-1.44251386424e-07
-6.01771118186e-07
-1.3403601675e-06
-1.04114082842e-07
-3.87164248035e-07
-1.14761132513e-06
-7.37389286182e-08
-2.69985464993e-07
-1.0022496825e-06
-5.22550344024e-08
-2.01147605673e-07
-8.82238402756e-07
-3.6932355853e-08
-1.60517497676e-07
-7.71431800801e-07
-2.66430174328e-08
-1.40937304787e-07
-6.58607524024e-07
-2.09081132219e-08
-1.36897192357e-07
-5.37939704148e-07
-1.87365904152e-08
-1.42143412978e-07
-4.05623661736e-07
-1.83847852382e-08
-1.53280491722e-07
-2.5842412098e-07
-1.97521917994e-08
-1.69472996361e-07
-1.03073257833e-07
-2.22539817819e-08
-1.80137740173e-07
4.30631652273e-08
-2.53133274204e-08
-1.74067838634e-07
1.78133875086e-07
-2.8226293298e-08
-1.66301416555e-07
3.01234309194e-07
-3.06205314197e-08
-1.57107936949e-07
4.10002126778e-07
-3.13901924715e-08
-1.44108956671e-07
4.93333214575e-07
-3.05085167409e-08
-1.18259268802e-07
5.36372033133e-07
-2.859625785e-08
-7.63377025701e-08
5.37829933737e-07
-2.65248724154e-08
-3.26846043543e-08
5.0686366179e-07
-2.37491457086e-08
2.54329242526e-09
4.50322224514e-07
-2.11061452516e-08
3.09516093134e-08
3.73784400097e-07
-1.88037634024e-08
5.35138797281e-08
2.75824147241e-07
-1.60280332426e-08
7.75754404055e-08
1.53180225248e-07
-1.34283987941e-08
1.03557723991e-07
-6.86153837404e-09
1.35267572452e-07
2.77339440852e-05
-3.53565117448e-07
-1.79807314699e-05
4.6501947517e-05
-4.08803278359e-07
-5.08355084469e-06
4.39423967929e-05
-4.92097563957e-07
2.31841540208e-05
2.43670794662e-05
-5.34495972624e-07
4.48518262206e-05
-1.49992810062e-06
-5.61439234779e-07
5.391338899e-05
-2.79419872801e-05
-5.48492871529e-07
5.4613219287e-05
-4.89654506323e-05
-5.07333593977e-07
4.63905809299e-05
-5.6852202414e-05
-4.43876930469e-07
2.81619316953e-05
-4.99203537294e-05
-3.41223743786e-07
6.20389860049e-06
-3.53260607214e-05
-2.24838856253e-07
-7.39414124343e-06
-2.20399689565e-05
-1.28769263056e-07
-9.93224392415e-06
-1.28605043961e-05
-6.59265842593e-08
-7.96215344997e-06
-7.3952169841e-06
-3.03380120888e-08
-5.23034448033e-06
-4.42491985745e-06
-1.14332876142e-08
-3.09766194112e-06
-2.8757235475e-06
-1.89804176496e-09
-1.75948482336e-06
-2.06267389282e-06
2.71120980212e-09
-1.00410366604e-06
-1.60953476625e-06
4.36238951747e-09
-6.01771708179e-07
-1.3320673523e-06
4.85484718524e-09
-3.86456550392e-07
-1.14162338833e-06
4.61566398108e-09
-2.68819464837e-07
-9.97967154334e-07
3.88047292499e-09
-1.99812622239e-07
-8.79294590638e-07
2.9980114643e-09
-1.58622857826e-07
-7.696619965e-07
2.17263162712e-09
-1.3846613621e-07
-6.57740248268e-07
1.39058864708e-09
-1.34235988278e-07
-5.37640519917e-07
8.75888244372e-10
-1.39726108483e-07
-4.0575061299e-07
7.29736704631e-10
-1.51018336612e-07
-2.58863725756e-07
7.95077410565e-10
-1.6744971215e-07
-1.03663465632e-07
1.02872590516e-09
-1.78500891719e-07
4.23594605539e-08
1.45957236698e-09
-1.72815554167e-07
1.77679267579e-07
2.00398160372e-09
-1.65570091724e-07
3.0114467992e-07
2.67724382725e-09
-1.56781834768e-07
4.1029055684e-07
3.28174931645e-09
-1.43834280693e-07
4.93861763893e-07
3.68244347918e-09
-1.17776885244e-07
5.37023116066e-07
3.82261638054e-09
-7.5594493341e-08
5.3842815102e-07
3.70861179472e-09
-3.16534185064e-08
5.07512360924e-07
3.40822998901e-09
3.74284990789e-09
4.51022184482e-07
2.98749530088e-09
3.23811933279e-08
3.74479042806e-07
2.66884563139e-09
5.50559155135e-08
2.76495913649e-07
2.60174625455e-09
7.93379184185e-08
1.53701888206e-07
3.75752333488e-09
1.05588538867e-07
9.70839546496e-09
1.37109727504e-07
2.77226109286e-05
-1.00857707897e-05
-1.79904198483e-05
4.64857079413e-05
-1.40722558201e-05
-5.09965470864e-06
4.39261274048e-05
-2.10989659391e-05
2.31664479529e-05
2.43581477103e-05
-2.58015192212e-05
4.48350078771e-05
-1.49758697587e-06
-2.85908394838e-05
5.38851391435e-05
-2.79293078555e-05
-2.86996259905e-05
5.45828614832e-05
-4.89457204455e-05
-2.58547011362e-05
4.63637798223e-05
-5.68276376134e-05
-2.0692155518e-05
2.81302084414e-05
-4.9892684392e-05
-1.34513401263e-05
6.17517615084e-06
-3.53019777595e-05
-7.40668194769e-06
-7.40887400372e-06
-2.20235986704e-05
-3.47187036496e-06
-9.93529631309e-06
-1.28509111318e-05
-1.27793613651e-06
-7.96070020899e-06
-7.39004139471e-06
-2.62949952986e-07
-5.22828054896e-06
-4.42229400396e-06
1.1688481726e-07
-3.09608649958e-06
-2.87446219176e-06
2.08598508119e-07
-1.75834783639e-06
-2.0621767472e-06
1.93796166284e-07
-1.00339012867e-06
-1.60938609277e-06
1.53055318824e-07
-6.01502161519e-07
-1.33211127579e-06
1.13855849638e-07
-3.8629592694e-07
-1.1417914767e-06
8.29408867455e-08
-2.68665949807e-07
-9.98180990481e-07
6.00066642452e-08
-1.99757649509e-07
-8.79500010339e-07
4.29572437974e-08
-1.58660260209e-07
-7.69848978917e-07
3.09470110927e-08
-1.38443436361e-07
-6.57863641931e-07
2.36551581054e-08
-1.34265559295e-07
-5.37679050616e-07
2.04315475417e-08
-1.3975424867e-07
-4.05735013923e-07
1.9733177873e-08
-1.50961467197e-07
-2.58804371441e-07
2.12328089235e-08
-1.67383991865e-07
-1.03557225617e-07
2.41802796299e-08
-1.78416663901e-07
4.25244839922e-08
2.80623264173e-08
-1.7270420903e-07
1.77843209132e-07
3.20932069999e-08
-1.6542794937e-07
3.01287298994e-07
3.57829946665e-08
-1.56568442264e-07
4.10388721918e-07
3.77197497152e-08
-1.43555801571e-07
4.9389875047e-07
3.76176045923e-08
-1.17459797205e-07
5.36998069951e-07
3.59690737573e-08
-7.52599272123e-08
5.38359634216e-07
3.36532099146e-08
-3.13209567229e-08
5.07418094555e-07
3.02220526633e-08
4.11223908979e-09
4.5087419821e-07
2.6732684578e-08
3.27834332928e-08
3.74304651737e-07
2.38412916107e-08
5.53825407168e-08
2.76302798975e-07
2.09019967607e-08
7.96862209485e-08
1.53558614808e-07
2.05781607322e-08
1.059040302e-07
2.59587421213e-08
1.37286114273e-07
2.66976036873e-05
-1.89765569151e-05
-1.78068383725e-05
4.50231559864e-05
-2.69109939982e-05
-5.48682633628e-06
4.25829240094e-05
-4.07057953517e-05
2.20470612622e-05
2.3644818849e-05
-5.03822738598e-05
4.35188322949e-05
-1.53449886217e-06
-5.58051227151e-05
5.23936124542e-05
-2.72879193495e-05
-5.60020760414e-05
5.30558886727e-05
-4.77400335799e-05
-5.03854931828e-05
4.49829097052e-05
-5.53925721629e-05
-3.98827373201e-05
2.68431264312e-05
-4.85411087901e-05
-2.56751261809e-05
5.37233183562e-06
-3.43420019176e-05
-1.39349336937e-05
-7.67086621181e-06
-2.14652913628e-05
-6.41795435039e-06
-9.93064518662e-06
-1.25796287234e-05
-2.28553578789e-06
-7.87808554975e-06
-7.28340905496e-06
-4.05654561908e-07
-5.15353764621e-06
-4.39398119636e-06
2.78347785328e-07
-3.05091159696e-06
-2.87665119541e-06
4.28259038733e-07
-1.7370097625e-06
-2.0726438503e-06
3.85125201313e-07
-9.95355998079e-07
-1.61985758626e-06
3.00761465451e-07
-6.00510633719e-07
-1.34050847554e-06
2.21015305031e-07
-3.86528434369e-07
-1.14811465556e-06
1.60069481761e-07
-2.6954314113e-07
-1.00288136411e-06
1.15744230724e-07
-2.00991649539e-07
-8.82859703557e-07
8.34827681396e-08
-1.60567049999e-07
-7.71987497698e-07
6.09198799793e-08
-1.40862940654e-07
-6.5898460398e-07
4.75143820621e-08
-1.36877617984e-07
-5.3807150475e-07
4.16625772002e-08
-1.42157974963e-07
-4.05578783044e-07
4.03883262736e-08
-1.53161684172e-07
-2.58249927483e-07
4.31538752128e-08
-1.69265308437e-07
-1.02764363405e-07
4.85623637577e-08
-1.79885313918e-07
4.35253194896e-08
5.54981498032e-08
-1.73744903816e-07
1.78610367053e-07
6.28740174223e-08
-1.65885495756e-07
3.01652256406e-07
6.92408218541e-08
-1.56517972616e-07
4.10291740181e-07
7.23823897261e-08
-1.43318189448e-07
4.93441481198e-07
7.17923407112e-08
-1.17338800931e-07
5.36294356066e-07
6.84589263582e-08
-7.53566054724e-08
5.37608310764e-07
6.40299275905e-08
-3.17051827294e-08
5.0657547176e-07
5.7784905455e-08
3.45481387738e-09
4.49894648365e-07
5.14343629994e-08
3.19641930314e-08
3.73252612779e-07
4.60118690711e-08
5.44572184135e-08
2.75239765737e-07
4.02932871601e-08
7.86064772093e-08
1.52744126019e-07
3.85610365906e-08
1.04493526857e-07
4.28878942277e-08
1.35793075317e-07
2.46702542529e-05
-2.60679826329e-05
-1.75788530222e-05
4.21438969081e-05
-3.76838196055e-05
-6.70083438398e-06
3.99449757609e-05
-5.74731417742e-05
1.89662779746e-05
2.21644363331e-05
-7.225493875e-05
3.96531861339e-05
-1.60245928572e-06
-8.02563172767e-05
4.82181149585e-05
-2.59708218863e-05
-8.04865671265e-05
4.88528887034e-05
-4.53101010274e-05
-7.21165302358e-05
4.10703139737e-05
-5.25103297262e-05
-5.63342663789e-05
2.36517570132e-05
-4.58943539627e-05
-3.5849864472e-05
3.55876673042e-06
-3.24990258356e-05
-1.90957504806e-05
-8.23452402193e-06
-2.04140607914e-05
-8.58110416149e-06
-9.92183482085e-06
-1.20787284428e-05
-2.90958015769e-06
-7.71131002075e-06
-7.09254304985e-06
-3.88496731274e-07
-5.00336560317e-06
-4.34803776536e-06
4.93785755167e-07
-2.95996374537e-06
-2.88550289841e-06
6.59008920529e-07
-1.69330394562e-06
-2.09496557758e-06
5.73638778146e-07
-9.79070312496e-07
-1.6413410473e-06
4.41967515773e-07
-5.94848252543e-07
-1.35728183082e-06
3.22247301118e-07
-3.85310871216e-07
-1.16045972087e-06
2.33406817529e-07
-2.70179804682e-07
-1.01189841054e-06
1.69717097479e-07
-2.02554600459e-07
-8.89269967779e-07
1.23841851184e-07
-1.63006931831e-07
-7.76030862066e-07
9.23560164412e-08
-1.44692732408e-07
-6.61111621337e-07
7.37536043891e-08
-1.41173625014e-07
-5.3885645502e-07
6.55326439644e-08
-1.46138775035e-07
-4.0535681977e-07
6.36266488048e-08
-1.56751447196e-07
-2.57296190195e-07
6.73818326422e-08
-1.72303563544e-07
-1.01405300352e-07
7.47526197956e-08
-1.82098295696e-07
4.51369007699e-08
8.40745992911e-08
-1.75137459498e-07
1.79868404841e-07
9.43579922569e-08
-1.66234521873e-07
3.02188061662e-07
1.02855895665e-07
-1.5595244755e-07
4.09984765888e-07
1.06962656253e-07
-1.42392588251e-07
4.92492330504e-07
1.05934111335e-07
-1.16663286496e-07
5.34931931305e-07
1.01154010661e-07
-7.51482134976e-08
5.3616628023e-07
9.48459091062e-08
-3.20644563609e-08
5.04998011515e-07
8.63020437869e-08
2.63640431501e-09
4.4810291763e-07
7.74249425036e-08
3.08900591484e-08
3.71353862403e-07
6.97008087439e-08
5.3046385388e-08
2.73305245576e-07
6.14815385712e-08
7.68457694219e-08
1.5113301931e-07
5.86616546169e-08
1.02052808663e-07
6.1242294721e-08
1.3275707724e-07
2.17379099258e-05
-3.03668897338e-05
-1.7439032188e-05
3.78920629915e-05
-4.46920775418e-05
-9.14591484101e-06
3.61226981487e-05
-6.89074087359e-05
1.32036520608e-05
2.00123470979e-05
-8.81097921617e-05
3.19651771555e-05
-1.67169629411e-06
-9.82929566588e-05
3.9720717436e-05
-2.39963580155e-05
-9.85023683274e-05
4.03404654301e-05
-4.1708803243e-05
-8.78433271101e-05
3.34392608507e-05
-4.82400209326e-05
-6.77201293489e-05
1.79170884697e-05
-4.208349648e-05