/*--------------------------------*- C++ -*----------------------------------*\
| =========                 |                                                 |
| \\      /  F ield         | OpenFOAM: The Open Source CFD Toolbox           |
|  \\    /   O peration     | Version:  3.0.1                                 |
|   \\  /    A nd           | Web:      www.OpenFOAM.org                      |
|    \\/     M anipulation  |                                                 |
\*---------------------------------------------------------------------------*/
FoamFile
{
    version     2.0;
    format      ascii;
    class       volScalarField;
    location    "3.5";
    object      ddt0(k);
}
// * * * * * * * * * * * * * * * * * * * * * * * * * * * * * * * * * * * * * //

dimensions      [0 2 -3 0 0 0 0];

internalField   nonuniform List<scalar> 
15984
(
-0.00055462962033
-0.000585450601905
-0.000594320083123
-0.000596081265812
-0.00059651692763
-0.000595431999809
-0.00059290099233
-0.000589835141141
-0.00058744239776
-0.000586558327431
-0.000585465059683
-0.000586547615086
-0.000588037494096
-0.000589380244327
-0.000590408941065
-0.000591151375832
-0.000591695593316
-0.000592132167346
-0.000592477605837
-0.000592732093595
-0.000592902383358
-0.000593006291515
-0.000593070678933
-0.000593116427636
-0.000593153660224
-0.000593188530761
-0.000593256216074
-0.000593376805415
-0.000593347688596
-0.000593302789765
-0.000593263866408
-0.000593228713978
-0.000593171267693
-0.000593193055683
-0.000593418495185
-0.000594091415305
-0.000595362431116
-0.000595723261086
-0.000587912435063
-0.000557244947654
-0.00068494493668
-0.000853735960454
-0.000919780729179
-0.000939494429009
-0.000943820306924
-0.000940433139976
-0.000930584972449
-0.000917294180593
-0.000903568808067
-0.000893131860646
-0.000890689726743
-0.000891700707891
-0.000894672690195
-0.000897313727574
-0.000899187234714
-0.000900437570866
-0.000901314720724
-0.000901983087048
-0.000902589394988
-0.000903066393735
-0.000903363253269
-0.000903506385496
-0.000903546317132
-0.000903536877045
-0.00090348382516
-0.000903427788525
-0.000903472115649
-0.000903681658677
-0.00090374620497
-0.000903798623193
-0.000903861619608
-0.00090399707754
-0.000904172095577
-0.000904613199628
-0.000906088944768
-0.000909214433872
-0.000912200427022
-0.000903445281242
-0.000849028725538
-0.000688582240848
-0.000732921411297
-0.00102878385484
-0.00114283011414
-0.00117727861615
-0.00118443117317
-0.00117966214497
-0.00116662921075
-0.00114947334771
-0.00112999218417
-0.00111244590298
-0.00110438320275
-0.00110571836254
-0.00110937065524
-0.00111309906029
-0.00111576186646
-0.00111749069836
-0.00111864290921
-0.00111947381961
-0.00112015202981
-0.00112069735038
-0.00112103408166
-0.00112117121712
-0.00112118247939
-0.0011211375274
-0.00112103746627
-0.00112094613322
-0.00112100570308
-0.00112128870342
-0.00112139606086
-0.00112148927539
-0.00112160339057
-0.00112185268297
-0.00112248426967
-0.00112347471575
-0.00112605993449
-0.00113073153199
-0.00113294815989
-0.00111238198739
-0.00101578560517
-0.000737019097426
-0.000750905479391
-0.00113160383719
-0.0012779618236
-0.00132035287059
-0.00132825058137
-0.00132261492319
-0.00130942679678
-0.00129379819468
-0.00127409134351
-0.00125128757563
-0.00123749737683
-0.00123585342177
-0.00124009699555
-0.00124468064702
-0.0012480967054
-0.00125030462187
-0.00125172683763
-0.00125270728188
-0.00125344264246
-0.00125402142357
-0.00125437989085
-0.00125451613938
-0.001254495883
-0.00125441360646
-0.00125427660865
-0.00125416728921
-0.0012542624497
-0.00125460144668
-0.00125473751187
-0.00125486684694
-0.00125503370728
-0.00125537739212
-0.00125626861643
-0.00125818956165
-0.00126169465125
-0.00126736980267
-0.00126806704503
-0.00123699044496
-0.00110904342216
-0.000754648770051
-0.000757599656958
-0.00119036531661
-0.00135586938271
-0.00139978427252
-0.00140892367937
-0.00140243653102
-0.0013886239513
-0.00137496521395
-0.00136221799041
-0.00133620930048
-0.00131651375459
-0.0013116862322
-0.0013154260862
-0.00132073055763
-0.00132488514598
-0.00132757654798
-0.00132926246997
-0.00133037484503
-0.00133117309452
-0.00133177077482
-0.00133214819702
-0.00133228865435
-0.001332250519
-0.00133212569279
-0.00133196399618
-0.00133184092328
-0.00133196406271
-0.0013323338799
-0.0013324947891
-0.00133264608834
-0.0013328440016
-0.0013332804641
-0.0013344209006
-0.00133691962179
-0.00134161238847
-0.00134806848275
-0.00134732872434
-0.00130801904873
-0.00115832749314
-0.00076039664693
-0.000760231629757
-0.00122196055163
-0.0013936314589
-0.00144687752473
-0.00145493804071
-0.00144703003221
-0.00143343454407
-0.0014199687895
-0.00141166870403
-0.00138465609658
-0.00135957782748
-0.0013514497501
-0.00135446277043
-0.00136028339388
-0.00136511925566
-0.00136827441365
-0.0013702017705
-0.00137142400988
-0.00137226882837
-0.00137288284499
-0.00137327784649
-0.00137342314746
-0.00137337028268
-0.00137322044463
-0.00137303340595
-0.00137289879093
-0.00137302767691
-0.00137342084803
-0.00137359760821
-0.00137375272494
-0.00137397674994
-0.00137450364299
-0.0013758795511
-0.00137890455878
-0.00138466022374
-0.00139184624486
-0.00139013976224
-0.00134509631769
-0.00118153904396
-0.000761533796046
-0.000761572907481
-0.00123787028409
-0.00141579046623
-0.00146842333213
-0.00147498687799
-0.0014655880687
-0.00145219135829
-0.00144137609888
-0.00142755212058
-0.00140906034784
-0.00137957119363
-0.00136838474102
-0.00137050126979
-0.00137680203445
-0.00138222962499
-0.00138579240252
-0.00138792650923
-0.00138923463304
-0.00139010922079
-0.0013907361776
-0.00139114549097
-0.00139129597555
-0.00139123433264
-0.00139106088886
-0.00139085417736
-0.00139070324318
-0.0013908269182
-0.00139124055163
-0.00139142106147
-0.00139157405743
-0.00139182143802
-0.00139243089762
-0.00139401759712
-0.00139750788905
-0.00140412845816
-0.00141206421732
-0.00140995450746
-0.00136144421664
-0.00119001967969
-0.000761027230153
-0.000762617627443
-0.00124576727184
-0.00142606054265
-0.00147687755197
-0.00148227501763
-0.00147134846552
-0.00145748480053
-0.00144825706915
-0.00143311940634
-0.00141918908635
-0.00138618569553
-0.00137247088435
-0.00137387697915
-0.00138042167472
-0.00138631492013
-0.00139020025026
-0.00139249696526
-0.0013938663292
-0.00139475806002
-0.00139539200455
-0.00139581176946
-0.00139596847284
-0.00139589788745
-0.00139571179116
-0.00139548859229
-0.00139531665189
-0.00139543175242
-0.00139586156349
-0.00139603868326
-0.00139618871305
-0.00139645549342
-0.00139713387322
-0.00139889449266
-0.00140276619906
-0.00141004886269
-0.00141869840287
-0.00141662621342
-0.00136638442491
-0.00119119578601
-0.00076014741153
-0.000763405354304
-0.00124981821575
-0.00143092808867
-0.00148040695731
-0.00148531344234
-0.00147307099142
-0.00145810651582
-0.00144930784512
-0.00143483767565
-0.00142200987959
-0.0013865667666
-0.00137107595808
-0.00137195806522
-0.00137865088497
-0.00138485805009
-0.00138896534959
-0.0013913720774
-0.00139278062488
-0.00139368121765
-0.0013943186903
-0.00139474551034
-0.00139490497175
-0.00139483494637
-0.00139463354164
-0.00139440167028
-0.00139421505873
-0.00139431940449
-0.0013947603019
-0.00139493097192
-0.00139507920683
-0.001395360338
-0.00139608867001
-0.0013979741783
-0.00140211944856
-0.00140985889503
-0.00141907369523
-0.00141724276697
-0.00136635171464
-0.00118977656037
-0.000759419321489
-0.000763790912744
-0.00125158043488
-0.00143305064238
-0.0014820637597
-0.00148707251701
-0.00147403312722
-0.00145791801986
-0.00144883248321
-0.00143460772239
-0.00142214136673
-0.00138549549421
-0.00136912634372
-0.00136974600883
-0.00137650825751
-0.00138287025638
-0.00138708943303
-0.00138955116511
-0.00139097899247
-0.00139188365767
-0.00139252238132
-0.00139295460366
-0.00139311609458
-0.00139304567862
-0.00139283768055
-0.00139260125048
-0.00139240692769
-0.00139250457706
-0.00139295044211
-0.00139311627664
-0.0013932642397
-0.00139355348158
-0.00139430878004
-0.00139626006876
-0.00140054863105
-0.00140851275137
-0.00141805075101
-0.00141641548643
-0.00136537280671
-0.00118846409404
-0.000759030782058
-0.000763746596553
-0.00125151878117
-0.0014329905542
-0.00148202943559
-0.00148704488854
-0.00147402178456
-0.00145792360851
-0.00144882585269
-0.00143457821832
-0.00142207707188
-0.00138547826567
-0.00136914031879
-0.00136976451837
-0.00137652028238
-0.00138287740734
-0.00138709371001
-0.00138955391553
-0.00139098117559
-0.00139188586635
-0.00139252489137
-0.00139295755588
-0.00139311974368
-0.00139305001236
-0.0013928431004
-0.00139260772066
-0.00139241357884
-0.00139251048134
-0.00139295564842
-0.0013931212824
-0.00139327013678
-0.00139356059478
-0.001394317253
-0.00139626959473
-0.0014005582092
-0.00140851405818
-0.00141805278353
-0.00141641633125
-0.00136537272472
-0.00118846321661
-0.000759031572823
-0.000763284294851
-0.00124963857789
-0.00143076713374
-0.00148031319701
-0.00148526501083
-0.00147306881186
-0.00145811103893
-0.00144927252146
-0.00143474769896
-0.00142181712119
-0.00138651299471
-0.00137111260135
-0.00137200964014
-0.00137868663112
-0.00138487926739
-0.00138897768516
-0.0013913798451
-0.00139278667261
-0.00139368735495
-0.00139432564486
-0.00139475375583
-0.00139491475702
-0.00139484723971
-0.00139464814822
-0.00139441874194
-0.0013942331248
-0.00139433594347
-0.00139477493155
-0.00139494443286
-0.00139509535587
-0.00139537993326
-0.00139611225713
-0.00139800065745
-0.0014021464946
-0.00140986194995
-0.00141907849316
-0.00141724470356
-0.00136635043514
-0.00118977343259
-0.000759421257185
-0.000762443819733
-0.001245441905
-0.00142578304629
-0.00147670654821
-0.0014821780453
-0.0014713115375
-0.00145744329103
-0.00144816623143
-0.00143303083387
-0.00141889573017
-0.00138611477048
-0.00137253458118
-0.00137395972053
-0.00138047972616
-0.00138634876005
-0.00139021925188
-0.00139250866367
-0.00139387516379
-0.00139476692064
-0.00139540202572
-0.0013958229679
-0.00139598205373
-0.00139591461343
-0.00139573250077
-0.00139551375111
-0.00139534225072
-0.00139545478031
-0.00139588216572
-0.00139605664331
-0.00139621128313
-0.00139648332456
-0.00139716769532
-0.00139893258856
-0.00140280531168
-0.00141005932648
-0.00141870222024
-0.00141662808151
-0.00136638082189
-0.00119118980495
-0.000760149617767
-0.000761380394167
-0.00123739652597
-0.00141538341763
-0.00146814510591
-0.00147477968269
-0.00146544548131
-0.00145206155202
-0.00144124753601
-0.0014282728297
-0.00140871790247
-0.0013795134364
-0.00136848189853
-0.00137061270421
-0.00137687802987
-0.00138227349405
-0.00138581643735
-0.00138794097427
-0.00138924497224
-0.00139011917095
-0.00139074695971
-0.00139115700197
-0.0013913096798
-0.00139125032865
-0.00139108157669
-0.00139087987271
-0.00139072981637
-0.0013908512853
-0.00139126290302
-0.00139143880808
-0.00139159785329
-0.00139185168602
-0.00139246832012
-0.00139405988666
-0.00139755085
-0.00140413569968
-0.00141206635309
-0.00140995400671
-0.00136143777922
-0.0011900110271
-0.00076102963002
-0.000760057086233
-0.001221375647
-0.00139307528297
-0.00144646933152
-0.00145460356338
-0.00144676276411
-0.0014332035802
-0.00141975915975
-0.00141122528106
-0.00138431372932
-0.00135956492422
-0.00135158486633
-0.00135459017037
-0.00136037334799
-0.00136516951773
-0.00136830164723
-0.00137021742989
-0.00137143448273
-0.0013722780291
-0.00137289246957
-0.00137328731953
-0.0013734328244
-0.00137338104875
-0.00137323634656
-0.00137305369194
-0.00137292085173
-0.00137304778505
-0.00137344089962
-0.00137361050414
-0.00137377190072
-0.00137400345929
-0.00137453788709
-0.00137591855227
-0.00137894369533
-0.00138466074424
-0.00139184736455
-0.00139013629249
-0.00134508815293
-0.00118152864697
-0.000761535507524
-0.000757471074716
-0.00118973876109
-0.0013552002819
-0.00139921113941
-0.00140841050926
-0.00140200129514
-0.00138830463167
-0.0013773021067
-0.00136171411174
-0.00133594055471
-0.00131656664099
-0.00131185855334
-0.00131557968683
-0.00132082834239
-0.00132493838611
-0.00132760454185
-0.00132927817132
-0.00133038433041
-0.00133118035007
-0.00133177692536
-0.00133215328263
-0.00133229200185
-0.0013322538697
-0.0013321316486
-0.00133197409423
-0.0013318543059
-0.00133197599501
-0.0013323482239
-0.00133249860495
-0.00133265734974
-0.0013328626901
-0.00133330605469
-0.00133445028728
-0.00133694908623
-0.00134161949815
-0.00134807245912
-0.00134732623135
-0.00130801184055
-0.00115831814654
-0.000760398444827
-0.000750834443443
-0.00113101084498
-0.00127724810805
-0.00131969743024
-0.00132759626699
-0.00132223178307
-0.00130898823785
-0.00129326921801
-0.00127365025955
-0.00125113626118
-0.0012376207987
-0.00123604757482
-0.00124025178754
-0.00124477700412
-0.00124814971948
-0.00125033025375
-0.00125174104986
-0.00125271482796
-0.00125344790337
-0.0012540249533
-0.00125438073246
-0.00125451243058
-0.00125449013251
-0.00125440757324
-0.0012542745202
-0.00125416837059
-0.00125426416207
-0.00125460704137
-0.0012547314697
-0.00125486860707
-0.00125504176708
-0.00125539077391
-0.00125628484451
-0.00125820567518
-0.00126170627279
-0.00126737603768
-0.00126806627888
-0.00123698600994
-0.00110903687774
-0.000754650416525
-0.0007329017251
-0.00102830954197
-0.00114214472824
-0.00117660403028
-0.00118375660936
-0.00117908113717
-0.0011661371019
-0.00114900715304
-0.00112967711082
-0.00111241533761
-0.00110454842692
-0.00110590026666
-0.00110951185873
-0.00111318592166
-0.00111580901507
-0.00111751282698
-0.00111865442479
-0.00111947888324
-0.0011201559512
-0.00112069993244
-0.00112102983692
-0.00112116284435
-0.00112116985959
-0.00112112132943
-0.0011210226994
-0.00112093628048
-0.00112099532748
-0.00112128415172
-0.00112138093575
-0.00112148178082
-0.00112160017903
-0.00112185299668
-0.00112248689429
-0.00112349102215
-0.00112607233366
-0.00113073898639
-0.00113294991889
-0.00111238161859
-0.0010157849603
-0.000737022651135
-0.000684961216887
-0.000853455072918
-0.000919274936912
-0.000938934744562
-0.000943234320038
-0.000939934161701
-0.000930186568121
-0.000916976738552
-0.000903404895221
-0.000893175874245
-0.000890831107089
-0.000891854496799
-0.000894781716972
-0.000897379600544
-0.000899223748946
-0.000900457588413
-0.000901324510066
-0.000901990135008
-0.000902597631407
-0.000903072444324
-0.000903366238416
-0.000903504495925
-0.00090353835819
-0.000903524292292
-0.000903469725693
-0.000903416995124
-0.000903461170394
-0.000903671502046
-0.000903733808022
-0.000903787566375
-0.000903852982796
-0.000903988668497
-0.000904177911686
-0.000904618847065
-0.000906092787152
-0.000909216495238
-0.000912200972254
-0.000903444314392
-0.00084902979494
-0.000688582787392
-0.00055465090226
-0.000585396976954
-0.000594147293065
-0.00059584062932
-0.000596239279363
-0.000595210744819
-0.000592739761005
-0.000589741610126
-0.000587431780978
-0.000586613316689
-0.000585565341331
-0.000586636592864
-0.000588100644292
-0.000589421181132
-0.000590433161572
-0.000591166133755
-0.000591706079552
-0.000592142611078
-0.000592488903464
-0.000592743260563
-0.00059291162171
-0.00059301361547
-0.000593076993383
-0.000593122481676
-0.000593160148566
-0.000593196221094
-0.000593265208605
-0.000593383671576
-0.000593353126505
-0.000593307925758
-0.00059326930071
-0.000593211827061
-0.000593155696918
-0.000593180961689
-0.000593409308277
-0.000594083875872
-0.000595357269007
-0.000595718304917
-0.000587905699874
-0.000557240091948
-0.000685358721275
-0.000853501303487
-0.000915021255324
-0.00093063314489
-0.000932303730584
-0.000928871932612
-0.000921479659271
-0.000912094278292
-0.000902868050259
-0.000896166927883
-0.000893763195168
-0.000894719341525
-0.000896117595312
-0.000897971312877
-0.000899667151842
-0.000900957269861
-0.000901890301774
-0.000902550774027
-0.000903037951651
-0.000903381828934
-0.000903596812537
-0.000903707308468
-0.000903754982205
-0.000903784794448
-0.000903803315685
-0.000903836628353
-0.000903936281596
-0.000904103568719
-0.000904028874629
-0.000903949713249
-0.000903891463009
-0.000903913416082
-0.000904084925758
-0.000904650427774
-0.000906207580313
-0.000909353981029
-0.000912311505715
-0.000903543357025
-0.000849121233588
-0.000688641831598
-0.00126430407183
-0.00179968777342
-0.0019988598231
-0.00205629148778
-0.00206535331195
-0.00205748243373
-0.00204075752558
-0.00202028778675
-0.00199706466372
-0.00197515673172
-0.00196315916484
-0.00196140468782
-0.00196488774166
-0.00196903960898
-0.00197234332551
-0.00197460403702
-0.00197609402324
-0.00197707191521
-0.00197773313434
-0.00197816528582
-0.00197838322584
-0.00197842556736
-0.00197835837997
-0.00197825210659
-0.00197811190034
-0.00197799924775
-0.00197802674329
-0.00197828033633
-0.00197856798706
-0.00197886845041
-0.00197918153996
-0.00197966142174
-0.00198080821926
-0.00198305573844
-0.00198799420867
-0.00199582506163
-0.0019973726201
-0.00195553236074
-0.00177715414289
-0.00126626407367
-0.0014350557412
-0.00222948246731
-0.0025172939343
-0.00260714411894
-0.00262392337051
-0.00261403856026
-0.00259144072908
-0.00256315473729
-0.00253078722996
-0.00249932724221
-0.00248071933144
-0.00247704997659
-0.00248133651291
-0.00248695081656
-0.00249145159013
-0.00249447562873
-0.00249640211055
-0.00249763260119
-0.00249844673572
-0.00249896441205
-0.00249921279273
-0.00249924135922
-0.00249913138366
-0.00249897362037
-0.00249878114863
-0.00249862382486
-0.00249864980751
-0.00249895414238
-0.0024993285942
-0.00249971415608
-0.00250014239539
-0.00250086107065
-0.0025024892
-0.00250619069349
-0.00251345036231
-0.00252328671197
-0.00252026625908
-0.00245169017493
-0.0021931277149
-0.00143542320531
-0.00150881549198
-0.00247915762493
-0.00283099760044
-0.00294229289247
-0.00296276457351
-0.00294969617538
-0.00292734911395
-0.00289860821394
-0.00286393792156
-0.00282534476419
-0.00279922338182
-0.00279189008517
-0.0027959529025
-0.00280259700573
-0.00280815633168
-0.00281188908819
-0.00281421010483
-0.00281564661256
-0.00281656851758
-0.00281714930477
-0.00281742585507
-0.00281745185926
-0.00281731727046
-0.00281712467488
-0.00281689962796
-0.0028167145122
-0.00281673765974
-0.00281708200031
-0.00281751659347
-0.00281796280119
-0.00281848620531
-0.00281943598334
-0.00282164059353
-0.00282652042846
-0.00283581916706
-0.00284687510507
-0.00283875811818
-0.00274721609173
-0.00242789713422
-0.00150670784397
-0.00154173411216
-0.00262501843288
-0.00302019373887
-0.00314224281145
-0.00316380964773
-0.00315110813566
-0.0031280310201
-0.00310299912515
-0.00307193505335
-0.00302900404129
-0.00299530984264
-0.00298337063431
-0.00298628063893
-0.00299376757385
-0.00300030711384
-0.00300472317998
-0.00300741988127
-0.00300903456396
-0.00301003362482
-0.00301065487976
-0.00301095120758
-0.00301097578525
-0.00301082106906
-0.00301059517456
-0.00301034322675
-0.00301013271983
-0.00301015282779
-0.00301053097739
-0.00301101535609
-0.00301151501353
-0.00301213165031
-0.00301331689209
-0.00301609736378
-0.00302216151441
-0.00303319451597
-0.00304519498478
-0.00303256336987
-0.00292268505663
-0.00255922200841
-0.00153646143234
-0.00155621437317
-0.00270608303126
-0.00312659297148
-0.0032513096027
-0.00327151681463
-0.00325724472675
-0.00323649618747
-0.00322087803081
-0.00319446683445
-0.00314993893894
-0.00310956156729
-0.00309280792248
-0.00309426240633
-0.00310221008045
-0.00310960766063
-0.00311465962259
-0.00311770111178
-0.00311946804127
-0.00312052102713
-0.00312116322051
-0.00312147110579
-0.00312149126746
-0.00312131594618
-0.00312105913562
-0.00312078182967
-0.00312054846892
-0.00312056631689
-0.00312097195952
-0.00312149775296
-0.00312204412661
-0.00312275159233
-0.00312416632811
-0.00312749323933
-0.00313466493162
-0.00314726107155
-0.00316017761966
-0.00314415976308
-0.00302085676363
-0.00262749860127
-0.00154723658543
-0.00156231433963
-0.00274754069419
-0.00318058365984
-0.00330371770601
-0.00332165759556
-0.00330531398168
-0.0032865973027
-0.00327964411871
-0.0032602468682
-0.00321551183337
-0.0031698137313
-0.00314862772455
-0.00314854597647
-0.0031567264979
-0.0031648339656
-0.00317043721368
-0.00317377629349
-0.0031756669169
-0.0031767558983
-0.00317740606478
-0.00317771807892
-0.00317773211023
-0.00317753675645
-0.00317725139577
-0.00317695114118
-0.003176699965
-0.00317671381885
-0.0031771406458
-0.00317769885103
-0.00317828502073
-0.00317907588527
-0.00318069988068
-0.00318451618236
-0.00319266751466
-0.00320670497461
-0.00322053999383
-0.00320238777043
-0.00307016279892
-0.00265822949538
-0.00154937010163
-0.00156492665996
-0.00276692264185
-0.00320582287806
-0.00332609916635
-0.00334204382265
-0.00332343661543
-0.00330567295006
-0.00330464865102
-0.00329164825441
-0.00324661621099
-0.00319685832651
-0.00317204851773
-0.00317060409867
-0.00317886979424
-0.00318751610664
-0.00319355413557
-0.00319712802942
-0.00319911173004
-0.00320022336472
-0.00320087357807
-0.00320118555346
-0.0032011934189
-0.00320098140884
-0.00320067287528
-0.00320035318946
-0.00320008893053
-0.00320009758194
-0.00320053945132
-0.00320112115797
-0.00320173947487
-0.00320260045345
-0.00320439896744
-0.0032086183244
-0.00321757125081
-0.00323282019879
-0.00324756262489
-0.00322833032827
-0.00309081621614
-0.00266850378193
-0.00154810584885
-0.00156609677285
-0.00277514232331
-0.00321744415749
-0.00333563527424
-0.00335039336652
-0.00332980600088
-0.00331177893299
-0.0033132536058
-0.00330431244025
-0.00325851257174
-0.00320610604406
-0.00317879061544
-0.00317634956513
-0.00318463440557
-0.00319363657275
-0.00319997207586
-0.00320370701444
-0.00320575285275
-0.00320687785017
-0.0032075258704
-0.00320783669741
-0.0032078401941
-0.00320761757732
-0.00320729262647
-0.0032069594457
-0.00320668650456
-0.0032066901872
-0.00320714154927
-0.00320773818302
-0.0032083797456
-0.0032092921949
-0.00321121719318
-0.00321572525961
-0.00322525017891
-0.0032413678487
-0.00325687236457
-0.00323724896197
-0.00309701887265
-0.00266966331824
-0.00154619172134
-0.00156653798608
-0.00277804582301
-0.00322218188309
-0.00333981261757
-0.0033544724875
-0.0033326964286
-0.0033135813987
-0.00331534648294
-0.00330801778795
-0.00326167422756
-0.00320801098582
-0.00317946044744
-0.00317651228529
-0.00318479750368
-0.00319397150012
-0.003200455787
-0.00320427208209
-0.00320634935948
-0.00320748132386
-0.00320812860034
-0.00320843993291
-0.00320844257529
-0.00320821594108
-0.00320788404812
-0.00320754465634
-0.0032072671651
-0.00320726779095
-0.0032077233172
-0.00320832719069
-0.00320898175018
-0.00320992278169
-0.00321191577856
-0.00321657586195
-0.00322639941083
-0.00324298549464
-0.00325891151748
-0.00323920748262
-0.00309789136022
-0.00266861647072
-0.00154496880325
-0.00156646826111
-0.00277795789556
-0.00322216493891
-0.00333986369569
-0.00335457724109
-0.003332831848
-0.00331370670132
-0.003315417844
-0.00330799191171
-0.00326161547575
-0.00320799424867
-0.0031794834771
-0.00317654212809
-0.00318481850497
-0.00319398516219
-0.00320046510141
-0.003204279541
-0.00320635677485
-0.00320748988642
-0.00320813913728
-0.00320845292391
-0.00320845828711
-0.00320823467415
-0.00320790575058
-0.00320756826077
-0.00320729149853
-0.00320729124638
-0.00320774597663
-0.00320835010438
-0.00320900652498
-0.0032099506637
-0.00321194707685
-0.00321660957386
-0.00322643292851
-0.00324301730842
-0.00325893719788
-0.00323922458014
-0.00309790033557
-0.00266861922128
-0.00154497018905
-0.00156590350488
-0.00277488000416
-0.00321738926947
-0.00333574941764
-0.00335069842327
-0.0033301990638
-0.00331209449471
-0.00331340153371
-0.00330419356749
-0.00325832824925
-0.00320605297342
-0.00317885479916
-0.00317643559246
-0.00318469738287
-0.00319367749695
-0.00319999966656
-0.00320372886101
-0.00320577416195
-0.00320690235992
-0.00320755590874
-0.00320787360816
-0.00320788485309
-0.00320767082416
-0.00320735419053
-0.00320702650931
-0.00320675569742
-0.00320675708067
-0.00320720613147
-0.0032078032711
-0.00320845014208
-0.00320937141165
-0.00321130616894
-0.00321582099825
-0.00322534546355
-0.00324145769197
-0.00325694391742
-0.00323729796976
-0.00309704439104
-0.00266967098919
-0.00154619563124
-0.00156463933854
-0.00276643242094
-0.00320563412378
-0.00332620197343
-0.00334243575309
-0.00332393806468
-0.00330602552718
-0.00330472720639
-0.00329123283464
-0.00324630800774
-0.00319678645741
-0.00317215695632
-0.00317074195341
-0.00317897202728
-0.00318758235888
-0.00319359846422
-0.00319716279904
-0.00319914517792
-0.00320026128252
-0.00320091941897
-0.00320124114352
-0.00320126043455
-0.00320106109798
-0.00320076473724
-0.00320045342757
-0.00320019279045
-0.0032001978333
-0.00320063625469
-0.0032012183232
-0.00320184484701
-0.00320271905766
-0.00320453222229
-0.003208761636
-0.00321771392451
-0.00323293942255
-0.00324767052927
-0.00322840319398
-0.0030908540364
-0.00266851438718
-0.00154811174146
-0.00156197887129
-0.00274680832045
-0.00318015781601
-0.00330366215148
-0.00332187537593
-0.00330565109214
-0.00328682538847
-0.00327948546174
-0.00325920890288
-0.00321508652799
-0.00316975372254
-0.00314878617519
-0.00314873018211
-0.00315686219883
-0.00316492182305
-0.0031704958481
-0.00317382185579
-0.00317570984223
-0.00317680343004
-0.00317746231284
-0.00317778498948
-0.00317781208074
-0.00317763118397
-0.00317735993313
-0.0031770701391
-0.00317682346649
-0.00317683302745
-0.00317725583192
-0.00317781391838
-0.00317841002783
-0.00317921669902
-0.00318085814402
-0.00318468624445
-0.00319283699865
-0.00320685424128
-0.00322066829089
-0.00320247376431
-0.00307020621994
-0.00265823808218
-0.00154937521109
-0.00155588314193
-0.00270514209675
-0.00312588871284
-0.00325100865532
-0.00327148716506
-0.00325733689746
-0.00323652931
-0.00322034879883
-0.00319376544019
-0.00314952488947
-0.00310955154194
-0.0030930199039
-0.00309448384791
-0.00310237165177
-0.00310971193849
-0.00311472929409
-0.00311775471286
-0.00311951715347
-0.00312057377294
-0.00312122391503
-0.00312154128344
-0.003121573867
-0.00312141232319
-0.00312116964064
-0.00312090333666
-0.00312067502746
-0.00312068841707
-0.0031210903169
-0.00312161534864
-0.00312217165344
-0.00312289556262
-0.00312432813162
-0.00312766689023
-0.00313483799313
-0.00314742449995
-0.00316030778126
-0.00314424628421
-0.00302089721541
-0.00262750450356
-0.00154724197985
-0.00154145379163
-0.00262394696843
-0.00301921663995
-0.00314164079974
-0.00316342779326
-0.00315097011749
-0.00312778668003
-0.00310042665802
-0.0030712747598
-0.00302864472623
-0.00299537526551
-0.00298363112679
-0.00298652868581
-0.00299394419298
-0.00300042088967
-0.00300479935955
-0.00300747789095
-0.003009085988
-0.0030100867885
-0.00301071347086
-0.00301101704505
-0.00301105125075
-0.00301090806133
-0.00301069444209
-0.00301045245972
-0.00301024656204
-0.00301026289543
-0.00301063812694
-0.00301112113788
-0.00301162958798
-0.00301226114466
-0.00301346220921
-0.00301625274611
-0.0030223161562
-0.00303333620769
-0.0030453097039
-0.00303263673011
-0.00292271591226
-0.00255921594088
-0.00153646354711
-0.00150861832918
-0.00247806398045
-0.00282989299065
-0.00294148995254
-0.00296206349413
-0.00295124479172
-0.00292707397572
-0.00289782031618
-0.0028633247095
-0.00282508687509
-0.00279936678968
-0.0027921776984
-0.00279620101039
-0.00280277291239
-0.00280826998053
-0.00281196423199
-0.0028142669323
-0.00281569500386
-0.0028166162704
-0.00281719971047
-0.00281748015332
-0.00281751213142
-0.00281738560252
-0.00281720209388
-0.00281698486967
-0.00281680370125
-0.00281682386761
-0.00281716599821
-0.0028175989296
-0.00281805191647
-0.00281858674405
-0.00281954843527
-0.00282175998784
-0.00282663850416
-0.0028359250263
-0.00284695940124
-0.0028388108112
-0.00274723215353
-0.00242788184547
-0.00150670657865
-0.00143495283222
-0.00222850786429
-0.00251617034641
-0.0026062014414
-0.00262305670683
-0.00261336470023
-0.0025908604876
-0.00256248593292
-0.00253025116242
-0.00249918662633
-0.00248090879864
-0.00247732595309
-0.00248156441066
-0.00248710727821
-0.00249155197953
-0.00249454088429
-0.00249644899181
-0.00249766967181
-0.00249848161895
-0.00249899932347
-0.0024992483762
-0.00249927907516
-0.00249917316016
-0.00249902096369
-0.00249883345754
-0.00249867912534
-0.00249870289467
-0.00249900531395
-0.0024993785308
-0.00249976819541
-0.00250020338366
-0.00250092922075
-0.00250255990326
-0.00250625703272
-0.00251350919687
-0.00252333128535
-0.00252028895554
-0.00245168670478
-0.00219310026783
-0.00143541283541
-0.00126429347116
-0.00179900260019
-0.00199794049739
-0.00205544359515
-0.00206453454144
-0.00205676374417
-0.00204016982745
-0.00201973827202
-0.00199668536844
-0.0019751128963
-0.00196333684085
-0.00196162167857
-0.00196505962771
-0.00196915456242
-0.00197241450128
-0.00197464778847
-0.00197612077982
-0.00197708902778
-0.00197774723457
-0.0019781772037
-0.00197839377181
-0.00197843504712
-0.00197836845822
-0.00197826456679
-0.00197812794582
-0.00197801673446
-0.00197804389712
-0.00197829573425
-0.00197858446023
-0.00197888363505
-0.00197920038171
-0.00197968330335
-0.00198082417756
-0.00198307194565
-0.00198800499517
-0.00199582791931
-0.00199736416039
-0.00195550979345
-0.00177712295266
-0.00126625143497
-0.00068537543931
-0.000853250684073
-0.000914569622988
-0.000930111033708
-0.00093174864467
-0.000928401016142
-0.000921118460333
-0.000911838698824
-0.000902759930154
-0.000896205789358
-0.000893876237548
-0.000894831710863
-0.000896204698174
-0.000898031335435
-0.000899704714134
-0.000900979965619
-0.000901900478193
-0.000902554293219
-0.000903039211812
-0.000903381144263
-0.000903594475814
-0.000903702925305
-0.000903751361613
-0.000903782620017
-0.000903802166931
-0.000903836078293
-0.000903936697373
-0.000904104057403
-0.000904031830844
-0.000903943199308
-0.00090388963079
-0.000903915945736
-0.000904084491016
-0.000904645732869
-0.000906200837649
-0.000909344937376
-0.000912299934965
-0.000903528239765
-0.000849103810151
-0.000688632831843
-0.000733143259182
-0.00102240330729
-0.00112815749818
-0.00115715204537
-0.00116044978926
-0.0011559596393
-0.00114720804646
-0.0011359396052
-0.00112409440446
-0.00111440016876
-0.00111002282989
-0.00111042042671
-0.00111278112791