/*--------------------------------*- C++ -*----------------------------------*\
| =========                 |                                                 |
| \\      /  F ield         | OpenFOAM: The Open Source CFD Toolbox           |
|  \\    /   O peration     | Version:  3.0.1                                 |
|   \\  /    A nd           | Web:      www.OpenFOAM.org                      |
|    \\/     M anipulation  |                                                 |
\*---------------------------------------------------------------------------*/
FoamFile
{
    version     2.0;
    format      ascii;
    class       surfaceScalarField;
    location    "3.5";
    object      phi;
}
// * * * * * * * * * * * * * * * * * * * * * * * * * * * * * * * * * * * * * //

dimensions      [0 3 -1 0 0 0 0];

internalField   nonuniform List<scalar> 
45932
(
7.30178166489e-06
4.64106707111e-06
-1.19428925797e-05
1.34164675083e-05
5.53576220117e-06
-1.16504888758e-05
1.36953376619e-05
1.15245471236e-05
-1.18034530709e-05
7.47617802105e-06
1.78522598675e-05
-1.16331345794e-05
-2.14474757425e-06
2.14209035091e-05
-1.18000134059e-05
-1.24735030185e-05
2.16298882125e-05
-1.13011708196e-05
-2.05986117465e-05
1.83128117922e-05
-1.01877460489e-05
-2.39443369875e-05
1.21506798707e-05
-8.8050050171e-06
-2.23003225733e-05
5.3713069932e-06
-7.01537926455e-06
-1.7969117704e-05
7.62701792518e-07
-5.09396857643e-06
-1.33215353922e-05
-1.28515652462e-06
-3.36248678367e-06
-9.46867131512e-06
-1.74565004675e-06
-2.10727038397e-06
-6.65353061872e-06
-1.53978614387e-06
-1.2754051969e-06
-4.72094243893e-06
-1.14919538425e-06
-7.83438918084e-07
-3.42671080275e-06
-7.89933440622e-07
-5.04341770378e-07
-2.56324970567e-06
-5.22627861572e-07
-3.40875799712e-07
-1.98553944818e-06
-3.44539615985e-07
-2.33212875028e-07
-1.59232784483e-06
-2.31610005665e-07
-1.61643462707e-07
-1.31869306944e-06
-1.615697301e-07
-1.12106131918e-07
-1.11950453622e-06
-1.19101841583e-07
-8.01265813106e-08
-9.61849652771e-07
-9.39457156119e-08
-6.3747746619e-08
-8.23235188454e-07
-7.91613742345e-08
-5.94907191354e-08
-6.90395156637e-07
-7.10533306776e-08
-6.18241546018e-08
-5.55576838587e-07
-6.64777915374e-08
-6.83787387034e-08
-4.12012386974e-07
-6.59743117358e-08
-7.76298922103e-08
-2.57156324223e-07
-6.6693081738e-08
-8.82046074283e-08
-9.83225804757e-08
-6.84973681828e-08
-9.03795550122e-08
4.95012131517e-08
-7.04054441304e-08
-7.74620964673e-08
1.83573317299e-07
-7.55345655374e-08
-5.85804701756e-08
3.00211312344e-07
-7.86726914994e-08
-3.80061066081e-08
3.98624622543e-07
-8.05768407364e-08
-1.78743626218e-08
4.73363835523e-07
-7.98992259595e-08
5.12502735631e-09
5.09837092193e-07
-7.53788611117e-08
3.88728547855e-08
5.12721508742e-07
-7.03572573381e-08
6.74414956739e-08
4.83706170239e-07
-6.38573993493e-08
9.28423767538e-08
4.29091314856e-07
-5.87685488284e-08
1.13354082086e-07
3.57428655883e-07
-5.2000329381e-08
1.23634401522e-07
2.65256618228e-07
-4.65272890634e-08
1.38669275546e-07
1.51701172058e-07
-4.66183826632e-08
1.60137666718e-07
-5.71885133183e-08
2.08849241339e-07
7.21365811182e-06
1.3369413967e-05
-1.59420444826e-05
1.42651178259e-05
1.86627047295e-05
-2.01784379775e-05
1.47498411607e-05
3.25958850249e-05
-2.15560912729e-05
8.13236808951e-06
4.59513062714e-05
-2.14816012736e-05
-2.05569059584e-06
5.31677283932e-05
-2.15587939911e-05
-1.29340855613e-05
5.34101961778e-05
-2.09019422429e-05
-2.15374756512e-05
4.64141052527e-05
-1.94979374618e-05
-2.49264949826e-05
3.32135038327e-05
-1.76738472356e-05
-2.28780651323e-05
1.81164125432e-05
-1.47935872416e-05
-1.81018849701e-05
7.0123709129e-06
-1.10259069824e-05
-1.32297683695e-05
1.15661727288e-06
-7.31394847056e-06
-9.31470045979e-06
-1.19331988653e-06
-4.46745217877e-06
-6.51275884834e-06
-1.73060838684e-06
-2.61116801426e-06
-4.61878907277e-06
-1.5479547404e-06
-1.49525459177e-06
-3.3618860918e-06
-1.16904626677e-06
-8.77831876268e-07
-2.52589876411e-06
-8.20334749279e-07
-5.38321412998e-07
-1.96520785737e-06
-5.63562270019e-07
-3.41709269695e-07
-1.58308811381e-06
-3.90727870632e-07
-2.23042859989e-07
-1.31608034738e-06
-2.79264164639e-07
-1.49353657025e-07
-1.12060976842e-06
-2.08825726551e-07
-1.05785622598e-07
-9.64880989057e-07
-1.6480790692e-07
-8.49036915598e-08
-8.27146061807e-07
-1.37705263254e-07
-7.92264892024e-08
-6.94466963594e-07
-1.22571996461e-07
-8.11950066562e-08
-5.59574877733e-07
-1.14926981763e-07
-8.64777158357e-08
-4.16799047722e-07
-1.13440226797e-07
-9.53460579607e-08
-2.61849863956e-07
-1.15096246112e-07
-1.06584111179e-07
-1.02301707747e-07
-1.19412012104e-07
-1.08673416377e-07
4.71096050251e-08
-1.25064948847e-07
-9.47925781404e-08
1.80448123588e-07
-1.32311833566e-07
-7.6601428998e-08
2.98114941827e-07
-1.3909763589e-07
-5.72800600747e-08
3.98717707781e-07
-1.42434092611e-07
-3.87809411649e-08
4.75743981278e-07
-1.41467962955e-07
-1.54903499799e-08
5.14158067549e-07
-1.35014724713e-07
2.11907611241e-08
5.1740868727e-07
-1.29312908121e-07
5.56750068428e-08
4.8785951208e-07
-1.19215206303e-07
8.48777341149e-08
4.32050467196e-07
-1.10432696307e-07
1.0744502139e-07
3.59967881454e-07
-1.01249119139e-07
1.21304031476e-07
2.66297172526e-07
-9.31603993232e-08
1.40274743739e-07
1.48683415194e-07
-9.31046477891e-08
1.64064196567e-07
-1.03423217389e-07
1.94877980905e-07
8.40433134083e-06
2.18949539121e-05
-1.69299135302e-05
1.67622957537e-05
3.22085564526e-05
-2.19038527503e-05
1.71929126167e-05
5.30868525022e-05
-2.09216145538e-05
9.52848841297e-06
7.21168996699e-05
-1.85011958508e-05
-1.9588979551e-06
8.21570530483e-05
-1.75019619395e-05
-1.41293030211e-05
8.2379236616e-05
-1.67986575666e-05
-2.37721130135e-05
7.23700690928e-05
-1.63131793757e-05
-2.74087157987e-05
5.33344232876e-05
-1.64843512602e-05
-2.47330446439e-05
3.11377312713e-05
-1.56970359298e-05
-1.90553621405e-05
1.41949865756e-05
-1.28603529351e-05
-1.3515721264e-05
4.58220872766e-06
-8.96529007589e-06
-9.26939612249e-06
1.62565293795e-07
-5.60226590216e-06
-6.35554070182e-06
-1.35307624736e-06
-3.29143852339e-06
-4.45408048649e-06
-1.55774220372e-06
-1.8917193765e-06
-3.22933990264e-06
-1.30007758287e-06
-1.09375328393e-06
-2.43122139981e-06
-9.5972807031e-07
-6.58768341307e-07
-1.90106453581e-06
-6.78332202962e-07
-4.15430202187e-07
-1.53983288171e-06
-4.78694097893e-07
-2.73308840871e-07
-1.2863495752e-06
-3.45881163276e-07
-1.86909186787e-07
-1.09936048945e-06
-2.58768412354e-07
-1.37087779325e-07
-9.49105187166e-07
-2.02300531627e-07
-1.12801824388e-07
-8.14808637331e-07
-1.66615944868e-07
-1.0542271829e-07
-6.84757400194e-07
-1.46374287162e-07
-1.06284224321e-07
-5.51871860096e-07
-1.36748231694e-07
-1.11099283943e-07
-4.10565020278e-07
-1.34424705762e-07
-1.20358468106e-07
-2.56768147369e-07
-1.37331267276e-07
-1.31600050846e-07
-9.79865493593e-08
-1.43975642307e-07
-1.34258382025e-07
4.95565308033e-08
-1.52427022076e-07
-1.20222783246e-07
1.83260592241e-07
-1.62552782561e-07
-1.03504708338e-07
3.0117877752e-07
-1.71468873831e-07
-8.55867714588e-08
4.02749588778e-07
-1.75728864518e-07
-6.8313120276e-08
4.8053852277e-07
-1.74530156066e-07
-4.47610933717e-08
5.20470567174e-07
-1.67174075582e-07
-7.80510720401e-09
5.22078183624e-07
-1.60704918759e-07
2.975308458e-08
4.91339485905e-07
-1.49346397686e-07
6.08394531152e-08
4.34700894703e-07
-1.38422006625e-07
8.45986558727e-08
3.6065679976e-07
-1.28144537294e-07
1.00911138948e-07
2.64750402733e-07
-1.18741419785e-07
1.21457025991e-07
1.44796464314e-07
-1.16831064203e-07
1.4364244474e-07
-1.19042316155e-07
1.60372972091e-07
1.09300954812e-05
2.80571328016e-05
-1.70923140342e-05
2.11256563979e-05
4.19504401219e-05
-1.99374778491e-05
2.12268508151e-05
6.71519779526e-05
-1.41663464194e-05
1.17863678349e-05
8.91904036773e-05
-7.63304198883e-06
-1.87656753317e-06
0.000100703406653
-4.88343266942e-06
-1.6211351057e-05
0.000100909141408
-4.19513088442e-06
-2.75789801253e-05
8.91851844505e-05
-5.44749765531e-06
-3.17409946579e-05
6.68692280545e-05
-9.37281164356e-06
-2.81802997088e-05
4.03291117858e-05
-1.27521112146e-05
-2.10661289565e-05
1.96438261107e-05
-1.25630581428e-05
-1.44167746274e-05
7.48565781271e-06
-9.5528571552e-06
-9.52511194547e-06
1.51204296687e-06
-6.24119384436e-06
-6.32893498359e-06
-7.92411719849e-07
-3.75689115862e-06
-4.33938341462e-06
-1.36119671618e-06
-2.18614239647e-06
-3.11085057673e-06
-1.25729089443e-06
-1.27136202954e-06
-2.33790968168e-06
-9.71835927329e-07
-7.60874641187e-07
-1.83520193362e-06
-7.01643376222e-07
-4.79438557055e-07
-1.49525130611e-06
-5.00167368018e-07
-3.18519933139e-07
-1.25607029923e-06
-3.62132733335e-07
-2.22971857924e-07
-1.07841819286e-06
-2.69114509161e-07
-1.67346994376e-07
-9.34423672052e-07
-2.07098828312e-07
-1.39234601164e-07
-8.04552122138e-07
-1.6725150576e-07
-1.29271324569e-07
-6.77593137507e-07
-1.44447115658e-07
-1.28919041304e-07
-5.47043081963e-07
-1.3402288749e-07
-1.3330727187e-07
-4.07397892886e-07
-1.31477949489e-07
-1.42624557014e-07
-2.54868789593e-07
-1.35380677345e-07
-1.54514434051e-07
-9.68383913045e-08
-1.43543258819e-07
-1.58500091344e-07
4.98702536016e-08
-1.53667119882e-07
-1.45507708067e-07
1.83763743672e-07
-1.65879533408e-07
-1.30606157764e-07
3.02331247135e-07
-1.75727499969e-07
-1.14346804149e-07
4.05150974837e-07
-1.80374555344e-07
-9.82093399093e-08
4.83952936945e-07
-1.78892360954e-07
-7.44723689999e-08
5.24406316903e-07
-1.716038426e-07
-3.60543285785e-08
5.2589525178e-07
-1.63517647604e-07
1.2941105162e-09
4.9456055671e-07
-1.5282545211e-07
3.47848773534e-08
4.37497120416e-07
-1.41086898186e-07
5.97006240866e-08
3.62120870167e-07
-1.30531369251e-07
7.77362044869e-08
2.6445702399e-07
-1.20295747361e-07
9.9189010816e-08
1.43806596254e-07
-1.16388428024e-07
1.20170487998e-07
-1.10141338991e-07
1.348630131e-07
1.44093494228e-05
3.08743963359e-05
-1.72266487999e-05
2.67322598512e-05
4.60812645138e-05
-1.64537640917e-05
2.62931337471e-05
7.2298252109e-05
-4.70716980429e-06
1.4622465125e-05
9.4183038566e-05
6.67802064878e-06
-1.81285965356e-06
0.000105624410578
1.1514318629e-05
-1.89063993313e-05
0.000105836701664
1.21659855954e-05
-3.24068058949e-05
9.40085106165e-05
8.67708610927e-06
-3.72711707521e-05
7.15038770263e-05
2.29709858776e-07
-3.27128644136e-05
4.40759460729e-05
-8.30516469674e-06
-2.38644329353e-05
2.23036282584e-05
-1.15082738182e-05
-1.57965312678e-05
9.1990581323e-06
-9.78135125241e-06
-1.00514907592e-05
2.50162993931e-06
-6.73467851062e-06
-6.43597222572e-06
-2.54781304109e-07
-4.15319696092e-06
-4.28654268949e-06
-1.07573218918e-06
-2.43493770337e-06
-3.01906587784e-06
-1.10242031997e-06
-1.4223879152e-06
-2.25503332343e-06
-8.90181054037e-07
-8.45727026858e-07
-1.77352633387e-06
-6.54364997876e-07
-5.28825702036e-07
-1.45252768082e-06
-4.69231073663e-07
-3.51976465437e-07
-1.22678359258e-06
-3.39254382832e-07
-2.48664326438e-07
-1.0582035234e-06
-2.49870758698e-07
-1.87864433768e-07
-9.20578287293e-07
-1.88703944081e-07
-1.56057780846e-07
-7.95449105081e-07
-1.48859677568e-07
-1.43554851974e-07
-6.71852294515e-07
-1.25970595205e-07
-1.4210378049e-07
-5.43767697569e-07
-1.1583675544e-07
-1.46299380189e-07
-4.0591796728e-07
-1.13529453603e-07
-1.55827217209e-07
-2.54709880337e-07
-1.17895935153e-07
-1.68723991291e-07
-9.73628319844e-08
-1.26629703182e-07
-1.74294707918e-07
4.93406304433e-08
-1.37406107534e-07
-1.63000936332e-07
1.8309794236e-07
-1.49896958484e-07
-1.49777052795e-07
3.02532886036e-07
-1.59806751205e-07
-1.35391652586e-07
4.06742655676e-07
-1.64386647828e-07
-1.20231144815e-07
4.86681535523e-07
-1.62719105241e-07
-9.61429710664e-08
5.27770279773e-07
-1.55898891143e-07
-5.68227020269e-08
5.29120243407e-07
-1.4782829209e-07
-1.70673817032e-08
4.97771756008e-07
-1.37344083677e-07
1.58397970602e-08
4.40624760159e-07
-1.26026576988e-07
4.20605039197e-08
3.64499394867e-07
-1.16038452729e-07
6.16070782065e-08
2.65987756322e-07
-1.056024175e-07
8.37904451048e-08
1.4504945966e-07
-1.00653443324e-07
1.05166831821e-07
-9.00038555368e-08
1.24869676992e-07
1.82494566153e-05
2.99564818617e-05
-1.73315745059e-05
3.26738510007e-05
4.42065388138e-05
-1.2549694234e-05
3.15466497027e-05
6.83002332203e-05
5.1252040156e-06
1.75039317679e-05
8.73976652719e-05
2.08280879563e-05
-1.75789712228e-06
9.75555108936e-05
2.73307409335e-05
-2.16636376413e-05
9.7806424431e-05
2.79360416822e-05
-3.74010023013e-05
8.72287914906e-05
2.25171079655e-05
-4.31030472472e-05
6.7246524112e-05
9.95940790144e-06
-3.76366589545e-05
4.21725685309e-05
-3.56302321391e-06
-2.70129096491e-05
2.19259731065e-05
-1.02461271659e-05
-1.74332484049e-05
9.49149616104e-06
-9.87214462059e-06
-1.07401188783e-05
2.95137138269e-06
-7.14292002952e-06
-6.63659489992e-06
1.42497205341e-07
-4.50084925294e-06
-4.28390798592e-06
-7.75690055911e-07
-2.65277133166e-06
-2.95495763188e-06
-8.91667374315e-07
-1.5397421565e-06
-2.18655484146e-06
-7.46266739198e-07
-9.12354997567e-07
-1.71941709783e-06
-5.58922742551e-07
-5.62619023233e-07
-1.41412813492e-06
-4.02291178173e-07
-3.72269739575e-07
-1.20002911227e-06
-2.89610825928e-07
-2.63784461903e-07
-1.03952753597e-06
-2.11420823474e-07
-1.98992393313e-07
-9.07845874674e-07
-1.56638303097e-07
-1.63784985519e-07
-7.87319927531e-07
-1.20419380366e-07
-1.48999419516e-07
-6.67100076502e-07
-9.96168695721e-08
-1.46602496838e-07
-5.41405971547e-07
-9.06735545186e-08
-1.50883712982e-07
-4.05325406568e-07
-8.88084985219e-08
-1.60827922082e-07
-2.55409297664e-07
-9.30938369315e-08
-1.74746847526e-07
-9.8704168497e-08
-1.0140567649e-07
-1.81961096508e-07
4.79508795223e-08
-1.11671953294e-07
-1.72423954488e-07
1.81859101638e-07
-1.23001978314e-07
-1.60839033911e-07
3.02308879089e-07
-1.32096283446e-07
-1.48195090202e-07
4.07924023852e-07
-1.36206810084e-07
-1.33827423774e-07
4.88968298346e-07
-1.34489178754e-07
-1.09304053248e-07
5.30682660339e-07
-1.28475001322e-07
-6.91663406633e-08
5.32061129905e-07
-1.2114125696e-07
-2.80927339793e-08
5.00804053025e-07
-1.11638170115e-07
5.52462693725e-09
4.43732907927e-07
-1.01716761421e-07
3.27359689391e-08
3.67308763602e-07
-9.28372678666e-08
5.3198441716e-08
2.68774408554e-07
-8.30813141296e-08
7.59861428911e-08
1.47434490455e-07
-7.81265357085e-08
9.87769804927e-08
-6.69590776346e-08
1.24347546454e-07
2.18179483233e-05
2.55391854495e-05
-1.74006817615e-05
3.80138009448e-05
3.7055967143e-05
-9.04530326068e-06
3.62260496643e-05
5.66867405475e-05
1.34012341059e-05
2.00608256896e-05
7.13502649221e-05
3.22126321905e-05
-1.69606221598e-06
7.93165312103e-05
3.9995895213e-05
-2.40842193785e-05
7.95874869416e-05
4.06071365593e-05
-4.18448070915e-05
7.13092823653e-05
3.36801394851e-05
-4.84072177643e-05
5.5682714014e-05
1.8126246308e-05
-4.22585303725e-05
3.53785438456e-05
6.45335434042e-07
-3.00568582218e-05
1.87957997191e-05
-9.07152565188e-06
-1.90726769175e-05
8.41004118963e-06
-9.90276865848e-06
-1.14689258106e-05
2.82066491186e-06
-7.47309239766e-06
-6.88087256625e-06
3.46751814415e-07
-4.79235389836e-06
-4.31491528499e-06
-5.09191962223e-07
-2.83249676799e-06
-2.91432851318e-06
-6.6070431191e-07
-1.63158746188e-06
-2.13414901413e-06
-5.68889856499e-07
-9.57593004663e-07
-1.6752134036e-06
-4.33951031552e-07
-5.83945479989e-07
-1.38182754359e-06
-3.12983393131e-07
-3.8273436257e-07
-1.17735239344e-06
-2.24531830581e-07
-2.6959655907e-07
-1.02346513435e-06
-1.6216099381e-07
-2.03188878134e-07
-8.96837746029e-07
-1.17984405166e-07
-1.65319774223e-07
-7.80422170799e-07
-8.84389437565e-08
-1.48429471479e-07
-6.63284628976e-07
-7.14932154389e-08
-1.4528970923e-07
-5.3972561283e-07
-6.44040981517e-08
-1.49853901715e-07
-4.05238244541e-07
-6.30374292224e-08
-1.60283604045e-07
-2.56471370828e-07
-6.6728389016e-08
-1.75159807458e-07
-1.00343066048e-07
-7.37577724465e-08
-1.8380729598e-07
4.61569266347e-08
-8.24475517202e-08
-1.75758640658e-07
1.80422530762e-07
-9.15392455246e-08
-1.65763918217e-07
3.01909798347e-07
-9.9040066159e-08
-1.54578199828e-07
4.08826728428e-07
-1.02287997201e-07
-1.40868083527e-07
4.9084901307e-07
-1.00700537852e-07
-1.15840696474e-07
5.33134619126e-07
-9.57749551832e-08
-7.5013718206e-08
5.34566517353e-07
-8.98085731125e-08
-3.27918637308e-08
5.03420555823e-07
-8.18652877913e-08
1.34646437481e-09
4.46546521378e-07
-7.39399640624e-08
2.90718710048e-08
3.70019766321e-07
-6.69129691589e-08
5.05780493774e-08
2.71972973623e-07
-5.90718761441e-08
7.40103782049e-08
1.49900777221e-07
-5.42660630922e-08
9.81756906439e-08
-4.4739072954e-08
1.27638479934e-07
2.47283156681e-05
1.83517661153e-05
-1.75409249952e-05
4.22278953387e-05
2.6177817557e-05
-6.62144978731e-06
4.00206003763e-05
3.97985842193e-05
1.90954479551e-05
2.22041790831e-05
4.93677850563e-05
3.97989197947e-05
-1.61736270715e-06
5.47573109954e-05
4.83808047622e-05
-2.60344717342e-05
5.49896249362e-05
4.90150301036e-05
-4.54079155731e-05
4.94543917924e-05
4.12283933151e-05
-5.26320454191e-05
3.9100092405e-05
2.38067906207e-05
-4.60260035784e-05
2.50913188185e-05
3.68119022657e-06
-3.26107445783e-05
1.35559023713e-05
-8.17538377804e-06
-2.04891602865e-05
6.20173166381e-06
-9.91331501199e-06
-1.21227509715e-05
2.17435992301e-06
-7.72015139959e-06
-7.11633379288e-06
3.54154894276e-07
-5.01386601758e-06
-4.36027063913e-06
-2.97571866722e-07
-2.96772414434e-06
-2.89147653998e-06
-4.31129491588e-07
-1.69840572598e-06
-2.09740157772e-06
-3.79785372341e-07
-9.83215210594e-07
-1.64204849753e-06
-2.92146977531e-07
-5.97194810399e-07
-1.35700851505e-06
-2.11326919882e-07
-3.86737357711e-07
-1.15961159693e-06
-1.50942797742e-07
-2.71029237474e-07
-1.01082742544e-06
-1.08005540482e-07
-2.0298271923e-07
-8.88152919673e-07
-7.74012289935e-08
-1.63297502175e-07
-7.75041489372e-07
-5.67355441715e-08
-1.4484929009e-07
-6.60431814941e-07
-4.49426387635e-08
-1.41189276859e-07
-5.38592074312e-07
-4.01734771311e-08
-1.46095897531e-07
-4.0539528452e-07
-3.93095028265e-08
-1.56949818349e-07
-2.57561954653e-07
-4.19843724251e-08
-1.72604843109e-07
-1.01899340302e-07
-4.69983459822e-08
-1.82453357284e-07
4.44148679317e-08
-5.32021931196e-08
-1.75594267238e-07
1.79092309909e-07
-5.94161003103e-08
-1.66836757191e-07
3.01504079113e-07
-6.45901281448e-08
-1.56897042997e-07
4.09506658642e-07
-6.66966397129e-08
-1.43626881615e-07
4.92309168087e-07
-6.5404224208e-08
-1.18129200802e-07
5.35047750199e-07
-6.18634046665e-08
-7.66788556668e-08
5.36524653846e-07
-5.77197857843e-08
-3.35936912182e-08
5.05463290854e-07
-5.21408970867e-08
1.30963479355e-09
4.48771180357e-07
-4.66668540212e-08
2.93930135192e-08
3.72246878413e-07
-4.18015650996e-08
5.13880358897e-08
2.74279446155e-07
-3.63880498175e-08
7.52562869678e-08
1.51913492864e-07
-3.24873840311e-08
1.00550898146e-07
-2.47452760041e-08
1.31877089998e-07
2.67320358609e-05
9.39964157312e-06
-1.77799401732e-05
4.50727212539e-05
1.32756335725e-05
-5.43851928273e-06
4.26289719824e-05
2.013248227e-05
2.21098537249e-05
2.36681729912e-05
2.47419726105e-05
4.35866398475e-05
-1.54238051187e-06
2.74849463316e-05
5.24829730156e-05
-2.73251882607e-05
2.76226725542e-05
5.31498322971e-05
-4.77981976882e-05
2.48598008705e-05
4.50676723933e-05
-5.54658036546e-05
1.98312965158e-05
2.69364517147e-05
-4.8622713999e-05
1.27945302276e-05
5.45371264188e-06
-3.44125030108e-05
6.97533168458e-06
-7.62965913632e-06
-2.15130223217e-05
3.22509916768e-06
-9.92288718931e-06
-1.26076188059e-05
1.15140409907e-06
-7.88249448836e-06
-7.29849803235e-06
2.04624375033e-07
-5.15963595394e-06
-4.40170655929e-06
-1.38779182387e-07
-3.05562477525e-06
-2.88037681411e-06
-2.12167141179e-07
-1.74032835715e-06
-2.07412364842e-06
-1.88321163889e-07
-9.97752570495e-07
-1.62026853391e-06
-1.44247586956e-07
-6.01791930678e-07
-1.34034005118e-06
-1.0410853406e-07
-3.87188082214e-07
-1.14758382231e-06
-7.3731673503e-08
-2.70011549346e-07
-1.0022146866e-06
-5.22461430151e-08
-2.01172950764e-07
-8.82197566797e-07
-3.692187086e-08
-1.60537728879e-07
-7.71388649014e-07
-2.66310339569e-08
-1.40949149808e-07
-6.58566955645e-07
-2.08948638146e-08
-1.36899456936e-07
-5.37907096357e-07
-1.87224323121e-08
-1.42137147322e-07
-4.05603066263e-07
-1.83701949007e-08
-1.5326904205e-07
-2.58416899996e-07
-1.9737708566e-08
-1.69460977206e-07
-1.03077878258e-07
-2.22400859099e-08
-1.80129376176e-07
4.30498684932e-08
-2.53003065294e-08
-1.74065225073e-07
1.78115953497e-07
-2.82142066611e-08
-1.66305083647e-07
3.01215431596e-07
-3.06092108135e-08
-1.57116646924e-07
4.09984181234e-07
-3.13793389702e-08
-1.44119877267e-07
4.93315538221e-07
-3.04978762026e-08
-1.18268964929e-07
5.36352192732e-07
-2.85857820042e-08
-7.63439244843e-08
5.37805751588e-07
-2.65147707498e-08
-3.26875436558e-08
5.06834812425e-07
-2.37398007291e-08
2.54154818799e-09
4.50291096206e-07
-2.10979240954e-08
3.09479476002e-08
3.73755311274e-07
-1.87968293586e-08
5.35055077548e-08
2.75801430579e-07
-1.60222790094e-08
7.75602598854e-08
1.53166540494e-07
-1.34235433312e-08
1.03534217341e-07
-6.85720464818e-09
1.35235526311e-07
2.77339201875e-05
-3.53578504551e-07
-1.79807303897e-05
4.65019148953e-05
-4.0882629875e-07
-5.08355173019e-06
4.39423753171e-05
-4.92113673769e-07
2.3184142743e-05
2.43670919702e-05
-5.34506884811e-07
4.48517984815e-05
-1.49987226226e-06
-5.61407525792e-07
5.39133813508e-05
-2.79419333461e-05
-5.48461193401e-07
5.46132760836e-05
-4.89654362847e-05
-5.07303392795e-07
4.63906881932e-05
-5.68522300505e-05
-4.43857397535e-07
2.81620044271e-05
-4.99204050681e-05
-3.4121015976e-07
6.20393312512e-06
-3.53261166486e-05
-2.24829675327e-07
-7.39414409083e-06
-2.20400094257e-05
-1.28763477869e-07
-9.93228296397e-06
-1.2860525742e-05
-6.59231456583e-08
-7.96220311121e-06
-7.39522494861e-06
-3.03361300334e-08
-5.23038589634e-06
-4.42492051995e-06
-1.14323150897e-08
-3.09769163159e-06
-2.87571940013e-06
-1.89739851289e-09
-1.75950666514e-06
-2.06266439511e-06
2.71196113064e-09
-1.00412286982e-06
-1.609520517e-06
4.36350256769e-09
-6.01792166429e-07
-1.3320467084e-06
4.85642256305e-09
-3.8648014776e-07
-1.14159537399e-06
4.6176918535e-09
-2.68845493253e-07
-9.97931661652e-07
3.88286410222e-09
-1.99838052661e-07
-8.79253289342e-07
3.00063762472e-09
-1.58643174903e-07
-7.69618452284e-07
2.17536160481e-09
-1.38477948164e-07
-6.57699393504e-07
1.39330173069e-09
-1.34238065161e-07
-5.37607756761e-07
8.78498097845e-10
-1.39719528104e-07
-4.05730006506e-07
7.32213173437e-10
-1.51006513503e-07
-2.58856616635e-07
7.97447007867e-10
-1.67437348383e-07
-1.0366826953e-07
1.03105521311e-09
-1.78492275704e-07
4.23459681389e-08
1.46194539671e-09
-1.72812799002e-07
1.77661191824e-07
2.00647831776e-09
-1.65573721911e-07
3.01125719912e-07
2.67991909602e-09
-1.56790587624e-07
4.10272586507e-07
3.2845973024e-09
-1.43845287529e-07
4.93844067657e-07
3.68538380567e-09
-1.17786668714e-07
5.37003197134e-07
3.82551197314e-09
-7.56007719468e-08
5.38403791445e-07
3.71131616791e-09
-3.16563791073e-08
5.07483240222e-07
3.41063334028e-09
3.74111181293e-09
4.50990744367e-07
2.98957988838e-09
3.23775267509e-08
3.74449668002e-07
2.67069358143e-09
5.50475172342e-08
2.76472978656e-07
2.60350779085e-09
7.93226794637e-08
1.53688073719e-07
3.75931162094e-09
1.05564927838e-07
9.71022365935e-09
1.37077543652e-07
2.77225869698e-05
-1.0085779688e-05
-1.79904186422e-05
4.6485675006e-05
-1.40722757289e-05
-5.09965554715e-06
4.39261035374e-05
-2.10989701906e-05
2.3166438179e-05
2.43581616069e-05
-2.58015068745e-05
4.48349821022e-05
-1.49753022845e-06
-2.85907813585e-05
5.38851339043e-05
-2.79292563888e-05
-2.86995724883e-05
5.45829233078e-05
-4.89457068132e-05
-2.58546617377e-05
4.63638935446e-05
-5.68276635864e-05
-2.06921332738e-05
2.81302919274e-05
-4.98927367452e-05
-1.34513306173e-05
6.17521243392e-06
-3.53020345301e-05
-7.40667247341e-06
-7.40887608843e-06
-2.2023640108e-05
-3.47186087702e-06
-9.93533526167e-06
-1.28509328708e-05
-1.27792672756e-06
-7.96075013132e-06
-7.39004955643e-06
-2.6294249512e-07
-5.22832220645e-06
-4.42229473557e-06
1.16889380864e-07
-3.09611636082e-06
-2.87445801121e-06
2.08600448787e-07
-1.75836981924e-06
-2.06216705826e-06
1.93796240145e-07
-1.00340944829e-06
-1.60937169797e-06
1.53054096186e-07
-6.0152274965e-07
-1.33209051877e-06
1.13853769416e-07
-3.86319689611e-07
-1.14176337159e-06
8.2937960502e-08
-2.68692191801e-07
-9.98145437137e-07
6.00027783032e-08
-1.99783331603e-07
-8.79458686437e-07
4.29521864041e-08
-1.5868084518e-07
-7.6980543784e-07
3.09406215656e-08
-1.38455511896e-07
-6.57822811655e-07
2.36474394119e-08
-1.34267882072e-07
-5.37646321205e-07
2.04227018288e-08
-1.3974789707e-07
-4.057144345e-07
1.97236398466e-08
-1.50949865132e-07
-2.58797272525e-07
2.12231828216e-08
-1.67371849246e-07
-1.03562018369e-07
2.41711827172e-08
-1.78408269167e-07
4.25110231562e-08
2.80542124085e-08
-1.72701671981e-07
1.77825178389e-07
3.20862877369e-08
-1.65431795958e-07
3.01268382184e-07
3.57771983804e-08
-1.56577415212e-07
4.10370773906e-07
3.77147555912e-08
-1.43567046049e-07
4.9388104199e-07
3.76129955653e-08
-1.17469843349e-07
5.36978101606e-07
3.59645339079e-08
-7.52664892188e-08
5.38335199217e-07
3.36486624971e-08
-3.13242088163e-08
5.07388892887e-07
3.02176727413e-08
4.11020935752e-09
4.50842700071e-07
2.67287984932e-08
3.27794971025e-08
3.74275256804e-07
2.38382390223e-08
5.53739031898e-08
2.76279872311e-07
2.08999782845e-08
7.96707766154e-08
1.53544810825e-07
2.05771301846e-08
1.05880239125e-07
2.59583501395e-08
1.37253768157e-07
2.66975802303e-05
-1.89765580874e-05
-1.7806838611e-05
4.50231237016e-05
-2.69110087999e-05
-5.48682895026e-06
4.25828923996e-05
-4.070577856e-05
2.20470512863e-05
2.36448362427e-05
-5.03822201188e-05
4.35188113172e-05
-1.53444423561e-06
-5.58050459953e-05
5.23936136948e-05
-2.72878746035e-05
-5.60020044523e-05
5.30559474024e-05
-4.77400216285e-05
-5.03854506765e-05
4.49830192063e-05
-5.5392599073e-05
-3.98827105904e-05
2.68432117689e-05
-4.8541161706e-05
-2.56751202285e-05
5.37236912787e-06
-3.43420588235e-05
-1.39349243433e-05
-7.67086873181e-06
-2.14653327617e-05
-6.41794099705e-06
-9.93068441281e-06
-1.25796508449e-05
-2.28552013029e-06
-7.87813462949e-06
-7.28341796058e-06
-4.05641197463e-07
-5.15357874406e-06
-4.39398261676e-06
2.78356467967e-07
-3.05094149314e-06
-2.8766475446e-06
4.28263024816e-07
-1.7370321667e-06
-2.07263439144e-06
3.85125508132e-07
-9.95375964296e-07
-1.61984349655e-06
3.00758894611e-07
-6.00531813046e-07
-1.34048803274e-06
2.21010619037e-07
-3.86552752195e-07
-1.14808689374e-06
1.60062663351e-07
-2.6956984308e-07
-1.00284620106e-06
1.15735103646e-07
-2.01017719858e-07
-8.82818809318e-07
8.34710153124e-08
-1.60588044508e-07
-7.71944365663e-07
6.09053126758e-08
-1.40875527316e-07
-6.58944113912e-07
4.74971356353e-08
-1.36880570189e-07
-5.38038995249e-07
4.16431580201e-08
-1.42152343038e-07
-4.0555826477e-07
4.03676591957e-08
-1.53150843779e-07
-2.58242731864e-07
4.31331550605e-08
-1.69253902471e-07
-1.02768945518e-07
4.85427592778e-08
-1.79877569281e-07
4.35121208244e-08
5.54804792236e-08
-1.73742906572e-07
1.78592580805e-07
6.28586193658e-08
-1.65889775307e-07
3.01633505736e-07
6.92274962254e-08
-1.56527305881e-07
4.10273858742e-07
7.23705077999e-08
-1.43329784665e-07
4.93423765992e-07
7.17811548382e-08
-1.17349245132e-07
5.36274367976e-07
6.84479372538e-08
-7.53636356683e-08
5.37583903416e-07
6.40191088872e-08
-3.17089578118e-08
5.06546383658e-07
5.77746851626e-08
3.45224601618e-09
4.49863350297e-07
5.14253823056e-08
3.19597533778e-08
3.73223470323e-07
4.60047078724e-08
5.4448155528e-08
2.75217083103e-07
4.02882047603e-08
7.85907032893e-08
1.52730481944e-07
3.85578550387e-08
1.04469499342e-07
4.28859301403e-08
1.35760558399e-07
2.46702312657e-05
-2.60679751998e-05
-1.7578856901e-05
4.21438667698e-05
-3.76838242543e-05
-6.70084152487e-06
3.99449432035e-05
-5.74731103851e-05
1.89662664145e-05
2.21644586547e-05
-7.22548632167e-05
3.96531670785e-05
-1.60240818327e-06
-8.02562369034e-05
4.82181214397e-05
-2.59707814052e-05
-8.04865043081e-05
4.88529516233e-05
-4.5310092541e-05
-7.21164875862e-05
4.1070423619e-05
-5.2510358707e-05
-5.63342414428e-05
2.36518468479e-05
-4.58944068945e-05
-3.58498624808e-05
3.55880240438e-06
-3.24990816806e-05
-1.90957410428e-05
-8.23452873014e-06
-2.04141011071e-05
-8.58108619597e-06
-9.92187457645e-06
-1.20787510958e-05
-2.90955808573e-06
-7.71135780561e-06
-7.09255312898e-06
-3.88477241783e-07
-5.00340561127e-06
-4.34804044695e-06
4.93799073555e-07
-2.95999343931e-06
-2.88550014679e-06
6.59015871308e-07
-1.69332690643e-06
-2.09495684215e-06
5.73640541789e-07
-9.79091187981e-07
-1.64132780041e-06
4.41965078618e-07
-5.94870519855e-07
-1.35726213474e-06
3.22241668947e-07
-3.85336050031e-07
-1.16043275042e-06
2.33397824435e-07
-2.70207149926e-07
-1.01186408833e-06
1.69704461245e-07
-2.02581156037e-07
-8.89229976725e-07
1.23825105181e-07
-1.6302848773e-07
-7.75988558952e-07
9.23349434119e-08
-1.44706100939e-07
-6.61071798435e-07
7.37284672276e-08
-1.41177627865e-07
-5.38824354048e-07
6.55042700899e-08
-1.46134414528e-07
-4.05336392644e-07
6.3596472551e-08
-1.56741980188e-07
-2.57288787916e-07
6.7351648756e-08
-1.72293484369e-07
-1.01409472815e-07
7.47241445521e-08
-1.82091703694e-07
4.5124192041e-08
8.40490048638e-08
-1.75136389133e-07
1.79851058676e-07
9.43357420001e-08
-1.66239503929e-07
3.0216959849e-07
1.02836675224e-07
-1.559623198e-07
4.09966995739e-07
1.06945557676e-07
-1.42404673023e-07
4.92474614484e-07
1.05918072236e-07
-1.16674280075e-07
5.34911949077e-07
1.01138335562e-07
-7.51559119581e-08
5.36141992743e-07
9.4830575099e-08
-3.20690032925e-08
5.04969212289e-07
8.62876596425e-08
2.63302655042e-09
4.48072055198e-07
7.74123966587e-08
3.0884862312e-08
3.71325224374e-07
6.969087867e-08
5.30366925717e-08
2.73283028687e-07
6.14745486368e-08
7.6829527859e-08
1.51119678574e-07
5.86573358138e-08
1.02028482712e-07
6.1239678923e-08
1.32724379756e-07
2.17378877898e-05
-3.03668730527e-05
-1.74390407648e-05
3.78920373211e-05
-4.4692069828e-05
-9.14593104486e-06
3.61226689636e-05
-6.89073747268e-05
1.32036386586e-05
2.00123777972e-05
-8.81096962143e-05
3.19651566418e-05
-1.67165058354e-06
-9.82928802492e-05
3.97207245915e-05
-2.3996315499e-05
-9.85023010314e-05
4.03405268007e-05
-4.1708798946e-05
-8.78432885757e-05
3.34393464333e-05
-4.82400526681e-05
-6.77201128872e-05
1.7917163312e-05
-4.20835479635e-05