/*--------------------------------*- C++ -*----------------------------------*\
| =========                 |                                                 |
| \\      /  F ield         | OpenFOAM: The Open Source CFD Toolbox           |
|  \\    /   O peration     | Version:  3.0.1                                 |
|   \\  /    A nd           | Web:      www.OpenFOAM.org                      |
|    \\/     M anipulation  |                                                 |
\*---------------------------------------------------------------------------*/
FoamFile
{
    version     2.0;
    format      ascii;
    class       volVectorField;
    location    "3.5";
    object      U_0;
}
// * * * * * * * * * * * * * * * * * * * * * * * * * * * * * * * * * * * * * //

dimensions      [0 1 -1 0 0 0 0];

internalField   nonuniform List<vector> 
15984
(
(0.00147618131753 0.000312433790961 -0.00106577147994)
(0.00439735142776 0.000211868017227 -0.000892393322782)
(0.00605420221106 0.000756191298048 -0.000773958886597)
(0.00468248456808 0.00141678564447 -0.000677689781248)
(0.00122726614861 0.0018131603635 -0.000660093052408)
(-0.00296359545947 0.00184612261217 -0.00060942076241)
(-0.00695396054469 0.00148717305976 -0.000531994093836)
(-0.00931342069777 0.000844732069027 -0.000453355130664)
(-0.00953910875734 0.000191991133818 -0.000365724456917)
(-0.00806675532518 -0.000224900968837 -0.000275644536585)
(-0.00618704096627 -0.00032754497013 -0.000186603269906)
(-0.00446495922317 -0.000293781623739 -0.00012523151927)
(-0.0031395584288 -0.000224779052246 -8.08700115682e-05)
(-0.00221544507362 -0.000155623431502 -5.4024371011e-05)
(-0.00159350411478 -0.000102800428163 -3.83383561427e-05)
(-0.00118036642924 -6.67868471785e-05 -2.80084928637e-05)
(-0.000905521665625 -4.39483758584e-05 -1.99000292816e-05)
(-0.00072118878699 -2.92574851157e-05 -1.40432488808e-05)
(-0.000594648932953 -2.01386341978e-05 -9.91313164767e-06)
(-0.000504348946615 -1.46821828879e-05 -7.34472824051e-06)
(-0.00043510368672 -1.14848365834e-05 -6.27099941903e-06)
(-0.000376039783237 -9.5864780156e-06 -6.22548968292e-06)
(-0.000320124720666 -8.49452886696e-06 -6.85091251279e-06)
(-0.000264063848804 -7.82015882807e-06 -7.75536277387e-06)
(-0.000205426100379 -7.78683627125e-06 -8.68899864021e-06)
(-0.000142830048773 -7.80958337055e-06 -9.66987181282e-06)
(-7.73546892962e-05 -7.99022645461e-06 -9.74642475908e-06)
(-1.25103778409e-05 -8.24243180927e-06 -8.22939551861e-06)
(4.5499688731e-05 -8.91492162748e-06 -6.22443807039e-06)
(9.45594574627e-05 -9.31553052595e-06 -3.97361504648e-06)
(0.000137035351646 -9.59943396718e-06 -1.87497237736e-06)
(0.000172348047856 -9.56954858026e-06 6.28832252258e-07)
(0.000196876526627 -9.09193024798e-06 4.05897764785e-06)
(0.000206081919006 -8.53684995512e-06 6.80533982066e-06)
(0.000201058222148 -7.80283182413e-06 9.54333041336e-06)
(0.000185053169285 -7.23267100204e-06 1.18337553873e-05)
(0.000159936095915 -6.37147839426e-06 1.28926900332e-05)
(0.000127464814935 -5.67565252029e-06 1.45974896911e-05)
(8.67585889147e-05 -5.76567884129e-06 1.70954320486e-05)
(3.69956987364e-05 -7.54095484514e-06 2.31946745002e-05)
(0.00122583576732 0.00164053192525 -0.00179785129525)
(0.00462523501944 0.00214364263797 -0.00254880715773)
(0.00650765346163 0.00409522278667 -0.00286693844263)
(0.00506321046828 0.00604841101105 -0.00294921227728)
(0.00138267552953 0.007125302102 -0.00301368813452)
(-0.00304688565481 0.00717571439897 -0.00293257715922)
(-0.00725035773558 0.00616176267813 -0.00271031772443)
(-0.00977820461269 0.0042552780107 -0.00239786968929)
(-0.0098746960233 0.00209637617767 -0.00193025789532)
(-0.0082127014492 0.000576519020608 -0.00137947362726)
(-0.0061749759147 -0.000138809481553 -0.00088253928585)
(-0.00439964204686 -0.000364386289908 -0.000525307342088)
(-0.00307272441985 -0.000365138179251 -0.000302729746066)
(-0.00216302906591 -0.000289801124306 -0.00017011061848)
(-0.00155851065993 -0.000206359037278 -9.81355705921e-05)
(-0.00115910245924 -0.000140027905502 -5.88738981825e-05)
(-0.000893397887169 -9.42497002703e-05 -3.60636488055e-05)
(-0.000714751324794 -6.41433005685e-05 -2.24051524706e-05)
(-0.000591921788418 -4.5120860068e-05 -1.4312004911e-05)
(-0.000503885757687 -3.33758655181e-05 -9.87615900249e-06)
(-0.00043582219424 -2.62479903543e-05 -8.12689649696e-06)
(-0.000377227604964 -2.19496864812e-05 -7.97930736931e-06)
(-0.00032144201674 -1.95652971347e-05 -8.52341441815e-06)
(-0.000265503731997 -1.82748409903e-05 -9.20772609994e-06)
(-0.00020709206084 -1.80632442618e-05 -9.98618309808e-06)
(-0.000144591791541 -1.82813315199e-05 -1.10778820629e-05)
(-7.9023907683e-05 -1.89158368878e-05 -1.11255737085e-05)
(-1.4235765146e-05 -1.97554795449e-05 -9.45788642681e-06)
(4.38450122399e-05 -2.10667863643e-05 -7.43787250054e-06)
(9.3352187e-05 -2.21802926127e-05 -5.39307184104e-06)
(0.000136534272948 -2.28086676426e-05 -3.47967031684e-06)
(0.000172907343684 -2.27227210126e-05 -9.66517198233e-07)
(0.000198266596786 -2.16651545326e-05 3.059675118e-06)
(0.000207874246363 -2.06472489977e-05 6.67075959801e-06)
(0.000202820782149 -1.89529407169e-05 9.84628374751e-06)
(0.000186598673657 -1.7570129505e-05 1.25837194217e-05)
(0.000161109666063 -1.5812623716e-05 1.40896113868e-05)
(0.000128196301931 -1.43425400324e-05 1.64618666625e-05)
(8.67557208738e-05 -1.42041269669e-05 1.94318246435e-05)
(3.47927122138e-05 -1.64289642582e-05 2.31105092492e-05)
(0.00138047660062 0.00358250466128 -0.00192678928338)
(0.00546399868484 0.00517542882253 -0.00301044830524)
(0.00761656959415 0.00870888705464 -0.00310840382312)
(0.00587478404748 0.0120005018665 -0.00294474605682)
(0.0016835235488 0.0137476688524 -0.00291274868376)
(-0.00327120882738 0.0137943752531 -0.0028210586137)
(-0.00797368258798 0.0120744647461 -0.00266402313732)
(-0.010819850579 0.00880590169092 -0.00253721969967)
(-0.0107934595611 0.00502431571719 -0.00226712975422)
(-0.00877240858306 0.00217410187545 -0.00176152834671)
(-0.00639393392319 0.000593394267239 -0.00117245982759)
(-0.00442301301483 -0.000104475517801 -0.000707061178446)
(-0.00301871139346 -0.000313237541725 -0.000404386438215)
(-0.00209312979753 -0.000316493777575 -0.000228051146157)
(-0.00149735866894 -0.000252011991126 -0.00012866041088)
(-0.00111372022531 -0.000182015248123 -7.57215846578e-05)
(-0.000862123608203 -0.000127275471261 -4.64803987245e-05)
(-0.000693705400065 -8.93949711606e-05 -2.96572831339e-05)
(-0.000577637533908 -6.45033392232e-05 -1.97577019569e-05)
(-0.000493940510041 -4.84337037676e-05 -1.45500082226e-05)
(-0.000428577680332 -3.8203607038e-05 -1.23921572344e-05)
(-0.000371695860233 -3.18175509537e-05 -1.20897616284e-05)
(-0.00031705865702 -2.82296946874e-05 -1.24651588785e-05)
(-0.000261948512769 -2.64707093274e-05 -1.30996678989e-05)
(-0.00020423737805 -2.6053331523e-05 -1.39434591873e-05)
(-0.000142295317741 -2.64722409588e-05 -1.49645950314e-05)
(-7.7149550512e-05 -2.75670229783e-05 -1.503958794e-05)
(-1.27434652063e-05 -2.90385529912e-05 -1.32493388297e-05)
(4.5009127612e-05 -3.08168978744e-05 -1.14249726545e-05)
(9.44635878676e-05 -3.24797085869e-05 -9.54251935712e-06)
(0.000137911579148 -3.33183089055e-05 -7.79565208713e-06)
(0.000174753242176 -3.31719193029e-05 -5.26379577105e-06)
(0.000200212027283 -3.18261985165e-05 -1.0277388237e-06)
(0.00020974561923 -3.06981897898e-05 3.12233774836e-06)
(0.000204492304334 -2.85725448024e-05 6.54838025374e-06)
(0.000187737772259 -2.65816890131e-05 9.36120856759e-06)
(0.000161672279158 -2.46456463378e-05 1.1238828934e-05)
(0.00012802146466 -2.28984185719e-05 1.38403384891e-05)
(8.53483612969e-05 -2.27734109683e-05 1.6567706032e-05)
(3.36301648725e-05 -2.42021751781e-05 1.79717834494e-05)
(0.00188594852303 0.0050773189289 -0.00191772201108)
(0.0070106847498 0.00757132352232 -0.00282008526555)
(0.00947197507681 0.012277993468 -0.0022447530313)
(0.0072072202017 0.0164871933705 -0.00148597465595)
(0.00215611847178 0.018689779626 -0.00120679868191)
(-0.00367950726379 0.018732814646 -0.00110880551777)
(-0.00922610907235 0.0165164903205 -0.00119045467293)
(-0.0125872560266 0.0122832730164 -0.00159294405453)
(-0.0124352169617 0.00730753214519 -0.00190502891523)
(-0.00985654303491 0.00346602815583 -0.00175333098179)
(-0.00693325469296 0.0012419246819 -0.00126474427739)
(-0.00461698362701 0.00017511769659 -0.000794120653592)
(-0.00304135019702 -0.000214395492189 -0.000464802790088)
(-0.00205433742852 -0.000294504473476 -0.00026553400212)
(-0.00144682570284 -0.000259213890815 -0.000151830654228)
(-0.00107048955174 -0.000196235258372 -8.9180063098e-05)
(-0.000830572895875 -0.000140533188254 -5.53431375061e-05)
(-0.00067209275968 -9.98739481876e-05 -3.62687158242e-05)
(-0.000563052902873 -7.23116599588e-05 -2.52954304803e-05)
(-0.000483988856851 -5.39376715857e-05 -1.9358541848e-05)
(-0.000421664501258 -4.18634167129e-05 -1.67476901268e-05)
(-0.000366837520644 -3.41840837548e-05 -1.61521324436e-05)
(-0.000313647417965 -2.98103380513e-05 -1.63954529278e-05)
(-0.00025954664361 -2.7767656596e-05 -1.6973468569e-05)
(-0.000202622259484 -2.72498850177e-05 -1.78243005176e-05)
(-0.000141296928001 -2.79293451385e-05 -1.89043412955e-05)
(-7.65527139876e-05 -2.94281701466e-05 -1.9135193114e-05)
(-1.24796949826e-05 -3.13431107422e-05 -1.74430674677e-05)
(4.50783205964e-05 -3.36643469313e-05 -1.58452584816e-05)
(9.46919625043e-05 -3.56249522848e-05 -1.4155605477e-05)
(0.000138572061056 -3.65912948484e-05 -1.25590068902e-05)
(0.000175980439425 -3.63867817537e-05 -1.00014767413e-05)
(0.000201639506737 -3.49705599266e-05 -5.6374783002e-06)
(0.000211209467288 -3.35491695004e-05 -1.13222434839e-06)
(0.000205936743072 -3.13755329407e-05 2.55508675672e-06)
(0.000188864503898 -2.90909712261e-05 5.47019331586e-06)
(0.00016243152202 -2.69948528879e-05 7.60188781066e-06)
(0.000128283958139 -2.50114938175e-05 1.03032446266e-05)
(8.50009219924e-05 -2.43765475802e-05 1.2853834171e-05)
(3.3587191728e-05 -2.37059247454e-05 1.43175234268e-05)
(0.00264797994285 0.00600204475634 -0.00192767878128)
(0.00904199898525 0.00899718085729 -0.00240245728242)
(0.0118174409346 0.0142642305203 -0.00092681085528)
(0.00889407293646 0.018805928248 0.000595439161768)
(0.00275735900116 0.0211758066674 0.00121753016217)
(-0.0042317494429 0.0212153893796 0.00130958474376)
(-0.0108437246788 0.0187809610082 0.000879717880591)
(-0.0148268866856 0.0141580885285 -0.000224803596827)
(-0.0145530752611 0.00862621239741 -0.00130341258834)
(-0.0113100440846 0.00428958417531 -0.0016284927041)
(-0.0077161209779 0.00171190839762 -0.00130213549116)
(-0.0049525022873 0.000418944154459 -0.000860282977303)
(-0.00313813721881 -9.90989851823e-05 -0.000514768358687)
(-0.00205048846324 -0.000243200711736 -0.000295536385443)
(-0.0014119848497 -0.000237374228029 -0.000170785097513)
(-0.00103371610238 -0.000188113851112 -9.99737880484e-05)
(-0.000801534079933 -0.000137308291013 -6.18238789008e-05)
(-0.000651554635817 -9.83129026609e-05 -4.09556193029e-05)
(-0.000548988554299 -7.11446321575e-05 -2.90645870173e-05)
(-0.000474348210605 -5.25733409548e-05 -2.24466685516e-05)
(-0.00041504730075 -4.0043249986e-05 -1.94016879331e-05)
(-0.000362375941046 -3.19603278074e-05 -1.85202102409e-05)
(-0.00031076942936 -2.73277664543e-05 -1.86670428794e-05)
(-0.000257768952633 -2.52429468367e-05 -1.92186123834e-05)
(-0.000201675401332 -2.47366214059e-05 -2.00998057402e-05)
(-0.000141001808388 -2.55707242894e-05 -2.1299088831e-05)
(-7.66513487049e-05 -2.72823318233e-05 -2.17162815285e-05)
(-1.28939768068e-05 -2.94281186458e-05 -2.02315206445e-05)
(4.45630098511e-05 -3.19851035504e-05 -1.88398973856e-05)
(9.4477185207e-05 -3.40405933231e-05 -1.73859999192e-05)
(0.000138887498871 -3.50330342166e-05 -1.59038543188e-05)
(0.000176896091176 -3.47730572062e-05 -1.32951411314e-05)
(0.00020285573518 -3.34030874238e-05 -8.82196380715e-06)
(0.00021250592519 -3.18120172324e-05 -4.13411397686e-06)
(0.000207277056177 -2.97046463682e-05 -6.69907052294e-08)
(0.000190057784748 -2.73859869714e-05 2.92555694644e-06)
(0.000163433166753 -2.53194737991e-05 5.22254350236e-06)
(0.00012904339434 -2.32171036185e-05 7.98537451055e-06)
(8.5739380964e-05 -2.22535114983e-05 1.06354408201e-05)
(3.4204558277e-05 -2.03083943814e-05 1.32845782853e-05)
(0.00352133683212 0.00619576781296 -0.00195379444679)
(0.011224820175 0.00922419847374 -0.00192986528515)
(0.0142824421924 0.0143671132247 0.000460392077726)
(0.0106355955642 0.0185531287811 0.00268261032258)
(0.00336146768859 0.0207389866693 0.00357028970112)
(-0.00479384679348 0.0207837698645 0.00365673828716)
(-0.0125215527602 0.0185093117617 0.00293483769205)
(-0.0171613369843 0.0141681766266 0.00118932133732)
(-0.0168267813269 0.00880277160726 -0.000656785164936)
(-0.0129091320718 0.00451555906288 -0.00147962647364)
(-0.00861869550667 0.00191396153153 -0.00132350359013)
(-0.0053697949203 0.000565079588401 -0.000916312788798)
(-0.00328338183104 -3.10590146665e-06 -0.000559185109212)
(-0.00207316577596 -0.000183282295824 -0.000322074070187)
(-0.00139142220327 -0.000199487409454 -0.000184346271994)
(-0.00100482160557 -0.000164630377148 -0.000108341318227)
(-0.000776511089561 -0.000122357584375 -6.59329185041e-05)
(-0.000633240037039 -8.79970932974e-05 -4.35125137415e-05)
(-0.000536219616515 -6.34551453881e-05 -3.11253960495e-05)
(-0.000465466342183 -4.64455944039e-05 -2.39877967462e-05)
(-0.000408923078252 -3.46677471419e-05 -2.051640184e-05)
(-0.000358320577008 -2.69619041491e-05 -1.93758535267e-05)
(-0.000308290214558 -2.2543129165e-05 -1.94342351907e-05)
(-0.000256387688582 -2.06159336164e-05 -1.99885994765e-05)
(-0.000201099152089 -2.01896739598e-05 -2.09273682584e-05)
(-0.000141059397737 -2.10597245292e-05 -2.22488016361e-05)
(-7.70932623487e-05 -2.27843826465e-05 -2.28677418284e-05)
(-1.36028444991e-05 -2.49360417239e-05 -2.16008929575e-05)
(4.38175551585e-05 -2.73908986936e-05 -2.04167532728e-05)
(9.40744008249e-05 -2.93607710881e-05 -1.91771796681e-05)
(0.000139044518088 -3.02923548169e-05 -1.77853104777e-05)
(0.000177632767104 -3.00016607893e-05 -1.51219228415e-05)
(0.00020390342134 -2.87521169325e-05 -1.05379649622e-05)
(0.000213687096998 -2.72222313585e-05 -5.68747723102e-06)
(0.000208535692385 -2.5187059922e-05 -1.358596387e-06)
(0.00019122424667 -2.30982024429e-05 1.67312652829e-06)
(0.000164543354194 -2.12024407712e-05 4.12608586675e-06)
(0.000130065828338 -1.9144931645e-05 6.93839582331e-06)
(8.69899941096e-05 -1.80911612603e-05 9.83059656244e-06)
(3.50365785529e-05 -1.57643647957e-05 1.35055722899e-05)
(0.00434221623163 0.00564971181231 -0.00198450329597)
(0.0132203913313 0.0082830506768 -0.0015108423161)
(0.0164713247052 0.0127418362566 0.0016480672555)
(0.0122047694625 0.0161983103326 0.00434086166887)
(0.00389360184194 0.0180512181301 0.00543512974289)
(-0.00527947144936 0.0181025533013 0.00552320261266)
(-0.0140215661089 0.0161697050814 0.00457388803815)
(-0.0192443692241 0.0125222622238 0.00237854860001)
(-0.0189423391376 0.00789510491174 -8.77270064821e-05)
(-0.0144262137696 0.00414731858428 -0.00134556080654)
(-0.00950717632997 0.00182904053227 -0.00133857537367)
(-0.00579982697815 0.000595834794794 -0.000962970907269)
(-0.00344700282112 5.74985615028e-05 -0.000597028176404)
(-0.00211141943453 -0.000125923046182 -0.000344164787458)
(-0.00138200705826 -0.000154684449589 -0.000194965800185)
(-0.00098362268412 -0.000131793251188 -0.000113601556538)
(-0.000756542395309 -9.98628945415e-05 -6.83784260035e-05)
(-0.00061796110515 -7.20118390457e-05 -4.46704688719e-05)
(-0.00052540725509 -5.16945882258e-05 -3.16905449909e-05)
(-0.000457875468391 -3.74475631284e-05 -2.44766305723e-05)
(-0.000403619413305 -2.74089425804e-05 -2.06754637884e-05)
(-0.000354834101786 -2.07524644969e-05 -1.9266062843e-05)
(-0.000306237817427 -1.6941039952e-05 -1.92435884072e-05)
(-0.0002553337951 -1.5323784451e-05 -1.98279537751e-05)
(-0.000200762973126 -1.49953763686e-05 -2.08303954237e-05)
(-0.00014128890083 -1.57976628514e-05 -2.22723620996e-05)
(-7.7667266493e-05 -1.73464295116e-05 -2.30588834194e-05)
(-1.43855438251e-05 -1.92784683407e-05 -2.19757267365e-05)
(4.30363791243e-05 -2.13759699952e-05 -2.09928880671e-05)
(9.36191666876e-05 -2.30939119451e-05 -1.99238940356e-05)
(0.00013912012731 -2.38819581091e-05 -1.86175519913e-05)
(0.000178226171704 -2.35894030637e-05 -1.58887732154e-05)
(0.000204778831695 -2.25214510775e-05 -1.12151204261e-05)
(0.000214729398831 -2.11970044773e-05 -6.21369559749e-06)
(0.000209638550954 -1.94007446627e-05 -1.78057260402e-06)
(0.00019224909635 -1.76644206652e-05 1.37669336049e-06)
(0.000165608275317 -1.6067966483e-05 3.90409433304e-06)
(0.000131099833989 -1.42795037522e-05 6.74546061984e-06)
(8.82442834004e-05 -1.32636796647e-05 9.91852484661e-06)
(3.58005779712e-05 -1.11451941993e-05 1.41095278681e-05)
(0.00503087920512 0.00446237253145 -0.00202520728737)
(0.0148087094961 0.00641718379081 -0.00123820590869)
(0.018187084253 0.009800623944 0.0024779253358)
(0.0135294966979 0.0122426160904 0.0054384779621)
(0.00436233729165 0.0136279447066 0.00656505187846)
(-0.00568833550095 0.0136792824073 0.00665317088712)
(-0.0152537295561 0.0122468369418 0.0056811908167)
(-0.0208798062446 0.0096150800909 0.00320371978315)
(-0.0206526701799 0.00613093840731 0.00031788597889)
(-0.0156771280866 0.00328490995504 -0.00124883850304)
(-0.0102652338991 0.00148949925048 -0.0013508690693)
(-0.00617907925167 0.000514293260105 -0.000998906383375)
(-0.00359907778934 7.73544320257e-05 -0.000626173994206)
(-0.00215312557828 -7.8005336058e-05 -0.000360906557221)
(-0.00137979544748 -0.000108403355841 -0.000202809111741)
(-0.000969293902841 -9.47851931636e-05 -0.000116019068585)
(-0.000741947377754 -7.28675395766e-05 -7.00531830111e-05)
(-0.000606284879748 -5.26764178915e-05 -4.49772825221e-05)
(-0.000517008887402 -3.76754904549e-05 -3.17291886772e-05)
(-0.00045190395552 -2.70002610331e-05 -2.43109477206e-05)
(-0.000399431247088 -1.94204819652e-05 -2.02931879241e-05)
(-0.00035209012789 -1.43404301359e-05 -1.86920302321e-05)
(-0.000304666219872 -1.14399205704e-05 -1.86124242609e-05)
(-0.000254576506606 -1.02447621836e-05 -1.92308762614e-05)
(-0.000200583061471 -1.00175744009e-05 -2.0286745341e-05)
(-0.000141567191697 -1.0657306037e-05 -2.18255508807e-05)
(-7.82276609268e-05 -1.18725495546e-05 -2.27551859904e-05)
(-1.5086515728e-05 -1.33889385425e-05 -2.18199705958e-05)
(4.23558624122e-05 -1.49559914954e-05 -2.09800036732e-05)
(9.32061347195e-05 -1.626742252e-05 -2.00746721334e-05)
(0.000139158975424 -1.68415967444e-05 -1.88230282254e-05)
(0.000178684660577 -1.6582206069e-05 -1.60338029684e-05)
(0.000205459717851 -1.57527531165e-05 -1.12749354679e-05)
(0.000215553606577 -1.47489709634e-05 -6.15306886876e-06)
(0.000210528177789 -1.33886591503e-05 -1.68658766975e-06)
(0.000193078399883 -1.20520979724e-05 1.54678126032e-06)
(0.000166474752922 -1.08580656451e-05 4.15543052362e-06)
(0.000131974724493 -9.51512272087e-06 7.04360384355e-06)
(8.92509230904e-05 -8.61945913293e-06 1.03808536553e-05)
(3.63488137465e-05 -6.898340177e-06 1.46914054972e-05)
(0.00551517027079 0.00281334644277 -0.00207259838383)
(0.0158760109882 0.00398093221363 -0.00113047085245)
(0.0193524836177 0.00604634776269 0.00290180737704)
(0.0144407112804 0.00744190671829 0.00594681861747)
(0.00469103532747 0.00827711263652 0.00694494943764)
(-0.00595898869201 0.0083155140872 0.00703725913665)
(-0.0160914559748 0.00746499838059 0.00620759582659)
(-0.0219543219335 0.00594228615474 0.00364259694221)
(-0.0218243993316 0.00382478768656 0.000546154462953)
(-0.0165467546441 0.00207873917685 -0.00119532954781)
(-0.0108082949419 0.000959089143792 -0.00136094947156)
(-0.0064573230561 0.000341870594959 -0.00102306272432)
(-0.00371435088316 6.07370687621e-05 -0.000645497961409)
(-0.00218739038996 -4.16275671931e-05 -0.000371815206312)
(-0.00138090040675 -6.36764080384e-05 -0.000207716203847)
(-0.000960556169015 -5.6668033472e-05 -0.000117398075831)
(-0.000732445948824 -4.36918726181e-05 -7.04038747118e-05)
(-0.000598508464678 -3.16408067124e-05 -4.48781635986e-05)
(-0.000511328933156 -2.25082893173e-05 -3.14617043699e-05)
(-0.000447839443779 -1.59941950583e-05 -2.39321063797e-05)
(-0.000396560308675 -1.13370700789e-05 -1.98399047925e-05)
(-0.000350212607941 -8.20329231006e-06 -1.80908016299e-05)
(-0.000303616572803 -6.43170970734e-06 -1.79493164544e-05)
(-0.000254096314516 -5.73296471145e-06 -1.86179019314e-05)
(-0.00020049793738 -5.60941812053e-06 -1.9701740495e-05)
(-0.000141800150959 -6.01483771726e-06 -2.13031396383e-05)
(-7.86572424859e-05 -6.77223791241e-06 -2.23278782386e-05)
(-1.55992120881e-05 -7.71486290905e-06 -2.14903373324e-05)
(4.18710935256e-05 -8.65057803012e-06 -2.07738617692e-05)
(9.29123086314e-05 -9.43451037511e-06 -1.99597027985e-05)
(0.000139186920916 -9.74555374548e-06 -1.87448040116e-05)
(0.000179003695674 -9.54673138158e-06 -1.59092823655e-05)
(0.000205924887423 -9.01198220206e-06 -1.10867018935e-05)
(0.000216110925936 -8.39654456887e-06 -5.87931626882e-06)
(0.000211142913876 -7.56848123093e-06 -1.34347156174e-06)
(0.000193657986078 -6.74463344599e-06 1.89121384836e-06)
(0.000167068926761 -6.02448720112e-06 4.53061766165e-06)
(0.000132577984525 -5.19616645413e-06 7.47034793901e-06)
(8.990835201e-05 -4.53143981925e-06 1.0898544024e-05)
(3.6664562411e-05 -3.12446857279e-06 1.51159761944e-05)
(0.00575980512927 0.00091570033119 -0.00210659474363)
(0.016399233027 0.00129326552491 -0.00111573960204)
(0.0199516817425 0.00196912133287 0.00303240773792)
(0.0148831962949 0.00241611395529 0.00607809192531)
(0.00484170377644 0.00267968550058 0.00704684891815)
(-0.00607580743405 0.00269554701851 0.00714447290278)
(-0.0165065424127 0.00243012383113 0.00635570182493)
(-0.0224699038992 0.00194591960873 0.00380105432282)
(-0.022408509705 0.00125418546116 0.000639426563773)
(-0.0169837394897 0.000682424337286 -0.00117505795049)
(-0.0110864926477 0.000314811460895 -0.0013671074371)
(-0.00660172817486 0.000111644023555 -0.00103512847431)
(-0.00377508981678 1.91157767057e-05 -0.000654920039421)
(-0.00220597306759 -1.42889138045e-05 -0.000377026402807)
(-0.00138201832013 -2.11459518297e-05 -0.00020991530411)
(-0.00095633747678 -1.8496488394e-05 -0.000118031800124)
(-0.000727735488514 -1.39857385453e-05 -7.01350189449e-05)
(-0.000594659840068 -9.95502639772e-06 -4.4692382129e-05)
(-0.000508497816754 -6.93025097071e-06 -3.12344664582e-05)
(-0.000445815937407 -4.83441074406e-06 -2.36939061419e-05)
(-0.00039513387381 -3.37037671045e-06 -1.95335332212e-05)
(-0.000349291061316 -2.40912153354e-06 -1.77092477965e-05)
(-0.000303117578242 -1.90587378285e-06 -1.75349583419e-05)
(-0.000253878600348 -1.73756861983e-06 -1.8248103277e-05)
(-0.000200467932152 -1.71388885617e-06 -1.93520069309e-05)
(-0.000141923250957 -1.84428006587e-06 -2.09746454992e-05)
(-7.88750581611e-05 -2.07148100269e-06 -2.20413164055e-05)
(-1.58494845296e-05 -2.34009112582e-06 -2.12514840127e-05)
(4.16424700887e-05 -2.58540503507e-06 -2.05956493565e-05)
(9.27846076741e-05 -2.76800334604e-06 -1.98401100094e-05)
(0.000139223570828 -2.79232504573e-06 -1.86273991403e-05)
(0.000179178487185 -2.67108865418e-06 -1.57660989721e-05)
(0.000206161482217 -2.47035648069e-06 -1.09072613754e-05)
(0.000216386982434 -2.27666163461e-06 -5.65548872107e-06)
(0.000211442964112 -2.03231707227e-06 -1.07954324293e-06)
(0.000193931235617 -1.80459500459e-06 2.14408360841e-06)
(0.000167344444049 -1.60483130605e-06 4.8159679488e-06)
(0.000132852368682 -1.33062110053e-06 7.77381250625e-06)
(9.01961511133e-05 -9.50622175295e-07 1.12192053892e-05)
(3.67875089427e-05 2.89116282554e-07 1.5353343226e-05)
(0.00575692787424 -0.00105573901318 -0.00210766076364)
(0.016393296082 -0.00145572360786 -0.00111762259433)
(0.0199446667984 -0.00216546112074 0.00302999666937)
(0.0148771083096 -0.00262999657521 0.00607715909002)
(0.00484024577992 -0.00290444465854 0.00704353388182)
(-0.00607250342516 -0.00291515562684 0.00714091373433)
(-0.0164991506078 -0.00263289163598 0.00635229508399)
(-0.0224613490019 -0.00212281259104 0.00379668867015)
(-0.0223972298554 -0.00138966203335 0.000635440488716)
(-0.016973186082 -0.000771310051407 -0.00117685194811)
(-0.0110785108923 -0.000365614188564 -0.00136742843549)
(-0.00659677553875 -0.000137636465816 -0.00103491823217)
(-0.00377234969967 -3.10607727374e-05 -0.00065465860683)
(-0.00220454862036 9.78621568547e-06 -0.000376833994596)
(-0.00138131430735 2.04176469377e-05 -0.000209770764584)
(-0.000956028206907 1.95948952671e-05 -0.000117948587953)
(-0.000727632313881 1.5733966796e-05 -7.01275591274e-05)
(-0.000594650265224 1.18798319871e-05 -4.46853798875e-05)
(-0.000508548554668 8.74072913905e-06 -3.12163021679e-05)
(-0.000445898526106 6.3411864649e-06 -2.36904093761e-05)
(-0.000395218943219 4.52297253554e-06 -1.95462491601e-05)
(-0.000349369677019 3.23157784178e-06 -1.77048738221e-05)
(-0.000303180926916 2.42232870382e-06 -1.75410246373e-05)
(-0.000253909297398 2.05179780952e-06 -1.82540464034e-05)
(-0.000200470293903 1.97069481712e-06 -1.93423083785e-05)
(-0.000141907905478 2.12991875547e-06 -2.09659395011e-05)
(-7.88415279467e-05 2.4504946327e-06 -2.20289086784e-05)
(-1.58010468162e-05 2.88761784659e-06 -2.1235296213e-05)
(4.17027934063e-05 3.35063045258e-06 -2.05772714316e-05)
(9.28481230875e-05 3.79556860535e-06 -1.98115513164e-05)
(0.000139273363051 4.05602777644e-06 -1.85905894368e-05)
(0.000179205204619 4.09059719641e-06 -1.57246780238e-05)
(0.00020616297388 3.94289090172e-06 -1.08643133957e-05)
(0.000216365687437 3.70173931401e-06 -5.61135119888e-06)
(0.000211404198729 3.32819779196e-06 -1.03211311072e-06)
(0.000193881899236 2.93567990878e-06 2.18466279812e-06)
(0.000167281223797 2.61434616374e-06 4.86408234098e-06)
(0.000132771622398 2.31161967575e-06 7.82287031201e-06)
(9.01235415063e-05 2.39320705479e-06 1.12563604396e-05)
(3.67478144188e-05 3.5385007635e-06 1.53709956785e-05)
(0.00550667250604 -0.0029449706997 -0.00207554912477)
(0.0158575890348 -0.00413487009816 -0.00113610289084)
(0.0193313884925 -0.00623582363702 0.00289289840678)
(0.0144248611824 -0.00765125556531 0.00593726061149)
(0.00468694613707 -0.00849571616274 0.00693464308552)
(-0.0059485919176 -0.00852767195768 0.00702621546911)
(-0.0160703200679 -0.00765963480679 0.00619553574968)
(-0.0219285445885 -0.00610843726079 0.00362971506232)
(-0.021791152301 -0.00394997490454 0.000535131043959)
(-0.0165157610661 -0.00216036519187 -0.00120033069122)
(-0.0107850135593 -0.001005640081 -0.00136174733066)
(-0.00644289340804 -0.000365730167284 -0.00102248288909)
(-0.00370636330553 -7.17176862958e-05 -0.000644744843793)
(-0.00218322510587 3.74871000884e-05 -0.00037123985573)
(-0.00137881849942 6.30350336475e-05 -0.000207300098054)
(-0.000959635768177 5.7769265771e-05 -0.000117083041762)
(-0.000732139261513 4.54371366377e-05 -7.02539153712e-05)
(-0.000598487265129 3.35686080662e-05 -4.48198363209e-05)
(-0.000511485501343 2.43076642791e-05 -3.14120990704e-05)
(-0.000448083073091 1.75010651059e-05 -2.39220007243e-05)
(-0.000396814579237 1.25045995735e-05 -1.98664338326e-05)
(-0.000350449550821 9.01091063541e-06 -1.80772874858e-05)
(-0.000303805355274 6.9285412168e-06 -1.79401448159e-05)
(-0.000254194214766 6.0230910536e-06 -1.86199903985e-05)
(-0.000200509317416 5.82840869995e-06 -1.96839179409e-05)
(-0.000141754230262 6.25846954466e-06 -2.12722707506e-05)
(-7.85600197918e-05 7.09992665266e-06 -2.22895616311e-05)
(-1.54549740582e-05 8.19680797659e-06 -2.14424618513e-05)
(4.20503246739e-05 9.35860393499e-06 -2.07151414591e-05)
(9.30977541911e-05 1.03901766244e-05 -1.98811896764e-05)
(0.000139333430092 1.0919652816e-05 -1.86388302831e-05)
(0.000179082713958 1.08676366745e-05 -1.57881736909e-05)
(0.000205928255683 1.03779237249e-05 -1.09582922314e-05)
(0.000216044272969 9.70914456883e-06 -5.74836312998e-06)
(0.000211024017666 8.73915861272e-06 -1.18658515486e-06)
(0.000193512996892 7.75267153961e-06 2.02611924327e-06)
(0.00016688228167 6.92039386672e-06 4.66221964775e-06)
(0.000132333364111 6.0468411837e-06 7.61700512123e-06)
(8.96901695649e-05 5.83268938283e-06 1.10139319264e-05)
(3.6544000247e-05 6.83184887831e-06 1.51730755192e-05)
(0.00501729703768 -0.0045778079604 -0.00202936120032)
(0.0147764845238 -0.00655388328344 -0.0012474812047)
(0.01815279502 -0.00997148469675 0.00245924248939)
(0.0135025072023 -0.0124377204292 0.00541783623679)
(0.00435582396665 -0.0138282816026 0.00654821840496)
(-0.00566985880448 -0.0138717864191 0.00663625452719)
(-0.0152187084608 -0.0124231209421 0.0056586240475)
(-0.0208358717692 -0.009759764655 0.00318246053386)
(-0.0205987781769 -0.00623709398363 0.000301735115278)
(-0.0156275885423 -0.00335303136104 -0.00125595876739)
(-0.0102285174053 -0.00152825219461 -0.00135164638182)
(-0.00615638453117 -0.000534261135899 -0.000997729813077)
(-0.0035864936866 -8.66146341045e-05 -0.000624860843566)
(-0.00214654560747 7.455690941e-05 -0.000359964790328)
(-0.00137648095713 0.000107968981727 -0.000202208340716)
(-0.000967797744139 9.58192269034e-05 -0.000115446716136)
(-0.000741433208486 7.45321687377e-05 -6.97488065651e-05)
(-0.000606247912353 5.45588905153e-05 -4.47997939185e-05)
(-0.00051726761155 3.94470227725e-05 -3.16332927281e-05)
(-0.000452298955942 2.84920107374e-05 -2.42741262805e-05)
(-0.000399862207027 2.05762884594e-05 -2.02609277777e-05)
(-0.000352500721546 1.51102180204e-05 -1.86651474557e-05)
(-0.000304985699854 1.18855034004e-05 -1.86006097006e-05)
(-0.000254744477953 1.04738984743e-05 -1.92297809901e-05)
(-0.000200607873891 1.0157047386e-05 -2.02435794252e-05)
(-0.000141497194568 1.08145932184e-05 -2.17747304404e-05)
(-7.80751037205e-05 1.21029268521e-05 -2.26959811053e-05)
(-1.48483751574e-05 1.37542587056e-05 -2.17511291256e-05)
(4.26524941494e-05 1.55572485719e-05 -2.08951327352e-05)
(9.3502398901e-05 1.70855579582e-05 -1.99450152851e-05)
(0.000139391941837 1.78454991261e-05 -1.86571422415e-05)
(0.000178809269055 1.77118161008e-05 -1.5837522309e-05)
(0.000205460420451 1.69167284428e-05 -1.10720557073e-05)
(0.000215437214765 1.58484831474e-05 -5.94398298737e-06)
(0.000210329691967 1.43562438063e-05 -1.41882149745e-06)