/*--------------------------------*- C++ -*----------------------------------*\
| =========                 |                                                 |
| \\      /  F ield         | OpenFOAM: The Open Source CFD Toolbox           |
|  \\    /   O peration     | Version:  3.0.1                                 |
|   \\  /    A nd           | Web:      www.OpenFOAM.org                      |
|    \\/     M anipulation  |                                                 |
\*---------------------------------------------------------------------------*/
FoamFile
{
    version     2.0;
    format      ascii;
    class       volScalarField;
    location    "7.4";
    object      ddt0(k);
}
// * * * * * * * * * * * * * * * * * * * * * * * * * * * * * * * * * * * * * //

dimensions      [0 2 -3 0 0 0 0];

internalField   nonuniform List<scalar> 
7968
(
-6.79520699855e-05
-7.65771596544e-05
-8.35318151192e-05
-8.80586026508e-05
-9.09384141025e-05
-9.26951527888e-05
-9.36364408015e-05
-9.41573866261e-05
-9.44815559414e-05
-9.47028703263e-05
-9.49750294522e-05
-9.49529881596e-05
-9.47007495947e-05
-9.41925923355e-05
-9.32155711474e-05
-9.14252246644e-05
-8.84499016622e-05
-8.38227795955e-05
-7.67731017253e-05
-6.80667103043e-05
-7.65569889416e-05
-0.000113857624325
-0.000139003669063
-0.000154139147226
-0.000162844770769
-0.00016736181027
-0.000169297901853
-0.000170017030806
-0.000170440131722
-0.000170804879283
-0.000171079390271
-0.00017108432117
-0.000170896828067
-0.000170286123558
-0.000168362241569
-0.000163839407801
-0.00015498578915
-0.000139657426519
-0.000114286069348
-7.67988969265e-05
-8.35271178472e-05
-0.000139095922592
-0.000175402476098
-0.000197135060385
-0.00020959419327
-0.000215970894353
-0.000218604928952
-0.000219507909409
-0.000220031093708
-0.000220458775217
-0.000220741206511
-0.000220726667945
-0.000220498790088
-0.000219754401866
-0.000217174470958
-0.000210762734536
-0.000198133434464
-0.000176156980071
-0.000139586995654
-8.38510331133e-05
-8.80785247106e-05
-0.000154320165077
-0.000197236724521
-0.000222358598212
-0.000236075190564
-0.000242294764278
-0.000244203617204
-0.000244031780288
-0.000244087670676
-0.000242500503677
-0.000242569760385
-0.000244125680768
-0.000245038396388
-0.000245329180939
-0.00024361234852
-0.00023734085454
-0.000223419670328
-0.000198018930809
-0.000154822289365
-8.8444236137e-05
-9.09871908937e-05
-0.000163060326461
-0.000209740909416
-0.000236117253891
-0.000249007273999
-0.000251486920944
-0.000254630092556
-0.00025585189699
-0.000256361225787
-0.000256568487492
-0.000256761642772
-0.000256886736304
-0.000256593442005
-0.000255475254442
-0.00025241198093
-0.000250349166245
-0.000237245655
-0.000210553366224
-0.000163587302002
-9.13795375799e-05
-9.27475727287e-05
-0.00016754544292
-0.000216078064771
-0.000242278278752
-0.000251490457574
-0.000258528652565
-0.000261942218412
-0.000262956454772
-0.000263137077222
-0.000263262622763
-0.000263484529572
-0.00026365584337
-0.000263665502589
-0.000262736456763
-0.000259324947083
-0.000252360384266
-0.000243502195924
-0.000216951876373
-0.000168116036595
-9.31548678216e-05
-9.36889246404e-05
-0.000169420832485
-0.000218613529418
-0.000244045871624
-0.000254570471541
-0.000261891482572
-0.000264773811632
-0.000265097966298
-0.000264704898913
-0.000264541497974
-0.000264790350399
-0.000265271784897
-0.000265875367527
-0.000265643655888
-0.000262735684612
-0.000255419554855
-0.000245250599137
-0.00021956269785
-0.000170046021219
-9.41081403246e-05
-9.41855671163e-05
-0.000170016445576
-0.000219356697304
-0.000243671622926
-0.000255666319058
-0.000262774303568
-0.00026495037557
-0.000264443957042
-0.000263417913771
-0.000262936318592
-0.000263233825768
-0.000264099590219
-0.000265354775428
-0.000265959284089
-0.000263734219243
-0.000256609247298
-0.000245130022772
-0.000220405790752
-0.000170710857911
-9.46090748862e-05
-9.44552760089e-05
-0.000170250305608
-0.000219652330779
-0.000243452276747
-0.000255980666538
-0.000262760117225
-0.000264343619617
-0.000263185657601
-0.000261541556642
-0.000260669288655
-0.000261060610642
-0.00026236783307
-0.000264267205724
-0.000265511034912
-0.000263853471154
-0.000256955020733
-0.000243422991324
-0.000220788450461
-0.000171014838177
-9.48829772385e-05
-9.45695879957e-05
-0.0001703775326
-0.000219819090187
-0.000242897194219
-0.000256097203289
-0.000262670296846
-0.000263937867089
-0.000262430305619
-0.000260336237683
-0.000259193842909
-0.000259700083072
-0.000261321406895
-0.000263622907169
-0.000265215043514
-0.000263832939764
-0.000256924499347
-0.000242304152788
-0.000221005376285
-0.000171190552521
-9.50076775896e-05
-9.45614897957e-05
-0.000170359123659
-0.000219789086487
-0.000242894818608
-0.000256060044971
-0.000262626500623
-0.00026388546671
-0.000262364643557
-0.000260249974102
-0.000259086792132
-0.000259588935045
-0.000261226639233
-0.000263547163448
-0.000265152049711
-0.000263779072253
-0.000256877901632
-0.00024226467634
-0.000220968562119
-0.000171170610392
-9.50000028397e-05
-9.44405243181e-05
-0.000170196490548
-0.000219567518957
-0.000243340248621
-0.000255871859469
-0.00026263932619
-0.000264202366072
-0.000263015658563
-0.000261331355884
-0.000260420236724
-0.000260802924703
-0.000262137395271
-0.000264073991798
-0.000265344214973
-0.000263705860906
-0.000256822220773
-0.000243318446078
-0.000220676934493
-0.000170949339163
-9.48667580801e-05
-9.41728481581e-05
-0.000169934192572
-0.00021922976089
-0.00024349933447
-0.00025550079357
-0.000262588975045
-0.000264733986436
-0.000264185574093
-0.000263120653212
-0.000262596902244
-0.000262884141683
-0.000263776009191
-0.000265068125511
-0.000265708407846
-0.000263510229365
-0.000256400018381
-0.000244890502101
-0.000220229465074
-0.000170603213382
-9.45923443239e-05
-9.36816141529e-05
-0.000169326712704
-0.000218462770087
-0.000243833018568
-0.000254364788232
-0.000261658394431
-0.000264502963203
-0.000264779120664
-0.000264339375954
-0.000264141439125
-0.000264380564526
-0.000264882990404
-0.00026552392964
-0.000265331493792
-0.000262455580178
-0.000255158117507
-0.000244943403198
-0.000219346603824
-0.000169913446009
-9.40945768365e-05
-9.27489695864e-05
-0.00016746495569
-0.000215934472025
-0.000242055023279
-0.00025125300977
-0.000258258966985
-0.000261636079545
-0.000262602463059
-0.000262737668923
-0.000262826411362
-0.00026303754396
-0.000263231385707
-0.000263276490108
-0.000262385214656
-0.000259005585311
-0.00025206139878
-0.00024318732273
-0.000216734936507
-0.000167987544718
-9.31479902444e-05
-9.10039610797e-05
-0.000163014461796
-0.000209636062431
-0.000235926228924
-0.000248710965317
-0.000251193179848
-0.000254293376867
-0.000255466841368
-0.000255930107613
-0.000256044094641
-0.000256225420509
-0.000256393379642
-0.000256169663364
-0.00025508243933
-0.00025206210419
-0.000249959349859
-0.000236966140682
-0.00021037558133
-0.000163494790641
-9.13875342417e-05
-8.8106001195e-05
-0.000154314705808
-0.000197188461416
-0.000222230808148
-0.000235842148944
-0.000241947545034
-0.000243714514544
-0.000243509833569
-0.000243347265296
-0.000241639084726
-0.000241720079935
-0.000242990254491
-0.000244462405619
-0.000244765096803
-0.000243182066549
-0.000237021732124
-0.00022321046814
-0.000197902759925
-0.000154771791592
-8.84603812954e-05
-8.35602299949e-05
-0.000139133587146
-0.000175416869632
-0.00019708382143
-0.000209453017361
-0.000215733197609
-0.000218275976238
-0.000219108085661
-0.000219576948412
-0.000219974330766
-0.000220250124979
-0.000220250366147
-0.000220057926358
-0.000219365124576
-0.000216867830431
-0.00021054766025
-0.000198012505089
-0.000176112801679
-0.00013958307026
-8.38716412202e-05
-7.6588211574e-05
-0.000113916813492
-0.000139062113873
-0.000154157710295
-0.000162804306013
-0.000167259024033
-0.000169133987802
-0.000169798480176
-0.000170183757887
-0.000170528791162
-0.000170801183357
-0.000170819282383
-0.000170657256191
-0.000170086558021
-0.000168212935962
-0.00016374872719
-0.000154957700571
-0.000139673359789
-0.000114315254257
-7.68224387606e-05
-6.79672210602e-05
-7.66089595803e-05
-8.35758200818e-05
-8.81043316996e-05
-9.09756706464e-05
-9.2716095686e-05
-9.36393731653e-05
-9.41417094487e-05
-9.44509558848e-05
-9.46610337376e-05
-9.49334680819e-05
-9.4923437474e-05
-9.46865654058e-05
-9.41960504343e-05
-9.32346103634e-05
-9.14589663514e-05
-8.84916191091e-05
-8.38636812944e-05
-7.68055607563e-05
-6.8083506819e-05
-7.46086299442e-05
-0.000106899740914
-0.000129778925627
-0.000144251755586
-0.000153176100096
-0.000158317238143
-0.000160965408695
-0.000162170877846
-0.000162671846215
-0.000162905493467
-0.000163095926736
-0.000163123232884
-0.000162772569219
-0.000161612982199
-0.000158925583422
-0.000153708634312
-0.000144651973794
-0.000130042890955
-0.00010708252294
-7.48132858663e-05
-0.000106804132756
-0.000221009083591
-0.000280437232536
-0.000316428697904
-0.00033772751804
-0.000349174344194
-0.000354433448077
-0.000356245509069
-0.000356719980977
-0.000356918590305
-0.000357177969172
-0.000357339357203
-0.000357093696543
-0.000355399687488
-0.000350154844405
-0.000338672566858
-0.000317218031505
-0.000281004692193
-0.00022134998817
-0.000107168006361
-0.000129677353992
-0.000280546483943
-0.000358740303081
-0.000407234643517
-0.000436727283054
-0.000453258427622
-0.000461287543132
-0.000464528662723
-0.000465957014869
-0.000466767742885
-0.00046710300947
-0.000466740825233
-0.000465575433279
-0.00046242090388
-0.000454478954086
-0.000437856188106
-0.000408164870834
-0.000359403597788
-0.000280935377023
-0.000130150740342
-0.00014418395495
-0.000316624401678
-0.000407341324988
-0.000463715629246
-0.000497727272969
-0.000516427747671
-0.000524558248526
-0.00052661326248
-0.000528240088812
-0.000530744765903
-0.000531170401222
-0.000529601073616
-0.000527469196872
-0.000524545299144
-0.000517717998207
-0.000498916968875
-0.000464687528399
-0.000408040033001
-0.000317048185997
-0.000144728453256
-0.000153141005265
-0.000337931714535
-0.000436875033486
-0.000497787385268
-0.000533494225132
-0.000552762350899
-0.000560737239258
-0.00056319882582
-0.000564093201211
-0.000564740841652
-0.000565102822374
-0.00056496387206
-0.000564433142519
-0.000562112979386
-0.000554213573956
-0.000534722478979
-0.00049879111839
-0.000437630041231
-0.000338445032502
-0.000153737014743
-0.00015827503326
-0.000349292704567
-0.000453361061215
-0.000516455427487
-0.000552704161981
-0.000570099421272
-0.000576671721986
-0.000578226733098
-0.000578304211419
-0.000578366923209
-0.000578741961159
-0.000579270974934
-0.000579693585496
-0.000578447631349
-0.000571867918667
-0.000554187435277
-0.00051752060375
-0.000454218137956
-0.000349931099902
-0.000158926806683
-0.000160887170546
-0.000354428486847
-0.000461277942007
-0.000524809231849
-0.000560503430329
-0.000576452065197
-0.000581515460368
-0.000581804749268
-0.000580989168209
-0.000580639407393
-0.000581058719708
-0.00058209342597
-0.000583505253947
-0.000583644625986
-0.000578594040508
-0.00056215979376
-0.000524168494183
-0.000462168649209
-0.00035521158214
-0.000161599100343
-0.000162013590757
-0.000356064872437
-0.000464343257155
-0.000526431173756
-0.000562655496956
-0.00057761044559
-0.000581364569217
-0.000580393839859
-0.000578863592237
-0.000578290828035
-0.000578732195793
-0.000580226574994
-0.000582370511242
-0.000583853463421
-0.000580154875876
-0.000564769429662
-0.000527420011065
-0.000465449062511
-0.000356990344134
-0.000162776318433
-0.000162383075318
-0.000356296556181
-0.000465492348493
-0.000527719952071
-0.000563142472263
-0.000577226916826
-0.000580050156296
-0.000578360858076
-0.000576278050925
-0.000575137585481
-0.0005756484743
-0.000577598693182
-0.000580637760055
-0.000582862394067
-0.000580115966699
-0.000565730843719
-0.000530609287998
-0.000466863986274
-0.000357369346145
-0.000163190502252
-0.000162441498687
-0.000356202931547
-0.000465854785282
-0.000528855410283
-0.000563210505979
-0.000576827556915
-0.000579222882557
-0.000577372549082
-0.000574611038968
-0.000573283911098
-0.000573901069613
-0.000576074574204
-0.00057955277957
-0.000582205534507
-0.000579937074473
-0.000566213004221
-0.00053218399165
-0.00046750161327
-0.000357393457563
-0.000163286277641
-0.000162423453311
-0.000356146818567
-0.000465784586695
-0.000528752455095
-0.000563120263922
-0.000576727776341
-0.000579109255651
-0.000577243883533
-0.000574453169234
-0.000573103174299
-0.000573716034516
-0.000575904032872
-0.000579402146222
-0.000582065430039
-0.000579808891023
-0.000566097069642
-0.0005320814447
-0.000467414813925
-0.000357328693792
-0.000163270180724
-0.00016233680773
-0.000356138769449
-0.000465297220624
-0.000527510413441
-0.000562889295047
-0.000576939726628
-0.000579724110824
-0.000577996985723
-0.000575856283509
-0.000574654783891
-0.000575152547486
-0.00057713616989
-0.000580221341649
-0.000582468864962
-0.000579750757719
-0.000565398122803
-0.000530306096193
-0.000466611994681
-0.000357178676462
-0.000163142278418
-0.000161951608609
-0.000355825506082
-0.000464041106997
-0.000526099190287
-0.000562249851341
-0.000577146118225
-0.000580837614098
-0.000579790300608
-0.000578219742187
-0.000577567589489
-0.000577984469444
-0.000579515442739
-0.000581697199214
-0.000583228009776
-0.000579576198917
-0.000564249501929
-0.000526990314974
-0.00046505483693
-0.000356690922855
-0.000162705126053
-0.000160819255611
-0.000354140940733
-0.00046090079928
-0.000524365877684
-0.000559971098794
-0.000575839227927
-0.00058081560858
-0.000581006766565
-0.000580103226644
-0.000579690065988
-0.000580087363333
-0.00058114976486
-0.00058261546203
-0.000582818384876
-0.000577837896473
-0.000561475698793
-0.000523577037858
-0.000461664458188
-0.000354840455906
-0.000161515483845
-0.000158210744536
-0.000348993716246
-0.000452954501956
-0.000515942047826
-0.000552081158356
-0.000569379836073
-0.000575847498174
-0.00057729655947
-0.000577281627593
-0.000577292889661
-0.000577645335755
-0.000578188746123
-0.000578658770049
-0.000577481550471
-0.000570993309241
-0.000553404756802
-0.00051684685317
-0.000453673121999
-0.000349535924251
-0.000158842743258
-0.00015309277418
-0.000337653518766
-0.000436492089438
-0.000497281700398
-0.000532848282747
-0.000551985476149
-0.000559833852834
-0.000562225182123
-0.000563039646619
-0.000563688922939
-0.000564031070108
-0.000563905605962
-0.00056335585403
-0.000561048699192
-0.000553279258633
-0.000533922019947
-0.000498127253181
-0.000437107768924
-0.00033806726621
-0.000153667983283
-0.000144158736607
-0.000316401898633
-0.000407023341051
-0.000463275534885
-0.000497140579445
-0.000515687018372
-0.00052321453829
-0.00052575887078
-0.000527636522911
-0.000529996270764
-0.000530409526545
-0.000529144310865
-0.000526544778127
-0.000523389754098
-0.000516809912
-0.000498174729514
-0.000464098813936
-0.000407593707579
-0.000316731957351
-0.000144682431423
-0.00012967512797
-0.000280400432774
-0.000358516810595
-0.000406897813249
-0.000436257871988
-0.000452653486035
-0.00046055219697
-0.000463721157799
-0.000465087060381
-0.000465892670339
-0.000466211229714
-0.000465849766972
-0.000464681158256
-0.000461554253884
-0.000453740419285
-0.000437254142337
-0.000407702845544
-0.000359070811304
-0.000280708508478
-0.000130128639795
-0.000106821292491
-0.0002209474938
-0.000280325693344
-0.000316232899436
-0.000337436336731
-0.00034878021206
-0.000353950663023
-0.000355688488613
-0.00035610758088
-0.000356275660334
-0.00035652487012
-0.00035669525576
-0.000356482793535
-0.000354842054461
-0.000349675002201
-0.000338289020292
-0.000316932987644
-0.000280814713735
-0.000221231449966
-0.000107173484246
-7.46265630461e-05
-0.000106909729939
-0.000129786148154
-0.000144248024533
-0.000153147086837
-0.000158255474525
-0.00016087114303
-0.000162047021224
-0.000162525917075
-0.000162746607824
-0.000162937371399
-0.000162976940036
-0.000162646239958
-0.000161511758436
-0.000158851942172
-0.000153663892101
-0.000144631786702
-0.000130035087063
-0.00010708516294
-7.48347457117e-05
-7.84937028693e-05
-0.000123436446344
-0.000155443974102
-0.000176184483775
-0.000189289142784
-0.000197041140774
-0.000201129272119
-0.000202875368302
-0.000203336061268
-0.000203344101623
-0.000203443653725
-0.000203619541138
-0.000203325851199
-0.000201689187423
-0.000197610061878
-0.000189787482772
-0.000176544936086
-0.000155644104404
-0.00012356019184
-7.87715529368e-05
-0.000123248750573
-0.000266543037587
-0.000342301574464
-0.000389967254055
-0.000419530457559
-0.000436537241418
-0.000445360333624
-0.000449320178425
-0.000450724645971
-0.000451147678147
-0.000451398548514
-0.00045137295247
-0.000450256167619
-0.000446452644476
-0.000437636738569
-0.000420532894753
-0.000390774755593
-0.000342822646345
-0.00026681372507
-0.000123761713576
-0.000155216327697
-0.000342392773534
-0.0004402766193
-0.000502789167317
-0.000542569946629
-0.000566265346636
-0.000579084607456
-0.000585752594385
-0.000588743792531
-0.00059001091563
-0.000590361108666
-0.000589635801439
-0.000586994628048
-0.000580537446577
-0.000567630547409
-0.00054379535692
-0.000503804597591
-0.000440997775678
-0.000342803720759
-0.000155903224654
-0.000175965946563
-0.000390109991232
-0.000502856676003
-0.000574995460201
-0.000620283127521
-0.000646889865384
-0.000660302666113
-0.000668896092144
-0.000672711185059
-0.00067440714316
-0.000674814873791
-0.000673768670445
-0.000670467783534
-0.000662782523946
-0.000648555150575
-0.000621626959892
-0.000576137955253
-0.000503746721631
-0.000390714865857
-0.000176801053781
-0.000189057525255
-0.000419625189797
-0.000542618114598
-0.000620303507215
-0.000666946563153
-0.000696712610156
-0.00071127716994
-0.000719114007684
-0.000723053083554
-0.000724571237626
-0.000725009045139
-0.00072423291008
-0.000721712764642
-0.000714497269183
-0.000698681324716
-0.000668271232332
-0.000621583665986
-0.000543726639185
-0.000420473535771
-0.000190035987512
-0.000196737834999
-0.000436464634457
-0.000566226583543
-0.000646845245994
-0.000696618452448
-0.000723882960571
-0.000737292811368
-0.000745754340101
-0.000750145738755
-0.000751254682454
-0.000751705811862
-0.000751353683561
-0.000750742938118
-0.000745814192138
-0.000729476914349
-0.00069877803716
-0.000648590407706
-0.000567616270756
-0.000437659893395
-0.000197878511372
-0.000200704906947
-0.000445068022402
-0.000578887521158
-0.00065977462251
-0.000710888559864
-0.000734897932468
-0.000747641253799
-0.000757076114762
-0.000761626838613
-0.000762194694954
-0.00076262850963
-0.000762789914003
-0.000764332122223
-0.000762952006432
-0.000748018644371
-0.000714956024787
-0.000663159692656
-0.000580691641789
-0.000446619458119
-0.000202005211127
-0.000202294997578
-0.000448761090719
-0.000585289135079
-0.000668272291345
-0.000717161224663
-0.000738580843224
-0.000751030462024
-0.000760265464165
-0.000764417059977
-0.00076443468837
-0.000764815095231
-0.000765558224653
-0.000768763865462
-0.0007699491255
-0.000757344787233
-0.000723576137719
-0.000671079442139
-0.000587348908172
-0.000450610092857
-0.000203711204296
-0.000202584953141
-0.000449842142952
-0.000587905774265
-0.000671614075406
-0.00071969870295
-0.000740180821844
-0.000751879284875
-0.000760519444734
-0.000764073965088
-0.000763794935415
-0.000764194240162
-0.000765224481514
-0.000769344468827
-0.000771823425839
-0.000760522839207
-0.00072734964861
-0.000674808725717
-0.00059029057294
-0.000451941225969
-0.000204072015772
-0.000202437254156
-0.000449908804636
-0.000588706857624
-0.000672729666096
-0.00072066030575
-0.000740816357589
-0.000752003460281
-0.000760174478763
-0.000763376311366
-0.000763003910977
-0.000763479956566
-0.000764700820292
-0.00076909882012
-0.000772047372643
-0.000761277493273
-0.000728555505524
-0.000676246766132
-0.000591328511205
-0.000452185355025
-0.000203968966041
-0.00020239903603
-0.00044981002013
-0.00058859218992
-0.000672616081886
-0.000720546158054
-0.000740697769621
-0.000751877296882
-0.000760040668744
-0.000763214726019
-0.000762819847744
-0.000763297255828
-0.000764539095134
-0.00076894800343
-0.000771897972544
-0.000761123228272
-0.000728398569791
-0.000676097030543
-0.000591184556531
-0.000452072261549
-0.000203935878156
-0.000202485711611
-0.000449572328623
-0.000587582646376
-0.000671290900264
-0.000719367040548
-0.000739836497548
-0.00075150158391
-0.000760118298933
-0.000763607201891
-0.00076327109616
-0.000763672699391
-0.000764753337705
-0.000768895476763
-0.000771384436579
-0.000760073693112
-0.000726897581995
-0.000674379134259
-0.000589879651146
-0.000451619587191
-0.000203978496767
-0.000202153420552
-0.000448362382388
-0.000584800195111
-0.000667765644667
-0.000716576166744
-0.000737834980784
-0.00075011124839
-0.000759193996758
-0.000763270307505
-0.000763236627299
-0.000763594519941
-0.000764350026372
-0.000767622963439
-0.000768883031624
-0.00075641595139
-0.0007228145282
-0.000670420264872
-0.000586720357293
-0.000450120281801
-0.000203567441238
-0.000200537242912
-0.000444580136119
-0.000578290276933
-0.000659138177686
-0.000710114808546
-0.000733761666974
-0.000746055276018
-0.000755168689098
-0.000759553325342
-0.000760046896939
-0.000760457042918
-0.000760647520896
-0.000762270553363
-0.000761127223208
-0.000746655458674
-0.000713977193097
-0.000662341608622
-0.000579921125544
-0.000446010156692
-0.000201826735269
-0.000196557422306
-0.000435920388798
-0.000565562128214
-0.000646088568831
-0.000695777105177
-0.000722764903828
-0.000735658761536
-0.00074367415726
-0.000747857411718
-0.000748881475925
-0.000749301472983
-0.000748962441147
-0.000748475067326
-0.000743950882607
-0.00072813971835
-0.000697732220046
-0.000647639120148
-0.000566767001047
-0.000436984275405
-0.00019768272134
-0.000188882051107
-0.000419070517703
-0.000541954384473
-0.000619530724128
-0.000666073485106
-0.000695694725103
-0.000710117700755
-0.000717658776915
-0.000721417462193
-0.000722854822004
-0.000723255646423
-0.000722496477544
-0.000720109186283
-0.000713146925303
-0.000697470893199
-0.000667233241979
-0.000620620032665
-0.000542886973795
-0.00041979363351
-0.000189844832273
-0.000175814105886
-0.000389611109746
-0.000502250991008
-0.000574275011398
-0.000619417371119
-0.000645896633609
-0.000659606875477
-0.000667661886761
-0.000671323522614
-0.000672950008607
-0.000673324789024
-0.000672310867531
-0.000669095421631
-0.000661658254215
-0.000647388720437
-0.000620581440879
-0.000575240009751
-0.000502988965586
-0.000390109417564
-0.000176634685614
-0.000155097421041
-0.000341986381377
-0.000439774543155
-0.000502169550584
-0.000541812027209
-0.000565349008712
-0.000578063170137
-0.000584576267966
-0.000587453714024
-0.000588646946603
-0.000588968152414
-0.00058826968767
-0.000585701261323
-0.000579375447993
-0.000566559293221
-0.000542878851659
-0.000503041215697
-0.000440375087282
-0.000342310226715
-0.000155770929659
-0.000123176637034
-0.000266273755378
-0.00034195305039
-0.000389527156853
-0.000418963679873
-0.000435846604428
-0.000444563800136
-0.000448433672108
-0.000449762207103
-0.0004501354094
-0.000450369002046
-0.000450361743781
-0.000449297588976
-0.000445567614676
-0.000436842399351
-0.000419857132947
-0.000390233461655
-0.000342388552068
-0.000266481902023
-0.000123683288104
-7.84872292633e-05
-0.000123385505503
-0.000155369487695
-0.000176089640377
-0.000189162850455
-0.000196876675087
-0.000200928755133
-0.000202643515597
-0.0002030833013
-0.000203081171272
-0.000203182126289
-0.000203370117681
-0.000203097135125
-0.000201486192144
-0.000197437351246
-0.0001896480936
-0.000176434790286
-0.000155553781327
-0.000123500884446
-7.87703216736e-05
-7.9378979485e-05
-0.000131835793195
-0.000169462511265
-0.000194423470604
-0.000210421527873
-0.000219977568745
-0.000224943080713
-0.000226833825
-0.000227101810545
-0.000226907941793
-0.000226920988015
-0.000227175554329
-0.000227027828873
-0.000225314323446
-0.000220463132998
-0.000210904035198
-0.000194788360795
-0.000169627728555
-0.000131808174414
-7.97045902548e-05
-0.000131481611051
-0.000292834885512
-0.000379369360484
-0.000435210247996
-0.000470762722194
-0.000492045614729
-0.000503608592607
-0.00050885987124
-0.000510675568028
-0.000511117761837
-0.000511335610589
-0.000511285530225
-0.000509767170449
-0.000504729162648
-0.000493234361219
-0.000471875421702
-0.000436124266898
-0.000379931917155
-0.000293096365753
-0.000132250305404
-0.00016908344833
-0.00037937953769
-0.000490972887738
-0.000563797433414
-0.000611257530181
-0.000640347451487
-0.000657472854841
-0.000666436538349
-0.000670539834555
-0.000672169619435
-0.000672571679384
-0.000671630501015
-0.000667995677609
-0.000659252343438
-0.00064209379259
-0.000612886403335
-0.000565202170291
-0.000492051806166
-0.000380074530092
-0.00017008819304
-0.000194010940964
-0.000435184487393
-0.000563749172691
-0.000647199707127
-0.000700734655776
-0.000730235947887
-0.000749806525377
-0.00076179988663
-0.000767990799278
-0.000770165620343
-0.000770651524257
-0.000769325741788
-0.000765849231513
-0.000756598192038
-0.00073446038905
-0.000702871135133
-0.000649050613378
-0.000565327534325
-0.000436377331019
-0.000195287353784
-0.0002099160448
-0.000470521415144
-0.00061106018895
-0.000700637257774
-0.000754939984363
-0.000785104192206
-0.000804406477109
-0.000820291274881
-0.000829384618033
-0.000831493503078
-0.000831935018543
-0.000830621575356
-0.00083005613402
-0.000824636503585
-0.000802685757452
-0.000762585142802
-0.000703044945183
-0.000613211590625
-0.00047234313479
-0.00021147325761
-0.000219293424911
-0.000491475029964
-0.000639956214236
-0.000729960371769
-0.000782060870479
-0.000810190302048
-0.000831706455332
-0.000852950826519
-0.000865025567386
-0.000866555558701
-0.000866907543666
-0.000865827146932
-0.000869606501002
-0.000871193021609
-0.000851619089222
-0.000805767543739
-0.000735005907865
-0.00064272528667
-0.000494023870633
-0.0002211519517
-0.000224032110351
-0.000502689791458
-0.000656875884868
-0.000747011555621
-0.000792966097816
-0.000819261675232
-0.000842733189416
-0.00086819616174
-0.000881958208068
-0.000882792806832
-0.000883064002653
-0.000882473092005
-0.00089030523255
-0.000899489881859
-0.00088418668582
-0.000836242417911
-0.000759713436391
-0.000660304693712
-0.000505914556099
-0.000226155576815
-0.000225719814918
-0.000507617543829
-0.000665517521087
-0.000753921311395
-0.000797448590042
-0.000822273265195
-0.000846796856694
-0.000873366060449
-0.000887412982925
-0.000887581963838
-0.000887669322122
-0.000887751054602
-0.000898280373559
-0.000912227648177
-0.000901270325823
-0.000853030233746
-0.000773845706439
-0.000669521223573
-0.000511341470735
-0.000227986771591
-0.000225850899342
-0.000509087232121
-0.000669152845199
-0.000757409963832
-0.000800250874094
-0.000824579656013
-0.000848542410154
-0.000874951583903
-0.000888549250686
-0.000888297698839
-0.000888345101171
-0.00088856814311
-0.000900101783878
-0.000915953694129
-0.000907050412999
-0.000859684914219
-0.000780019225016
-0.00067373284781
-0.000513206693833
-0.000228171155659
-0.000225573612118
-0.000509154655189
-0.000670203515161
-0.000758998172885
-0.000801847794441
-0.000825954939553
-0.000849386384077
-0.000875429745727
-0.000888550678669
-0.000888139929737
-0.00088825570723
-0.000888695466695
-0.000900350799582
-0.000916709891823
-0.000908479882081
-0.000861574665125
-0.000781958270243
-0.000675116915431
-0.00051353578674
-0.000227921905942
-0.000225519246811
-0.000509009499303
-0.000670048451777
-0.000758857145589
-0.000801722170126
-0.00082583963769
-0.000849270496216
-0.000875320226286
-0.000888399822963
-0.000887958501968
-0.000888087851814
-0.000888559011465
-0.000900216295752
-0.000916573955792
-0.000908326943561
-0.000861389028414
-0.000781751766264
-0.000674906970458
-0.000513364021762
-0.000227875558872
-0.000225699232475
-0.000508680095142
-0.000668710665025
-0.000756999754905
-0.00079988385792
-0.000824250754799
-0.000848181762405
-0.000874612695646
-0.000888125919761
-0.000887815189865
-0.000887887565772
-0.000888169956329
-0.000899683497227
-0.000915545040436
-0.000906597212779
-0.00085914308838
-0.000779426020545
-0.00067314239344
-0.000512721826575
-0.000228039852599
-0.000225486621223
-0.000507004970703
-0.000664847530111
-0.000753150090301
-0.000796416758498
-0.000820926989432
-0.000845087476821
-0.000871329114413
-0.000885242016685
-0.000885373472896
-0.000885405759377
-0.000885392443865
-0.000895976777218
-0.000909961434142
-0.000899336496152
-0.00085159742945
-0.000772787330971
-0.000668629901683
-0.000510600936374
-0.000227769944595
-0.000223746431294
-0.000501926332768
-0.000656054801441
-0.000745897300797
-0.000791129925511
-0.000816447443532
-0.000838919678245
-0.000863477801245
-0.000876807796755
-0.000877530160804
-0.00087773763343
-0.000877178103813
-0.000884985596364
-0.000894496964639
-0.000880370265555
-0.000833844590708
-0.000758263483609
-0.000659217710482
-0.000504989407757
-0.000225881033234
-0.000218971964529
-0.000490613466596
-0.000639042241897
-0.000728875142201
-0.00078018814935
-0.000806962347625
-0.000827102991429
-0.000847216053162
-0.000858732165434
-0.000860113395091
-0.000860399403531
-0.000859308689995
-0.000863173212712
-0.000865534057131
-0.000847579167643
-0.00080342961407
-0.000733634614018
-0.000641565819416
-0.000493012855976
-0.000220841710965
-0.000209586816885
-0.000469631570415
-0.000610134444482
-0.000699651058584
-0.000753558951754
-0.000782655346848
-0.000800698744438
-0.000815671815165
-0.000824335537973
-0.000826292289179
-0.000826635491406
-0.00082529654519
-0.000824963669362
-0.000820357736779
-0.00079978303854
-0.00076086435383
-0.000701796871037
-0.000612089399763
-0.000471340322762
-0.000211159845789
-0.000193698770617
-0.000434346970721
-0.000562874313185
-0.000646252232825
-0.000699649722512
-0.000728857000819
-0.000747818458777
-0.000759187898627
-0.000765038733269
-0.000767031115788
-0.000767446849299
-0.000766194449959
-0.000762967786813
-0.000754318493744
-0.000732822395631
-0.000701539684706
-0.0006479116899
-0.000564320689872
-0.000435465724887
-0.000194992671113
-0.000168801434448
-0.000378651990489