/*--------------------------------*- C++ -*----------------------------------*\
| =========                 |                                                 |
| \\      /  F ield         | OpenFOAM: The Open Source CFD Toolbox           |
|  \\    /   O peration     | Version:  3.0.1                                 |
|   \\  /    A nd           | Web:      www.OpenFOAM.org                      |
|    \\/     M anipulation  |                                                 |
\*---------------------------------------------------------------------------*/
FoamFile
{
    version     2.0;
    format      ascii;
    class       volScalarField;
    location    "7.4";
    object      epsilon_0;
}
// * * * * * * * * * * * * * * * * * * * * * * * * * * * * * * * * * * * * * //

dimensions      [0 2 -3 0 0 0 0];

internalField   nonuniform List<scalar> 
7968
(
7.8642999625e-05
0.000102443467198
0.000122469996187
0.00013546027523
0.000142665209109
0.000145468066485
0.000145486271901
0.00014369984487
0.000141361091434
0.000139403371992
0.000139090024561
0.000140801332357
0.000143047209287
0.000144813919838
0.000144841881005
0.000142113184861
0.00013504165546
0.000122196047658
0.000102291662619
7.85821578134e-05
0.000102485461983
0.000198355804596
0.000269420042765
0.000311155935999
0.000330230243663
0.000333719609702
0.000328901867044
0.000320434191263
0.000312572616428
0.000307810063706
0.000307328597215
0.000311367440492
0.000318742259319
0.000326973055818
0.000331759108024
0.000328332128174
0.000309531175416
0.000268224583457
0.000197679267056
0.000102240894785
0.000122566407555
0.000269392329122
0.000376912397228
0.000439624996221
0.000467984878466
0.000472987136108
0.00046535656957
0.000453219085075
0.000442472531305
0.000436173636709
0.000435509040121
0.000440767234324
0.000450814504865
0.000462600995001
0.000470135729563
0.000465207992355
0.000437179344082
0.000375071990238
0.000268327847339
0.000122142311358
0.000135571797593
0.000311116023515
0.000439607549812
0.000513490702788
0.000545303130702
0.000548980852941
0.000538088477604
0.000523375957092
0.000511153568376
0.000504447818206
0.000503688174432
0.000509015388333
0.000520412997261
0.000534731953622
0.00054553901016
0.000541919824262
0.000510446433651
0.000437254697127
0.000309699495358
0.000134968188113
0.000142784885771
0.000330192083747
0.000467991568142
0.000545319888349
0.000575418757213
0.000578488158313
0.000578078523733
0.000570852753897
0.000562077073042
0.000556125110899
0.00055529662304
0.000560024439007
0.000568164405331
0.000575245912171
0.000575638042993
0.000571767286437
0.000541896887839
0.000465244523463
0.000328453923346
0.000142009604971
0.000145601911469
0.000333735091242
0.000473045211439
0.000548985150672
0.000578382928922
0.000597044572858
0.000601128595529
0.000595181675961
0.000586224342148
0.000579706545268
0.000578712032319
0.000583823192191
0.000592137194368
0.000598112483219
0.000594336612747
0.000575744624194
0.000545501462394
0.000470104031372
0.000331804328273
0.000144706651652
0.00014562248449
0.000328976543617
0.000465475549742
0.000538076231015
0.000577923494074
0.000601068156451
0.000605647108608
0.000598255103747
0.000587262137147
0.000579211214592
0.000577983085709
0.000584342397688
0.000594622568918
0.000602178502741
0.00059817509675
0.000575393584228
0.000534699645417
0.000462493089254
0.000326953265897
0.000144673126892
0.000143843673528
0.000320639727777
0.000453516181519
0.000523526994906
0.00057081346377
0.000595287527719
0.000598472082731
0.000588120961944
0.000573811212774
0.000563554035382
0.000562064826675
0.000570313995509
0.000583783310313
0.000594402695512
0.000592029610379
0.000568190839157
0.000520228111616
0.000450520103711
0.000318581121886
0.000142891711794
0.000141530676747
0.000313007823027
0.000443136942079
0.000511805682015
0.000562468269958
0.000586858960696
0.000588131631528
0.000574547987279
0.000556796541365
0.000543587699639
0.000541777773365
0.00055266319297
0.000569552722606
0.000583442330315
0.000583154667489
0.000559589486765
0.000508458507533
0.000440058431439
0.000310922344907
0.00014059297666
0.000139649421708
0.000308549382545
0.000437333807814
0.000505537563597
0.000557174196628
0.000581162142017
0.000581100846479
0.000565492608623
0.000544939221384
0.000529052971129
0.000526947848331
0.000540298891837
0.000559997006852
0.000575973659099
0.000577127388303
0.000554112898541
0.000502591260182
0.000434153291733
0.000306421265916
0.000138703187538
0.000139561212267
0.000308429265858
0.000437210014025
0.000505430691428
0.000557070474696
0.00058107124139
0.000581020746437
0.000565414357351
0.000544846382946
0.000528934574378
0.000526824028916
0.000540198254181
0.000559912435412
0.000575887752907
0.000577029431253
0.000553995375334
0.000502451334015
0.000433988104874
0.000306258387377
0.000138586708889
0.000141350090248
0.000312684426626
0.000442785894318
0.000511500031447
0.000562173786028
0.000586601110773
0.000587905056783
0.000574332541438
0.000556566378595
0.000543322570107
0.00054150396156
0.000552419954961
0.00056932699227
0.000583205426035
0.000582883236998
0.000559267065728
0.000508081821938
0.000439617161614
0.000310506222514
0.000140359186637
0.000143612839217
0.00032014256557
0.00045293761153
0.000522981708353
0.000570311347294
0.000594838941589
0.000598065611687
0.000587731138027
0.000573422377148
0.000563147009744
0.000561650150889
0.000569914847476
0.000583380682992
0.000593984452926
0.000591565641874
0.000567657071756
0.00051961307167
0.000449837534793
0.000317973836335
0.00014259943421
0.00014537530372
0.000328361977138
0.000464707417081
0.000537285944509
0.000577221695935
0.000600429755923
0.000605054592666
0.000597686468186
0.000586697922488
0.000578639501372
0.000577403823853
0.000583762359956
0.000594035788501
0.000601569278407
0.000597518139873
0.000574656698011
0.000533841411396
0.000461619942274
0.000326225357449
0.000144364474856
0.000145372588602
0.000333072777626
0.000472162206052
0.000548016955957
0.00057750699653
0.000596248634366
0.00060037797068
0.000594458401298
0.000585511330992
0.000578992315509
0.000577989175914
0.000583087922798
0.000591384034553
0.000597332008284
0.000593509304657
0.000574819459676
0.000544453518259
0.000469108787252
0.000331028939386
0.000144420942524
0.000142594173059
0.000329541043005
0.00046709494697
0.000544297480902
0.000574311927698
0.000577564091065
0.000577188493346
0.000569987953815
0.00056121782406
0.000555270496728
0.000554431429013
0.000559130139112
0.000567245379948
0.00057429576988
0.000574649149066
0.000570578244266
0.000540761409997
0.000464216856868
0.000327685421485
0.00014176857121
0.000135441002504
0.000310577712383
0.000438826697422
0.000512566854447
0.000544269877547
0.000547859282542
0.000536907432765
0.000522210281849
0.000509983887061
0.000503423044407
0.000502656867586
0.000507843846222
0.000519141542741
0.000533435785583
0.000544288766372
0.000540743832861
0.000509369143086
0.000436324471539
0.000309040974633
0.000134798110204
0.0001224928547
0.000269021739893
0.000376350976845
0.000438927322048
0.000467172822991
0.000472085389239
0.000464395017042
0.000452223392313
0.000441439753944
0.000435103766439
0.000434406141799
0.000439645287252
0.000449684759812
0.000461487522918
0.000469073985007
0.000464227737379
0.000436319829541
0.000374365870817
0.000267849562871
0.000122043370085
0.000102463310152
0.00019818384391
0.000269142846632
0.000310779820041
0.000329740322302
0.000333137968197
0.000328258578532
0.000319743767015
0.0003118306653
0.000307019701985
0.000306503782755
0.000310538207384
0.00031792721701
0.000326194082878
0.000331040719389
0.000327704759577
0.000309029823167
0.000267839196988
0.000197436122925
0.000102205624719
7.86415266468e-05
0.000102422167871
0.000122420450912
0.000135372401106
0.000142524515177
0.000145272303657
0.00014524756321
0.000143423743243
0.00014104939362
0.000139058768149
0.000138719483355
0.000140435733337
0.000142700423024
0.000144500078377
0.000144574176814
0.000141906400484
0.000134900221925
0.000122104991817
0.000102241740761
7.85704895629e-05
9.91082817368e-05
0.000171213664954
0.000232274421777
0.000274036509458
0.000298721539497
0.000310325203012
0.000313264940222
0.000311299292563
0.000307873847553
0.000305337192393
0.000304967357901
0.000306951968348
0.000310040555665
0.000311873263178
0.000308969843864
0.00029751286019
0.000273094125961
0.000231651413029
0.000170881752684
9.89662016062e-05
0.000171383102956
0.000215755495202
0.000266744921381
0.000303796323117
0.000326776850271
0.000338528159613
0.000342636898977
0.000342271894459
0.000340281747903
0.000338654761209
0.000338425749975
0.000339698626016
0.000341461424164
0.000341722731101
0.000337602708159
0.00032587771671
0.000302962138117
0.000265969229538
0.000214995912316
0.000170659349573
0.000232538526485
0.00026692791429
0.000319123478978
0.000358284339726
0.000382822339512
0.000395335506149
0.000399572234768
0.000399084707251
0.000396858211153
0.000395034922614
0.000394789104649
0.000396229728354
0.000398217617135
0.000398595433279
0.000394329669512
0.000381802630331
0.000357246798221
0.000318040703701
0.000265750571732
0.000231358169637
0.000274330874169
0.000304105237456
0.000358416145015
0.000399992094885
0.000426483883696
0.000440518522348
0.000445928037906
0.000446663258787
0.000445184028883
0.000443672778256
0.000443424955165
0.000444541280542
0.000445777217831
0.000444907734979
0.000439448381819
0.000425373674121
0.000398802657296
0.000357095062945
0.000302596184776
0.000272788209779
0.00029902994161
0.000327166329048
0.000383031897544
0.000426548094086
0.000455287914685
0.00047291421138
0.000482827611692
0.000486220251394
0.000485905152934
0.000484709256039
0.000484438989408
0.000485226923847
0.000485315749672
0.000481867288016
0.000471984463349
0.000454195415016
0.00042529994189
0.000381561489179
0.000325414981037
0.000297193479668
0.000310648854272
0.000338963106077
0.000395574769229
0.000440582105279
0.000472896078723
0.000496014484054
0.000509305093673
0.000514401521326
0.000514622217028
0.000513445209762
0.000513137715593
0.000513857040981
0.00051337012909
0.000508224128295
0.000495055971421
0.000471996724289
0.00043936565225
0.000394045563043
0.000337073847098
0.000308621648353
0.000313603535966
0.000343092967272
0.000399816453427
0.000445969590002
0.000482791542403
0.000509300804906
0.000524502585847
0.000530149795352
0.000530094964474
0.000528527535065
0.00052817488244
0.000529221741159
0.000528944701263
0.000523216425733
0.000508196862728
0.000481877453552
0.000444843226112
0.000398286740415
0.000341150731194
0.000311490758833
0.000311693044153
0.00034276623182
0.00039936160765
0.000446713683697
0.000486223749439
0.000514482740304
0.000530269894095
0.000535390721668
0.000534305877015
0.000532129069021
0.000531738544294
0.000533330482992
0.000533998868043
0.000528767128347
0.000513202804613
0.000485241863484
0.000445661330566
0.000397843075315
0.00034081981374
0.000309567425843
0.000308392176914
0.00034085804004
0.000397234744306
0.000445341216282
0.00048604158716
0.000514889775834
0.000530450134044
0.000534570305571
0.000532600217184
0.000529386561694
0.000528908218976
0.000531475929746
0.000533021327669
0.000528756585432
0.000513454351056
0.000484968466646
0.000444277201456
0.000395696255308
0.000338912119024
0.000306273329012
0.000306051908362
0.000339353535919
0.000395566216875
0.000443982721612
0.000485043207539
0.000513958943572
0.000529176040469
0.000532711388496
0.000529756167269
0.000525535707776
0.000524971016189
0.000528476210462
0.000531036518518
0.00052735140672
0.000512423346125
0.000483906986089
0.000442918651817
0.000393994438206
0.000337391051788
0.000303916414575
0.000305936772654
0.000339272923767
0.000395494858325
0.000443918089015
0.000484981329709
0.00051389708083
0.000529110291346
0.000532637222668
0.000529667064281
0.000525430282936
0.000524861856368
0.00052837786098
0.000530950835595
0.000527274811472
0.000512353522134
0.000483838446272
0.000442845338787
0.000393907903816
0.000337285968583
0.000303765312981
0.000308080983952
0.000340634106825
0.00039703439609
0.000445160792663
0.000485871029159
0.000514722796141
0.000530276577542
0.000534380152327
0.000532385489492
0.000529143505064
0.000528655749448
0.000531238571966
0.000532803315923
0.000528556496328
0.000513268226131
0.000484782685457
0.00044407722922
0.000395461984085
0.000338633946909
0.000305885669967
0.000311230754068
0.000342425484504
0.00039904896086
0.000446430028975
0.000485964262663
0.000514239538669
0.000530028537931
0.000535134583869
0.000534031355051
0.000531835105464
0.000531432419736
0.000533030759179
0.000533703963547
0.000528491322512
0.000512934840863
0.000484963415025
0.000445355378018
0.000397490393868
0.000340414115417
0.000309016818361
0.000313056365681
0.00034267776484
0.000399419625003
0.000445597589673
0.00048246541889
0.000509011576023
0.000524234781833
0.000529882880551
0.000529814550075
0.000528228680575
0.000527863423077
0.000528910966321
0.000528640576288
0.000522914775711
0.000507881457538
0.000481530242834
0.000444449558354
0.000397849134803
0.000340669455092
0.000310856261546
0.000310087995652
0.000338519947147
0.000395127608678
0.000440144088531
0.000472512050223
0.000495685826006
0.000509016045039
0.000514132278362
0.000514353670592
0.000513167331683
0.000512850455188
0.00051356573241
0.000513072502273
0.000507906132334
0.000494701319534
0.000471589591301
0.00043890089663
0.000393554919189
0.000336564454425
0.00030797713418
0.000298517660561
0.000326735341406
0.000382569530224
0.000426071371893
0.000454826594595
0.000472523718901
0.000482481099244
0.000485905767838
0.000485600723558
0.000484402508569
0.000484124288107
0.000484902793479
0.000484974986094
0.000481492269079
0.000471565228358
0.000453705871857
0.000424786376909
0.000381047137779
0.000324913727357
0.000296599402826
0.000273926935011
0.000303728368044
0.000357974710065
0.000399509810682
0.000425985883208
0.000440025273983
0.000445456609541
0.000446233467178
0.000444766316472
0.000443262238645
0.000443006212473
0.000444104628465
0.000445314010341
0.000444405573848
0.000438912197332
0.00042482887646
0.000398266477941
0.000356590199715
0.000302145692267
0.000272309151758
0.000232270346715
0.000266622472056
0.000318724187698
0.000357816767866
0.000382310749027
0.000394797389047
0.000399019351614
0.000398523991403
0.000396281865838
0.000394440092507
0.000394179829011
0.000395615178515
0.000397601286149
0.000397979699279
0.000393725075982
0.000381222122611
0.000356708413176
0.000317569240524
0.000265373402385
0.000231029191507
0.000171257920582
0.000215525326933
0.000266396296672
0.000303352155536
0.000326255133501
0.000337946379595
0.000342010519762
0.000341609441491
0.000339580755898
0.000337919236561
0.000337669107348
0.000338942276959
0.000340718763172
0.000341007063746
0.000336930312066
0.000325266442363
0.000302433290851
0.00026554390573
0.000214700429304
0.00017049423049
9.90939882965e-05
0.000171039288683
0.000231972042383
0.000273635205588
0.000298228945631
0.000309752448271
0.000312628294617
0.000310605624383
0.000307120011229
0.000304530245219
0.000304129523541
0.000306119302783
0.00030923603588
0.000311118098923
0.000308282879107
0.000296913871388
0.000272600187905
0.00023127322712
0.000170652960219
9.89365869265e-05
0.00011783479145
0.000227395085045
0.000321508090362
0.000387169027028
0.000427431773125
0.000448256139613
0.000456194550958
0.000457042322263
0.000455506745031
0.000454170546278
0.000453788197609
0.000454452031963
0.00045547031703
0.000454323938373
0.000446329548728
0.000425650446987
0.000385721917399
0.000320514036412
0.000226846329414
0.000117620763979
0.000227725213523
0.000266742829671
0.000324571680576
0.000369920687075
0.000400628479395
0.000418763204117
0.000427677265228
0.000430768674172
0.000431083254441
0.000430678641378
0.000430474112957
0.000430525416275
0.0004299517379
0.000426709751909
0.000417747875523
0.000399623550805
0.000368942787193
0.000323577108726
0.000265618223747
0.000226398145926
0.000322020270699
0.000324902380921
0.000370079805577
0.000408796393379
0.000436101493321
0.000452772863912
0.000461371466729
0.000464536204001
0.000464860620502
0.000464373880482
0.000464172104263
0.000464319347962
0.000463767552498
0.000460484282474
0.000451814871873
0.000435066652618
0.000407627270493
0.000368681379688
0.000323138386835
0.00031986225963
0.00038777527245
0.000370479490893
0.00040904409937
0.00044462595909
0.000470858477255
0.000487837102535
0.000497843223587
0.000502100330678
0.000503003984702
0.00050270724491
0.000502497760892
0.000502441406585
0.000501305532601
0.000496958323666
0.0004868522588
0.000469756982468
0.000443278802473
0.000407313781013
0.000368215582686
0.000384984792283
0.000428131270502
0.000401340632052
0.000436515220792
0.000471012406215
0.000498134836326
0.000517418203152
0.00052897761173
0.000534319328019
0.000535732901298
0.000535586582459
0.000535358837112
0.000535099748648
0.000533341703179
0.000527857144551
0.000516348453256
0.000497063451697
0.000469567001854
0.000434551420862
0.000398708308945
0.000424812774355
0.000449062963905
0.000419574076349
0.000453278786876
0.000488057808434
0.00051748856503
0.000538864919094
0.000552084955992
0.000558273382107
0.000559932646042
0.000559795496083
0.000559556699149
0.000559215666989
0.000556976437319
0.000550424425197
0.000537386340144
0.000516244043297
0.000486564647286
0.000451177689666
0.000416701434861
0.000445357380862
0.00045711541255
0.000428548783145
0.000461922405995
0.000498092810322
0.000529133850635
0.000552296264743
0.000566682420308
0.000573211825476
0.000574718975059
0.000574388110011
0.000574169585008
0.000573970407096
0.000571590742013
0.000564353463486
0.000550168536536
0.000527619867525
0.000496592150498
0.00045975867988
0.000425558573234
0.00045318827626
0.000458112373684
0.000431699759542
0.000465139774448
0.000502443958528
0.000534690966845
0.000558951420013
0.000573814899182
0.000580107819472
0.000581007714788
0.00058021018736
0.000580022795095
0.000580284447554
0.000578300830769
0.00057099027899
0.000556237714214
0.000532840808122
0.000500799480111
0.000462931392216
0.000428685323753
0.000454123082479
0.00045676424396
0.000432096375875
0.000465559664767
0.000503490686264
0.000536375200888
0.000561059353758
0.000575886016379
0.000581614410814
0.000581583536491
0.000580081489831
0.000579906289499
0.000580828596678
0.00057967671096
0.000572820681946
0.000558043963946
0.000534302666958
0.000501738795873
0.000463312774807
0.000429093752808
0.000452807109987
0.000455642037838
0.000431796261419
0.000465205242079
0.000503364611358
0.000536459456072
0.00056121301051
0.000575870420256
0.000581129045851
0.000580393463276
0.000578331071759
0.00057815439014
0.000579601413229
0.000579097018834
0.000572706852048
0.000558094156688
0.000534296801566
0.000501554141482
0.000462922114086
0.000428786452445
0.000451699945066
0.000455511223229
0.000431713592739
0.000465141602013
0.000503315719841
0.000536420155306
0.0005611769757
0.000575830262626
0.000581075242887
0.000580320479295
0.000578241410442
0.000578061917199
0.000579518218773
0.000579027327347
0.000572652625273
0.000558050022243
0.000534251624365
0.000501497139647
0.000462842050066
0.000428672576637
0.000451517328471
0.00045637329604
0.000431852459604
0.000465374465766
0.00050335094017
0.000536266801486
0.000560968100177
0.000575793901032
0.000581499190096
0.000581434975686
0.000579901782489
0.00057971575984
0.000580647165418
0.00057951694847
0.000572692260213
0.000557932218574
0.000534180566664
0.00050158096877
0.000463091119287
0.000428781370177
0.000452308410665
0.000457491507733
0.000431319019203
0.000464850126416
0.000502227588783
0.000534534651866
0.000558848358899
0.000573745530026
0.000580039483808
0.000580917550547
0.000580090085906
0.00057988430284
0.000580140808139
0.000578170076496
0.000570872704679
0.000556106332556
0.000532667104496
0.000500562010716
0.000462599925567
0.000428223463619
0.000453382233671
0.000456348223023
0.000428081867881
0.000461557888748
0.000497816308709
0.000528935879362
0.000552188799192
0.000566659764304
0.000573232835674
0.000574742522139
0.000574394268566
0.000574157175205
0.000573946745094
0.000571556912059
0.000564286271002
0.00055003327195
0.000527402200812
0.00049629220203
0.000459352771738
0.000425008998156
0.000452306214107
0.00044825427317
0.000419079920905
0.000452867364108
0.000487716276126
0.000517229618027
0.000538698576363
0.000552017082092
0.000558273540573
0.000559954962503
0.000559813202983
0.000559563316089
0.000559210789393
0.000556943804212
0.000550325336801
0.000537193790395
0.000515964990397
0.000486201649573
0.000450723104608
0.000416122482279
0.000444436373544
0.000427376708556
0.000400867172851
0.000436079923304
0.000470611872509
0.000497802404257
0.000517143679178
0.000528770531956
0.000534160335546
0.000535595407966
0.000535449293174
0.000535212831578
0.000534941475719
0.000533156071297
0.00052762012025
0.000516046633812
0.000496705568648
0.000469137425363
0.000434064129489
0.000398145016524
0.00042394362751
0.000387157358774
0.000370057975252
0.000408600059969
0.000444166934512
0.000470410871114
0.00048742049737
0.000497477957628
0.000501744195661
0.000502649549878
0.00050234764689
0.000502128251101
0.00050206165412
0.000500912936718
0.000496545656221
0.000486395159046
0.000469268822188
0.00044277127784
0.000406803174761
0.000367700290418
0.000384253963257
0.000321587191861
0.000324536208136
0.000369624484594
0.00040827180699
0.000435535396135
0.000452186192053
0.000460773504971
0.0004639208187
0.000464222757299
0.000463714115635
0.000463496521456
0.000463639115198
0.00046308993346
0.00045981554897
0.000451155801055
0.000434427139369
0.000407026650668
0.000368144462673
0.000322680053455
0.000319330053606
0.000227503393857
0.000266412894652
0.000324085035389
0.000369307734992
0.000399916491902
0.000417973851862
0.000426826921503
0.000429867652075
0.000430130683225
0.000429683498398
0.000429453220452
0.000429504153155
0.000428947694936
0.000425743524448
0.000416840797293
0.000398797435076
0.000368223504243
0.000322994142405
0.000265201842219
0.000226103589088
0.000117825541023
0.000227054381478
0.000320940876692
0.000386448189731
0.000426579341892
0.000447291174483
0.00045513667465
0.000455904454599
0.000454285979048
0.000452882162106
0.000452458458082
0.000453121746211
0.000454172483181
0.000453096616976
0.000445203354826
0.000424649044077
0.000384869446107
0.000319838403919
0.000226428695898
0.000117592209899
0.000134852017636
0.000282245367791
0.000407731230707
0.000495448369341
0.000551020905314
0.000582438390227
0.00059800719211
0.000604766588781
0.000607827927984
0.000609221805746
0.000608932461779
0.00060694218403
0.000603308789654
0.000596076759714
0.000580283480002
0.000548930077913
0.000493719871752
0.000406583380724
0.000281681815011
0.000134603778475
0.000282835571937
0.000317244784103
0.000384277130308
0.000438798748114
0.000477427252838
0.000501993884816
0.000515918693826
0.000522759046185
0.000525691797703
0.000526713312003
0.000526550504566
0.000525213183432
0.000522016144977
0.000514989800815
0.000500991636299
0.000476426705222
0.000437813280287
0.000383229710708
0.000315903055139
0.000280820093025
0.000408629299531
0.000384768299857
0.000428918398868
0.000470013459222
0.000500579072762
0.000520609174466
0.000532233897738
0.000537832086015
0.00053989661072
0.000540340008658
0.00054014244753
0.000539348924289
0.000537041541167
0.000531312737709
0.000519630820955
0.000499503814876
0.000468749480411
0.000427314857227
0.000382555852467
0.000405330978834
0.000496560401302
0.000439608672289
0.000470364159629
0.000503671574092
0.000530099898945
0.00054868928568
0.000560264157958
0.000565758436188
0.000567568544552
0.000567764382279
0.000567501329081
0.000566828127442
0.000564596122885
0.000558902937551
0.000547510882846
0.000528848909744
0.000502125693903
0.000468300267651
0.000436727874801
0.000492216139626
0.000552397201076
0.000478456694589
0.000501175191652
0.000530332677284
0.000555961432653
0.000574595309117
0.000586043260805
0.000591365924109
0.000592906965533
0.000592899769289
0.00059257577749
0.000591907680254
0.000589524181975
0.000583587134214
0.000572332087043
0.000554229289675
0.000528559473936
0.000498751773541
0.000475058379743
0.000547101483349
0.000584123885248
0.000503175350846
0.000521355850693
0.000549041784582
0.000574879445526
0.000594038966394
0.000605570536742
0.000610579691863
0.000611727255403
0.000611487821122
0.000611142538896
0.000610515548691
0.000607959987377
0.000601619914497
0.000590064353126
0.000572022632626
0.000547048608648
0.000518671392561
0.000499401674353
0.000578064826195
0.000599981436468
0.000517196475878
0.00053306230203
0.000560869667626
0.000586983203115
0.000606501858649
0.000617930215382
0.000622484837495
0.000623137454125
0.000622659286851
0.000622359855785
0.000621874431455
0.000619249358755
0.000612609291701
0.000600759123765
0.000582648262425
0.000558147783265
0.000530186341609
0.000513212430096
0.000593463247994
0.000606965503528
0.000524100002331
0.000538722263846
0.000566761267355
0.000593198281262
0.000612854106519
0.00062400720236
0.000627970286967
0.000628025920653
0.000627246004835
0.000627039347375
0.000626903540166
0.000624530850297
0.000617864303677
0.000605897926163
0.000587752531461
0.000563418170842
0.000535752021588
0.000520078660874
0.000600374369284
0.00061015023383
0.000527080949564
0.000540888119889
0.000568929920778
0.000595439995109
0.000614999848768
0.000625790429153
0.000629148374684
0.000628450839716
0.00062723263139
0.000627126755193
0.000627497720338
0.000625719991031
0.000619399474778
0.00060756109041
0.000589482939592
0.000565259794845
0.000537856288165
0.000523115358381
0.000603750142028
0.000611630742335
0.000528155110758
0.000541470491875
0.000569397135085
0.000595852379827
0.000615268256844
0.000625800601336
0.000628738452067
0.00062753951536
0.000626017587275
0.000625958481006
0.000626669963447
0.000625337911257
0.00061936549878
0.000607719042096
0.000589744411822
0.000565608782553
0.000538389776598
0.000524218568912
0.000605373757641
0.000611510442623
0.000528078285915
0.000541418948714
0.000569368029893
0.000595841171128
0.000615265790033
0.000625796451817
0.000628714279413
0.000627488680863
0.000625947172919
0.000625887084419
0.000626609958794
0.000625296630416
0.000619346113759
0.000607711138813
0.000589731045608
0.000565573939448
0.00053831912715
0.000524099502156
0.000605175785342
0.00060975422732
0.000526840391452
0.000540730066451
0.000568844527925
0.000595416625056
0.000615018581422
0.000625824904193
0.00062915228982
0.000628405895648
0.000627149769011
0.000627031944556
0.000627412320064
0.000625667829701
0.000619390426468
0.000607564036672
0.00058945507561
0.000565163080179
0.000537656484659
0.000522781184066
0.000603192140129
0.00060630677121
0.000523720467161
0.000538469903541
0.000566636941738
0.000593202763359
0.000612975420919
0.000624204703591
0.000628184021512
0.000628201143759
0.000627378384055
0.000627150105624
0.000627005989973
0.00062465584054
0.000618000197988
0.000605990631867
0.00058774930398
0.000563280727621
0.000535451943901
0.000519584824219
0.000599533586695
0.000599156831828
0.000516740842302
0.000532746198387
0.000560711874852
0.000587014415602
0.00060673655963
0.000618334632858
0.000622974870118
0.000623636186705
0.000623134064349
0.000622809019754
0.000622305840647
0.000619661994815
0.000612953468081
0.000600963581575
0.000582665111764
0.000557972330263
0.000529821258423
0.000512636304791
0.000592461909797
0.000583269039026
0.000502715662685
0.000521007645084
0.000548826203594
0.000574842054868
0.000594243626293
0.000605993817169
0.000611137106357
0.000612327648551
0.000612086062186
0.000611728852695
0.000611085111384
0.000608477711794
0.000602004259612
0.000590236635494
0.000571965336302
0.000546806499183
0.000518267240779
0.000498814092728
0.000577030897381
0.000551626901932
0.000478041214155
0.00050080737858
0.000530018823774
0.000555763263174
0.000574575450399
0.000586212870431
0.000591668585336
0.000593262308511
0.000593263523535
0.000592931700137
0.000592244208446
0.000589799761979
0.000583725295844
0.00057228141843
0.000554002868609
0.000528211601873
0.000498314269957
0.000474509206184
0.000546146821942
0.000495955366464
0.000439255876898
0.000469980752275
0.000503274371965
0.000529725937085
0.000548399947685
0.000560033893557
0.000565586285689
0.000567418534328
0.000567614128109
0.000567341795276
0.000566655330215
0.00056438902161
0.000558627770831
0.000547173083391
0.00052842627695
0.00050166781156
0.000467828168248
0.000436241963634
0.000491432133158
0.000408229013975
0.000384460480616
0.000428500277214
0.000469512225299
0.000500029369756
0.000520034708458
0.00053163000502
0.000537199284978
0.000539234259507
0.000539653851165
0.000539438607608
0.000538638999884
0.000536334802352
0.000530621599401
0.000518963458063
0.000498858678876
0.000468149637542
0.000426789575805
0.000382123913807
0.000404779108785
0.000282655497479
0.000316926667177
0.000383773275223
0.000438144551031
0.000476645442029
0.000501100473848
0.00051492830956
0.000521691033037
0.000524550921037
0.000525519551884
0.000525323465009
0.000523984026214
0.000520811379658
0.000513843156327
0.000499937718456
0.000475489761361
0.000437017611893
0.000382600653462
0.000315474034537
0.000280533216852
0.000134894782621
0.000281816063837
0.000407015310971
0.000494530893107
0.000549912923556
0.000581160369188
0.000596594230457
0.000603255974189
0.000606219838645
0.000607535983374
0.000607187647822
0.000605177918478
0.000601563625659
0.000594413790545
0.000578767322287
0.000547603431689
0.000492612452542
0.000405716618945
0.000281148163369
0.000134623976936
0.000152890313288
0.00034403984795
0.000503352638692
0.000615028796733
0.000688973577968
0.000735105144964
0.000762727342013
0.000779196486932
0.000789362254346
0.000794608786932
0.000794538989664
0.00078909807498
0.000778612780249
0.000761607481975
0.000733519446707
0.000687240366746
0.000613591822536
0.000502579920704
0.000343979430382
0.000152690434174
0.000345067952286
0.000370287718635
0.000446025323071
0.000509254714761
0.000555196204678
0.00058585812091