/*--------------------------------*- C++ -*----------------------------------*\
| =========                 |                                                 |
| \\      /  F ield         | OpenFOAM: The Open Source CFD Toolbox           |
|  \\    /   O peration     | Version:  3.0.1                                 |
|   \\  /    A nd           | Web:      www.OpenFOAM.org                      |
|    \\/     M anipulation  |                                                 |
\*---------------------------------------------------------------------------*/
FoamFile
{
    version     2.0;
    format      ascii;
    class       volScalarField;
    location    "7.4";
    object      k;
}
// * * * * * * * * * * * * * * * * * * * * * * * * * * * * * * * * * * * * * //

dimensions      [0 2 -2 0 0 0 0];

internalField   nonuniform List<scalar> 
7968
(
0.00028599653433
0.000341301252549
0.000384554537988
0.000411339253465
0.000425807225192
0.000431343391986
0.000431342041798
0.000427752254064
0.000423044448844
0.000419085709384
0.000418440902034
0.000421898094075
0.000426422988946
0.000429978282869
0.000430073191302
0.000424679252451
0.000410468451069
0.000383964239247
0.000340953137503
0.00028584302136
0.000341396163373
0.000530410475885
0.000650557670566
0.000716072919234
0.000744947255633
0.000750050848343
0.000742672630615
0.00072972494824
0.000717611567912
0.000710219605117
0.00070946070287
0.000715722495433
0.000727094839126
0.000739700205942
0.000747044159352
0.000742025183854
0.000713522661705
0.000648589222168
0.000529176236879
0.000340838269158
0.000384758272976
0.000650508985785
0.000813692230312
0.000901504553015
0.000939706738692
0.000946195786247
0.00093579327493
0.00091926127715
0.000904511548745
0.000895806012289
0.000894875564145
0.000902135598766
0.000915936212412
0.00093201493949
0.000942306296358
0.000935905822261
0.000898088841276
0.000810988280667
0.000648759928918
0.000383849551025
0.000411566124389
0.000716003915002
0.000901476426491
0.000999701023266
0.00104039089063
0.00104485717559
0.00103078536978
0.00101173747925
0.000995769353629
0.000987019257635
0.000986015603064
0.000992961819095
0.00100783826993
0.00102640866586
0.00104039218919
0.00103599333943
0.000995668282425
0.00089819752636
0.000713790095905
0.000410318508167
0.000426045403496
0.000744880740902
0.000939709903205
0.00104041071466
0.00107817933568
0.00108194632307
0.00108130506543
0.00107214168607
0.00106099986385
0.00105341568908
0.00105235129054
0.00105836921363
0.00106871115914
0.00107770277566
0.00107831961776
0.00107351740013
0.00103596764794
0.000935963633395
0.000742220380376
0.000424472925117
0.000431608113306
0.000750066905167
0.00094626965326
0.00104486333642
0.00108181374942
0.00110489407514
0.00110983754853
0.00110239597692
0.00109119453122
0.00108300817895
0.00108174826916
0.00108816332744
0.00109856917932
0.00110605525036
0.00110148749257
0.00107845602652
0.0010403484109
0.000942272454427
0.00074712250173
0.000429805569977
0.000431611467979
0.000742781146365
0.000935953916483
0.00103077590756
0.00108111229264
0.00110976448257
0.00111533135832
0.00110613832833
0.00109243171169
0.00108233404431
0.00108077863833
0.00108875002094
0.00110158216524
0.00111099360439
0.00110613320496
0.00107789118347
0.00102637007134
0.000931876303347
0.000739679689146
0.000429700481603
0.000428039014144
0.000730039887456
0.000919672843285
0.00101194839298
0.00107209944084
0.00110253520944
0.00110641423199
0.00109351727513
0.00107557555135
0.00106261275188
0.00106070950093
0.00107113076308
0.0010880453624
0.00110130461575
0.00109843208451
0.00106874399229
0.00100759356888
0.000915537287948
0.000726854904085
0.000426114831015
0.000423386792407
0.000718291432801
0.000905440739759
0.000996649809729
0.00106151207548
0.0010920045752
0.00109353463725
0.00107651435348
0.00105407282495
0.00103720455895
0.00103486215929
0.00104876489945
0.0010701612588
0.00108761125906
0.00108731652217
0.00105781308908
0.000992258428398
0.00090115624619
0.000715036514399
0.000421480833355
0.000419588479634
0.000711384409622
0.000897435012447
0.000988438348643
0.0010547718118
0.00108486162555
0.00108473392828
0.00106509255663
0.00103895364216
0.00101850465146
0.00101575331031
0.00103294862998
0.00105806495647
0.00107823066662
0.00107973946956
0.00105083411193
0.000984580064148
0.000892988523547
0.000708045726895
0.000417656345634
0.000419410503294
0.000711198738964
0.000897265189545
0.000988297764624
0.00105464112076
0.00108474915548
0.00108463537069
0.00106499595614
0.00103883790596
0.00101835542715
0.00101559700551
0.00103282285232
0.00105796039527
0.0010781249174
0.00107961824927
0.00105068593509
0.000984397091924
0.000892761228883
0.000707793167338
0.000417420669268
0.000423023943191
0.000717794052818
0.000904961239399
0.000996253573197
0.00106114231412
0.00109168644
0.00109325670114
0.00107624938819
0.00105378784862
0.00103687384573
0.00103452024309
0.00104846329393
0.00106988341866
0.00108732062413
0.00108698173013
0.00105740809144
0.000991767673024
0.000900552275445
0.000714394908918
0.000421009895234
0.000427577435819
0.00072928131566
0.000918888110002
0.00101124571801
0.0010714712571
0.00110198338653
0.00110591706123
0.00109303967201
0.00107509672657
0.0010621095559
0.00106019653715
0.00107063894794
0.00108755161754
0.00110079298917
0.00109786157009
0.00106807649886
0.00100680111131
0.000914610466037
0.000725926540439
0.000425529077157
0.000431118966586
0.000741851112073
0.000934920357728
0.00102976531584
0.00108023687022
0.0011089804541
0.00111460773214
0.0011054433351
0.0010917397321
0.00108163075017
0.00108006571861
0.00108803794495
0.00110086440418
0.00111024946919
0.00110532667857
0.00107697244356
0.00102527329804
0.000930700654729
0.000738576636256
0.000429084290951
0.000431150854447
0.000749068564617
0.000945086708466
0.00104363202091
0.00108072057826
0.00110391347329
0.0011089169808
0.00110150833284
0.00109031699572
0.00108212724433
0.00108085639168
0.00108725763372
0.00109764405965
0.00110509775584
0.0011004682331
0.0010773015473
0.00103901571888
0.000940938507479
0.000745952749982
0.00042923501473
0.000425662038553
0.000743894557036
0.000938502741727
0.00103910571422
0.00107679536867
0.00108079486255
0.00108019791535
0.00107106366572
0.00105992508971
0.0010523466599
0.00105126868846
0.00105725096961
0.00106756427887
0.00107652020232
0.00107708672421
0.00107203027397
0.00103451790404
0.000934579549942
0.00074105567863
0.000423988026743
0.00041129800731
0.000715170860704
0.00090040120071
0.000998496029028
0.00103907362734
0.00104343427737
0.00102928181516
0.00101024102712
0.000994264479989
0.000985703378326
0.000984689954006
0.000991468055048
0.00100620312852
0.0010247560487
0.001038804351
0.00103449305664
0.000994262685888
0.000896916589663
0.000712771146272
0.000409970114593
0.00038460166654
0.000649905659582
0.000812876477655
0.000900544230049
0.000938615306809
0.000944991315921
0.000934504868562
0.000917917526664
0.000903107954938
0.000894345500519
0.000893368845298
0.000900608124333
0.000914408239638
0.000930520240679
0.00094088622367
0.000934587400524
0.000896905781688
0.000809963027331
0.000647982295095
0.000383639596703
0.000341345277562
0.000530098880235
0.000650105220672
0.000715490047498
0.000744205458539
0.000749175413644
0.00074170165661
0.000728675334488
0.000716474982391
0.000709002675434
0.000708189638584
0.000714449639165
0.000725852755811
0.000738522072063
0.000745961589795
0.000741074932443
0.000712746414128
0.000647961821153
0.000528737310393
0.000340758230816
0.00028599232336
0.000341252247502
0.000384448155821
0.000411157989603
0.000425523348477
0.000430952155182
0.000430865876743
0.000427199963564
0.000422418017696
0.000418390202476
0.000417692323717
0.000421162061762
0.000425727976101
0.000429351241963
0.000429537749843
0.000424262297398
0.000410177664355
0.000383770170565
0.000340839900057
0.000285813783877
0.000333864691016
0.000480700775113
0.000589141441539
0.000657821555595
0.000696739654846
0.000714619794208
0.000719059815048
0.000715973563913
0.000710643943471
0.000706689977046
0.000706106337269
0.000709193576398
0.000714000672265
0.000716883638823
0.000712494736906
0.000694821127982
0.000656283327108
0.000588067659611
0.000480066483327
0.000333534494015
0.000481024510917
0.000949786136646
0.0012081526666
0.00135685325923
0.0014322936587
0.00145992672596
0.00146003938336
0.00144695631995
0.00143194623775
0.00142216129949
0.0014210856755
0.00142915302503
0.00144300704271
0.00145548831117
0.0014551693674
0.00142747890169
0.00135235532741
0.00120434218023
0.000947156206754
0.000479642718104
0.000589595937407
0.00120809605363
0.00154856578432
0.00174838844756
0.00185417148242
0.00189731984246
0.00190304178063
0.00189099418983
0.00187497522138
0.00186392795903
0.00186253596961
0.00187135719603
0.00188592752372
0.00189724723432
0.00189131236173
0.00184821259183
0.00174278342904
0.00154374117627
0.00120464725369
0.000587562567595
0.000658299393533
0.001356841507
0.00174843268811
0.00198125398731
0.00210788210519
0.00216368483776
0.00217584905327
0.00217101035947
0.00215927922484
0.00214947951494
0.00214784654015
0.0021552360126
0.00216547158027
0.00216942434934
0.0021568872175
0.00210129626619
0.00197503061942
0.00174295999677
0.00135278120644
0.000655785748502
0.000697224737399
0.00143240734548
0.00185431559681
0.00210792698287
0.00224940480867
0.00231843064574
0.00233285012311
0.0023226615503
0.00230601936063
0.00229384753062
0.00229169634134
0.00230045192788
0.00231513225407
0.00232480959266
0.00231085209808
0.00224250208061
0.00210141820097
0.00184844086289
0.00142787111951
0.000694318242085
0.000715122668801
0.0014602004135
0.00189756093497
0.00216370919719
0.00231839382611
0.002383556249
0.00239452568659
0.00237890393408
0.00235705875708
0.0023416818609
0.0023389014302
0.00234985632908
0.00236931686284
0.00238473873249
0.00237490196119
0.00231097828167
0.00215713475547
0.00189152239686
0.00145540620908
0.000711954510643
0.000719585624298
0.00146047654184
0.00190342103564
0.00217592020507
0.00233294440043
0.00239477361538
0.00239997977068
0.00237687265356
0.00234804070693
0.00232834562298
0.00232488231507
0.00233905019593
0.00236489709169
0.00238793210464
0.00238458493693
0.00232488496232
0.00216981159695
0.00189735137154
0.00145555069621
0.000716292628951
0.000716588935351
0.00144772587289
0.00189176411267
0.00217139184873
0.00232352375077
0.00238027575101
0.00237825475219
0.00234595767137
0.00230869545907
0.00228511184508
0.00228109141968
0.00229810239069
0.00233147613867
0.00236365150723
0.00236815535551
0.00231449791829
0.00216541256852
0.00188559652097
0.00144268606287
0.0007132673244
0.000711460185658
0.00143329900534
0.00187654386469
0.00216062977587
0.00230847218872
0.00236061525408
0.00235212557869
0.00231167497386
0.00226961539061
0.00224093697469
0.00223625265191
0.0022575024082
0.00229530558744
0.00233522579462
0.00234659464502
0.00229821395412
0.00215385213451
0.00187005092019
0.00142808065377
0.000708135578188
0.000707821055851
0.00142427399088
0.00186659641379
0.00215250116889
0.00229839314343
0.00234803456818
0.00233591155011
0.00229198026677
0.00224520190794
0.00221250101032
0.0022073741338
0.00223201069244
0.00227437879092
0.00231760160975
0.00233281192577
0.00228721184375
0.00214458285038
0.00185974814863
0.00141887145848
0.000704460594076
0.000707642616424
0.00142400679813
0.0018663254968
0.00215227282587
0.00229823850702
0.00234795210026
0.00233588937427
0.00229200198579
0.00224522963494
0.00221251016641
0.00220737725286
0.00223202954635
0.00227440336865
0.00231759013527
0.00233274475878
0.00228706808317
0.0021443541298
0.00185944874365
0.00141855529549
0.000704225557355
0.000710978970114
0.00143253073967
0.00187575615789
0.0021599544402
0.00230800201157
0.00236034293931
0.00235202591738
0.00231170904487
0.00226972357518
0.00224103883291
0.00223634342953
0.00225760498786
0.00229536896337
0.00233516527718
0.00234637161735
0.00229778228759
0.00215319547719
0.00186921348937
0.00142721805808
0.000707534334062
0.000715876286239
0.00144648966931
0.0018904702202
0.00217027018819
0.00232266228032
0.00237968134644
0.00237790643669
0.00234579994034
0.00230870108702
0.00228519877391
0.00228117646481
0.00229815537611
0.00233135753111
0.00236336845399
0.00236763936167
0.0023137027661
0.00216432050157
0.00188426953602
0.00144136183467
0.000712416438644
0.000718743595675
0.00145885906244
0.00190167884819
0.00217434072112
0.00233162938489
0.00239372941736
0.00239920875574
0.00237633382287
0.00234766847925
0.00232805867599
0.00232459868058
0.00233869844969
0.00236440288854
0.0023872373316
0.00238363765312
0.00232365566221
0.002168300454
0.00189560090765
0.00145386981532
0.00071531415345
0.000714256618094
0.00145832681719
0.00189548853941
0.00216174886333
0.00231666780319
0.00238205544192
0.00239326963819
0.00237788323038
0.00235621591191
0.00234093234034
0.00233815794292
0.00234903109337
0.00236833039652
0.00238354620688
0.00237348532924
0.00230932687805
0.00215521886112
0.00188943770608
0.00145347621889
0.000710957463582
0.000696423145774
0.00143040915431
0.00185208631632
0.00210576146203
0.00224741786649
0.00231662591451
0.00233125150165
0.00232129983453
0.0023048136618
0.00229269286674
0.00229053822723
0.0022992400858
0.00231377423876
0.00232323917435
0.00230907973191
0.0022405470603
0.00209924511394
0.00184615197479
0.00142578345284
0.000693387224926
0.00065764837287
0.00135494878249
0.00174627583443
0.0019791019886
0.00210584003451
0.00216178988554
0.00217422606128
0.00216974736951
0.00215814696248
0.00214820507777
0.00214654343926
0.00215397821478
0.00216417705653
0.00216785006523
0.00215495620307
0.00209919847493
0.0019727854152
0.00174067501067
0.00135075408384
0.000655012813529
0.000589138642995
0.00120650080639
0.00154670821393
0.00174647865344
0.00185229855166
0.00189552495517
0.00190135001326
0.00188941639703
0.00187343956593
0.00186236970674
0.00186094484601
0.00186973802493
0.00188423595433
0.00189544144296
0.00188939515495
0.00184620253269
0.00174071287157
0.00154170686178
0.00120288869734
0.000587001397871
0.000480787481822
0.000948715557298
0.00120684740263
0.00135544903244
0.00143083914007
0.00145845709542
0.00145857534817
0.00144549652077
0.00143044985144
0.00142060999605
0.00141949156895
0.00142754688066
0.00144139201066
0.00145386478339
0.00145354516455
0.00142586078628
0.00135077683615
0.00120285888408
0.000945922460294
0.000479330303559
0.00033383158639
0.000480371030861
0.000588625233156
0.000657173698065
0.000695967916318
0.000713734903939
0.000718080303211
0.000714904879995
0.000709478662148
0.000705439202249
0.000704806881534
0.00070790449687
0.000712758758593
0.000715719550563
0.000711431757693
0.000693881752697
0.000655485583741
0.000587422096884
0.000479633953776
0.000333466497813
0.000374905980138
0.000581042387504
0.000731952510038
0.000828483177865
0.000884924815952
0.000913372443333
0.00092405373397
0.000925138325739
0.000923028364287
0.000921206155097
0.000920680515834
0.000921579082924
0.000922979116782
0.000921481564129
0.00091070811247
0.000882423499909
0.000826385504085
0.00073042218067
0.000580094324554
0.000374436956335
0.000581616901686
0.00118005798631
0.00151224414247
0.00170913251379
0.00181537172421
0.00186174428798
0.00187241488665
0.00186537725828
0.00185393663288
0.0018459192888
0.00184460351652
0.0018503816301
0.00186023047309
0.00186635556638
0.00185529793237
0.00180884156035
0.0017029137508
0.00150682360466
0.00117604522388
0.000579315433256
0.000732745371316
0.00151225471327
0.00194069911634
0.00219927294709
0.00234541148524
0.00241542625641
0.00243849192157
0.00243595476787
0.00242459938567
0.00241535342644
0.00241355599076
0.00241977058851
0.00242913183068
0.00243075616575
0.00240741915336
0.00233749382792
0.00219173672553
0.00193398700303
0.00150708969557
0.000729412811235
0.000829363896743
0.00170933413195
0.00219948415901
0.00249884033931
0.00267366589083
0.00276394954934
0.00280296838395
0.0028076440221
0.00279872549289
0.00278966843884
0.00278740261799
0.00279263200781
0.00279911229308
0.00279367354696
0.00275462078259
0.00266478383893
0.00249038107122
0.00219178164423
0.00170318248258
0.000825313094497
0.000885907535157
0.00181592848272
0.00234596456381
0.00267392331147
0.00287194391414
0.00297910659977
0.00302098656638
0.00302531709155
0.00301438807321
0.00300358981606
0.00300069162857
0.00300646028693
0.00301378157665
0.00300832835597
0.00296762999959
0.0028624628839
0.00266472321746
0.0023373847855
0.00180886659439
0.000881245487882
0.00091448969779
0.00186273040834
0.00241635790542
0.00276446018063
0.00297946056437
0.00308986091376
0.00312986473972
0.00312865500768
0.00311196903373
0.00309760649225
0.00309403438783
0.0031019457607
0.0031129998595
0.00311157716737
0.00307392322347
0.00296734986647
0.00275439452245
0.00240703157606
0.00185493320629
0.000909362979922
0.000925324625123
0.00187386668622
0.00243990539494
0.00280400585628
0.00302240912663
0.00313209123747
0.00316600229668
0.00315543179094
0.00313024880729
0.00311093479603
0.00310685823865
0.00311837669735
0.00313550294153
0.00314083658449
0.0031095273615
0.00300697517404
0.0027928240186
0.00242986533867
0.00186548917966
0.000919919230667
0.000926617626192
0.00186747723355
0.00243821982655
0.00281011555333
0.00302933622314
0.00313561281071
0.00316126220719
0.00313980271025
0.00310481489659
0.00307970735205
0.00307522068246
0.00309139734276
0.0031163156489
0.00313023219483
0.00310662178194
0.00300990893377
0.00279683414316
0.00242727275244
0.00185860627344
0.000921126708323
0.000924771366143
0.00185693473104
0.00242817144425
0.00280321119532
0.00302176672485
0.00312397450472
0.00314224349273
0.00311134467319
0.00306733249187
0.00303651268623
0.00303160898148
0.00305236737723
0.00308503511699
0.00310725016112
0.0030908087465
0.00299927270652
0.0027881827955
0.00241634725876
0.00184761949477
0.000919316161874
0.000923248689932
0.00184996560633
0.00242051637651
0.00279644677153
0.00301420276252
0.00311384575316
0.00312786761316
0.00309152535855
0.0030420097324
0.00300751445213
0.00300232520216
0.00302605961632
0.00306352165064
0.00309085242076
0.00307872835248
0.002990185105
0.00278037627085
0.00240809576446
0.00184030948119
0.000917807810913
0.000923071949588
0.00184967901059
0.00242024037439
0.00279625123645
0.00301410822701
0.00311384027164
0.00312791517453
0.00309158516704
0.00304205794728
0.00300754232229
0.00300234972666
0.00302609837726
0.00306357764925
0.00309091635967
0.00307876044431
0.00299012705689
0.0027801980109
0.00240780402772
0.00183997336543
0.000917559546543
0.000924242954033
0.00185605719656
0.00242733623354
0.00280262193736
0.00302147949131
0.00312397685972
0.00314245987342
0.00311167954258
0.00306773014149
0.00303691631008
0.00303200116146
0.00305274026235
0.00308537266517
0.00310753014576
0.00309092765349
0.00299909890565
0.00278766156579
0.00241550948138
0.00184666762294
0.000918638791601
0.000925778573715
0.00186600286997
0.00243681466269
0.00280910432175
0.00302882263345
0.00313566166535
0.0031618197957
0.00314072189146
0.00310595692983
0.00308092921287
0.00307642814326
0.00309250265444
0.00311725206783
0.00313090062233
0.00310684566081
0.00300957172951
0.00279594854673
0.0024259250757
0.00185710336404
0.000920121516571
0.00092428672349
0.00187187679906
0.00243798376361
0.002802568436
0.00302154618855
0.00313200208615
0.0031667595357
0.00315683877437
0.00313204235905
0.00311289494316
0.00310881332576
0.00312017390001
0.00313697232651
0.00314174318174
0.00310964926816
0.00300632006683
0.00279153761232
0.00242805711062
0.00186352639695
0.000918721840797
0.000913389234564
0.00186038560138
0.00241402957355
0.00276256148673
0.00297813365367
0.00308922638662
0.00313009921009
0.00312964711278
0.00311341483127
0.00309925364239
0.00309569798312
0.00310344673418
0.00311410087547
0.00311197878026
0.00307349299089
0.00296622826207
0.00275267719059
0.00240482424209
0.00185262523282
0.00090810574577
0.00088486444718
0.0018134141819
0.00234340755811
0.0026717087899
0.00287031241431
0.0029778901564
0.0030203252277
0.00302516362573
0.00301459216311
0.00300396363075
0.00300108175865
0.00300671730821
0.00301371770294
0.00300778416328
0.00296656425031
0.00286097309155
0.00266263632998
0.00233488317601
0.00180633696684
0.000880040363697
0.000828481206738
0.00170688617545
0.0021969238589
0.00249648731146
0.00267166322804
0.00276235340762
0.00280185466775
0.00280676732619
0.002798046024
0.00278908304812
0.00278681646751
0.00279195665314
0.00279824484849
0.00279253728835
0.00275308412975
0.00266284150713
0.00248803990397
0.00218916682373
0.00170063738083
0.000824265989013
0.000732087444054
0.00151009828201
0.00193836451174
0.0021970124334
0.00234332804218
0.00241357623594
0.00243687875953
0.00243449246582
0.0024232233637
0.00241400226554
0.00241218191315
0.0024183357817
0.00242758869977
0.00242906995994
0.00240551706783
0.00233534473651
0.00218936877649
0.00193150412432
0.0015047720936
0.000728601867127
0.000581238835058
0.00117846146379
0.00151042561323
0.00170725561545
0.00181350185721
0.00185992941184
0.00187066568175
0.00186367489116
0.00185222650255
0.00184417051282
0.00184281240841
0.00184856302831
0.00185836980653
0.00186445312557
0.00185334546764
0.0018068290317
0.00170087141034
0.0015048170625
0.00117425857749
0.000578811686532
0.000374886454421
0.000580458969188
0.000731087035673
0.00082744958245
0.000883742865584
0.000912056420554
0.000922620225778
0.000923597983989
0.000921374044574
0.000919458284218
0.000918875610324
0.000919773833588
0.000921218664518
0.000919814861615
0.000909169123151
0.000881032605265
0.000825161475457
0.000729390211655
0.000579378426349
0.000374375894178
0.000410443606764
0.000671504919788
0.000858078975041
0.000977052037697
0.00104874283521
0.00108817205801
0.00110743568156
0.00111575713786
0.00111953916636
0.00112127170786
0.00112091325816
0.0011184395061
0.00111394103436
0.00110501689253
0.0010854452417
0.00104604760531
0.0009747455552
0.000856448429593
0.000670604850443
0.000409922826411
0.000672462233307
0.00139047941498
0.00178381355824
0.00202076678182
0.00215510430249
0.00222118001345
0.00224603823456
0.0022498622489
0.00224672446778
0.00224356440193
0.00224216578647
0.00224278263117
0.00224397231573
0.00223889308749
0.0022134474072
0.00214723627462
0.00201322931611
0.00177717554602
0.00138540913167
0.000669208032475
0.000859363627029
0.00178400476379
0.0022798856855
0.00258093039719
0.00275664535696
0.00284782722737
0.00288591119179
0.00289409904184
0.00289010378256
0.00288464030269
0.00288242546208
0.00288400207719
0.00288533642493
0.00287586895254
0.00283761396035
0.00274663307054
0.00257141967164
0.0022713158929
0.00177719067801
0.000854656418758
0.000978541616106
0.00202149082964
0.00258151765591
0.00292281317611
0.00312756086113
0.00324126078423
0.00329429873022
0.00330773691349
0.00330376130294
0.00329680698871
0.00329369125666
0.00329507031662
0.0032945361336
0.00327896608411
0.00322764688087
0.00311521278939
0.00291132432565
0.00257098943804
0.002012797327
0.000972729562639
0.00105052264639
0.00215669187968
0.00275808835892
0.00312826801136
0.00335903677179
0.00348699737904
0.00354309992161
0.00355458859903
0.00354690811239
0.00353714485317
0.00353318933352
0.00353535580076
0.00353541036449
0.00351859457893
0.00346375753801
0.00334159104202
0.00311457410914
0.00274543143253
0.00214595152122
0.00104368174141
0.00109031472295
0.00222379719542
0.00285023745115
0.00324281823034
0.0034894642175
0.00362319149544
0.00367549150435
0.00367901121217
0.00366399939694
0.00365017894179
0.00364571562792
0.00365027411037
0.00365376397067
0.00363952997221
0.00358565232883
0.00346144417972
0.00322607046493
0.00283541148116
0.00221107695029
0.00108262670865
0.001109927943
0.00224969496577
0.00288943760856
0.00329877321635
0.00355228428917
0.00368418068697
0.00372720415256
0.00371899609681
0.00369475699926
0.00367621942865
0.0036717845153
0.00368024848369
0.00368952949869
0.00368101567073
0.0036317114821
0.00351012792588
0.00327448271722
0.00287229718244
0.00223528436443
0.00110172453478
0.00111852661637
0.00225458108255
0.00289904110959
0.00331696862844
0.00357250663073
0.0036990504694
0.00373119234055
0.00371039541443
0.00367649224537
0.00365296455604
0.00364883818556
0.00366219488948
0.00367891817137
0.00367802075278
0.00363541876208
0.00351881409759
0.00328540155353
0.00287992197646
0.00223899951904
0.00111025822894
0.00112246209818
0.00225257387481
0.00289692796776
0.00331735178294
0.00357184932583
0.00369286687952
0.00371597078918
0.00368483149568
0.00364215530431
0.00361383233058
0.00360990089033
0.00362787800302
0.00365204249646
0.00365894530183
0.00362317460229
0.00351182599125
0.00328139787834
0.00287618223547
0.00223625370166
0.00111444294082
0.00112430280568
0.00225058561522
0.002893626515
0.00331394676226
0.00356706672226
0.00368472134508
0.00370280853302
0.00366577929996
0.00361799890661
0.00358678709751
0.00358286162169
0.00360353536417
0.00363219216288
0.00364401776952
0.00361258476625
0.00350456128955
0.00327615783966
0.00287188123242
0.00223380676169
0.00111646635689
0.0011241563664
0.00225033200874
0.00289343114893
0.00331387773374
0.00356713066411
0.00368486510868
0.00370294366569
0.00366582122808
0.00361795265123
0.00358668901515
0.00358276692191
0.00360348848611
0.00363223871298
0.00364418550823
0.00361281199817
0.00350472714655
0.00327616332686
0.00287169232645
0.00223348277661
0.00111622280138
0.00112197852206
0.00225171592767
0.00289628027109
0.00331712278067
0.00357207387716
0.00369344713213
0.00371669620305
0.00368548078803
0.00364271238096
0.00361433626414
0.00361039824521
0.00362841597921
0.00365271044721
0.00365978896393
0.00362401063249
0.00351235475507
0.00328140352973
0.00287561255588
0.00223530258284
0.00111375579745
0.00111771997765
0.00225307024154
0.00289787269311
0.00331658569617
0.00357303196525
0.00370044510437
0.00373317898863
0.00371265952825
0.00367883422626
0.00365531850609
0.00365118563145
0.00366449370565
0.00368120276554
0.00368021179926
0.00363718867454
0.00351978683493
0.00328538162495
0.00287895324556
0.00223747948252
0.00110922158692
0.00110891394136
0.00224763924957
0.00288777484984
0.0032981506334
0.00355301456792
0.0036864391458
0.00373078004297
0.00372343342452
0.00369963212518
0.00368126424758
0.00367682358728
0.00368512855903
0.00369407491231
0.00368487970238
0.00363442554798
0.0035113590397
0.00327427429981
0.00287091831064
0.00223330662005
0.00110048571185
0.00108925500044
0.00222141468194
0.00284819372695
0.00324172944312
0.00348976221749
0.00362540545499
0.00367957954169
0.00368445188859
0.00367017056425
0.0036566564173
0.00365223855483
0.00365658412918
0.00365945566116
0.00364398750416
0.00358832085527
0.00346221564021
0.00322535512212
0.00283363034146
0.00220876796423
0.00108133725662
0.00104955116874
0.00215419287743
0.00275579093006
0.00312657744474
0.00335837740431
0.00348789979354
0.0035458153949
0.00355874225809
0.00355184795065
0.00354242777316
0.00353853404794
0.00354047948251
0.00353984223386
0.00352166432318
0.00346505558663
0.00334130217238
0.00311317497791
0.00274327331593
0.0021434380698
0.00104246997171
0.000977752766201
0.00201906752135
0.00257915596209
0.00292082335474
0.00312612001661
0.00324072186782
0.00329462401455
0.00330895834527
0.00330553496626
0.00329883635804
0.0032957628369
0.00329697154244
0.00329594611774
0.003279515475
0.00322733981127
0.003113974094
0.00290942738941
0.00256858648446
0.00201024185476
0.00097169986366
0.000858809187623
0.0017818260987
0.00227763983792
0.00257882604931
0.00275480613336
0.00284634681339
0.00288473008851
0.00289317467237
0.00288936500092
0.00288400320042
0.00288178413901
0.00288325595766
0.00288439716793
0.00287469627967
0.00283614531876
0.00274476519138
0.00256920710854
0.00226888229354
0.00177479681072
0.000853885079443
0.00067218370773
0.00138876890833
0.00178193243642
0.00201881287128
0.00215312630284
0.00221923200415
0.00224413839603
0.00224802744121
0.00224489385274
0.00224170443356
0.0022402477199
0.0022408072488
0.00224191710538
0.00223678933087
0.00221132219468
0.00214507637816
0.00201106406866
0.0017750529595
0.00138346018622
0.000668757560881
0.000410533509647
0.000670823853997
0.000857073542924
0.000975843916365
0.00104733455987
0.00108657796038
0.00110568931235
0.00111389745726
0.001117562447
0.0011192003612
0.00111876839232
0.00111626777426
0.00111178792091
0.00110295636298
0.0010835490726
0.00104435683065
0.00097328346963
0.000855228298912
0.000669756379742
0.000409966217502
0.000446590487701
0.000766782212434
0.000988090936832
0.00112920049903
0.00121791610274
0.00127166268941
0.00130333757794
0.00132208646924
0.00133362817141
0.00133957735602
0.0013394983036
0.00133332846748
0.00132141918643
0.00130204589079
0.00126979988232
0.00121583273766
0.00112740423829
0.000987055776879
0.000766695958541
0.000446184754265
0.000768344066773
0.00161368622022
0.00206471066071
0.00234121301464
0.00250564496113
0.00259561744782
0.00264012341785
0.0026601347558
0.00266905291316
0.00267240237495
0.00267109716763
0.00266534745892
0.00265457364289
0.0026332130323
0.0025879200303
0.00249767585294
0.00233357720118
0.00205810002231
0.00160842116487
0.000764294027949
0.000990037577363
0.00206538583459
0.00261856281051
0.00295458462933
0.00315474315085
0.0032644830699
0.00331683176485
0.00333592692233
0.00334012318788
0.00333924362186
0.00333657702041
0.0033326845644
0.00332459808206
0.0033031824031
0.00325149423664
0.00314305573859
0.00294368638217
0.0026088063239
0.0020573939796
0.000984193257746
0.00113151279304
0.00234284107957
0.00295572876907
0.00332348565784
0.00354601758534
0.00367365105622
0.00373309541828
0.00375113905941
0.00375048026451
0.00374503817003
0.00374069252555
0.00373799894334
0.00373080165483
0.00370706172583
0.00364824088426
0.00352632480336
0.00330858194235
0.00294246233957
0.00233177706322
0.00112409195618
0.00122073494344
0.00250872683757
0.00315747347612
0.00354782663776
0.0037920341067
0.00392721813022
0.00398469325927
0.00399565639186
0.00398774777383
0.00397751067001
0.0039718107596
0.00397052924866
0.00396536493029
0.00394189719566
0.00388077512072
0.00375456915683
0.00352431957643
0.00314001958629
0.00249417050727