/*--------------------------------*- C++ -*----------------------------------*\
| =========                 |                                                 |
| \\      /  F ield         | OpenFOAM: The Open Source CFD Toolbox           |
|  \\    /   O peration     | Version:  3.0.1                                 |
|   \\  /    A nd           | Web:      www.OpenFOAM.org                      |
|    \\/     M anipulation  |                                                 |
\*---------------------------------------------------------------------------*/
FoamFile
{
    version     2.0;
    format      ascii;
    class       volScalarField;
    location    "7.4";
    object      nut;
}
// * * * * * * * * * * * * * * * * * * * * * * * * * * * * * * * * * * * * * //

dimensions      [0 2 -1 0 0 0 0];

internalField   nonuniform List<scalar> 
7968
(
9.42733261628e-05
0.000103026238106
0.000109383035857
0.000113138774108
0.000115113002093
0.000115854297404
0.000115846575833
0.000115353065288
0.000114705540029
0.00011415861865
0.000114067361472
0.000114544124677
0.000115166952124
0.000115656454841
0.00011567722293
0.000114954555878
0.000113014210813
0.000109295494907
0.000102971216887
9.42465350655e-05
0.000103040935769
0.000128472322337
0.000142284949809
0.000149270539319
0.000152235182823
0.000152735171548
0.000151960297055
0.000150607318734
0.000149331968229
0.000148547662222
0.000148465421211
0.000149128488952
0.000150326453083
0.000151645705904
0.000152418562676
0.000151926342856
0.00014899580496
0.000142062512734
0.000128317751826
0.000102953403913
0.000109412422377
0.000142278955379
0.0001591187881
0.000167469268412
0.000170958585523
0.000171521277867
0.000170548692714
0.000169009458442
0.000167625789128
0.000166803075827
0.000166713582071
0.000167398433502
0.000168693709379
0.000170192971864
0.00017115705179
0.000170601529524
0.000167142022932
0.000158846382201
0.000142081906805
0.000109278717449
0.000113170204268
0.000149262126522
0.0001674660567
0.000176334682324
0.000179863507118
0.000180222488443
0.000178978147664
0.0001772941411
0.000175868938113
0.000175091794166
0.000175001065828
0.000175617345226
0.000176941967965
0.000178586538977
0.000179824871956
0.000179471286419
0.000175968346408
0.000167152906388
0.000149025106299
0.000112993348463
0.000115145206759
0.000152226979503
0.000170958076846
0.000179865024243
0.000183078849356
0.000183390339876
0.000183319418677
0.000182523922851
0.000181556932359
0.000180896490907
0.000180802758966
0.000181325796834
0.000182223740859
0.000183005229322
0.000183073760489
0.000182670342159
0.00017946952504
0.000170608011392
0.000151948130314
0.000114926640444
0.000115889875687
0.000152735707898
0.000171527477419
0.000180223102458
0.000183378927712
0.000185316487014
0.00018571939205
0.000185081905808
0.00018412490135
0.000183422365184
0.000183312973845
0.000183862688156
0.000184752249741
0.000185394224673
0.000185022600385
0.000183085763722
0.000179821607787
0.000171155147321
0.000152428164534
0.000115641251638
0.000115882794885
0.000151970792194
0.000170563473824
0.000178978072838
0.000183303144327
0.000185713443698
0.000186170904411
0.000185389608245
0.000184222932708
0.000183358052322
0.000183223075385
0.000183904891379
0.000184998046417
0.000185799051104
0.000185400854567
0.000183021736071
0.000178583545512
0.000170181185606
0.000151645047134
0.000115619281681
0.000115392001382
0.000150640261783
0.000169048642495
0.000177314751386
0.000182521212629
0.000185094667656
0.000185413793086
0.000184317086016
0.000182782053024
0.000181663600488
0.000181496919247
0.000182395005174
0.000183844098601
0.000184973983557
0.00018474021123
0.000182226499777
0.000176919698539
0.000168656957389
0.000150302451682
0.000115125524848
0.000114752769604
0.000149404859969
0.00016771519262
0.000175951150169
0.000181603319062
0.000184196104316
0.000184319059907
0.000182864143232
0.000180928506503
0.0001794579579
0.000179250143207
0.000180461395952
0.00018231037661
0.000183806086442
0.000183789103635
0.000181277124975
0.000175557844943
0.000167305881513
0.000149056422508
0.000114487280488
0.000114229077859
0.000148673827908
0.000166960427872
0.000175217453748
0.000181016973233
0.000183584505593
0.000183567221126
0.000181881144655
0.000179613186738
0.000177816174367
0.000177569555584
0.000179080502145
0.000181265187145
0.000183001663066
0.000183138452491
0.000180669645837
0.000174873121412
0.00016653365566
0.00014831447178
0.000113958665592
0.000114204591032
0.000148654263965
0.000166944566688
0.00017520482736
0.000181005786316
0.000183575073288
0.00018355902567
0.000181873110243
0.000179603478293
0.000177803508575
0.000177556265348
0.000179069925471
0.000181256485177
0.000182992876895
0.000183128295515
0.000180656961602
0.000174856843588
0.000166512353803
0.000148287763046
0.000113926137282
0.000114703054775
0.000149352729991
0.000167670606545
0.000175916253234
0.000181571789145
0.000184169495589
0.000184296008777
0.000182842172033
0.00018090476283
0.000179430204027
0.000179221417066
0.000180436243067
0.000182287344265
0.000183782011695
0.000183761143465
0.000181242597639
0.000175514347179
0.000167249609053
0.00014898899212
0.000114422578786
0.000115329057324
0.000150561402396
0.000168976179224
0.000177253198598
0.000182467814659
0.000185048613703
0.000185372619238
0.000184277551346
0.000182742277947
0.000181621681108
0.000181454165918
0.00018235415749
0.000183803221772
0.000184931653856
0.000184692669222
0.000182169838718
0.000176850363194
0.000168571318113
0.000150205762801
0.00011504546162
0.000115815867052
0.000151874907704
0.000170468785637
0.000178890178548
0.000183228916726
0.000185648073921
0.000186110997374
0.000185332122959
0.000184165575981
0.00018329962716
0.000183163828589
0.000183845830981
0.000184938663883
0.000185737491543
0.000185333698054
0.000182943947296
0.000178488345575
0.000170073479562
0.000151531203336
0.000115535384078
0.000115827676746
0.000152633169741
0.000171419552562
0.000180116565999
0.000183286172272
0.000185234438674
0.000185642800213
0.000185008093853
0.00018405179985
0.000183348878498
0.000183238556925
0.000183787195893
0.000184675285338
0.000185314585522
0.000184937378255
0.000182987893741
0.000179706420205
0.000171033476333
0.000152307980783
0.000115563538818
0.000115092598602
0.000152125146715
0.000170847348844
0.000179751651122
0.000182961200661
0.000183292863283
0.00018322593487
0.000182432791799
0.000181465838684
0.000180806036672
0.000180711134695
0.000181231128733
0.000182126700491
0.00018290537265
0.000182969388582
0.000182544002557
0.000179343644739
0.000170481102852
0.000151827870672
0.000114860075339
0.000113132642771
0.000149174194066
0.000167365126588
0.000176227647364
0.000179749275225
0.000180099828843
0.000178848250018
0.000177163819649
0.000175738325013
0.000174977850613
0.000174886124538
0.000175489181384
0.00017679932084
0.000178443599202
0.000179687909548
0.000179341171705
0.00017584354448
0.000167032760576
0.000148917646591
0.000112944622453
0.000109389586502
0.000142211878747
0.000159037903994
0.000167379173952
0.000170858728413
0.000171411879688
0.000170431404295
0.000168886325289
0.000167496306472
0.000166667745036
0.000166573846484
0.000167257235226
0.000168553354285
0.000170056657096
0.000171027933212
0.000170480887432
0.000167031128968
0.000158744908438
0.000141995667715
0.000109248265621
0.000103032873886
0.00012843367347
0.000142234455629
0.000149208884779
0.00015215863218
0.000152645455902
0.000151860583674
0.000150498811938
0.000149213585034
0.000148420248476
0.000148332200312
0.00014899558945
0.000150197684529
0.000151524463828
0.000152307516727
0.000151828311313
0.000148913867287
0.000141992804207
0.000128263631754
0.000102940941981
9.42724737802e-05
0.000103018457481
0.000109367337538
0.000113113151677
0.000115073837568
0.00011580090672
0.00011578176837
0.000115277725306
0.000114619703591
0.000114062920507
0.000113964247208
0.000114443069711
0.000115071936861
0.000115570967744
0.00011560411177
0.000114897116388
0.000112973317957
0.000109267165723
0.000102953595516
9.42414817386e-05
0.000101900452884
0.000122276179459
0.00013537580619
0.000143053347306
0.000147221723762
0.000149091269043
0.000149543402914
0.000149210370323
0.000148643348193
0.000148222142466
0.000148158887598
0.000148486690257
0.000148998120679
0.000149309889041
0.000148862702442
0.000147012868598
0.000142881206664
0.000135248950288
0.000122193023688
0.000101847512693
0.000122318618545
0.000378786016256
0.000495746633572
0.00054903903765
0.000568784637338
0.000570459257292
0.000563740053229
0.000554308698545
0.000546074631829
0.000541245274018
0.000540796518232
0.000544889727454
0.000552608784946
0.000561744869653
0.000568316559617
0.000566541353034
0.000546921563363
0.000494075558688
0.000378035888652
0.000122137712757
0.000135429396823
0.000495356926075
0.000680837685642
0.00077306205186
0.0008137507153
0.00082514222383
0.000821373698516
0.000812045830327
0.000802868730651
0.000797126410164
0.000796436830694
0.000801054013781
0.000809475436167
0.000818398490971
0.000822036230537
0.000810708273804
0.000770365035896
0.000678927439479
0.000494736272111
0.000135189347226
0.000143106414249
0.000548466365716
0.000772814049693
0.000889251862042
0.000944081010363
0.000963081827159
0.000962167945535
0.00095634833002
0.000949222226822
0.000943852665935
0.000942950040681
0.000947047805966
0.000953381375259
0.000958701651788
0.000959391041537
0.000940661350345
0.000886333383543
0.000770851134278
0.000547933447236
0.000142825821442
0.000147273856916
0.000568191050938
0.000813427376965
0.000943977490194
0.00100712579556
0.0010300136947
0.00102147669815
0.00100554114117
0.000991863132651
0.000983868161539
0.00098257598067
0.000988470102191
0.00100090874525
0.00101648441164
0.00102532205981
0.00100338238288
0.000940934598976
0.000811424797493
0.000567665051737
0.000146958776665
0.000149144672638
0.000569933237658
0.000824847032052
0.000962962162289
0.00103002039901
0.00103798902625
0.00102024380909
0.000997031068441
0.000978422432459
0.000967939996406
0.000966226055503
0.000973911109488
0.000991012694263
0.00101408877404
0.00103247462137
0.00102540693903
0.000959792952819
0.000822815942399
0.000569400244121
0.000148805499042
0.00014959928417
0.000563319342351
0.000821192595215
0.00096213973704
0.00102163534898
0.00102046346788
0.000995214783653
0.00096578081606
0.000942632907942
0.000929666290893
0.000927526588587
0.000936983427422
0.000958267223469
0.00098768684338
0.00101401206076
0.00101652793369
0.000959182800064
0.000819127273916
0.000562741918544
0.000149247589988
0.000149276321998
0.000554088323578
0.000812135647783
0.000956572820606
0.0010062792495
0.000998022102582
0.000966683853912
0.000931652624953
0.000904175026063
0.000889456896735
0.000886986201516
0.000897548959647
0.000922601882938
0.000957580712112
0.000990364607962
0.00100051242883
0.000953578619007
0.000809958804863
0.000553410490982
0.000148920521308
0.000148731655454
0.000546169769085
0.000803439487666
0.000950068421987
0.00099369131411
0.0009808630862
0.000945277928775
0.000906059074214
0.00087667639268
0.000859892058061
0.000857081906188
0.000869192933609
0.000895887968333
0.000934747271438
0.000971973452903
0.000987074856284
0.000946395499867
0.000801022719489
0.00054534438532
0.000148373951104
0.000148345245024
0.000541721628053
0.000798321851186
0.000945840399115
0.000987084064797
0.000972218186707
0.000934562861757
0.000893827185075
0.000862561154404
0.00084439435806
0.000841397832494
0.000854536449064
0.000882946845141
0.000923173073042
0.000962546824099
0.000979814485343
0.000941166339623
0.000795668402683
0.000540778658183
0.000147982554577
0.000148326403332
0.000541647431025
0.000798234430395
0.000945777638799
0.000987077216075
0.000972266892419
0.000934661156553
0.000893968478407
0.000862727416718
0.000844570630862
0.000841575140046
0.000854709988139
0.000883108502873
0.000923298075738
0.00096262256255
0.000979830125654
0.000941121552324
0.000795587357379
0.000540706687085
0.000147957627384
0.000148680954528
0.000545944150063
0.000803171070671
0.000949859857294
0.000993635398454
0.000980954891542
0.000945506981966
0.000906407939272
0.000877113258845
0.000860364889168
0.000857560685492
0.000869660455424
0.000896304320482
0.000935052837259
0.000972141145392
0.000987082311565
0.000946244883581
0.0008007805269
0.000545134680018
0.000148310389005
0.000149201464509
0.000553694563791
0.000811661870798
0.000956192619377
0.00100607030197
0.000997995342273
0.000966840457402
0.00093197270346
0.000904643774892
0.00089001577122
0.0008875630708
0.000898095169482
0.000923018051843
0.000957851149756
0.000990450208946
0.00100039918982
0.000953271812791
0.000809538112013
0.000553055381546
0.000148830908452
0.00014951099052
0.00056275543805
0.000820506146065
0.000961546284894
0.00102117385438
0.00102015270039
0.000995082813035
0.000965828336764
0.000942831832999
0.000929962110093
0.00092784678285
0.000937251660663
0.000958417556296
0.000987681274127
0.00101383543188
0.00101618524826
0.000958695734222
0.000818517306817
0.000562238488354
0.000149144771722
0.000149053547885
0.000569218250922
0.000823979898367
0.000962175641444
0.00102932329409
0.00103736900757
0.00101975136914
0.000996695926056
0.000978231739155
0.000967842733836
0.000966151339139
0.00097377801574
0.000990760965355
0.00101370805988
0.00103198174385
0.00102482564932
0.000959103610857
0.000822028534251
0.000568753201738
0.000148700409917
0.000147188373678
0.000567357005798
0.000812456084423
0.000943094550752
0.0010063673037
0.00102926007865
0.0010208085994
0.00100501084115
0.000991445446399
0.000983498100717
0.000982219029252
0.000988087052954
0.00100043574092
0.00101590071751
0.00102465915891
0.00100271397753
0.000940125672296
0.000810511336699
0.000566882329976
0.000146859355754
0.000143034879145
0.000547618695314
0.000771862296769
0.000888394715292
0.00094335549315
0.000962473432435
0.000961747101286
0.000956154617372
0.000949115131724
0.000943604505099
0.000942694054448
0.000946870056486
0.000953230835374
0.000958390258771
0.000958843477181
0.000939988717935
0.000885511864001
0.000769922735865
0.000547109973868
0.000142740823501
0.000135376197691
0.000494618344603
0.000680059706252
0.000772385422528
0.000813196966058
0.000824706206232
0.000821051172237
0.000811832603135
0.00080272033322
0.000796994655332
0.000796306076687
0.000800911218485
0.000809277361828
0.00081810620056
0.000821632020286
0.000810180193142
0.000769698804374
0.000678148082008
0.000493996930823
0.000135124077107
0.000122287952329
0.000378338539306
0.000495326706616
0.000548708980829
0.000568541114801
0.000570294504479
0.000563643226067
0.000554266075221
0.00054606130187
0.000541243215462
0.000540795747946
0.000544881744284
0.000552577385484
0.000561671944188
0.000568183746876
0.000566323708075
0.000546603486468
0.000493652227663
0.0003775731688
0.000122097360937
0.000101895171725
0.000122233605157
0.000135315660424
0.000142981993985
0.000147139285517
0.00014899810331
0.000149440744116
0.000149098242755
0.000148520682496
0.000148090113053
0.000148021617833
0.0001483507491
0.000148867514464
0.000149187619463
0.00014875060376
0.000146912433356
0.000142793334976
0.000135173772653
0.000122137215781
0.000101836797696
0.000108027519075
0.000134473602492
0.000150929869538
0.000160572666165
0.000165945978288
0.000168583022388
0.000169556138199
0.000169647376585
0.000169448771832
0.000169279195947
0.000169229711302
0.000169312385537
0.000169444225426
0.000169313846866
0.000168330652197
0.000165705489585
0.000160364584977
0.000150768773985
0.000134361603874
0.000107956687493
0.000134542206962
0.00047284958067
0.000638202075247
0.0007152823269
0.000745138232828
0.000749785402727
0.00074263308533
0.000731806445852
0.000722356919175
0.000716810679866
0.000716132355632
0.000720530077727
0.00072916902555
0.000739522296742
0.00074642780265
0.000741663685339
0.000711984910448
0.000635599486575
0.000471645574484
0.000134268826688
0.000151014028877
0.000637554294494
0.000921909794883
0.00107188388633
0.00114279700051
0.00116746932562
0.00116774711994
0.00115743033388
0.00114590668853
0.00113840188786
0.00113720676892
0.00114268903215
0.00115287953655
0.00116260436291
0.00116222123935
0.00113781674358
0.00106762990974
0.000919047420673
0.00063669498344
0.000150661640224
0.000160660339382
0.000714360346511
0.00107143330354
0.00127238284568
0.00137557436876
0.00141893008718
0.0014299697422
0.00142263096554
0.00141111217337
0.00140284984706
0.00140116062341
0.00140656018084
0.00141625844091
0.00142305584482
0.00141224232804
0.00136968009574
0.00126765619807
0.00106850251876
0.000713628315366
0.000160257684701
0.00016604056799
0.000744258092822
0.00114224013618
0.00137538439519
0.00150030540545
0.00155423375729
0.00156334735786
0.00155220475302
0.00153698967338
0.00152644499457
0.00152415375312
0.00153073860377
0.00154323515056
0.00155359048718
0.00154550232817
0.001493652713
0.00137017665604
0.00113907112527
0.000743400918873
0.000165592031564
0.00016868909669
0.000749113121519
0.00116705102153
0.00141880452475
0.0015543886196
0.0016054279465
0.0016078587261
0.00158885776175
0.00156734743512
0.00155332650938
0.00155041205772
0.00155927717582
0.00157668412601
0.001593952193
0.00159331443288
0.00154552603614
0.00141285251439
0.00116350191427
0.000748023439
0.000168203198907
0.000169676536226
0.000742254768834
0.00116769043315
0.00143030032197
0.00156435175329
0.00160952587427
0.00160286071079
0.00157409973527
0.00154507009206
0.00152697745855
0.00152356146406
0.00153538365574
0.00155871223692
0.0015840299658
0.00159259790668
0.0015528979206
0.0014232496088
0.00116360159703
0.000740850758342
0.000169166641458
0.000169787907597
0.000731853598078
0.00115806093827
0.00142414963131
0.00155523863408
0.00159398364362
0.00157825370999
0.00154008075495
0.00150368391203
0.00148153774734
0.00147770334332
0.00149258277124
0.00152189074434
0.00155511837355
0.00157232700642
0.00154072965429
0.00141539525935
0.00115321212737
0.000730064063149
0.000169269751199
0.000169614903406
0.000722974102536
0.00114753892699
0.00141425439471
0.00154265705072
0.0015762730261
0.00155376397992
0.00150843556957
0.00146621999926
0.00144067546173
0.00143646121184
0.00145384228062
0.00148801281693
0.00152752133657
0.00155136798125
0.00152571600954
0.00140406088453
0.00114195395339
0.000720796688317
0.000169099155265
0.000169474201738
0.000718068686945
0.00114120584116
0.00140781397518
0.00153472818995
0.00156566792368
0.00153965326162
0.00149056287287
0.00144511698593
0.00141762492017
0.00141317072555
0.00143196497145
0.00146884028062
0.00151177364204
0.00153915342066
0.00151652638119
0.00139674824124
0.00113514849629
0.000715629898147
0.000168959114078
0.000169457977582
0.000717983956763
0.00114110192474
0.00140775388441
0.0015347442577
0.00156576284627
0.00153980746023
0.00149075887929
0.00144534500091
0.00141787161782
0.00141342070265
0.00143220825198
0.00146907161381
0.00151197975103
0.00153930721617
0.00151659556476
0.0013967279258
0.00113507015561
0.000715559169602
0.000168936141448
0.000169566350227
0.000722699922892
0.00114720676876
0.00141405254614
0.00154267528578
0.00157653147548
0.00155422616144
0.0015090594131
0.00146697533883
0.00144150580811
0.00143730651389
0.00145465396237
0.00148875042573
0.00152813995561
0.00155179787576
0.00152588741298
0.00140397774604
0.00114170945949
0.000720580455388
0.000169036538428
0.000169710795992
0.000731345244051
0.0011574486055
0.0014237381716
0.00155516523294
0.00159432613163
0.00157900019361
0.00154116290267
0.00150502336785
0.00148302094805
0.00147921819558
0.00149402146195
0.00152315121585
0.00155610312744
0.00157292413727
0.00154088579451
0.0014151701561
0.00115275872303
0.000729672447962
0.00016917694319
0.000169581040816
0.000741489299708
0.00116677431967
0.00142962804907
0.00156404239065
0.0016097450621
0.00160368878321
0.00157544284422
0.00154677471747
0.00152888338735
0.00152551075206
0.00153721615341
0.0015602645161
0.00158513124614
0.00159311213456
0.00155286029823
0.00142279805503
0.00116289870701
0.000740251398308
0.000169056053297
0.00016858726534
0.000748111765644
0.00116586312147
0.00141784845232
0.00155378022924
0.00160526112775
0.0016082934413
0.00158986060637
0.00156873691661
0.0015549252926
0.00155205743997
0.00156079648214
0.00157788834897
0.00159464708858
0.0015934362262
0.00154519102686
0.00141214421645
0.00116254191159
0.00074720415802
0.000168086462576
0.000165942532428
0.00074307736593
0.00114089135489
0.00137427644398
0.00149960078735
0.00155378663254
0.00156327179902
0.0015525051297
0.00153758791815
0.00152721188029
0.00152496158241
0.00153144919267
0.00154370335146
0.00155372302489
0.00154529306478
0.00149317195271
0.00136928410137
0.00113791224295
0.000742374722928
0.000165478389175
0.000160574623113
0.000713129158818
0.00107010461208
0.00127130211221
0.00137482197999
0.00141850255137
0.00142988360374
0.0014227502226
0.00141141957262
0.00140326259288
0.00140159981632
0.00140694143137
0.00141648879987
0.0014230801331
0.0014119922107
0.00136910719096
0.00126672588618
0.00106729524452
0.000712496874668
0.000160155660764
0.000150946096867
0.000636456613846
0.000920829251372
0.00107105949536
0.00114225350914
0.00116719652446
0.00116771825065
0.00115757650777
0.00114618089647
0.0011387482292
0.00113756986682
0.00114301100771
0.00115310249324
0.00116268320233
0.00116208349403
0.00113740081982
0.00106690005487
0.000918029790812
0.000635642403902
0.000150577618886
0.000134498422266
0.000472156914222
0.000637627482964
0.000714900829049
0.000744932047868
0.000749741606333
0.000742726931271
0.000732006413645
0.000722625750878
0.000717114403555
0.000716445910096
0.000720829087165
0.000729419364134
0.00073969535683
0.000746483460383
0.000741552158327
0.000711670301552
0.00063505590253
0.000470954246162
0.000134210240334
0.000108024729592
0.000134405574654
0.000150839945209
0.000160471754523
0.000165834416522
0.000168460876977
0.000169423965458
0.000169505515625
0.0001692962509
0.000169117862214
0.000169063007021
0.000169145664005
0.000169281690032
0.00016915977754
0.000168187480208
0.000165573954658
0.000160244905003
0.000150661437372
0.000134278030557
0.000107947787406
0.00011308540846
0.000144632517736
0.000163489397133
0.000174447677454
0.000180725467558
0.000184083147693
0.000185700032979
0.000186395428553
0.000186713565973
0.000186860694127
0.000186830396541
0.000186620361359
0.000186240853383
0.000185492800687
0.000183847108695
0.000180487808645
0.000174237242513
0.000163331204262
0.000144534587966
0.000113010130743
0.000144739063516
0.000551820855202
0.000749799600737
0.000842696893709
0.000880939072136
0.00089001815717
0.000885515395466
0.000876928016575
0.000869617388333
0.000865495671186
0.000864685839779
0.000867363450433
0.000873592578102
0.000881489127219
0.000885614005919
0.000876369941086
0.000838320413541
0.000746280210268
0.000550149950095
0.000144379364698
0.0001636153308
0.000748992683531
0.00109749794922
0.00128361090374
0.00137501191147
0.00141108334585
0.00141748561457
0.00141075240238
0.00140151730416
0.00139509851606
0.00139347060575
0.00139703422566
0.00140430298672
0.00141009736609
0.00140363846265
0.00136800409529
0.0012776329373
0.00109338583422
0.000747618479734
0.000163155594711
0.000174584381749
0.000841730878718
0.00128322719406
0.00153638035668
0.00167159091119
0.00173456270508
0.00175484904393
0.00175207609411
0.00174234297665
0.00173444754019
0.00173197936154
0.00173546939153
0.00174172465699
0.00174281854871
0.00172375281666
0.00166237349127
0.00152905892548
0.00127844061009
0.000840060009868
0.000174052152824
0.000180883192039
0.000880318995825
0.00137479675999
0.00167160476124
0.00183859887962
0.00191716956074
0.00194076367943
0.001935861267
0.00192255474188
0.00191204431889
0.00190882038751
0.00191329749208
0.00192104952542
0.00192211949986
0.00189923538874
0.00182528490111
0.00166260978747
0.00136888548533
0.000877863006881
0.000180278193788
0.000184269933276
0.00088999892649
0.00141142667183
0.00173510285744
0.00191892671551
0.00200218803411
0.00202126087591
0.00200860789877
0.00198858088323
0.00197441820225
0.00197071217774
0.00197764803969
0.00198971533454
0.00199498850584
0.00197420631617
0.00189773417653
0.00172353839444
0.00140407480013
0.000886554573617
0.000183601874799
0.000185915962932
0.00088618091191
0.00141872036968
0.00175770129224
0.00194769447533
0.00202769360779
0.00203705285822
0.00201335414105
0.00198518876733
0.00196686710967
0.00196307354219
0.00197364602557
0.00199197202767
0.00200421643296
0.00198928883316
0.00191598599682
0.00174042939522
0.00140961094176
0.000881717911401
0.000185208666059
0.000186634975913
0.000878330369991
0.00141321090476
0.00175872623066
0.00194935141001
0.00202297721926
0.00202161936288
0.00198664141467
0.0019504133878
0.00192796640028
0.00192424748241
0.00193874900305
0.00196387329146
0.00198402319955
0.00197652431001
0.00190883128134
0.00173573190795
0.00140243366788
0.000872992071577
0.000185924190031
0.000186966318072
0.000871819206697
0.00140553515034
0.00175247029857
0.0019413463909
0.00200924254277
0.00199950807487
0.00195577573615
0.00191295477166
0.00188702533963
0.00188323651882
0.00190086866472
0.00193167808201
0.00195869271727
0.00195791585034
0.00189572974291
0.00172591190513
0.00139335761835
0.000865807329478
0.000186277613822
0.000187122773432
0.000868514259664
0.00140084211003
0.00174746408395
0.00193483916528
0.00199954841957
0.00198537155032
0.00193691343478
0.0018904610428
0.00186255587445
0.00185865326393
0.00187797631219
0.00191194447758
0.00194288352174
0.00194601252209
0.00188708706469
0.00171936922677
0.00138783522262
0.000862098880107
0.000186449948366
0.000187110711026
0.000868444997739
0.00140078636115
0.00174748040719
0.00193494460776
0.00199971219059
0.00198552956149
0.00193703304827
0.00189056684001
0.00186266465986
0.0018587685874
0.00187810916624
0.0019121209439
0.00194312353891
0.00194628224964
0.0018873077446
0.00171948051346
0.00138783498143
0.00086204522495
0.000186429594634
0.000186926310907
0.000871553646841
0.00140531774008
0.00175249086291
0.00194166561326
0.00200981167588
0.00200017698236
0.00195645306014
0.00191367746621
0.00188780229106
0.00188404279068
0.00190169467306
0.00193254742221
0.00195962442182
0.00195880822804
0.00189638804724
0.00172621211134
0.00139332402919
0.000865625706886
0.000186220133996
0.000186568020311
0.000877790440273
0.0014127345029
0.00175870491783
0.00194990757411
0.00202409934814
0.00202312907216
0.00198838691414
0.00195235378396
0.00193004600481
0.00192638566921
0.00194086706838
0.00196592028169
0.00198594854989
0.00197814230389
0.00190989326018
0.00173613253939
0.00140227687538
0.000872638274813
0.000185837397564
0.000185831426479
0.000885343474997
0.00141792981261
0.00175753066991
0.00194838752481
0.00202938914886
0.00203962205759
0.00201656602967
0.0019888316551
0.00197075937833
0.00196703966181
0.00197750705984
0.00199554816579
0.00200729191731
0.00199157820094
0.00191726890702
0.00174075248378
0.00140922942008
0.000881150310375
0.000185104613315
0.000184180911243
0.000888906043117
0.0014103460058
0.00173461707508
0.00191937471277
0.00200393761706
0.0020243354308
0.00201270510404
0.00199331711687
0.00197948356633
0.00197586384821
0.00198263110894
0.00199421037816
0.0019985911834
0.00197655992409
0.00189876416901
0.00172353463411
0.00140340597224
0.000885748606705
0.000183492744431
0.000180800233981
0.000879043854764
0.00137351600499
0.00167078640643
0.00183852932521
0.00191822218775
0.00194316873234
0.00193938508887
0.00192674748255
0.00191657253331
0.00191343861277
0.00191774519204
0.00192495821741
0.00192500967929
0.00190082023913
0.00182571104975
0.00166220915705
0.00136793554426
0.000876823491377
0.000180173860107
0.000174514829717
0.000840388216763
0.00128192597604
0.00153550048951
0.00167122933829
0.00173489834062
0.00175591373789
0.00175389956021
0.0017446702548
0.0017370372286
0.00173464040181
0.00173799755041
0.0017438509913
0.0017442577848
0.00172448652039
0.00166237960465
0.0015284617313
0.00127734158275
0.000838863022613
0.000173960477171
0.000163563527825
0.000747762055256
0.00109640671925
0.00128288875749
0.00137468961565
0.00141117601974
0.00141793700302
0.00141151485813
0.00140252399659
0.00139625723724
0.00139466997873
0.00139815487466
0.00140524164491
0.00141078623552
0.00140399238296
0.00136791436189
0.00127707289961
0.00109238953191
0.000746449351282
0.000163082614293
0.000144710211174
0.000551016307273
0.00074920295353
0.000842326589865
0.000880768627667
0.000890045992422
0.000885723040992
0.00087729589072
0.000870094719968
0.000866029926954
0.000865229620541
0.000867873780103
0.00087401695467
0.000881803197827
0.000885783596908
0.000876336506839
0.000838045496362
0.00074572551933
0.000549349856491
0.000144331635406
0.000113098445212
0.000144559160522
0.000163393491449
0.000174339588831
0.000180603837588
0.000183948052856
0.000185553402219
0.000186239919288
0.000186548507721
0.000186687790648
0.000186651240839
0.000186438683824
0.000186060291165
0.000185319232131
0.000183685867971
0.000180341274953
0.000174105987078
0.000163214461357
0.000144442928082
0.000113016607846
0.00011802262721
0.000154633372021
0.000175520197003
0.000187621693016
0.000194844116567
0.000199093469824
0.000201559521984
0.000203010342939
0.000203902288657
0.000204361879318
0.000204355775429
0.000203879118401
0.000202958279973
0.00020145780095
0.000198943642832
0.000194672567571
0.00018746779427
0.000175425046344
0.000154625177487
0.000117965726398
0.000154796079013
0.000636508066275
0.00086518455061
0.000974356447397
0.00102370907683
0.00104107308076
0.00104335059564
0.00104066022815
0.00103807701637
0.00103663229378
0.00103581126855
0.00103576822272
0.00103721804383
0.00103908067367
0.00103622869298
0.00101857333452
0.000969405823862
0.000861188301418
0.000634572849667
0.000154375638539
0.000175697461693
0.000864465129093
0.0012672856202
0.00148188994794
0.00159065015203
0.00163845548203
0.00165301848331
0.00165204544735
0.00164709465258
0.0016430664585
0.0016410128967
0.00164135174596
0.00164321917984
0.00164225108437
0.00162802863768
0.00158136346483
0.00147396688447
0.0012616924648
0.000862328319101
0.000175164672278