/*--------------------------------*- C++ -*----------------------------------*\
| =========                 |                                                 |
| \\      /  F ield         | OpenFOAM: The Open Source CFD Toolbox           |
|  \\    /   O peration     | Version:  3.0.1                                 |
|   \\  /    A nd           | Web:      www.OpenFOAM.org                      |
|    \\/     M anipulation  |                                                 |
\*---------------------------------------------------------------------------*/
FoamFile
{
    version     2.0;
    format      ascii;
    class       volScalarField;
    location    "7.4";
    object      rAU;
}
// * * * * * * * * * * * * * * * * * * * * * * * * * * * * * * * * * * * * * //

dimensions      [-1 3 1 0 0 0 0];

internalField   nonuniform List<scalar> 
7968
(
1.05283708195e-05
1.05222444376e-05
1.05219849018e-05
1.0523556934e-05
1.05237832365e-05
1.05136418843e-05
1.05081778225e-05
1.05147463051e-05
1.05176706527e-05
1.05187854642e-05
1.05188867767e-05
1.05180213725e-05
1.05156067118e-05
1.05105786373e-05
1.05129058544e-05
1.05211891411e-05
1.05234458042e-05
1.0521946433e-05
1.0522194556e-05
1.05283613789e-05
1.05221918255e-05
1.05071973108e-05
1.05027565055e-05
1.0502002987e-05
1.05000489672e-05
1.04946600408e-05
1.04916348925e-05
1.0494011346e-05
1.04961806584e-05
1.04971683316e-05
1.0497264991e-05
1.04964941006e-05
1.04946087204e-05
1.04922565576e-05
1.04941946063e-05
1.04992097334e-05
1.05018502047e-05
1.05027743219e-05
1.05072492466e-05
1.05222533081e-05
1.05219166658e-05
1.05027049617e-05
1.04954880394e-05
1.04932912741e-05
1.0490979756e-05
1.04875500456e-05
1.04861832202e-05
1.04878531451e-05
1.04896558837e-05
1.04909417633e-05
1.04910610288e-05
1.04900181782e-05
1.04884486242e-05
1.0486635229e-05
1.04873870057e-05
1.04905854944e-05
1.04932055672e-05
1.04955799241e-05
1.05028357796e-05
1.05219916104e-05
1.05234377484e-05
1.05018443801e-05
1.04931955427e-05
1.04906216811e-05
1.04887777131e-05
1.04873768968e-05
1.04869407307e-05
1.04892150224e-05
1.04915275944e-05
1.04925812148e-05
1.04926605248e-05
1.04917701152e-05
1.04896487383e-05
1.04872976151e-05
1.04873318174e-05
1.04885165821e-05
1.04905058491e-05
1.04933226954e-05
1.05020352642e-05
1.05235743591e-05
1.05228487144e-05
1.04996306871e-05
1.04907703497e-05
1.04886890156e-05
1.04866251414e-05
1.04814990194e-05
1.04784818424e-05
1.04791589392e-05
1.04802076295e-05
1.04807116364e-05
1.04808234521e-05
1.04805113584e-05
1.04795743223e-05
1.04788034367e-05
1.04813267586e-05
1.04863211234e-05
1.04886394022e-05
1.04908269608e-05
1.04997137026e-05
1.05226476179e-05
1.05136294805e-05
1.04944729258e-05
1.04874851548e-05
1.04873960653e-05
1.04816651215e-05
1.04723790313e-05
1.04681150851e-05
1.04682190059e-05
1.04687120689e-05
1.04687142434e-05
1.04688046195e-05
1.04689737124e-05
1.0468608564e-05
1.04684861137e-05
1.04722440289e-05
1.0481144012e-05
1.04872682153e-05
1.04874586284e-05
1.04944183908e-05
1.05134578628e-05
1.05093250855e-05
1.04919225779e-05
1.04863773648e-05
1.04872091766e-05
1.04788954232e-05
1.04683656978e-05
1.04648372373e-05
1.04660989078e-05
1.04672201276e-05
1.04676599424e-05
1.04677134091e-05
1.04673490949e-05
1.04663183752e-05
1.04651523151e-05
1.04682767955e-05
1.04783963414e-05
1.04869820574e-05
1.048645012e-05
1.04919470681e-05
1.05094584002e-05
1.05151639694e-05
1.04942590648e-05
1.04880286714e-05
1.04895220828e-05
1.04796390845e-05
1.04685053126e-05
1.04660813917e-05
1.04686916427e-05
1.04708377674e-05
1.04765418033e-05
1.04771040842e-05
1.04710900108e-05
1.04688977082e-05
1.04663633735e-05
1.04684008988e-05
1.04791488612e-05
1.04893279715e-05
1.04882977447e-05
1.04943565829e-05
1.05151794881e-05
1.05178522164e-05
1.04962873976e-05
1.04896754277e-05
1.04917535145e-05
1.04806545006e-05
1.04689567429e-05
1.04671332209e-05
1.04707690712e-05
1.04842791668e-05
1.04877308882e-05
1.04879621426e-05
1.04850699763e-05
1.04717966304e-05
1.04674944524e-05
1.04688191649e-05
1.04801416929e-05
1.04914947193e-05
1.04899923934e-05
1.04963903536e-05
1.05178448374e-05
1.05188652124e-05
1.04971811183e-05
1.04908455853e-05
1.0492785658e-05
1.04810896126e-05
1.04689091232e-05
1.04675112942e-05
1.04754164434e-05
1.04875321021e-05
1.04909648629e-05
1.04911995473e-05
1.04881669605e-05
1.04780571952e-05
1.04679297351e-05
1.04687378606e-05
1.04805519044e-05
1.04924836187e-05
1.04911776411e-05
1.04972822003e-05
1.0518850102e-05
1.05188797792e-05
1.04971939179e-05
1.04908564066e-05
1.0492794138e-05
1.04810944454e-05
1.04689146554e-05
1.0467519287e-05
1.04754187095e-05
1.04875394036e-05
1.04909734776e-05
1.04912075237e-05
1.04881740814e-05
1.04780601596e-05
1.0467939306e-05
1.04687480417e-05
1.04805617031e-05
1.0492492869e-05
1.04911923794e-05
1.04972989394e-05
1.0518868048e-05
1.05179021232e-05
1.04963304143e-05
1.04897156038e-05
1.04917832597e-05
1.0480678215e-05
1.04689833778e-05
1.04671690382e-05
1.04708103385e-05
1.04843404426e-05
1.04877829963e-05
1.04880123938e-05
1.0485117281e-05
1.04718553605e-05
1.04675364579e-05
1.0468857883e-05
1.04801765712e-05
1.04915286831e-05
1.04900410952e-05
1.04964437472e-05
1.05179058557e-05
1.05152777168e-05
1.04943383206e-05
1.04880714396e-05
1.048958338e-05
1.0479691747e-05
1.04685646199e-05
1.04661589787e-05
1.04687839609e-05
1.04709410021e-05
1.04768132971e-05
1.04773638522e-05
1.04713863102e-05
1.04689980948e-05
1.04664511655e-05
1.04684773577e-05
1.04792133101e-05
1.04893892444e-05
1.04883371425e-05
1.04944507593e-05
1.05153159824e-05
1.05096524336e-05
1.04919960592e-05
1.04864178682e-05
1.04872749835e-05
1.04789535454e-05
1.04684261954e-05
1.04649296151e-05
1.04662229897e-05
1.04673632521e-05
1.04678138528e-05
1.04678703994e-05
1.04675088087e-05
1.0466456724e-05
1.0465263622e-05
1.04683609605e-05
1.04784681027e-05
1.0487045444e-05
1.04864925533e-05
1.04920355474e-05
1.05098323883e-05
1.05135673452e-05
1.04944160594e-05
1.04874759097e-05
1.04874310271e-05
1.04816755493e-05
1.04723701199e-05
1.04681262953e-05
1.04682694639e-05
1.0468796512e-05
1.0468805708e-05
1.04689000075e-05
1.04690656562e-05
1.04686824061e-05
1.04685256683e-05
1.0472263734e-05
1.0481165332e-05
1.04872977216e-05
1.04874477437e-05
1.04943533973e-05
1.0513331138e-05
1.05225433541e-05
1.04995533403e-05
1.04907583196e-05
1.04887079608e-05
1.04866259619e-05
1.04814394275e-05
1.04784094736e-05
1.04791024677e-05
1.04801723579e-05
1.04806845146e-05
1.04808006594e-05
1.04804852292e-05
1.04795328977e-05
1.04787484795e-05
1.04812781436e-05
1.04863172842e-05
1.0488676113e-05
1.04908133702e-05
1.04996233603e-05
1.05222491376e-05
1.05234511837e-05
1.05018598662e-05
1.04932263952e-05
1.04906510047e-05
1.04888302011e-05
1.04873645943e-05
1.04868969155e-05
1.04891780409e-05
1.04914733757e-05
1.04925191158e-05
1.04925994729e-05
1.049171099e-05
1.04896155727e-05
1.04872539797e-05
1.0487312083e-05
1.04885838531e-05
1.0490539882e-05
1.04933582919e-05
1.05020583434e-05
1.0523590494e-05
1.05219386973e-05
1.0502734819e-05
1.04955351111e-05
1.04933512977e-05
1.04910247154e-05
1.04875581897e-05
1.04861949354e-05
1.04878908742e-05
1.04897117409e-05
1.04909984894e-05
1.04911206552e-05
1.04900822731e-05
1.04884889333e-05
1.04866534881e-05
1.04873905529e-05
1.0490623963e-05
1.0493269027e-05
1.04956321928e-05
1.05028727849e-05
1.05220083199e-05
1.05222082157e-05
1.05072333437e-05
1.05028030106e-05
1.05020672448e-05
1.05001087072e-05
1.04946706548e-05
1.04916408159e-05
1.04940422002e-05
1.04962151147e-05
1.04972036794e-05
1.04973043375e-05
1.04965406878e-05
1.04946586345e-05
1.04922858483e-05
1.04941901865e-05
1.04992425604e-05
1.0501917469e-05
1.05028246706e-05
1.05072846511e-05
1.05222632679e-05
1.05283865535e-05
1.05222643733e-05
1.05220107228e-05
1.05235959607e-05
1.0523798453e-05
1.05136513914e-05
1.05082015371e-05
1.05147613271e-05
1.05176886023e-05
1.0518806377e-05
1.05189121918e-05
1.05180535107e-05
1.05156488082e-05
1.05106619467e-05
1.05128149151e-05
1.05210663548e-05
1.05234890166e-05
1.05219728337e-05
1.05222200692e-05
1.05283821425e-05
1.05263333161e-05
1.05139581019e-05
1.0508753937e-05
1.05080550388e-05
1.05056485312e-05
1.04992760614e-05
1.04972561032e-05
1.05012172741e-05
1.05041270376e-05
1.05054539472e-05
1.05055823266e-05
1.0504542501e-05
1.050203839e-05
1.0498421398e-05
1.04987257007e-05
1.05043909283e-05
1.05079745418e-05
1.05088197266e-05
1.05140181583e-05
1.05263251996e-05
1.05140027187e-05
1.04578919757e-05
1.04258754977e-05
1.04116683736e-05
1.04049390021e-05
1.04017318474e-05
1.04019184102e-05
1.04050495868e-05
1.04082817001e-05
1.0410084962e-05
1.04102760392e-05
1.04088293125e-05
1.04058935072e-05
1.04027311475e-05
1.040202897e-05
1.04049404313e-05
1.04118195523e-05
1.04261479426e-05
1.04579930427e-05
1.05139542321e-05
1.05087815111e-05
1.04259548903e-05
1.03742053032e-05
1.03486833934e-05
1.03373930492e-05
1.03338164832e-05
1.0334528774e-05
1.03370374195e-05
1.0339840962e-05
1.03421242187e-05
1.03423425044e-05
1.03404360854e-05
1.03379027491e-05
1.03353663637e-05
1.03344636943e-05
1.03378172192e-05
1.03489790282e-05
1.03744455128e-05
1.04260102539e-05
1.05087803344e-05
1.05079920713e-05
1.04117060214e-05
1.03487209563e-05
1.03179996717e-05
1.03054162664e-05
1.03007380354e-05
1.02999766714e-05
1.03016119979e-05
1.03039609889e-05
1.03055513774e-05
1.03058052223e-05
1.0304605238e-05
1.03025100589e-05
1.03008959684e-05
1.03015470366e-05
1.03060763841e-05
1.03184873945e-05
1.03488982283e-05
1.04116924088e-05
1.05080344715e-05
1.05051363652e-05
1.04049385963e-05
1.03374852578e-05
1.0305456217e-05
1.02896659987e-05
1.02834438719e-05
1.02830454471e-05
1.02854914844e-05
1.02884575461e-05
1.02904665809e-05
1.02907926001e-05
1.02892843328e-05
1.0286545741e-05
1.02840888696e-05
1.02843600146e-05
1.02904389808e-05
1.030602239e-05
1.03376935476e-05
1.04048346306e-05
1.05049852864e-05
1.04991119437e-05
1.04018853711e-05
1.03339527563e-05
1.03008127955e-05
1.02834878667e-05
1.02782676454e-05
1.02796630774e-05
1.02833980244e-05
1.02872886841e-05
1.02898177187e-05
1.02902095648e-05
1.02882695226e-05
1.0284572113e-05
1.02807261183e-05
1.02792247188e-05
1.0284305239e-05
1.03013982233e-05
1.03342975429e-05
1.04017577133e-05
1.04989393657e-05
1.04978027392e-05
1.04022786688e-05
1.03346945982e-05
1.03001145285e-05
1.02831332358e-05
1.02797511392e-05
1.02823777176e-05
1.02871851646e-05
1.02919338312e-05
1.02948103055e-05
1.02952427434e-05
1.02930412799e-05
1.02885025016e-05
1.02834879522e-05
1.02806519485e-05
1.0283992585e-05
1.03006750854e-05
1.03351211368e-05
1.04022365146e-05
1.04978087651e-05
1.05016006117e-05
1.04053720955e-05
1.03371724855e-05
1.03017122336e-05
1.02855415555e-05
1.02834981732e-05
1.02872090647e-05
1.02929631864e-05
1.02982876868e-05
1.03068468216e-05
1.03078886223e-05
1.02996745402e-05
1.02944280718e-05
1.02884753233e-05
1.02844827646e-05
1.02864883694e-05
1.03023430276e-05
1.03376544867e-05
1.04054330198e-05
1.05016164707e-05
1.05043155635e-05
1.04084354288e-05
1.03398718613e-05
1.03038834217e-05
1.02883104707e-05
1.02871875725e-05
1.02917484824e-05
1.02980617581e-05
1.03156460256e-05
1.03227095007e-05
1.0323451867e-05
1.03178067216e-05
1.03005394786e-05
1.02932055215e-05
1.02883679065e-05
1.02894211816e-05
1.03045911118e-05
1.03402614055e-05
1.04085437831e-05
1.05043404463e-05
1.05055155203e-05
1.04100744631e-05
1.03420560417e-05
1.0305268999e-05
1.02900007557e-05
1.02893477554e-05
1.02942312646e-05
1.03051176194e-05
1.03220205921e-05
1.03289788254e-05
1.03297177095e-05
1.0324128173e-05
1.03094157221e-05
1.02958163904e-05
1.02906768534e-05
1.02912578309e-05
1.03060854357e-05
1.0342322289e-05
1.04101866606e-05
1.05055450426e-05
1.05055340337e-05
1.04101026622e-05
1.03420954982e-05
1.0305286699e-05
1.02900080361e-05
1.02893459799e-05
1.0294220942e-05
1.03050969883e-05
1.03220029974e-05
1.03289626078e-05
1.03297017664e-05
1.03241097995e-05
1.03093946473e-05
1.02958035208e-05
1.02906696418e-05
1.02912590693e-05
1.03060997068e-05
1.03423617784e-05
1.04102146168e-05
1.05055650141e-05
1.05043774018e-05
1.04085199754e-05
1.03399770693e-05
1.03039390387e-05
1.02883404863e-05
1.02871937588e-05
1.02917342771e-05
1.02980354823e-05
1.031563276e-05
1.03226924449e-05
1.03234342668e-05
1.03177890074e-05
1.03005267841e-05
1.02931837241e-05
1.02883597691e-05
1.02894338029e-05
1.0304636895e-05
1.03403683797e-05
1.04086276444e-05
1.05044053435e-05
1.05017222358e-05
1.04055135201e-05
1.03373063161e-05
1.03018154288e-05
1.0285612716e-05
1.02835472069e-05
1.02872379492e-05
1.02929710063e-05
1.02982827918e-05
1.03070080845e-05
1.03080377492e-05
1.02998666178e-05
1.0294429962e-05
1.0288494871e-05
1.02845120581e-05
1.02865356229e-05
1.03024253482e-05
1.03377720982e-05
1.04055702478e-05
1.05017421885e-05
1.04979788102e-05
1.04024350834e-05
1.03348718236e-05
1.03002606929e-05
1.02832524311e-05
1.02798668275e-05
1.02824828565e-05
1.02872725846e-05
1.02920008257e-05
1.02948600252e-05
1.02952911059e-05
1.02931020812e-05
1.02885857566e-05
1.02835788918e-05
1.02807392061e-05
1.02840840844e-05
1.03007962933e-05
1.03352842747e-05
1.04023846437e-05
1.04979925021e-05
1.0499046671e-05
1.04020135024e-05
1.03341472828e-05
1.0300994666e-05
1.02836358918e-05
1.02784216883e-05
1.02798210692e-05
1.02835493627e-05
1.02874255251e-05
1.0289943119e-05
1.02903325347e-05
1.02884015863e-05
1.02847136066e-05
1.02808639914e-05
1.02793507939e-05
1.02844253332e-05
1.03015522945e-05
1.03344890269e-05
1.0401867034e-05
1.04988725818e-05
1.05049879977e-05
1.04050685677e-05
1.03376791428e-05
1.03056559772e-05
1.02898187849e-05
1.02835814235e-05
1.02831786985e-05
1.02856073174e-05
1.0288555309e-05
1.0290560933e-05
1.02908854421e-05
1.02893806565e-05
1.02866520237e-05
1.02842053837e-05
1.02844783494e-05
1.02905685968e-05
1.0306215633e-05
1.03378900319e-05
1.04049405007e-05
1.05048190788e-05
1.05080267582e-05
1.04118679401e-05
1.03489081547e-05
1.03182030228e-05
1.03055822112e-05
1.03008311927e-05
1.03000249877e-05
1.03016245571e-05
1.03039413974e-05
1.03055354034e-05
1.03057917889e-05
1.030458251e-05
1.03025172505e-05
1.0300927967e-05
1.03016253875e-05
1.03062430692e-05
1.0318706062e-05
1.03490805556e-05
1.04118337424e-05
1.05080484349e-05
1.0508837783e-05
1.04261290913e-05
1.03743714168e-05
1.03488153888e-05
1.03375192593e-05
1.03339440921e-05
1.03346125172e-05
1.03370635342e-05
1.03398243596e-05
1.0342070531e-05
1.03422969912e-05
1.0340435146e-05
1.03379264993e-05
1.03354453405e-05
1.03345892642e-05
1.03379432031e-05
1.03491050898e-05
1.03745999848e-05
1.04261702201e-05
1.05088223223e-05
1.05140598002e-05
1.04580108153e-05
1.04259817482e-05
1.04117360525e-05
1.04049652467e-05
1.04017266022e-05
1.04018969355e-05
1.04050216026e-05
1.04082449362e-05
1.04100403002e-05
1.0410233031e-05
1.0408798378e-05
1.04058696396e-05
1.0402705401e-05
1.04020039762e-05
1.04049399199e-05
1.04118664963e-05
1.04262377263e-05
1.04581007693e-05
1.05140052548e-05
1.05263747663e-05
1.05139837748e-05
1.05087801281e-05
1.0508084714e-05
1.05056380312e-05
1.04992625877e-05
1.0497262557e-05
1.0501215544e-05
1.05041287795e-05
1.05054585438e-05
1.05055896448e-05
1.05045523756e-05
1.05020487557e-05
1.04984386769e-05
1.04986982133e-05
1.05043547692e-05
1.05079904522e-05
1.05088386033e-05
1.05140417884e-05
1.0526371751e-05
1.05234330032e-05
1.05075313769e-05
1.0499226758e-05
1.04896799879e-05
1.04848447792e-05
1.04806147861e-05
1.047965656e-05
1.04810484212e-05
1.04822019218e-05
1.04826831905e-05
1.04827510388e-05
1.04824443148e-05
1.04815373966e-05
1.04802696855e-05
1.04806003801e-05
1.04842836398e-05
1.04894235905e-05
1.0499181078e-05
1.0507639884e-05
1.05234662755e-05
1.05075611692e-05
1.04296177595e-05
1.03833489091e-05
1.03560110584e-05
1.0345726645e-05
1.03424963146e-05
1.0342683884e-05
1.03446446722e-05
1.03469762362e-05
1.03484662417e-05
1.03486515399e-05
1.03474887989e-05
1.03453798073e-05
1.03434282283e-05
1.03431241304e-05
1.03462526809e-05
1.03564706961e-05
1.03836196646e-05
1.04297840047e-05
1.05075582789e-05
1.04991797294e-05
1.03833779206e-05
1.03094600538e-05
1.02716666517e-05
1.02542912323e-05
1.02482525351e-05
1.02479166462e-05
1.02500435419e-05
1.02528635094e-05
1.02549321938e-05
1.02552048294e-05
1.02535852301e-05
1.02510229411e-05
1.02489726136e-05
1.02493606525e-05
1.02553878208e-05
1.02726137854e-05
1.03100702392e-05
1.03835454925e-05
1.04992180027e-05
1.04899271972e-05
1.03565465435e-05
1.02717810664e-05
1.02225293679e-05
1.01975012181e-05
1.01855858298e-05
1.01821221891e-05
1.01829707626e-05
1.01852687145e-05
1.01871872768e-05
1.01875945021e-05
1.01863197057e-05
1.01843073838e-05
1.01834813522e-05
1.01869518971e-05
1.01987948451e-05
1.02236965377e-05
1.02724293278e-05
1.03557121125e-05
1.0489081787e-05
1.04843712665e-05
1.03456604081e-05
1.02544285611e-05
1.0197535378e-05
1.01652631232e-05
1.01522012663e-05
1.0149915004e-05
1.01519245425e-05
1.01549557653e-05
1.01573636763e-05
1.015788378e-05
1.01562590478e-05
1.0153286989e-05
1.01511732232e-05
1.01537294629e-05
1.0166732617e-05
1.0198674516e-05
1.02551433182e-05
1.03462403216e-05
1.04848213961e-05
1.04804054246e-05
1.03424303687e-05
1.0248315513e-05
1.01855790152e-05
1.01522218983e-05
1.01409710971e-05
1.01407258695e-05
1.01440824467e-05
1.01481391133e-05
1.0151344575e-05
1.01519992469e-05
1.01496910984e-05
1.01449860446e-05
1.01406104062e-05
1.01415002294e-05
1.01537017704e-05
1.01868536034e-05
1.02491576588e-05
1.0343111984e-05
1.0480848608e-05
1.0479691156e-05
1.03426464502e-05
1.02478899161e-05
1.01820519192e-05
1.01500742262e-05
1.01414287309e-05
1.01433888747e-05
1.01482730547e-05
1.01536712905e-05
1.01578340007e-05
1.01586229682e-05
1.01555311186e-05
1.01488336966e-05
1.01415829597e-05
1.01400466429e-05
1.01510623062e-05
1.01834677226e-05
1.02488096788e-05
1.0343364058e-05
1.04802842565e-05
1.0481013254e-05
1.03445557387e-05
1.02499472444e-05
1.01827962691e-05
1.01523439753e-05
1.01459206433e-05
1.01498637175e-05
1.01565309563e-05
1.01634233965e-05
1.01690668476e-05
1.01700001924e-05
1.01656211558e-05
1.01572088246e-05
1.01475216808e-05
1.01434839064e-05
1.01529990439e-05
1.01844295926e-05
1.02509088971e-05
1.03453453776e-05
1.04816429827e-05
1.04820423702e-05
1.03467439193e-05
1.02526501754e-05
1.01848086077e-05
1.01552626088e-05
1.01502659277e-05
1.01558350934e-05
1.01641166272e-05
1.01736322433e-05
1.01802763811e-05
1.01812704822e-05
1.0176137167e-05
1.01652857473e-05
1.01538653854e-05
1.01480180784e-05
1.01561244028e-05
1.01867502077e-05
1.02536057965e-05
1.03475831515e-05
1.04826793909e-05
1.04824460186e-05
1.03480741717e-05
1.02545645809e-05
1.01863038709e-05
1.01571258133e-05
1.01528111488e-05
1.01592500533e-05
1.01689154038e-05
1.01794267744e-05
1.01865624542e-05
1.01875800329e-05
1.01820714385e-05
1.01704923881e-05
1.01576836123e-05
1.01509592552e-05
1.01582926378e-05
1.01884811731e-05
1.02554417089e-05
1.03489300474e-05
1.04830788131e-05
1.04824600525e-05
1.03481018126e-05
1.02546041594e-05
1.01863176591e-05
1.0157123755e-05
1.01527903171e-05
1.01592114114e-05
1.01688705047e-05
1.01793780014e-05
1.01865145162e-05
1.01875305087e-05
1.01820204054e-05
1.01704442427e-05
1.01576390478e-05
1.01509271719e-05
1.01582763268e-05
1.01884828588e-05
1.02554729061e-05
1.03489589368e-05
1.04830963732e-05
1.0482091712e-05
1.03468262122e-05
1.02527543587e-05
1.01848546902e-05
1.01552675123e-05
1.01502302603e-05
1.01557581007e-05
1.01640167316e-05
1.01735148657e-05
1.01801492236e-05
1.01811418928e-05
1.01760170306e-05
1.01651766097e-05
1.01537685238e-05
1.01479512761e-05
1.01560914628e-05
1.01867616173e-05
1.02536871896e-05
1.03476611952e-05
1.04827331066e-05
1.04811041969e-05
1.03446886162e-05
1.02501088591e-05
1.01828946236e-05
1.01524223088e-05
1.01460290401e-05
1.01500045268e-05
1.01566634587e-05
1.01635348676e-05
1.01691701483e-05
1.01700962254e-05
1.01657393713e-05
1.01573288667e-05
1.01476409649e-05
1.01435538623e-05
1.0153023016e-05
1.01844749227e-05
1.02510323534e-05
1.03454670788e-05
1.04817375477e-05
1.04798043918e-05
1.0342816433e-05
1.02481078871e-05
1.01822145613e-05
1.01502431081e-05
1.01417376132e-05
1.0143872592e-05
1.01488274088e-05
1.01541933564e-05
1.01583091489e-05
1.01590920223e-05
1.01560350387e-05
1.0149370034e-05
1.01420451166e-05
1.01403012396e-05
1.01511636154e-05
1.01835665338e-05
1.02489748868e-05
1.03435125454e-05
1.04804040016e-05
1.04804296281e-05
1.03426401833e-05
1.02485865172e-05
1.01857928753e-05
1.01524101423e-05
1.01412689089e-05
1.01412310288e-05
1.01447099911e-05
1.0148750865e-05
1.01519047443e-05
1.01525485654e-05
1.01502736608e-05
1.01455771422e-05
1.01410665841e-05
1.01417298823e-05
1.01538181574e-05
1.01869990055e-05
1.02493783675e-05
1.0343292209e-05
1.04808843036e-05
1.04843274835e-05
1.03458856117e-05
1.02547397771e-05
1.01977849306e-05
1.01654269257e-05
1.01523701423e-05
1.01501302761e-05
1.01521726118e-05
1.01551784793e-05
1.01575459091e-05
1.0158055559e-05
1.01564545663e-05
1.01534959081e-05
1.01513378589e-05
1.01538369308e-05
1.01668358166e-05
1.0198858415e-05
1.02554151144e-05
1.03464406808e-05
1.04847856951e-05
1.04897328831e-05
1.03565775665e-05
1.02720964817e-05
1.02228162561e-05
1.01976417798e-05
1.0185634757e-05
1.01821260989e-05
1.01829531737e-05
1.01852174465e-05
1.0187112993e-05
1.01875129652e-05
1.01862497024e-05
1.01842591809e-05
1.01834497495e-05
1.0186954882e-05
1.01988803818e-05
1.0223956016e-05
1.02727131771e-05
1.03558775723e-05
1.04890393255e-05
1.04991798653e-05
1.03835379493e-05
1.03097186266e-05
1.02718783011e-05
1.02544455188e-05
1.02483402961e-05
1.02479118365e-05
1.02499569146e-05
1.02527064632e-05
1.02547227261e-05
1.02549978715e-05
1.02534271661e-05
1.02509200027e-05
1.02489406497e-05
1.02494150997e-05
1.02555111638e-05
1.02727988365e-05
1.03103042357e-05
1.0383660855e-05
1.04991829089e-05
1.05076415835e-05
1.04297472044e-05
1.03834398268e-05
1.03556491095e-05
1.0345846302e-05
1.0342610058e-05
1.0342753731e-05
1.03446874645e-05
1.03470001716e-05
1.03484835946e-05
1.03486694287e-05
1.03475139579e-05
1.03454175244e-05
1.034348846e-05
1.03432200334e-05
1.03463564368e-05
1.03561320702e-05
1.03836851203e-05
1.04298932281e-05
1.0507627973e-05
1.05235018696e-05
1.05075552918e-05
1.04992034447e-05
1.0489265374e-05
1.04849283505e-05
1.04807002404e-05
1.04797736716e-05
1.04811622293e-05
1.04823155265e-05
1.04827972023e-05
1.04828693143e-05
1.04825687979e-05
1.0481664248e-05
1.04803989317e-05
1.04807045348e-05
1.04843767558e-05
1.04890444143e-05
1.04991465638e-05
1.05076639216e-05
1.05235300944e-05
1.05127152332e-05
1.0490873583e-05
1.04849123339e-05
1.04814311755e-05
1.04772863223e-05
1.04745878624e-05
1.04741015264e-05
1.04739695066e-05
1.04735957162e-05
1.04731173595e-05
1.04730123965e-05
1.047342868e-05
1.04739565623e-05
1.04743031135e-05
1.04747878979e-05
1.04768871818e-05
1.04808995185e-05
1.04849463017e-05
1.04909866352e-05
1.05127728111e-05
1.04907681303e-05
1.03932612608e-05
1.03490687057e-05
1.03257987788e-05
1.03152910462e-05
1.03118368805e-05
1.03118989204e-05
1.03133612946e-05
1.03150535896e-05
1.0316184107e-05
1.03163492133e-05
1.03155067732e-05
1.03140226799e-05
1.03126864678e-05
1.03127049378e-05
1.03162012204e-05
1.03266673107e-05
1.03498403196e-05
1.03939661517e-05
1.04910399125e-05
1.0484664748e-05
1.03489179054e-05
1.02690603095e-05
1.02233181792e-05
1.02004250872e-05
1.01907028816e-05
1.01880777151e-05
1.01886149619e-05
1.01900782494e-05
1.01912587094e-05
1.01915880864e-05
1.01909635614e-05
1.0189815496e-05
1.01894187738e-05
1.01922225476e-05
1.02020477419e-05
1.02248244138e-05
1.02702858014e-05
1.03500208313e-05
1.04853061815e-05
1.04808472979e-05
1.03256559479e-05
1.02233837525e-05
1.01594055538e-05
1.01242639429e-05
1.01082302861e-05
1.01027552938e-05
1.01018854189e-05
1.01029051694e-05
1.01043344934e-05
1.01048753378e-05
1.01042615778e-05
1.01028965095e-05
1.01030679277e-05
1.01091668215e-05
1.01259063596e-05
1.01610396407e-05
1.02246682362e-05
1.0326789988e-05
1.04816762283e-05
1.04767253726e-05
1.03151186164e-05
1.02004738155e-05
1.01242965803e-05
1.00831657662e-05
1.00652238861e-05
1.00588332152e-05
1.00566035373e-05
1.00571049442e-05
1.00591732437e-05
1.00600657622e-05
1.00590873653e-05
1.00559276088e-05
1.00544040064e-05
1.00616014686e-05
1.00829051865e-05
1.01258203301e-05
1.02018274833e-05
1.03163127682e-05
1.04776401462e-05
1.04742534269e-05
1.0311574836e-05
1.01906481189e-05
1.01085175946e-05
1.00665075275e-05
1.0048928956e-05
1.00419616273e-05
1.00384038565e-05
1.00388649494e-05
1.0042062181e-05
1.00433907587e-05
1.00416422255e-05
1.00352953986e-05
1.00298304023e-05
1.00361620197e-05
1.00604961292e-05
1.01089080979e-05
1.01920776928e-05
1.03128732294e-05
1.04753586662e-05
1.04737220309e-05
1.03115257756e-05
1.01879728154e-05
1.01040060926e-05
1.00632447243e-05
1.00471845522e-05
1.00410557129e-05
1.00378757054e-05
1.00393473621e-05
1.00439862505e-05
1.00456942883e-05
1.00427633447e-05
1.00325297429e-05
1.00215653526e-05
1.00249953765e-05
1.00504744772e-05
1.01020881619e-05
1.01894042127e-05
1.03129572082e-05
1.04749530055e-05
1.04734454256e-05
1.03128527843e-05
1.01884841304e-05
1.01045211003e-05
1.00651045742e-05
1.00512027039e-05
1.00472283408e-05
1.00461478727e-05
1.00495520876e-05
1.00555779782e-05
1.00575318234e-05
1.00534388344e-05
1.00398562429e-05
1.00241236103e-05
1.00237042013e-05
1.00484305978e-05
1.01008921917e-05
1.01899474401e-05
1.03144373581e-05
1.04747474097e-05
1.04729660601e-05
1.03143647903e-05
1.01897101996e-05
1.01058821148e-05
1.00674096275e-05
1.00552997857e-05
1.00536630709e-05
1.00551741513e-05
1.0060963276e-05
1.00687249337e-05
1.00705528413e-05
1.00648064754e-05
1.0048954332e-05
1.00302858356e-05
1.00271305799e-05
1.00502541426e-05
1.01021402269e-05
1.01914081158e-05
1.0316105475e-05
1.04743045898e-05
1.04724886739e-05
1.0315305388e-05
1.01905397514e-05
1.01067418209e-05
1.00686707011e-05
1.00574738573e-05
1.005717781e-05
1.00602582176e-05
1.00677214324e-05
1.00766934899e-05
1.00784186917e-05
1.00715472475e-05
1.00542304168e-05
1.00343405129e-05
1.0029921335e-05
1.00520739997e-05
1.01033743805e-05
1.01924413405e-05
1.03171738889e-05
1.04738263881e-05
1.04724793762e-05
1.03153181028e-05
1.01905496454e-05
1.0106729353e-05
1.00686175873e-05
1.00573694607e-05
1.00570332543e-05
1.00601013912e-05
1.00675808134e-05
1.00765785647e-05
1.00782785723e-05
1.0071382797e-05
1.00540533522e-05
1.00341817939e-05
1.00298047211e-05
1.00520025281e-05
1.01033410738e-05
1.01924359964e-05
1.03171883554e-05
1.04738223788e-05
1.04729561761e-05
1.03144198242e-05
1.01897515313e-05
1.01058665388e-05
1.00673148816e-05
1.00551075405e-05
1.00533931789e-05
1.00548865728e-05
1.00606750353e-05
1.00684316102e-05
1.00702488962e-05
1.00644864453e-05
1.00486040163e-05
1.00299740034e-05
1.00269005253e-05
1.00501069085e-05
1.01020640403e-05
1.01913995364e-05
1.0316147432e-05
1.04743032237e-05
1.04734570193e-05
1.03129598684e-05
1.01885869186e-05
1.010463084e-05
1.00653610673e-05
1.00516722407e-05
1.00479433688e-05
1.00470470194e-05
1.00505377764e-05
1.00565572997e-05
1.0058456551e-05
1.00543260538e-05
1.00407567413e-05
1.00249615972e-05
1.00242778958e-05
1.00486550836e-05
1.01009104007e-05
1.01899656049e-05
1.03145096548e-05
1.04747678802e-05
1.04737601721e-05
1.03116914744e-05
1.01881539977e-05
1.01042807438e-05
1.00639940147e-05
1.00486867866e-05
1.00433400196e-05
1.00407052231e-05
1.00423148284e-05
1.00468707517e-05
1.00485462002e-05
1.00456410457e-05
1.00354492432e-05
1.00241993322e-05
1.00267235253e-05
1.00512022848e-05
1.01022485903e-05
1.01894731269e-05
1.03130686323e-05
1.0475004024e-05
1.04742875878e-05
1.03117993587e-05
1.01908879853e-05
1.01087829685e-05
1.00672466046e-05
1.00506107736e-05
1.00446523492e-05
1.00417895927e-05
1.00424106163e-05
1.00455079343e-05
1.00467949409e-05
1.00450815384e-05
1.00387277998e-05
1.00327291313e-05
1.00379180866e-05
1.00611442535e-05
1.01090493028e-05
1.01922002906e-05
1.03130375058e-05
1.04754159363e-05
1.04766677925e-05
1.03153852987e-05
1.0200773082e-05
1.0124501809e-05
1.00835322876e-05
1.00661895815e-05
1.00605220548e-05
1.00587489766e-05
1.00593282508e-05
1.00613038323e-05
1.00621631759e-05
1.00612204822e-05
1.00580190537e-05
1.0056066905e-05
1.00624803853e-05
1.00831538012e-05
1.01259204381e-05
1.02020258371e-05
1.03165337178e-05
1.04776082482e-05
1.04807660424e-05
1.03259350302e-05
1.02237185393e-05
1.01595890262e-05
1.01243461356e-05
1.01083698316e-05
1.01031300652e-05
1.01024448656e-05
1.01034624001e-05
1.01048290147e-05
1.01053485217e-05
1.0104761471e-05
1.0103375829e-05
1.01033533226e-05
1.01092105795e-05
1.01258973962e-05
1.01611382986e-05
1.02249397212e-05
1.03270482361e-05
1.04816053088e-05
1.04846767637e-05
1.03491724425e-05
1.02693871795e-05
1.02235241467e-05
1.02004785553e-05
1.01906233551e-05
1.01879412199e-05
1.01884449121e-05
1.01898551598e-05
1.019099485e-05
1.01913133285e-05
1.01907066667e-05
1.01895883804e-05
1.01892105713e-05
1.01920648219e-05
1.02020266744e-05
1.02249777195e-05
1.02705754536e-05
1.03502766352e-05
1.04853216911e-05
1.04908108281e-05
1.03934113623e-05
1.03493292137e-05
1.03260207644e-05
1.03154450458e-05
1.03119204341e-05
1.03119242868e-05
1.03133349343e-05
1.03149921097e-05
1.03161130297e-05
1.03162773716e-05
1.03154363221e-05
1.03139765136e-05
1.03126827835e-05
1.03127603204e-05
1.03163289339e-05
1.03268738981e-05
1.03501048165e-05
1.03941410624e-05
1.04910886186e-05
1.05127550316e-05
1.04909023418e-05
1.04850204375e-05
1.04815702873e-05
1.04774381311e-05
1.04747762438e-05
1.0474291536e-05
1.04741436163e-05
1.04737569797e-05
1.04732703856e-05
1.0473171094e-05
1.04735995068e-05
1.0474142032e-05
1.04745034223e-05
1.04749937661e-05
1.04770602391e-05
1.04810499058e-05
1.048506053e-05
1.0491016289e-05
1.05127855449e-05
1.0485784081e-05
1.04834848382e-05
1.04813706321e-05
1.04760426843e-05
1.04722197713e-05
1.04693016192e-05
1.04661999608e-05
1.04631231569e-05
1.0460417958e-05
1.0458475746e-05
1.04577190033e-05
1.04590192627e-05
1.04619221257e-05
1.04652337988e-05
1.04686466644e-05
1.04718672052e-05
1.04756453827e-05
1.04808867355e-05
1.04836933885e-05
1.04862089067e-05
1.04830077092e-05
1.03800758709e-05
1.03260413328e-05
1.02974906875e-05
1.02839423596e-05
1.0278608859e-05
1.02774483651e-05
1.02779329302e-05
1.0278681397e-05