/*--------------------------------*- C++ -*----------------------------------*\
| =========                 |                                                 |
| \\      /  F ield         | OpenFOAM: The Open Source CFD Toolbox           |
|  \\    /   O peration     | Version:  3.0.1                                 |
|   \\  /    A nd           | Web:      www.OpenFOAM.org                      |
|    \\/     M anipulation  |                                                 |
\*---------------------------------------------------------------------------*/
FoamFile
{
    version     2.0;
    format      ascii;
    class       volVectorField;
    location    "7.4";
    object      U_0;
}
// * * * * * * * * * * * * * * * * * * * * * * * * * * * * * * * * * * * * * //

dimensions      [0 1 -1 0 0 0 0];

internalField   nonuniform List<vector> 
7968
(
(0.000740390704826 0.000688125083545 -0.00120017904066)
(0.00285618359007 0.000133112990773 -0.00137221425426)
(0.00577117572542 -0.000101229048045 -0.00128772800361)
(0.00810254961967 -8.26209028855e-05 -0.000974840927278)
(0.00963131056244 0.000190054565653 -0.000632792195554)
(0.0097804489267 0.000650930102098 -0.000321307236107)
(0.00901728515981 0.000996979090392 -0.000154499240924)
(0.00729545955798 0.0013901185634 -2.00527877354e-05)
(0.0048598447523 0.00168969883679 3.86971414453e-05)
(0.00205059447278 0.00184550484181 5.2063443555e-05)
(-0.000883116616802 0.00185194672391 5.54149492557e-05)
(-0.00372374745457 0.0017077626665 4.94717307686e-05)
(-0.00622368048769 0.001416469058 9.77218027182e-07)
(-0.0080414590114 0.00102692246948 -0.000121103137367)
(-0.00891282491611 0.000667866609845 -0.000285217895242)
(-0.00889756969132 0.00022626261653 -0.000577208686934)
(-0.00753029340935 -5.28283338028e-05 -0.000918469722561)
(-0.0053665184124 -6.89420942352e-05 -0.00122871108385)
(-0.00262101753127 0.000164907240862 -0.00131483229755)
(-0.000659973602642 0.000715242565349 -0.00114553541123)
(0.000187192521584 0.00270566615945 -0.00137007009009)
(0.00255399446619 0.00240218930381 -0.00358855331022)
(0.00604828213592 0.00257613559826 -0.00428813093707)
(0.00870945707252 0.00321090922083 -0.00420598194044)
(0.0102694175708 0.00422249603819 -0.00388817638502)
(0.0104568359258 0.00535334831086 -0.00352986798892)
(0.00951929451053 0.00630116680908 -0.00324811172344)
(0.0076259753881 0.00711442662952 -0.00303555606012)
(0.00504778291015 0.00769985769459 -0.0029207010695)
(0.00212058823287 0.00800484703309 -0.00288187955537)
(-0.000920765984036 0.00801604309674 -0.00287500356923)
(-0.00388210471902 0.00773058580776 -0.00289935749456)
(-0.00652833561043 0.00715777666587 -0.00299904268567)
(-0.00851948959781 0.00634930727776 -0.00319882602823)
(-0.00956775724191 0.00540489182241 -0.00347246861725)
(-0.00952051873419 0.00429286517552 -0.00381970563172)
(-0.00812163481052 0.00328969473572 -0.00413410276354)
(-0.00563681951929 0.00266188068838 -0.00421784623398)
(-0.00231562953764 0.00248621869024 -0.00352653633071)
(-0.000103181094954 0.00277779888238 -0.00131613083574)
(-4.45104357421e-05 0.00552612963854 -0.00129530933488)
(0.0027309012651 0.00579893879543 -0.00429087924734)
(0.00673760986253 0.00648623689256 -0.00503188560557)
(0.00971065434206 0.0077140431691 -0.00472593771683)
(0.0113483658856 0.00933747019946 -0.0041333058557)
(0.0114747348731 0.011046178012 -0.00355169373215)
(0.0103279506618 0.0125229449213 -0.0031197315635)
(0.00818565774355 0.0137362307683 -0.00284814762883)
(0.00537344182126 0.0146039559783 -0.00272236312818)
(0.00223499672553 0.0150532154126 -0.00268400756761)
(-0.00101033913824 0.0150720881926 -0.0026760704132)
(-0.004189450776 0.014655451372 -0.00269862185886)
(-0.00707788283332 0.0138062614746 -0.00280970130181)
(-0.00932020212645 0.0125979103229 -0.00306925415478)
(-0.0105784369373 0.0111267742684 -0.00348975397838)
(-0.0105882433984 0.00943811358386 -0.0040573346596)
(-0.00911109345296 0.00782690510215 -0.00464085046793)
(-0.00631739802351 0.0066087734515 -0.00494657561093)
(-0.00248793486246 0.00592198090956 -0.00421742282887)
(0.000129886456613 0.00563495632319 -0.00123578988131)
(-2.65186234034e-05 0.00777466755375 -0.00098570889321)
(0.0033642758344 0.00837152278843 -0.00421628850963)
(0.00796532995174 0.00936953215561 -0.00473444000282)
(0.0113100999311 0.0109686188561 -0.00404466139104)
(0.0130428579995 0.0129661402017 -0.00304445756864)
(0.013034942766 0.0150162157333 -0.00212242936792)
(0.0115939954412 0.0168092781459 -0.00145178183665)
(0.00908262329753 0.0182748905266 -0.00105900020571)
(0.00590032320994 0.0193179498018 -0.000890317581987)
(0.00241689490796 0.0198643476045 -0.000847603541778)
(-0.00116070477877 0.0198899793713 -0.000836665113376)
(-0.00469581534936 0.0193868851915 -0.000859372078181)
(-0.00796806126792 0.0183659357111 -0.00101180759982)
(-0.01058450181 0.0169017788322 -0.00139461305715)
(-0.0121337672074 0.015109628188 -0.002052520392)
(-0.0122697429245 0.0130774479918 -0.00295610475817)
(-0.0106957390445 0.0110955091485 -0.00394294925994)
(-0.00753256273718 0.0095091947428 -0.00463032646172)
(-0.00311332102489 0.00851453260692 -0.00412631483572)
(0.000115478141771 0.00790300334698 -0.000915795109761)
(0.000249261013779 0.00923074372815 -0.000647400157377)
(0.00437414152151 0.00985824410421 -0.00390450546666)
(0.00958778009727 0.0109344724661 -0.00415230658169)
(0.0133065377966 0.0126298103762 -0.00305596122214)
(0.0151419209551 0.0147312517944 -0.00160635458178)
(0.0149742781307 0.0168824641438 -0.000290331089006)
(0.0132048365726 0.0187547989214 0.000716379786795)
(0.0102697042577 0.0202918830066 0.00137171592378)
(0.00662631568575 0.021394597651 0.00170657928922)
(0.00267519642628 0.0219812922657 0.00182901460071)
(-0.00137496728005 0.022013991777 0.00184673193512)
(-0.00539536857934 0.0214805308906 0.00175433459167)
(-0.00915094552416 0.0204004704618 0.00143466932675)
(-0.012201959079 0.01885625633 0.000782929580873)
(-0.014074650236 0.0169747082409 -0.000216981094117)
(-0.0143596910919 0.0148367432948 -0.00151083530647)
(-0.0126777074339 0.0127496804849 -0.00293897709884)
(-0.00914230776207 0.0110691629261 -0.00402963768327)
(-0.00411609142382 0.00999867398814 -0.0037955062184)
(-0.000158229812225 0.00935863439031 -0.000565012987538)
(0.000704708668465 0.00932712077164 -0.000346728740561)
(0.00550014001225 0.00998984407075 -0.00355692071793)
(0.0112934441599 0.011005433119 -0.00358188680782)
(0.0153543969841 0.0125674903988 -0.00214301429686)
(0.017290544155 0.014511090243 -0.000296559750915)
(0.0169033463474 0.0164451676314 0.00140422830835)
(0.0148027762919 0.0181410408292 0.00267352175448)
(0.0114396639801 0.0195490178202 0.00350945910935)
(0.00733509890192 0.0205724989383 0.00394014433348)
(0.00292806401256 0.0211290499032 0.00409806997998)
(-0.00157928389749 0.0211672276843 0.00412576676226)
(-0.00607960467598 0.020673364303 0.00401125673899)
(-0.0103273134263 0.0196748370299 0.00359029071232)
(-0.0138193569316 0.0182531938019 0.00273958624472)
(-0.0160140881641 0.0165361796925 0.00146603791689)
(-0.0164996970411 0.0146040677648 -0.000207343395851)
(-0.0147116896298 0.0126708007619 -0.00202372737771)
(-0.0108338271949 0.0111194579328 -0.00344947270475)
(-0.00523372423577 0.0101072968076 -0.00343770624357)
(-0.000608290272244 0.0094338067455 -0.000258420822213)
(0.00105474659375 0.00852504292275 -0.000183325219626)
(0.00644750792928 0.00901251576741 -0.0032827041316)
(0.0127704729258 0.00981595164749 -0.00315739512468)
(0.0171486574633 0.0110796942215 -0.00147668581148)
(0.0191640653712 0.0126910008041 0.000711244202387)
(0.0185990225078 0.0142921532675 0.00267966357946)
(0.01622332934 0.0157104415471 0.00414101427622)
(0.0124863198656 0.0169175960855 0.00512651966474)
(0.00797363859573 0.0178195067473 0.00564943816081)
(0.00315993945275 0.0183005380306 0.00586179638317)
(-0.00175571085246 0.0183383912703 0.00589987208697)
(-0.00668729675123 0.0179242602189 0.00574371814966)
(-0.0113775646464 0.017053507064 0.00522190416968)
(-0.0152609228155 0.0158326356223 0.00420600110313)
(-0.0177277442813 0.0143891906345 0.00273092687971)
(-0.0183746535658 0.0127805377533 0.00079140362559)
(-0.0164989824188 0.0111712789496 -0.00136166013028)
(-0.0123022852894 0.00991033156941 -0.00302190183082)
(-0.00617673191417 0.00910718004019 -0.00315853247262)
(-0.000959868968019 0.0086115569048 -9.34408396708e-05)
(0.0014440862856 0.00677411732815 -5.46106730094e-05)
(0.00725594849875 0.00708893978845 -0.00307865437023)
(0.0139780669778 0.00763869202808 -0.00289376987524)
(0.0186083375832 0.00852442580565 -0.00109066356366)
(0.0206965311808 0.00970166017868 0.00136321808067)
(0.0200023161274 0.0108656021209 0.00351970278675)
(0.0174289020426 0.0119009729076 0.00513523995176)
(0.0133945458473 0.0128023497822 0.00628545699511)
(0.00849748783678 0.0134272672848 0.00696456756129)
(0.00334957578708 0.0138676377943 0.00692675652264)
(-0.00190283982703 0.0139092353604 0.00694395281131)
(-0.00718131462553 0.0135292750057 0.00704337626138)
(-0.0122764917158 0.0129238302691 0.00640455851352)
(-0.0164818578285 0.0120207749019 0.00520708474112)
(-0.0191493098476 0.0109632812217 0.00357092393085)
(-0.0199162539899 0.0097879247061 0.00144127600408)
(-0.0179625979604 0.00860611280126 -0.000973781932508)
(-0.0135126083299 0.00771360075246 -0.00275695921879)
(-0.00698760279973 0.00715928293618 -0.00295344002665)
(-0.00135197648851 0.00683833955836 3.25623215811e-05)
(0.00173696312554 0.0043264511221 -1.41614942517e-07)
(0.00783059079926 0.00449778209449 -0.00297199659525)
(0.0148301796238 0.00480800912843 -0.00277773838134)
(0.0196320572296 0.00531516572084 -0.000935028006333)
(0.0217796722296 0.0060182105168 0.0016821369447)
(0.0210048882554 0.00670614947246 0.0039352810869)
(0.0183133903957 0.00731932030448 0.00564346358268)
(0.0140116674212 0.00782561358253 0.00695194939667)
(0.00894501887265 0.00827353785998 0.00703593647567)
(0.00349002156795 0.00853041628526 0.00706165450535)
(-0.00201985576913 0.00855650466574 0.00709294528375)
(-0.0076124525126 0.00834219800562 0.00710280542944)
(-0.0128975788065 0.00791889610927 0.00702720585476)
(-0.0173654703593 0.0074077773776 0.00573670887561)
(-0.0201637529555 0.00678281503845 0.00400129086842)
(-0.0210098989292 0.00608629534745 0.00177099388253)
(-0.0189964573271 0.00537646291291 -0.000810839587652)
(-0.0143733381657 0.00486095705422 -0.00263918397374)
(-0.00756824699379 0.00454536920944 -0.00284839570478)
(-0.00164909977008 0.00437044035113 8.390325704e-05)
(0.00188512546851 0.0015230984475 1.0279202032e-05)
(0.00812187983438 0.00157689920826 -0.00293984350836)
(0.0152584750307 0.00167411925239 -0.00274910285468)
(0.0201506523214 0.00183351070909 -0.000908285433021)
(0.022333655406 0.00206222916974 0.00178182179271)
(0.0215253916859 0.00228452589601 0.00406240392863)
(0.0187629985119 0.00248217819506 0.00581748452826)
(0.0144159122201 0.00264602347112 0.00691057303732)
(0.00918832392733 0.00277838823015 0.00703576176651)
(0.00358034613017 0.00286531932003 0.0071357974743)
(-0.00209321038724 0.00287439661965 0.00717146318662)
(-0.00784181248815 0.002800873555 0.00711669881718)
(-0.0133040352174 0.00268020891236 0.00694864965542)
(-0.0178074567912 0.00251433597482 0.00592600879399)
(-0.0206885948453 0.00231444282915 0.00414218481402)
(-0.0215699121836 0.00209064508268 0.00188131063989)
(-0.0195207054622 0.00186080297772 -0.000775503336414)
(-0.014806241882 0.0017001841072 -0.00260816259335)
(-0.00786344172011 0.00160227953585 -0.00281693664459)
(-0.00179991098099 0.00154776088427 9.3053636895e-05)
(0.00188479552645 -0.00138927039482 1.084406431e-05)
(0.00812017856133 -0.0014410361954 -0.00293886234707)
(0.0152566108773 -0.00154460887165 -0.00274942414558)
(0.0201487994327 -0.00171325437689 -0.000909829605947)
(0.022331853286 -0.00195129545746 0.00177952209483)
(0.0215232750725 -0.00218248382208 0.00405886897355)
(0.018760705509 -0.00238917030956 0.00581301490807)
(0.014413853402 -0.00256191304364 0.00690474268643)
(0.00918689762859 -0.00270172589641 0.00703019939251)
(0.00357959601182 -0.00279368975034 0.00713080540574)
(-0.00209366352383 -0.0028037149897 0.00716652438552)
(-0.00784128022253 -0.00272724298386 0.00711099823748)
(-0.0133018772685 -0.0025988806964 0.00694178342991)
(-0.017803922467 -0.00242248838804 0.00592050825074)
(-0.0206845115668 -0.00221003895663 0.00413788601072)
(-0.0215654844032 -0.00197178876879 0.00187870422443)
(-0.0195160514766 -0.00172493016656 -0.000776203850076)
(-0.0148020054976 -0.00154878369067 -0.00260697353443)
(-0.00786038337669 -0.00143934714761 -0.00281412387998)
(-0.00179932557124 -0.0013852431849 9.43293603775e-05)
(0.00173623541999 -0.00419391508538 2.19003156408e-06)
(0.00782604125527 -0.00436278206354 -0.00296821111884)
(0.0148254192901 -0.00467736045071 -0.00277764423792)
(0.0196274652489 -0.0051907803642 -0.000938359315926)
(0.0217753580493 -0.00589983033281 0.00167676574761)
(0.0209995921743 -0.00659288432164 0.00392682692835)
(0.0183076807401 -0.00721123852678 0.00563265625228)
(0.0140059415977 -0.0077232141858 0.00693825205928)
(0.00894094119767 -0.00817685791471 0.00701969935407)
(0.0034876676403 -0.00843761339904 0.00704616984435)
(-0.0020210024357 -0.00846455216448 0.0070774943148)
(-0.00761076683305 -0.00824794755732 0.00708488408066)
(-0.012891822696 -0.00781796340359 0.00700805889535)
(-0.0173561897537 -0.00729907625046 0.00572321121449)
(-0.0201529667903 -0.0066657821861 0.00399074428996)
(-0.020998358977 -0.00595938723377 0.00176466870204)
(-0.0189843279757 -0.00523744740122 -0.00081244806198)
(-0.014362292071 -0.00471052931898 -0.00263575511575)
(-0.0075600874784 -0.00438608298781 -0.00284051917839)
(-0.00164767382756 -0.00421148761945 8.79594897989e-05)
(0.00144360897764 -0.00664746820006 -4.97251355372e-05)
(0.00725047446435 -0.00695875092233 -0.00307181529534)
(0.0139733175356 -0.00750935099029 -0.00289188114489)
(0.0186042185681 -0.00839621711803 -0.00109314870883)
(0.0206933332116 -0.00957376849926 0.00135899823973)
(0.0199976995398 -0.0107366357633 0.00351288288931)
(0.0174235315362 -0.0117711553987 0.00512661343816)
(0.0133880606456 -0.0126725461238 0.00627674397679)
(0.00849166833015 -0.01329999514 0.00695031823667)
(0.00334636856987 -0.0137436439552 0.00690285283652)
(-0.00190399958944 -0.0137849535863 0.00691923694081)
(-0.00717959665064 -0.0134047280516 0.00701567230828)
(-0.0122678603919 -0.0127913094242 0.00639170507798)
(-0.0164711251695 -0.0118868877358 0.0051944977117)
(-0.0191364026343 -0.0108279346981 0.00356121737126)
(-0.0199024661918 -0.0096501457844 0.00143553246549)
(-0.0179476083285 -0.00846390833109 -0.000974566384305)
(-0.0134989321353 -0.00756647847265 -0.00275140137427)
(-0.00697695555354 -0.00700794935935 -0.00294170711914)
(-0.00135056220241 -0.00668824910071 3.98736025695e-05)
(0.00105489338196 -0.00841040724939 -0.000175804877884)
(0.00644346671277 -0.00889296203288 -0.00327389916651)
(0.0127688789238 -0.00969364663259 -0.00315320836942)
(0.0171492262097 -0.0109535097597 -0.00147564989667)
(0.0191668212096 -0.0125601193742 0.00071220460919)
(0.01860012031 -0.0141550991782 0.00268081728711)
(0.0162222941207 -0.0155674135362 0.00414177920394)
(0.012483349445 -0.0167707391537 0.00512707967949)
(0.00796980481487 -0.0176703024725 0.00564923564959)
(0.00315735706598 -0.0181492391704 0.00585982182286)
(-0.00175472744384 -0.0181855610184 0.00589677863452)
(-0.00668311780359 -0.0177706362893 0.00574069414654)
(-0.0113713801603 -0.0168999533288 0.0052186490714)
(-0.015253121186 -0.0156811204528 0.00420284937731)
(-0.0177188887656 -0.0142421235764 0.00272851005599)
(-0.0183647512434 -0.0126374219424 0.000790532549514)
(-0.0164866839331 -0.0110306866793 -0.00135937756285)
(-0.0122901172913 -0.0097715347573 -0.00301393501422)
(-0.00616672991876 -0.00896934700836 -0.00314432488782)
(-0.000959105932072 -0.00847673007026 -8.32041043534e-05)
(0.000702363637793 -0.00922632415159 -0.000339335315821)
(0.00550025573357 -0.00988428245223 -0.00354754772536)
(0.0112991727813 -0.0108952971166 -0.00357549420524)
(0.015363919004 -0.012450538637 -0.00213764907758)
(0.0173031813875 -0.0143867107898 -0.000288995687465)
(0.016914190313 -0.0163127738664 0.00141456187924)
(0.0148099917957 -0.0180001619056 0.00268507755317)
(0.0114427549681 -0.0194017201218 0.00352105265952)
(0.00733554948604 -0.0204210860625 0.0039501022686)
(0.00292829455875 -0.0209749113786 0.00410613934076)
(-0.00157726840362 -0.0210110475413 0.00413294825592)
(-0.00607608038423 -0.020516069211 0.00401950310162)
(-0.0103244283233 -0.0195177517624 0.00359991666596)
(-0.0138183541315 -0.0181000450813 0.0027484099907)
(-0.0160138136232 -0.016389850167 0.00147336826872)
(-0.0164987834854 -0.0144647020465 -0.000200827442838)
(-0.0147079528771 -0.0125383379886 -0.00201664849998)
(-0.0108289381974 -0.0109934949734 -0.0034388533071)
(-0.00522811388448 -0.00998565598031 -0.00342282433893)
(-0.000604753615221 -0.00931555542068 -0.000248999075215)
(0.000253307406774 -0.00915038100417 -0.000637178148303)
(0.00438255407638 -0.00977425294581 -0.00389511007557)
(0.00960400570422 -0.010843681657 -0.00414423000297)
(0.0133275160191 -0.0125301047435 -0.00304678796177)
(0.0151656296306 -0.0146232164492 -0.00159342131503)
(0.0149963969108 -0.0167663559445 -0.000272863738501)
(0.0132230912649 -0.0186299659822 0.000737077184644)
(0.0102825036767 -0.0201595487039 0.0013943788062)
(0.00663422019087 -0.0212559971677 0.00172938958666)
(0.0026799818132 -0.0218387371105 0.00185110400547)
(-0.00137173707597 -0.0218689541761 0.00186841289178)
(-0.00539385485175 -0.0213351313128 0.00177662533175)
(-0.00915330183205 -0.0202565163314 0.00145710047344)
(-0.0122090724861 -0.0187164359258 0.000803123440575)
(-0.0140842809085 -0.0168418276989 -0.000199596885604)
(-0.0143701131775 -0.0147119699976 -0.00149669828489)
(-0.0126865502878 -0.0126340235025 -0.00292653428935)
(-0.00914962644498 -0.010963663173 -0.00401664839656)
(-0.00412061278284 -0.00990096552666 -0.0037808977246)
(-0.000163049194855 -0.00926405148605 -0.000552646178568)
(-2.34846145276e-05 -0.00771748177633 -0.000976596629989)
(0.00337737892862 -0.00830980400257 -0.00420969565931)
(0.00798861400178 -0.00930087429684 -0.00472677541341)
(0.0113390392735 -0.0108910412226 -0.0040337555468)
(0.0130736989478 -0.01288037968 -0.0030286498064)
(0.013063170615 -0.0149234566444 -0.00210258885889)
(0.011617613848 -0.0167100157728 -0.00142984038877)
(0.00910116443985 -0.0181706326866 -0.00103638347245)
(0.00591329850548 -0.0192092234282 -0.000868311825423)
(0.00242571631001 -0.0197516287166 -0.000824627942442)
(-0.00115424185773 -0.0197745860354 -0.000813115167693)
(-0.00469255234769 -0.0192706262909 -0.00083470111742)
(-0.00797040940569 -0.0182501968348 -0.000986364375083)
(-0.0105937515658 -0.0167881060892 -0.00136967887875)
(-0.0121483661028 -0.0150009917425 -0.00202939486837)
(-0.0122878447988 -0.0129762343895 -0.00293568125601)
(-0.010714206969 -0.0110038285175 -0.00392655836118)
(-0.00754894433095 -0.00942832161655 -0.00461683448433)
(-0.00312446496541 -0.00844207627331 -0.00411447366541)
(0.00011100434991 -0.00783571704573 -0.000906281769791)
(-4.06158854084e-05 -0.00549055222242 -0.00128646054451)
(0.00274694222151 -0.00575966331194 -0.00428697244718)
(0.00676586941644 -0.00644100562654 -0.00502615361966)
(0.00974563498785 -0.0076610059837 -0.00471512235912)
(0.0113851972529 -0.00927676918907 -0.00411643094746)
(0.0115078955495 -0.0109786270865 -0.00353068388839)
(0.0103564529023 -0.0124487587224 -0.00309680735516)
(0.00820890396285 -0.0136570492126 -0.00282450393874)
(0.00539141503573 -0.0145207063781 -0.0026981145239)
(0.00224829545841 -0.0149659792857 -0.00265892414009)
(-0.00100139912264 -0.0149825849872 -0.00265008413858)
(-0.00418562255564 -0.0145654907472 -0.00267167041736)
(-0.00708103580589 -0.0137178344056 -0.00278183671925)
(-0.00933138096201 -0.0125125307509 -0.00304141842645)
(-0.0105965006054 -0.0110471053773 -0.00346315978103)
(-0.0106127183047 -0.00936621810833 -0.00403383291846)
(-0.0091371446319 -0.00776393367203 -0.0046236451669)
(-0.00634059407241 -0.0065551900362 -0.00493491049396)
(-0.0025038773844 -0.00587573489591 -0.00420888129603)
(0.000123485347567 -0.00559231653468 -0.00122846656572)
(0.000191131764512 -0.00268893012739 -0.00136526443894)
(0.00256942844464 -0.00238320105487 -0.00358710514866)
(0.00607653682038 -0.00255324806373 -0.00428582686786)
(0.00874604505925 -0.00318315643749 -0.00419920107485)
(0.0103091490904 -0.00418983035777 -0.0038732781459)
(0.0104920604136 -0.00531615986181 -0.00351015164929)
(0.00954971903236 -0.00625921131843 -0.00322661828174)
(0.00765128033361 -0.00706899190425 -0.00301328666968)
(0.00506838016282 -0.00765158176064 -0.00289722283967)
(0.00213677832678 -0.00795432215704 -0.00285718153246)
(-0.000909235283715 -0.00796415987483 -0.00284913754048)
(-0.00387622658651 -0.00767836510685 -0.00287265837072)
(-0.00653013922113 -0.00710649657593 -0.0029717963105)
(-0.00853036519361 -0.0063003568972 -0.00317192155359)
(-0.00958678844968 -0.00536021107954 -0.00344714992088)
(-0.00954793919948 -0.00425384116513 -0.00379889181549)
(-0.00815001833784 -0.00325630861532 -0.00412196622545)
(-0.00566114106773 -0.00263396697175 -0.00421057959556)
(-0.00233189556031 -0.00246205157748 -0.00352276137277)
(-0.000109580125194 -0.00275430570163 -0.00131323710144)
(0.000740120191049 -0.000682581332772 -0.00119631257462)
(0.00286402599416 -0.000126796443399 -0.00137233851588)
(0.00579126857481 0.000108653595362 -0.00128732774292)
(0.00813042128935 9.13922527995e-05 -0.000972370927474)
(0.00966356820019 -0.000179909949252 -0.000626601839609)
(0.00980947198038 -0.000639104383558 -0.000311996688298)
(0.0090437886421 -0.000983576781182 -0.000144711307688)
(0.00731893283886 -0.00137559026919 -9.9723986272e-06)
(0.00488004913496 -0.0016746761623 4.90624674128e-05)
(0.0020675239689 -0.00183014375661 6.26272598528e-05)
(-0.000869655859436 -0.00183622162816 6.65610809038e-05)
(-0.00371463644315 -0.00169159268149 6.15221381462e-05)
(-0.00622073081234 -0.00140014167352 1.41310561195e-05)
(-0.00804573909276 -0.00101128925573 -0.000107439365422)
(-0.00892340264589 -0.000653010819543 -0.000272339706746)
(-0.00891566545934 -0.000214691975814 -0.000566636841551)
(-0.00754871978695 6.33371546328e-05 -0.000912698599068)
(-0.00538060858656 7.8127913617e-05 -0.00122533216409)
(-0.00262678176126 -0.000155742112364 -0.00131126297401)
(-0.000660155929873 -0.000705167324034 -0.00113700869741)
(0.00155787751042 0.00150616958237 -0.00572024614636)
(0.00452636216664 0.00215388433316 -0.00646193947618)
(0.00738476063839 0.00272429706097 -0.00648475052872)
(0.00947986774912 0.00337502965317 -0.00605013450553)
(0.0106384196377 0.00408792369004 -0.00545685354898)
(0.0105642778061 0.00474042833488 -0.00490024962642)
(0.00955530137277 0.00522077632623 -0.00447393065738)
(0.00763983336272 0.00562729712616 -0.0041527814218)
(0.0050574042921 0.00591362461335 -0.00400168759247)
(0.00212626805758 0.00606148931764 -0.00396575642318)
(-0.000920405252319 0.00606743550736 -0.00395396129564)
(-0.00388419241015 0.00592961110512 -0.00396406714902)
(-0.0065325139156 0.00564932542532 -0.00408375645371)
(-0.00854585952774 0.00524454526235 -0.00437242741564)
(-0.00966882166466 0.00475970922891 -0.00477643708501)
(-0.00987827212936 0.00412799907922 -0.00530331275146)
(-0.00888866865974 0.00341770984706 -0.00588533985665)
(-0.00696885767486 0.00277182501548 -0.00631471149084)
(-0.00429081824406 0.00219817120351 -0.00629452876361)
(-0.00148396651728 0.00153628137736 -0.00556179980328)
(0.00221577929316 0.00437578002212 -0.00646374309736)
(0.00527001147743 0.00509829687126 -0.00870251196698)
(0.00784394285905 0.00595180246478 -0.00902464121633)
(0.00962096912672 0.00707781453971 -0.0084959146128)
(0.0104715636702 0.00834417471875 -0.0076844051949)
(0.010308516925 0.00957651970959 -0.00686226834282)
(0.00921411638326 0.010622383174 -0.00619024665057)
(0.00732149627078 0.0114718727093 -0.00570744896207)
(0.00485376502268 0.0120747275038 -0.0054343917058)
(0.00206449752431 0.0123900196301 -0.0053263998695)
(-0.000838309279011 0.0124062981135 -0.00531090259375)
(-0.00366462248044 0.0121189266711 -0.00538680062527)
(-0.00620180521935 0.0115322432846 -0.00562705522776)
(-0.00818970902068 0.0106865191586 -0.00607944750354)
(-0.00939721105172 0.00964366462625 -0.00672384436457)
(-0.00969360473486 0.008425857863 -0.00751764066631)
(-0.00899772382772 0.00717273019466 -0.00831010568721)
(-0.00739209495811 0.00605699821892 -0.00883089972622)
(-0.00499432352179 0.00520209918956 -0.00851281086076)
(-0.0021204608426 0.00445658934135 -0.00628658228468)
(0.00279101957437 0.00712972281728 -0.00650521199222)
(0.00613141579119 0.00757211027669 -0.00903858821807)
(0.00877802033512 0.00849989661852 -0.00909610341677)
(0.0104891667925 0.00984578813608 -0.0080589167939)
(0.0111904345278 0.0114093857019 -0.00666006965243)
(0.0108585277401 0.0129620294495 -0.00529329677735)
(0.00957993574494 0.0143223679589 -0.00419842340675)
(0.00753824406535 0.0154094096845 -0.00344403189011)
(0.00497076952322 0.0161781843289 -0.0030185328729)
(0.00210659690879 0.0165883142954 -0.00284004274041)
(-0.000866909261727 0.016613213131 -0.00281940033189)
(-0.00377521360075 0.0162451996547 -0.00295834207021)
(-0.00641999983327 0.0155000613248 -0.00334960934563)
(-0.00855800502838 0.0144169060448 -0.00407450848154)
(-0.00994539152528 0.0130603917491 -0.00513871109967)
(-0.0104033550454 0.0115198691725 -0.00647166484641)
(-0.00984835240513 0.00997090918166 -0.00784263440009)
(-0.00830450460862 0.00863799941078 -0.00886680958206)
(-0.00583337175786 0.00771395394255 -0.00881386563354)
(-0.00268245818015 0.00725838567397 -0.00629957385938)
(0.00344432878268 0.00913116370136 -0.00608951862451)
(0.00725949120701 0.00925930984865 -0.00853061281229)
(0.0101252783731 0.0101241898518 -0.00808056276166)
(0.0118383546132 0.0114746488233 -0.00637487753671)
(0.01240061217 0.0130647880331 -0.00428538005316)
(0.011835203028 0.0146448096868 -0.00231797278474)
(0.0102883390642 0.0160392445765 -0.000773320721699)
(0.00799977656057 0.0171573933242 0.00026973373241)
(0.00523384394483 0.0179481107875 0.000850682002056)
(0.00219947020598 0.0183734750968 0.00109912212964)
(-0.000939446640498 0.0184065458916 0.00112816997399)
(-0.00403019541443 0.0180364801733 0.000931258801468)
(-0.00688974521668 0.0172735501002 0.000384998104743)
(-0.00927950775524 0.0161566955215 -0.000635065678149)
(-0.01092748395 0.0147573762482 -0.00215269627612)
(-0.0116089304623 0.0131831164498 -0.00408064091962)
(-0.0111839165076 0.0116061778187 -0.00613071153837)
(-0.00963382541694 0.0102710650274 -0.00781491731018)
(-0.00694440202809 0.00941489297694 -0.00826655765155)
(-0.00332495605034 0.00928094480834 -0.00584322748239)
(0.00415877885258 0.0102137712314 -0.00551841453639)
(0.00852413495342 0.0100378334599 -0.00774276101736)
(0.0116882195772 0.0107564255001 -0.0067063744809)
(0.0134261121559 0.0119711304141 -0.00430814066946)
(0.0138245880196 0.0134004791211 -0.00152348000798)
(0.0130162743357 0.0148542762734 0.00103364793132)
(0.0112150387298 0.0161657822014 0.00299620608541)
(0.00866746653309 0.0172376838689 0.004292168317)
(0.00564053094341 0.0180039422781 0.0050124493201)
(0.00234788062758 0.0184229670373 0.00532699477203)
(-0.00105531562166 0.0184645200393 0.00536750841486)
(-0.00442372707867 0.0181149543313 0.00511915771393)
(-0.00756977636519 0.0173804378061 0.00442657423433)
(-0.0102328853644 0.0163037068926 0.00313141933703)
(-0.0121293672261 0.0149745186184 0.00118541552617)
(-0.0130350610325 0.0135154855953 -0.00132331658669)
(-0.0127611218117 0.0120941536605 -0.004052386201)
(-0.0111811799024 0.0108948652024 -0.00641325139686)
(-0.008196906903 0.0101864171144 -0.00744202625175)
(-0.00403149527282 0.0103583254809 -0.00523097409383)
(0.00480744973907 0.010088183379 -0.00498684660007)
(0.00975362767391 0.00982136892087 -0.00694437924532)
(0.0132393650346 0.0103711371729 -0.00536133454358)
(0.0150036212817 0.0113530760541 -0.00235491694328)
(0.015272449446 0.0125408123327 0.00102555456017)
(0.0142740405466 0.013805559187 0.00405395915914)
(0.0122341287282 0.0149707938094 0.00634294671033)
(0.00942345124538 0.0159354557718 0.00784879061658)
(0.00611615187891 0.0166394873493 0.00869164188417)
(0.002527978348 0.017035529135 0.009067238443)
(-0.00118526177045 0.0170848637401 0.00912598079948)
(-0.00487429413007 0.016771588208 0.00884288911068)
(-0.00833806872438 0.0161055086585 0.00802235440304)
(-0.0112873476583 0.0151309471639 0.00648028801758)
(-0.0134179243199 0.0139372637778 0.00417495656943)
(-0.0144953378871 0.0126548758868 0.00119558062363)
(-0.0143329010609 0.0114623724362 -0.0021074552846)
(-0.012719968077 0.0104916948728 -0.00505689485485)
(-0.00941666199447 0.00994828088137 -0.00662250212897)
(-0.00467005868792 0.0102092029256 -0.00467656295499)
(0.00529039851194 0.00904129352594 -0.00457668732982)
(0.0107980222961 0.00868730233291 -0.00629090411017)
(0.0145965424709 0.00905035308333 -0.00428153580625)
(0.0163926595358 0.00975933376216 -0.000816215661499)
(0.0165759161356 0.0106880333715 0.00299170197358)
(0.015432268372 0.0117093187803 0.00635136109757)
(0.0131993654751 0.012674583573 0.00887115549476)
(0.0101601960889 0.0134927659893 0.0105463364884)
(0.0065946106541 0.0141148662686 0.0115068236633)
(0.0027184570518 0.0144833209103 0.0119526720084)
(-0.00130546192051 0.0145359621945 0.0120365485911)
(-0.00530924087665 0.0142551519401 0.011722687454)
(-0.00907202304369 0.0136749486284 0.0107909965523)
(-0.012280925092 0.0128502987048 0.00904567452503)
(-0.0146106279779 0.0118547554067 0.00646249535924)
(-0.015821902638 0.0108064805967 0.0031338427708)
(-0.015727998645 0.00986319990259 -0.000585106144311)
(-0.0140731143371 0.00915211932622 -0.00397900726657)
(-0.0104582870072 0.00878870180808 -0.00596266848538)
(-0.00515120046555 0.00913600433724 -0.00426041323119)
(0.00569433970853 0.00709867841378 -0.0042708674462)
(0.0116411043551 0.00676671458142 -0.00582613711892)
(0.0156729586976 0.00697615054039 -0.00354302512735)