/*--------------------------------*- C++ -*----------------------------------*\
| =========                 |                                                 |
| \\      /  F ield         | OpenFOAM: The Open Source CFD Toolbox           |
|  \\    /   O peration     | Version:  3.0.1                                 |
|   \\  /    A nd           | Web:      www.OpenFOAM.org                      |
|    \\/     M anipulation  |                                                 |
\*---------------------------------------------------------------------------*/
FoamFile
{
    version     2.0;
    format      ascii;
    class       volScalarField;
    location    "6.1";
    object      alpha.water;
}
// * * * * * * * * * * * * * * * * * * * * * * * * * * * * * * * * * * * * * //

dimensions      [0 0 0 0 0 0 0];

internalField   nonuniform List<scalar> 
7968
(
1.00000251078
1.00000082796
1.00000062407
1.00000047148
1.00000043715
1.00000043143
1.00000043025
1.0000004505
1.000000492
1.00000054972
1.00000062513
1.00000068834
1.00000073453
1.0000007814
1.00000084475
1.00000085919
1.00000089643
1.00000106405
1.00000160977
1.00000305173
1.0000008239
1.00000096542
1.00000047891
1.00000037816
1.00000097259
1.00000067006
1.00000044043
1.00000038683
1.00000040356
1.000000441
1.00000049282
1.00000053695
1.0000006245
1.00000075674
1.00000111092
1.00000161734
1.00000090195
1.0000011949
1.00000185165
1.00000123866
1.00000172545
1.00000056167
1.00000036454
1.00000030606
1.00000043109
1.00000038023
1.000000331
1.00000033314
1.00000036542
1.00000040951
1.00000045668
1.00000048703
1.00000053866
1.00000060079
1.00000080507
1.00000116533
1.00000104169
1.00000107905
1.00000150943
1.00000227095
1.00000068344
1.00000042596
1.00000027558
1.00000023862
1.00000025651
1.00000025529
1.00000025548
1.00000026996
1.00000029628
1.00000033193
1.00000038776
1.00000041294
1.00000042649
1.00000044919
1.00000056453
1.00000080792
1.00000096241
1.00000123355
1.00000175091
1.00000138987
1.00000015879
1.00000017154
1.00000019029
1.00000018214
1.00000019065
1.00000018571
1.00000020149
1.00000021762
1.00000023032
1.00000024313
1.00000027466
1.00000028982
1.00000030265
1.00000030488
1.00000036121
1.00000050971
1.00000070868
1.00000107624
1.00000144685
1.00000097558
1.00000000009
1.00000000002
1.00000005734
1.00000013463
1.00000015674
1.00000012922
1.00000015281
1.00000017433
1.00000018965
1.00000019909
1.00000021384
1.00000021877
1.00000021565
1.00000019792
1.00000021539
1.00000031942
1.0000005675
1.00000098502
1.00000158026
1.00000073274
1.00000000001
0.999999999965
1.00000000001
1.00000001667
1.00000008969
1.00000008532
1.00000012668
1.0000001579
1.00000017624
1.00000018808
1.00000019215
1.00000018789
1.00000017251
1.00000014764
1.00000014043
1.00000023501
1.00000043998
1.00000073789
1.00000110099
1.00000060415
0.999999999741
0.999999999151
0.999999999886
0.999999999993
1.00000004561
1.00000007061
1.00000010507
1.00000014421
1.0000001669
1.00000017809
1.0000001748
1.00000016152
1.00000013861
1.00000012011
1.00000011125
1.00000020304
1.00000036582
1.0000005948
1.00000077594
1.00000051628
0.999999998168
0.99999999827
0.999999999095
0.999999999995
0.999999998943
1.00000006282
1.00000009346
1.000000119
1.00000014012
1.00000015194
1.00000015354
1.00000014238
1.00000012019
1.00000009452
1.00000003953
1.00000016705
1.00000034218
1.00000055054
1.00000068691
1.00000040579
0.999999998316
0.999999997314
0.999999998536
0.999999999428
0.999999999051
1.00000000755
1.00000008027
1.00000010733
1.00000012842
1.00000014447
1.00000014612
1.00000013699
1.00000011549
1.00000008878
1.00000002384
1.00000012894
1.00000031431
1.00000053766
1.00000067683
1.0000003161
0.999999996743
0.99999999601
0.999999996446
0.999999998073
0.999999999509
1.00000000006
1.00000003502
1.00000008742
1.00000011194
1.00000012733
1.00000013526
1.00000012558
1.00000010606
1.0000000798
1.00000001663
1.00000009571
1.00000026051
1.00000049057
1.00000062019
1.0000003289
0.999999998422
0.999999999925
0.999999997201
0.999999995969
0.999999998026
0.999999999719
1.00000000005
1.00000004773
1.00000008824
1.0000001053
1.0000001141
1.00000010941
1.00000008994
1.00000006691
1.00000002064
1.00000006743
1.00000021024
1.00000044285
1.00000056234
1.00000038345
1.00000000001
0.999999999995
0.999999999999
0.999999998202
0.999999996187
0.999999998154
0.999999999545
1.00000000016
1.00000005716
1.00000007818
1.00000008887
1.00000008454
1.00000007028
1.00000003516
1.00000003909
1.00000006587
1.00000016541
1.00000042586
1.00000061633
1.00000036157
0.99999999911
0.999999999786
0.999999999999
0.99999999969
0.99999999885
0.999999996431
0.999999997863
0.999999999681
1.00000000037
1.00000004833
1.00000005932
1.00000005943
1.0000000478
1.00000002152
1.00000000913
1.00000003851
1.00000013561
1.00000044613
1.0000007708
1.0000003133
0.99999999912
0.999999999688
0.999999999603
0.999999999997
0.999999999823
0.999999999416
0.999999997492
0.99999999796
0.999999999633
1.00000000357
1.0000000268
1.00000003321
1.00000002648
1.0000000109
1.00000000658
1.00000003119
1.00000012375
1.00000049533
1.00000102688
1.00000041358
1
0.999999999698
0.999999999267
0.999999999695
0.999999999997
0.999999999795
0.99999999935
0.999999999504
0.999999999242
0.999999999837
1.00000000004
1.00000000432
1.00000001195
1.00000000871
1.00000001059
1.00000002967
1.00000012108
1.0000004571
1.00000091713
1.00000063111
1
1
1
0.999999999163
0.999999999767
0.999999999946
0.99999999986
0.999999998916
0.999999999659
1
0.999999999879
1
1.000000001
1.00000001274
1.00000001467
1.00000004291
1.00000016946
1.00000059986
1.00000115647
1.00000091811
1.00000049259
1
1
0.999999999993
0.999999998668
0.999999999903
0.999999999927
0.999999999885
0.999999999855
0.999999999858
0.999999999987
1
1.00000000997
1.00000001905
1.00000003342
1.00000010019
1.00000025199
1.00000056897
1.00000096026
1.00000163825
1.00000014462
1.00000006337
1
1
0.999999999526
0.99999999884
0.999999999631
0.999999999708
0.999999999855
0.999999999758
0.999999999813
1.00000000001
1.00000002461
1.00000003969
1.00000010587
1.00000050668
1.00000044501
1.00000073584
1.00000143877
1.00000104845
1.00000178238
1.00000018278
1
1
1
0.999999999485
0.999999999324
0.999999999136
0.999999999853
0.999999999882
0.999999999912
1.00000000563
1.00000002521
1.00000003394
1.00000004997
1.00000012073
1.00000025683
1.00000051417
1.00000092532
1.00000229281
1.00000122385
1.00000086152
1.00000063766
1.00000051515
1.00000043994
1.00000040331
1.0000003644
1.00000040384
1.00000045718
1.00000048977
1.00000052019
1.0000005657
1.00000058687
1.00000056921
1.00000058132
1.00000061619
1.00000068951
1.00000092814
1.00000127507
1.00000161163
1.00000081194
1.00000058129
1.00000052912
1.0000004591
1.00000043358
1.00000043094
1.00000041101
1.00000031193
1.00000026721
1.0000002959
1.00000034925
1.00000039402
1.00000043735
1.00000053202
1.00000056847
1.00000057228
1.00000065987
1.00000086958
1.00000107849
1.00000071449
1.00000051352
1.00000047573
1.00000046135
1.00000043238
1.00000033542
1.00000030111
1.00000028527
1.00000028446
1.00000031471
1.00000035769
1.00000040953
1.00000043959
1.00000047228
1.00000050042
1.00000048102
1.00000049066
1.00000063259
1.00000078089
1.00000087377
1.00000023431
1.00000038785
1.00000036519
1.00000036722
1.00000030594
1.00000024887
1.00000022652
1.00000017863
1.00000021484
1.00000028713
1.00000034855
1.00000039648
1.00000041544
1.00000043071
1.00000043503
1.00000041636
1.00000041973
1.00000049491
1.00000060006
1.00000054932
1.00000000013
1.00000027853
1.00000028895
1.00000023469
1.00000019739
1.0000001713
1.00000016624
1.00000016323
1.00000021445
1.0000002631
1.0000002995
1.00000032565
1.00000032793
1.00000031732
1.00000030281
1.00000029761
1.00000031363
1.00000033998
1.00000036664
1.00000040395
1.00000000063
1.00000020318
1.00000015431
1.00000015206
1.00000013598
1.00000014355
1.00000011744
1.00000010392
1.00000007899
1.00000011128
1.00000018751
1.00000016675
1.00000021859
1.00000016259
1.00000010252
1.00000009528
1.00000019596
1.0000002451
1.00000025987
1.00000029335
1.00000000016
1.00000001954
1
1.00000008719
1.00000008558
1.00000012488
1.00000004648
1.00000004129
1.00000010745
1.00000015893
1.00000018497
1.0000001853
1.00000016954
1.00000012113
1.00000000114
1.00000000046
1.00000007493
1.00000012685
1.00000017035
1.00000014892
1.00000000127
1
0.999999999684
0.99999999799
1.00000007961
1.00000012918
1.00000001019
1.00000010092
1.00000015622
1.00000017977
1.0000001843
1.00000017416
1.00000014935
1.0000001052
1.00000006388
1.00000000009
1.00000000518
1.00000009929
1.0000001436
1.00000005896
1.00000000198
1.00000000012
0.999999999724
0.999999998182
1.00000002736
1.00000009993
1.00000008067
1.00000011994
1.00000016433
1.00000017714
1.00000017476
1.00000015886
1.00000012949
1.00000010033
1.00000006769
1.00000000004
1.0000000003
1.00000008856
1.00000015052
1.00000006322
1.00000000068
0.999999999137
0.999999999363
0.999999999717
1.00000000003
1.00000005387
1.00000008098
1.00000011194
1.00000013757
1.00000014954
1.00000014969
1.00000014417
1.00000012564
1.00000009985
1.00000006855
1
1.00000000023
1.00000011148
1.00000018218
1.000000102
1.00000000034
0.999999998888
0.9999999989
0.999999999278
0.999999999963
1.00000000003
1.00000000476
1.00000008781
1.00000011405
1.00000012867
1.00000013562
1.00000013188
1.00000011764
1.00000009166
1.00000005959
1.00000000003
1
1.00000007024
1.0000001506
1.00000007052
1.00000000048
0.999999998252
0.999999997836
0.999999997889
0.999999999099
1.00000000008
1.00000000009
1.00000005229
1.00000008964
1.0000001064
1.00000011604
1.00000011389
1.00000010071
1.0000000783
1.00000004728
1.00000000003
1.00000000017
1.00000002256
1.00000007599
1.00000002255
1.00000000599
0.999999998311
0.999999997747
0.999999997451
0.999999998443
0.99999999919
0.99999999984
1.00000000005
1.00000005155
1.00000008067
1.00000009122
1.00000009274
1.00000007985
1.00000005489
1.00000000001
1.00000000018
1.00000000072
1.00000004915
1.00000007551
1.00000001868
1.00000000173
0.999999999942
0.999999997675
0.999999997328
0.999999997123
0.999999998251
0.999999999188
0.999999999566
1.00000000002
1.00000004146
1.00000006384
1.00000006626
1.00000005824
1.00000001217
1.00000000011
1.00000000066
1.00000000039
1.00000002727
1.00000010482
1.00000008988
1.00000000015
0.999999999941
0.999999997701
0.999999997214
0.999999996904
0.999999996819
0.99999999853
0.999999999323
0.99999999919
0.999999999613
1.00000001868
1.00000003132
1.00000003295
1.00000000638
1.0000000006
1.00000000022
1.00000000037
1.00000005397
1.0000001206
1.00000016536
1.00000000008
1
0.99999999891
0.9999999969
0.999999996682
0.999999996449
0.999999996218
0.999999998835
0.999999999351
0.999999999156
0.999999999835
1.00000002305
1.00000002364
1.0000000135
1.00000000016
1.00000000035
1.00000000449
1.00000008816
1.00000015627
1.00000019428
1.00000000004
1
0.999999999975
0.999999995809
0.999999996008
0.999999996399
0.999999996196
0.999999996458
0.999999998638
0.999999997658
0.999999999237
0.999999999798
1.00000001203
1.00000001574
1.00000000778
1.00000000814
1.00000004221
1.00000013148
1.00000022826
1.00000026662
1.00000000392
1
1
0.999999997236
0.999999995176
0.999999996157
0.99999999594
0.999999996406
0.999999997191
0.999999997661
0.999999999477
0.999999999983
1.00000001485
1.0000000297
1.00000003555
1.00000005446
1.00000011519
1.00000019338
1.00000031722
1.00000047534
1.00000026366
1.00000001761
1
1
0.99999999894
0.999999997811
0.999999997605
0.999999997409
0.999999997387
0.999999997858
0.999999999135
0.999999999699
1.00000004105
1.00000005393
1.00000006911
1.00000014248
1.0000001721
1.00000024042
1.00000041263
1.00000070956
1.00000068312
1.00000045998
1.00000014585
1
0.999999999981
0.999999998066
0.999999996356
0.999999996373
0.999999997844
0.999999999975
1.00000000001
1.00000001661
1.00000004947
1.00000005403
1.00000004888
1.00000008376
1.00000009558
1.00000013476
1.00000027845
1.00000061035
1.0000008603
1.00000184433
1.00000068156
1.00000055353
1.00000044119
1.00000028505
1.00000017458
1.00000012141
1.00000022852
1.00000031083
1.00000032083
1.00000032424
1.00000039413
1.00000035842
1.00000018343
1.00000012529
1.00000009378
1.00000011152
1.00000018109
1.00000057456
1.00000146253
1.00000063859
1.00000058697
1.00000058606
1.00000045522
1.00000044207
1.00000044904
1.00000029167
1.00000001308
1.00000000196
1.00000001903
1.00000003082
1.00000002666
1.00000003951
1.00000012167
1.00000028907
1.00000021877
1.0000001828
1.00000020205
1.00000018823
1.00000002143
1.00000051907
1.00000054752
1.00000053119
1.00000046389
1.00000008081
1.00000003054
1.00000006937
1.00000006623
1.00000009251
1.00000011231
1.0000001318
1.00000016157
1.00000013224
1.00000014735
1.00000008389
1.00000006519
1.00000024176
1.00000021277
1.00000007063
1.00000000005
1.00000042724
1.00000043856
1.00000044389
1.00000005607
1.00000001099
1.00000004001
1.000000108
1.00000011738
1.00000014483
1.00000017511
1.00000020284
1.00000020213
1.00000013516
1.00000011084
1.00000008089
1.0000000265
1.00000003466
1.00000013568
1.00000007259
1.00000000012
1.00000032154
1.00000041598
1.00000006726
1.00000000831
1.00000004737
1.00000011114
1.00000007834
1.00000003736
1.00000006105
1.00000017135
1.00000016042
1.00000022359
1.00000005628
1.00000003226
1.00000000014
1.00000003312
1.00000003733
1.00000001126
1.00000004306
0.999999999887
1.00000024839
1.00000030428
1.00000000835
1.00000005573
1.00000013763
1.00000002838
1
1
1.00000000084
1.00000000661
1
1.00000001032
1
1.00000000207
1.00000000093
1.00000000016
1.00000002791
1.00000000136
1.00000001585
1.0000000008
1.00000020816
1.00000008143
1.00000003303
1.00000010719
1.0000000381
1
1
1.00000002012
1.0000001467
1.00000019791
1.0000001733
1.00000013839
1.0000000655
1.00000000009
1.00000000043
1.00000000019
1.00000000642
1.00000001794
1.0000000011
1.00000000148
1.0000001959
1.00000000014
1.00000003204
1.00000013782
1.00000005797
1
1.00000004809
1.00000019857
1.00000025792
1.00000024916
1.00000020619
1.00000015009
1.00000007944
1.00000002358
1
1.00000000001
1.00000000009
1.0000000184
1.00000000027
1.00000000037
1.00000011867
1.00000000002
1.0000000439
1.00000017634
1.00000013586
1.00000001642
1.00000014111
1.00000026173
1.00000027244
1.00000023683
1.00000019035
1.00000014564
1.00000008491
1.00000004425
1
1
1.00000000005
1.0000000052
1.00000000005
1.0000000002
1.00000000016
1
1.00000003811
1.00000018659
1.00000020864
1.00000003176
1.00000016706
1.0000002504
1.00000024572
1.0000002046
1.00000017433
1.00000013396
1.00000008287
1.00000004622
1
1
1.00000000002
1.00000001964
1.00000006359
1.00000000025
1.00000000007
0.99999999992
0.999999998652
1.00000014232
1.0000000921
1.00000000056
1.0000001419
1.00000020868
1.00000021049
1.00000018498
1.00000015712
1.00000011562
1.00000007733
1.00000004191
1
1
1
1.0000000085
1.00000004092
1.00000000019
0.999999999946
1.00000000003
0.999999999525
1.00000003236
1.0000000455
1.00000000199
1.00000011751
1.00000016754
1.00000018407
1.00000016749
1.00000014184
1.00000010057
1.0000000674
1.00000002286
1
1
1.00000000001
1
1.00000000031
1.0000000002
0.999999999997
1.00000000001
0.999999999952
1
0.999999999462
1
1.00000004036
1.00000010927
1.0000001396
1.00000014395
1.00000012608
1.00000008625
1.00000005149
1
1.00000000001
1.00000000009
1.00000000027
1.00000000131
1.00000000001
1.00000000019
1.00000000006
1.00000000001
0.999999999999
1
0.999999999745
1
0.999999993937
1.0000000078
1.00000008271
1.00000009555
1.00000008727
1.00000006656
1
1
1.00000000008
1.00000000034
1.00000000025
1
1.00000000065
1.00000000048
1.00000000004
1.00000000005
1.00000000001
0.999999999957
1
0.999999999818
0.999999999699
1.00000000005
1
1
1
1.0000000084
1
1.00000000005
1.00000000057
1.00000000026
1.00000000036
1.00000000051
1.00000000228
1.00000000004
1
1.00000000005
1.00000000004
1.00000000003
0.999999999977
0.999999999828
0.999999999869
0.99999998986
1.00000000011
1.00000003269
1.00000004892
1.00000004493
1
1.00000000069
1.00000000027
1.00000000072
1.00000000044
1.00000000057
1.00000002743
1.00000000001
1
1.00000000003
1.00000000022
1.00000000008
1.00000000007
0.999999999973
1.00000000001
0.999999999713
1.00000000008
1.00000002945
1.00000006182
1.0000000582
1.00000004007
1.00000000892
1.00000000042
1.00000000823
1.00000001952
1.00000014103
1.00000006599
1.00000000001
1
1
1.00000000008
1.00000000033
1.00000000008
1.00000000006
1.00000000005
1.00000000001
1.00000000001
1.0000000018
1.00000005482
1.00000006703
1.00000006006
1.00000005424
1.00000004975
1.00000004939
1.00000017695
1.00000026667
1.0000002015
1.00000001696
1.00000014815
1.0000000681
1.00000000002
1.00000000017
1.00000000018
1.00000000004
1.00000000001
0.99999999998
1.00000000004
1.00000000058
1.00000006014
1.00000004203
1.00000004356
1.00000008023
1.00000009643
1.00000008825
1.00000013727
1.0000002763
1.00000023185
1.00000004885
1.00000078
1.00000014473
1
1.00000000021
1.00000000001
0.999999999919
0.99999999971
1
1.00000000104
1.00000005268
1.00000009293
1.00000010056
1.00000006251
1.00000000012
1.00000000025
1.00000000939
1.00000003009
1.00000004261
1.00000004244
1.00000027868
1.00000068733
1.00000028062
1.00000020878
1.00000007554
1.00000003917
1.0000000195
1.00000000324
1.00000004025
1.00000004868
1.00000000029
1.00000000022
1.00000006666
1.00000001251
1.00000000518
1.00000003198
1.00000003081
1.00000003633
1.00000004566
1.00000005044
1.00000001639
1.00000028051
1.00000040425
1.00000038679
1.00000022129
1.00000025129
1.00000018979
1.00000000004
1.00000000005
1.00000000005
1.00000000005
1.0000000001
1
1
1.00000000101
1.00000005883
1.00000007449
1.00000005705
1.00000006556
1.00000005131
1.00000000692
1.00000020174
1.00000037029
1.00000036557
1.00000005998
1.00000000001
1.00000000001
1.00000000001
1.00000000001
1
1
1
1
1
1
1.00000000007
1.00000000001
1.00000003034
1.00000006483
1.00000004446
1.00000000248
1.00000010936
1.00000026339
1.00000011476
1
1
1
1.00000009851
1
1
1
1
1
1
1.00000001361
1.00000000001
1.00000000008
1.00000000009
1.00000000057
1.00000001975
1.00000000171
1.00000008361
1.00000031202
1.00000000006
1
1
1.00000002306
0.999999999997
0.999991017591
0.999991195148
0.999988468081
0.999988412826
0.999994145992
0.999997740698
1.00000000121
1.00000000039
1.00000000001
1.00000000005
1.00000000026
1.00000000911
1.00000000028
1.00000007579
1.00000023839
1.00000000006
1
1.00000003125
1
1
0.999997690907
1
1
0.999999810704
1
0.999999415216
1.0000000001
1.00000000086
1.00000000019
1
1.00000000009
1.00000000036
1.00000000052
1.00000007804
1.00000001941
1.00000000003
1.00000010611
1.00000000842
1
0.999998319531
1
1.00000008251
1.00000008908
1.00000001848
1.00000002419
1
1.00000000002
0.999999744935
1
1
1.00000000002
1.00000000014
1.00000000009
1.00000016673
1.00000000024
1.00000000001
1
0.999991594876
0.999997799446
1
1.00000037318
1.00000037699
1.00000032905
1.00000024423
1.0000001574
1.00000000734
1
0.999994632367
1
1
1
1.00000000003
1.00000000007
1.00000016076
1.00000000022
1
1
0.999994183041
1
1.00000024412
1.00000048981
1.00000044683
1.00000036444
1.0000002815
1.00000018407
1.0000000616
1
0.999998212469
0.999992256811
1
1
1
1.00000000006
1.00000008973
1
1
1.00000002383
0.999989091962
1
1.00000031188
1.00000048842
1.00000043108
1.0000003357
1.0000002426
1.00000017064
1.00000007369
1.00000000076
0.999999954228
0.99999205992
1
1
1.00000002579
1.00000000007
1.00000007119
1.00000000001
1
1.00000000174
0.999989068734
1
1.00000024659
1.00000045259
1.00000040418
1.0000003197
1.00000023077
1.00000016292
1.00000007343
1
0.999999922229
0.999992059919
1
1
1.00000000924
1.00000000007
1.00000013639
1.00000000012
1
1
0.999994749561
1
1.00000021838
1.00000041874
1.00000039034
1.00000032245
1.0000002544
1.00000016145
1.00000007002
1
0.999997904994
0.99999242214
1
1
1
1.00000000001
1.00000008541
1.00000000001
1.00000000001
1
0.999991928198
0.999999117398
1.00000002761
1.00000033885
1.00000033693
1.00000029203
1.00000022357
1.00000013719
1.00000003896
1
0.999994008899
1
1
1
1
1.00000000001
1.00000001446
1.00000009586
1.00000000001
1.00000003699
1.00000003864
1
0.999999838319
1
1.00000007089
1.00000008457
1.00000008175
1.00000005842
1
0.999997444714
0.999998456178
1
1
1
1.00000000003
1.00000000003
1.00000002076
1.00000016749
1.00000000001
1
1.00000004105
1.00000002987
0.999999999998
0.999997283334
0.999999945602
1
1
1
0.999997823321
1
0.999999999739
0.999999999917
1
1.00000000004
1.00000000013
1.00000000009
1.00000001886
1.00000014908
1.00000000003
1.00000000002
1.00000000002
1.00000005724
1.00000000424
0.99999089619
0.99999140386
0.999989286404
0.999989369088
0.999996073705
0.999996208764
1
1
1.00000000003
1.00000000011
1.00000000007
1.00000000688
1.00000000026
1.00000004908
1.00000016535
1.00000020681
1.00000000009
1.00000000004
1.00000000001
1.00000000001
1
1.00000000004
1.00000003288
1
1
1
1
1
1.00000000015
1.00000000002
1.0000000003
1.00000004507
1.0000000007
1.00000012049
1.00000021787
1.00000026453
1.00000024117
1.00000000009
1.00000000004
1.00000000001
1.00000000004
1.00000000007
1
1
1
1
1
1.00000000013
1
1.00000005594
1.00000015497
1.00000007611
1.00000001115
1.00000013745
1.00000019093
1.00000026608
1.00000023143
1.00000024729
1.00000022208
1.00000011747
1.00000000001
1.00000000001
1
1.00000000164
1
1.00000000002
1.00000001317
1.00000005312
1.00000005685
1.00000006922
1.00000008847
1.00000009403
1.00000002485
1.00000010544
1.00000006565
1.00000006498
1.00000005401
1.000000039
1.00000000194
1.00000000013
1.00000006964
1.0000000893
1.00000002407
1.00000000097
1.00000001879
1.00000000005
1.00000000001
1.00000000004
1.00000000069
1.00000001839
1.00000003683
1.00000001285
1
1.00000004541
1.0000000651
1.00000005201
1.0000000043
1.00000000445
1.00000000231
1.00000000002
1.00000000003
1.00000000003
1.00000000003
1.00000000002
1.00000000005
1.0000000001
1.00000000105
1.00000000148
1.00000000094
1.00000000684
1.0000000186
1.00000002529
1.00000000174
1.00000005741
1.00000017437
1.00000013348
1.00000000423
1.00000002305
1
1
0.999994919578
0.999991870817
0.999996707618
0.999998010709
0.999994349106
0.999997077688
1
1
1.00000000002
1.00000000458
1.00000002905
1.00000002659
1.00000000177
1.00000004508
1.00000017921
1.00000013311
1
0.999995985952
0.999992754699
0.999997021965
0.999988571975
0.999981010966
0.999983217692
0.9999840198
0.999982310698
0.999989654247
0.999997536432
0.999994215784
0.999997466094
1
1.00000001164
1.00000000828
1.00000000144
1.0000000259
1.00000006228
1
0.999991219485
0.999983933035
0.999953098723
0.999909057485
0.999902593781
0.999925410791
0.999941673039
0.999940445232
0.999923188587
0.999905543731
0.999927996888
0.999962491215
0.999988354959
0.99999317093
1.00000000003
1.00000000251
1.00000000021
1.00000001329
1.00000011387
0.999995088995
0.999980903077
0.999918892204
0.999891833828
0.999996525418
0.999999999934
1
1
0.999999999989
1
1
0.999933460879
0.999909124398
0.999940200083
0.999988817264
0.999997031081
1.00000000004
1.00000000007
1.00000000364
1.00000010643
0.999990589374
0.999941528435
0.99990672381
1
1
1
1
1
1
1
1
1
0.999954791207
0.999910580798
0.999965959281
0.999995275887
1.00000000004
1.00000000002
1.00000000047
1
0.999990227032
0.999898820904
1
1
1
1.0000000201
1.00000016044
1.00000014073
1.00000003028
1.00000002296
1
1
1
0.999866685602
0.999942841323
0.999999962717
1
1.00000000008
1.00000000027
0.999995879225
0.999978993296
0.999920150015
0.999999999953
1
1.00000004559
1.00000042005
1.00000042272
1.00000036315
1.00000023343
1.00000012706
1.0000000048
1
0.999999999992
0.999972039543
0.999902400825
0.999995060341
0.999997035491
1.00000000001
1.00000000021
0.999994250938
0.999972702097
0.999948479362
1
1.0000000105
1.00000036802
1.00000051217
1.00000050942
1.00000046889
1.00000028118
1.00000014568
1.00000005198
1
1
1
0.999913351863
0.999989038068
0.999997061495
1.00000000001
1.00000000033
0.999998143547
0.999975485359
0.999965404168
1
1
1.00000045474
1.00000056151
1.0000005949
1.00000051091
1.00000029137
1.00000014695
1.00000006501
1
1
0.999999999818
0.999930097984
0.999989946124
1
0.999999999976
1.00000000004
0.999999024806
0.999976151907
0.999965581864
1
1.0000000017
1.00000044113
1.00000056131
1.00000062053
1.00000053793
1.00000032749
1.00000015661
1.00000007268
1
1
0.999999999789
0.999931015645
0.999989958872
1
0.999999999982
1.00000001786
0.999994994182
0.999974211072
0.999950152697
1
1.00000002505
1.00000038208
1.00000049245
1.00000054061
1.00000050594
1.00000031607
1.0000001725
1.00000007275
1
1
0.999999999872
0.999915898264
0.999989161671
0.999996798817
1
1.0000000175
0.999996414013
0.999980944996
0.999923048644
1
1
1.00000017216
1.00000046237
1.00000046689
1.00000042972
1.00000030842
1.00000017481
1.00000002197
1
0.999999999972
0.999978830101
0.999904800656
0.99999566129
0.99999691018
1
1.00000000794
1.00000006868
0.999991840765
0.999902623129
1
1
1
1.00000014858
1.00000028599
1.00000027688
1.0000002158
1.00000012967
1
1
1
0.999874441486
0.999943937265
1
1
1.00000000005
1.00000005384
1.00000019044
0.999991634656
0.999943463273
0.999917873071
1
1
1
1
1
1
1
1
1
0.999980623231
0.99990885467
0.999966963464
0.999996290153
1.00000000002
1.00000000001
1.00000007582
1.00000020164
0.999995560028
0.999982251341
0.999921025837
0.999906047509
1
0.999999999951
1
1
1
1
1
0.999963763038
0.999911194234
0.999942229473
0.999989908871
0.999997570754
1.00000000022
1.00000000009
1.00000008834
1.00000019663
1.00000020229
0.999992167347
0.999984506925
0.999952230785
0.999911960171
0.999914362957
0.999936136499
0.999951287962
0.999951014286
0.99993503685
0.999916866462
0.999927189963
0.999961512608
0.999988704692
0.999993859737
1.00000000003
1.00000001281
1.00000000059
1.00000009018
1.00000023283
1.00000033592
1.00000023316
0.999996373295
0.999993604493
0.999997167212
0.999989461215
0.999981734148
0.999983455483
0.999984097905
0.99998259093
0.999989526527
0.999997394086
0.99999481379
0.999997541713
1
1.00000004742
1.00000006305
1.00000000165
1.00000005603
1.00000015715
1.00000021422
1.00000021481
1.00000019949
1.00000011503
1.00000000875
0.999996743242
0.999993584903
0.999998112047
0.999999050627
0.999996098581
0.999997765735
1.00000000001
1.00000001127
1.00000003271
1.00000004903
1.00000008601
1.00000007708
1.00000000085
1.00000000169
1.00000000919
1.00000002098
1.00000001833
1.00000001239
1.00000000065
1.00000000012
1.00000000001
1.00000000001
1.00000000001
1.00000000001
1.00000000001
1
0.999999999999
1
1.00000000013
1.00000000078
1.00000000243
1.00000000001
1
1.00000000078
1.00000000108
1.00000000061
1.00000000092
1.00000000044
1.00000000001
1.00000000017
0.999999999945
1
1
1
1
1.00000000001
1.00000000004
1.00000000004
1.00000000004
1.00000000011
1.00000000049
1.0000000005
1.00000000006
1.00000000106
1.00000000304
1.00000000045
1.00000000019
1
1
1
0.999981857082
0.999975288946
0.999989040653
0.999992688622
0.99998098196
0.999987119093
1
1.00000000001
1
1.00000000004
1.0000000005
1.00000000077
1.00000000008
1.00000000103
1.00000000049
1.00000000014
1
0.999942611311
0.999726358471
0.999579873911
0.999504461612
0.999508049785
0.999532627884
0.999536435214
0.999517286472
0.999521762772
0.99959936146
0.99974075034
0.999954144182
1
1.00000000028
1.00000000094
1.00000000003
1.00000000129
1.00000000023
1
0.999852424006
0.999533223279
0.999258876251
0.999317447816
0.999477038152
0.999574665444
0.999611290273
0.999604593588
0.999540400175
0.999402957146
0.999263240507
0.999293378542
0.999566101075
0.99986676281
1.00000000012
1.00000000007
1.00000000031
1.00000000083
1
0.999941483428
0.999525265437
0.999118755202
0.999279459701
0.998973579375
0.999075159329
0.999293294864
0.999392608634
0.999341540147
0.999190459985
0.999122591838
0.999241067124
0.999290895969
0.999211176893
0.999574685748
0.999954118858
1
0.999999999849
1.00000000005
1
0.999726629304
0.999203595518
0.999111876432
0.998509542496
0.998336685756
0.998644173348
0.999027337199
0.999141843749
0.999054618421
0.998718782991
0.998474313106
0.998744214858
0.999244579364
0.999351079173
0.99933282435
0.99974613586
1
1.00000000001
1.00000000007
1
0.999573400968
0.999152346536
0.998653561576
0.998213615825
0.998274097777
0.99861226929
0.999013637982
0.999124686494
0.998925559896
0.998545691282
0.998376073189
0.998674976457
0.998997545996
0.999544575379
0.999340512926
0.999608775052
1.00000000001
0.999999999999
1.00000000002
0.99998495829
0.999486842133
0.999328773565
0.998693385111
0.998292132213
0.998283419615
0.998983690311
0.999366557896
0.999453105568
0.999294888482
0.998748442588
0.998389911015
0.998781155206
0.999224925162
0.999538190102
0.999481488344
0.999543265734
0.999988712578
1
1.00000000003
0.999981842056
0.999487046275
0.999510058824
0.998874535711
0.998577967931
0.998724901907
0.999621268328
1
1
1
0.999696244373
0.99886414717
0.999068833038
0.999459198317
0.999681066009
0.999580609738
0.999548758252
0.999989087406
1
1.00000000001
0.999993516665
0.99951046363
0.999592333183
0.99903634793
0.998829661352
0.999029131817
0.999831006541
1.0000000703
1.00000000043
1
0.999947661155
0.99918585077
0.999291225457
0.999602198718
0.999776218682
0.999624466785
0.99957254583
1
0.999999999995
1
0.999996230534
0.999515007285
0.999594624416
0.999043921634
0.998846876521
0.999030818275
0.999827383881
1.00000011116
1.00000000582
1
0.999946158631
0.999194701032
0.999310604412
0.999612302463
0.999788690906
0.999626312676
0.999574359637
1
0.999999999981
1.00000000003
0.999983007697
0.99949360441
0.999524834035
0.998897592051
0.998633470348
0.998817800563
0.99970108258
1.00000009358
1
1
0.999797575482
0.998955779684
0.999122035917
0.999493432554
0.99970665272
0.99959061592
0.999552238717
0.999988716756
1
1.00000000001
0.999985896093
0.999493879425
0.999366969943
0.998732038483
0.998354859224
0.998368681817
0.999106725795
0.999496763035
0.999575811783
0.999420388678
0.99887477626
0.998491413873
0.998850455241
0.999280572288
0.999546413125
0.999505038366
0.999550066993
0.999988345911
1
1.00000000001
1
0.999580395135
0.999190148273
0.99866039947
0.998260534559
0.998321893512
0.998674768882
0.99906728168
0.999176973708
0.998980909803
0.998606020796
0.998433314346
0.998720461019
0.9989964304
0.999563172784
0.999368233707
0.999616940746
1.00000000001
1
1.00000000001
1.00000000005
0.999732746209
0.999219318381