/*--------------------------------*- C++ -*----------------------------------*\
| =========                 |                                                 |
| \\      /  F ield         | OpenFOAM: The Open Source CFD Toolbox           |
|  \\    /   O peration     | Version:  3.0.1                                 |
|   \\  /    A nd           | Web:      www.OpenFOAM.org                      |
|    \\/     M anipulation  |                                                 |
\*---------------------------------------------------------------------------*/
FoamFile
{
    version     2.0;
    format      ascii;
    class       volScalarField;
    location    "6.1";
    object      ddt0(k);
}
// * * * * * * * * * * * * * * * * * * * * * * * * * * * * * * * * * * * * * //

dimensions      [0 2 -3 0 0 0 0];

internalField   nonuniform List<scalar> 
7968
(
-0.000116415893393
-0.000128617714789
-0.000138255295501
-0.000144404371749
-0.000148161075967
-0.000150380432107
-0.000151538650679
-0.000152197987269
-0.000152601746895
-0.000152872455524
-0.000153087318205
-0.00015298073459
-0.000152646349039
-0.000152019268396
-0.000150859935731
-0.000148630369205
-0.000144815744872
-0.000138581428997
-0.000128837614149
-0.000116520211045
-0.000128604100588
-0.000183626079325
-0.00022089989589
-0.000243814338426
-0.000257514370275
-0.00026511899752
-0.000268858275165
-0.00027066124716
-0.000271655047893
-0.00027223645619
-0.000272433040554
-0.000272135012268
-0.000271352710451
-0.000269692278048
-0.000266028779881
-0.000258482277032
-0.00024473042893
-0.000221675804161
-0.000184156121948
-0.000128856554656
-0.000138256617934
-0.000220983343152
-0.000275910083012
-0.000309483577453
-0.000329508201269
-0.000340577471722
-0.000345994601382
-0.000348453597959
-0.000349739527114
-0.000350472274128
-0.000350663674042
-0.000350218380283
-0.00034916031833
-0.000346886971418
-0.000341602093808
-0.000330612338387
-0.000310548463457
-0.000276808832803
-0.000221605419544
-0.000138600931557
-0.000144420201924
-0.000243957720861
-0.000309545384794
-0.00034891179031
-0.000371487178746
-0.000382989678721
-0.000387886903659
-0.000389233206087
-0.000389985732969
-0.000390524550738
-0.000390716103365
-0.000390439703883
-0.000389891158068
-0.000388779285048
-0.000384047107209
-0.000372648256959
-0.000350019784811
-0.000310469215919
-0.000244597623564
-0.000144812366008
-0.000148188625209
-0.000257647205428
-0.000329557365546
-0.000371463706437
-0.000393683497831
-0.000401707207497
-0.000407307046243
-0.000410352649385
-0.000411844076937
-0.000412609138873
-0.000412775528433
-0.000412232384409
-0.00041088546733
-0.000407915653033
-0.000402033864152
-0.000394886643178
-0.000372613576592
-0.000330496190798
-0.000258298028882
-0.000148612437643
-0.000150403614209
-0.000265200556242
-0.00034053497812
-0.000382839388499
-0.000401542627056
-0.000414140827222
-0.000420638490702
-0.000423475347847
-0.000424643128931
-0.000425236857583
-0.000425414665793
-0.00042505119155
-0.000424044504559
-0.00042130710654
-0.000414755450565
-0.000402017573517
-0.000384043450948
-0.000341515462837
-0.000265885027377
-0.000150845449902
-0.000151548907987
-0.000268846802207
-0.000345796788402
-0.000387533467087
-0.000407142604722
-0.00042053974179
-0.000426663967827
-0.000428684992163
-0.000429264476021
-0.000429612251183
-0.00042982286118
-0.000429736210282
-0.000429350153712
-0.000427455787697
-0.000421321477318
-0.00040791453154
-0.000388840481308
-0.0003468517273
-0.000269573879067
-0.000152001027885
-0.000152178286532
-0.000270504151713
-0.000348054270487
-0.000388650177291
-0.000410050841385
-0.000423207460483
-0.000428491934982
-0.000429609698464
-0.000429632267078
-0.000429696149174
-0.000429959124321
-0.00043020312468
-0.000430414595718
-0.000429443288168
-0.000424126446178
-0.000410927958593
-0.000390038859177
-0.000349205682145
-0.000271294201134
-0.0001526333882
-0.000152533562397
-0.000271322261595
-0.000349121921453
-0.000389173489706
-0.000411368893783
-0.000424180712597
-0.000428851785088
-0.000429395984568
-0.000428814180533
-0.000428617971401
-0.000428973128767
-0.000429547312695
-0.000430341743658
-0.000429959291171
-0.000425237898765
-0.000412357528576
-0.000390706102776
-0.000350372873327
-0.000272173531277
-0.00015299131691
-0.000152716282126
-0.00027171695123
-0.00034963780367
-0.000389515327438
-0.000411948528148
-0.000424576036215
-0.000428970813129
-0.000429179930786
-0.000428279441648
-0.00042795895243
-0.000428415987405
-0.000429168843744
-0.000430260177551
-0.00043018186377
-0.000425718106573
-0.000413007299267
-0.000391112211715
-0.000350954151368
-0.000272609126142
-0.000153180947881
-0.000152727462914
-0.00027171584109
-0.00034962008901
-0.00038948289536
-0.000411918432271
-0.000424539039068
-0.00042892196877
-0.000429114166864
-0.000428193499593
-0.000427856399338
-0.000428312097101
-0.000429079366358
-0.000430190521549
-0.000430128554384
-0.000425675882491
-0.000412972182408
-0.000391074228349
-0.000350933858617
-0.000272609162314
-0.000153195749073
-0.000152554301467
-0.000271312210501
-0.000349067092297
-0.000389073504051
-0.000411279763862
-0.000424074982613
-0.000428717996583
-0.0004292247645
-0.000428599268948
-0.000428372560838
-0.000428723689836
-0.000429324060616
-0.000430161024749
-0.000429813864382
-0.000425117404112
-0.000412252024789
-0.000390583059545
-0.000350303310477
-0.000272158365489
-0.000153015656611
-0.000152209095517
-0.000270491066774
-0.000347974969074
-0.000388494735286
-0.000409914586818
-0.000423047998086
-0.000428292635034
-0.000429362046502
-0.000429337292388
-0.000429371152839
-0.00042963054133
-0.000429900742649
-0.000430157122215
-0.000429229075713
-0.000423944738975
-0.000410763815733
-0.000389843581486
-0.000349096405725
-0.000271266348341
-0.00015266651867
-0.000151589682303
-0.000268842754723
-0.000345718306541
-0.000387359311226
-0.000406951664025
-0.000420341070409
-0.000426423130361
-0.000428389274335
-0.000428923075635
-0.000429243738596
-0.000429451060916
-0.000429387035293
-0.000429042435588
-0.000427194645164
-0.000421090103974
-0.0004076868494
-0.000388613473155
-0.000346730171501
-0.000269544663189
-0.000152041719126
-0.000150452978571
-0.000265223337789
-0.000340490617068
-0.000382691711376
-0.000401081434992
-0.000413830747554
-0.000420375587095
-0.000423162418796
-0.000424290597052
-0.000424861785806
-0.000425036233905
-0.000424688820625
-0.000423715071147
-0.000421014901167
-0.000414410124198
-0.000401582287642
-0.000383833472585
-0.000341417575358
-0.000265871153801
-0.000150892749278
-0.000148250423879
-0.000257713048443
-0.000329571873512
-0.000371378913519
-0.00039346598387
-0.000401014355727
-0.00040698523456
-0.000410016034137
-0.000411485740099
-0.00041224089537
-0.000412405506209
-0.000411864001279
-0.000410532177947
-0.000407568563934
-0.000401445018082
-0.000394606370324
-0.00037246709415
-0.000330457255769
-0.000258331258967
-0.000148671964604
-0.000144486112777
-0.000244062993373
-0.000309627038548
-0.000348906269481
-0.000371363025383
-0.00038273616968
-0.000387516314188
-0.000388764895394
-0.000389494830104
-0.000390069021955
-0.00039025947272
-0.000389933761613
-0.000389405268382
-0.00038837292544
-0.000383746299495
-0.00037246792661
-0.000349958083302
-0.000310501857902
-0.000244673031023
-0.000144872435466
-0.000138318507539
-0.000221117405488
-0.00027604398101
-0.000309553012288
-0.000329480132847
-0.000340444060818
-0.000345759854552
-0.000348137413403
-0.000349380374044
-0.000350089723373
-0.000350278912727
-0.000349849312017
-0.000348825057518
-0.000346621189975
-0.000341428368473
-0.000330535081527
-0.000310568856107
-0.000276903133709
-0.000221712065836
-0.000138654744295
-0.000128652530995
-0.000183749303421
-0.000221040774118
-0.000243921149828
-0.0002575641953
-0.000265102037164
-0.000268777170113
-0.000270525511486
-0.000271486191772
-0.000272052238098
-0.000272249723851
-0.000271964646041
-0.000271209072123
-0.000269592979855
-0.00026598355207
-0.00025849347944
-0.000244807107415
-0.000221788308427
-0.000184256389566
-0.000128898312229
-0.000116435135379
-0.000128666279648
-0.000138324167678
-0.000144479994382
-0.000148234709151
-0.000150445202672
-0.000151590005415
-0.000152235521837
-0.000152629892643
-0.000152894504568
-0.000153113566642
-0.000153016109785
-0.000152692537127
-0.000152077697827
-0.000150928931224
-0.000148706742233
-0.000144892932452
-0.000138651181716
-0.000128888519491
-0.000116540011873
-0.000126891368219
-0.000177608371027
-0.00021262289732
-0.000234339422777
-0.000247524391114
-0.000255112896167
-0.000259048234952
-0.000260891722331
-0.000261691085574
-0.000262038955098
-0.000262188200466
-0.000262052442285
-0.000261384392471
-0.000259601692844
-0.000255669583853
-0.00024804946573
-0.000234775972657
-0.000212942001171
-0.00017781958675
-0.000127077534114
-0.000177525004593
-0.000362892133427
-0.000455987456687
-0.000512299834615
-0.000546047115983
-0.000564877741416
-0.00057425739704
-0.000578315646888
-0.000579917757128
-0.000580530108487
-0.000580712393731
-0.000580368895617
-0.000578958787483
-0.00057502203204
-0.000565694991248
-0.000546897983196
-0.000513080933099
-0.000456604151902
-0.000363235043737
-0.000177889740268
-0.000212545987134
-0.000456118621099
-0.000578351195791
-0.000654078863261
-0.000700907134093
-0.000728178740417
-0.000742574050428
-0.00074932260945
-0.000752543595367
-0.000753955070544
-0.000754163736946
-0.000753061759379
-0.000750050171498
-0.000743449515644
-0.000729134087557
-0.000701868032568
-0.00065494629218
-0.000579021663171
-0.000456494129191
-0.000213020134531
-0.00023429494525
-0.000512501455774
-0.000654160258391
-0.000742386161057
-0.00079684671128
-0.000828170447295
-0.000844108498701
-0.000849519814931
-0.000853150566589
-0.000854867268813
-0.000855060481238
-0.000853623320018
-0.000850181495105
-0.000845058459451
-0.000829271180444
-0.000797875853371
-0.000743271048292
-0.000654820560917
-0.000512868267805
-0.000234824824706
-0.000247500201289
-0.000546234408455
-0.000700977206904
-0.000796841433694
-0.000854748123984
-0.000887011535612
-0.000903243810558
-0.000910123127138
-0.000913192007757
-0.000914568712395
-0.000914802949962
-0.000913788696917
-0.000911016583961
-0.000904453705655
-0.000888565671767
-0.000855978755385
-0.000797776869025
-0.000701656357726
-0.000546627987362
-0.000248070528635
-0.000255077071611
-0.000564955819568
-0.00072813638254
-0.000828059768617
-0.000886940207936
-0.000918024715134
-0.000932471434879
-0.000938200950766
-0.000940482105582
-0.000941534537365
-0.000941809298455
-0.00094119336374
-0.000939323638199
-0.000933934217316
-0.00091965106503
-0.000888550728481
-0.000829133493982
-0.000728897786736
-0.000565428207272
-0.000255681950031
-0.000258971900823
-0.000574178261478
-0.00074233764549
-0.000843784241477
-0.000902837114668
-0.000932144278974
-0.000944310199027
-0.000948425728359
-0.000949932166311
-0.000950744901685
-0.000951060004124
-0.000950764947658
-0.000949822906413
-0.000946184930626
-0.000934041662848
-0.000904499209613
-0.000844930929086
-0.000743230011876
-0.000574778857797
-0.000259614877317
-0.000260739166714
-0.000578027668286
-0.000748849866295
-0.00084909798775
-0.00090933496644
-0.000937364179135
-0.000947841169202
-0.000950777229737
-0.000952114241984
-0.000952619491773
-0.000952959579251
-0.000953007290054
-0.000952457493454
-0.000950169133968
-0.000939693048149
-0.000911215861539
-0.000850046207167
-0.000749888651697
-0.000578774255481
-0.000261419493387
-0.000261428020733
-0.000579393938996
-0.000751794123496
-0.000852489995315
-0.000912014198627
-0.000939151498277
-0.000948799570775
-0.000951562428866
-0.000951985008452
-0.000952392331377
-0.00095283683533
-0.000953100876172
-0.000953374734114
-0.000951483801648
-0.000941863496497
-0.000914184195962
-0.000853580679425
-0.000753003702976
-0.000580275520876
-0.000262142131612
-0.000261640424438
-0.000579773174233
-0.000752921822299
-0.000853942084516
-0.000913036053541
-0.000939794882718
-0.000949160944418
-0.000951585260142
-0.000951820030597
-0.000952367247498
-0.000952888647816
-0.000953119028659
-0.000953589768076
-0.000952034669066
-0.000942701560113
-0.00091537058766
-0.000855137666415
-0.000754240790646
-0.000580740162105
-0.00026237965229
-0.000261641118502
-0.000579740695366
-0.000752871625094
-0.000853883009882
-0.000912951753875
-0.000939691988721
-0.000949038133905
-0.00095143737967
-0.000951646331794
-0.000952178848378
-0.00095269794705
-0.000952940499539
-0.000953433203924
-0.000951897531089
-0.000942580051404
-0.000915268567265
-0.000855065786843
-0.000754180166517
-0.000580703644254
-0.000262383689644
-0.000261427527904
-0.000579298346078
-0.000751645682187
-0.000852311816616
-0.000911764435088
-0.000938848909709
-0.00094844854235
-0.000951158142717
-0.000951500650231
-0.000951873906694
-0.000952313576106
-0.000952606896477
-0.000952938043059
-0.000951092596305
-0.000941511369614
-0.000913883542768
-0.00085336199108
-0.000752818925836
-0.000580159664943
-0.000262143643127
-0.000260740637407
-0.000577883912299
-0.000748621081886
-0.000848808388702
-0.000908941303742
-0.000936879131209
-0.000947273269234
-0.000950123150272
-0.000951381506937
-0.000951834316258
-0.000952165990919
-0.000952249597027
-0.000951770272315
-0.000949551660846
-0.000939141163132
-0.000910745617159
-0.000849688558042
-0.00074959519773
-0.000578588994266
-0.00026141734414
-0.000258979900003
-0.000574010874947
-0.000742062962782
-0.000843406025767
-0.00090239066982
-0.000931548231297
-0.000943567432906
-0.000947564439131
-0.000948982291678
-0.000949740642552
-0.000950043875371
-0.000949786047292
-0.000948921357553
-0.00094538278185
-0.000933364221354
-0.000903947743817
-0.000844453478493
-0.000742864185436
-0.000574547257266
-0.000259612502522
-0.000255098266224
-0.000564798045962
-0.000727872217321
-0.000827704044497
-0.000886630080561
-0.000917499292767
-0.000931666896827
-0.000937234681156
-0.000939422533629
-0.000940421873303
-0.000940680985675
-0.000940096149099
-0.000938305283638
-0.000933058643372
-0.000919000883436
-0.000888048888109
-0.000828648904795
-0.000728520303118
-0.000565186542175
-0.000255687573123
-0.000247542532885
-0.00054612024497
-0.000700759475908
-0.000796490577773
-0.000854331538
-0.000886680546197
-0.000902475555147
-0.00090914413748
-0.000912130740971
-0.000913461999194
-0.00091368257143
-0.000912690734413
-0.000909984784486
-0.000903591427559
-0.00088798230867
-0.000855416715507
-0.000797292896127
-0.000701316763129
-0.000546421545366
-0.000248095390955
-0.000234353981074
-0.000512449142698
-0.000654021050135
-0.000742101447469
-0.000796402230196
-0.000827603626621
-0.000843317475344
-0.000848664759455
-0.000852265053363
-0.000853963378297
-0.00085414766322
-0.000852711263262
-0.000849285128568
-0.000844195522851
-0.000828587034167
-0.000797306129748
-0.000742856902655
-0.000654563093496
-0.000512724286658
-0.000234864698568
-0.0002126153887
-0.000456128984067
-0.000578299369028
-0.000653895520959
-0.000700561249185
-0.000727671710953
-0.000741907715925
-0.000748550281415
-0.000751714903106
-0.000753093892252
-0.000753293112608
-0.00075220443669
-0.000749230247179
-0.000742710659843
-0.000728530963698
-0.000701410894337
-0.000654649165242
-0.000578863975246
-0.000456419833783
-0.000213069641362
-0.000177590172094
-0.000362937547163
-0.000456005434979
-0.000512225599734
-0.000545852171583
-0.000564561830268
-0.000573836144067
-0.000577813781541
-0.000579369472063
-0.000579958048416
-0.000580135687597
-0.00057980443943
-0.000578426371924
-0.000574549241468
-0.000565308722201
-0.000546621617939
-0.000512921394702
-0.000456540890611
-0.00036321477485
-0.000177940124941
-0.000126924452387
-0.000177664378281
-0.000212694500806
-0.000234405340053
-0.000247570523426
-0.000255129813013
-0.000259033450851
-0.000260849247941
-0.000261632049478
-0.000261972540509
-0.000262124573742
-0.000261998825835
-0.000261346247001
-0.000259585313964
-0.000255678524602
-0.000248084229292
-0.000234828331445
-0.000212999335332
-0.000177866874873
-0.000127114046142
-0.000133803593055
-0.000206374998578
-0.000256411347472
-0.000287880102528
-0.000307366698756
-0.000318842029746
-0.000324953343488
-0.000327757018804
-0.000328751585546
-0.000328976368801
-0.00032906040397
-0.000328984810939
-0.000328118024708
-0.000325390898441
-0.00031929036884
-0.000307774525696
-0.000288190366651
-0.000256602693231
-0.000206504653886
-0.000134056477402
-0.00020622401867
-0.000441677651839
-0.000560918139143
-0.000634829047313
-0.000680787700294
-0.000707838671465
-0.000722360600461
-0.000729340929673
-0.000732277319065
-0.0007333091123
-0.000733463144612
-0.000732675600725
-0.00072991231908
-0.000723014729052
-0.000708498353013
-0.000681413678332
-0.000635337628802
-0.000561226265954
-0.000441717287292
-0.000206650133084
-0.000256240392157
-0.00056105881016
-0.000714181299318
-0.00081118421548
-0.000873217028765
-0.000911058108888
-0.000932289953053
-0.000943927623007
-0.000949581630594
-0.000951925393138
-0.000952156092958
-0.000950185760494
-0.000944778920216
-0.000933232555497
-0.000911997504108
-0.000874046938769
-0.000811818599665
-0.000714545096712
-0.000561106648156
-0.000256790119618
-0.000287730819103
-0.00063502719133
-0.00081124790253
-0.000923517454312
-0.000995469269656
-0.00103918325603
-0.00106185296096
-0.00107700746317
-0.00108399629415
-0.00108692731996
-0.00108721304315
-0.00108476518577
-0.00107810912826
-0.00106298554336
-0.00104041403317
-0.000996514237686
-0.000924297028697
-0.000811702709559
-0.000635125107342
-0.000288364568765
-0.000307215013573
-0.000680924343927
-0.000873228797087
-0.000995435895808
-0.00107272674135
-0.0011193519428
-0.00114422884307
-0.00115845972787
-0.00116608809112
-0.00116903169147
-0.001169356166
-0.00116701254841
-0.00116136074632
-0.00114781400709
-0.00112112990784
-0.00107412368724
-0.000996434760267
-0.000873868969635
-0.000681179255982
-0.000307938881997
-0.000318640321746
-0.000707791575057
-0.000910896093818
-0.00103899631194
-0.00111916296991
-0.00116392803189
-0.00118751794544
-0.00120368233758
-0.00121281725659
-0.00121549707181
-0.00121579964947
-0.00121376396103
-0.00121081321064
-0.00120046964333
-0.00117164806565
-0.00112117465625
-0.00104032997528
-0.000911824622073
-0.000708302743323
-0.000319467270761
-0.000324658233607
-0.000722059833254
-0.000931852270837
-0.00106143353425
-0.00114361130137
-0.00118325342298
-0.00120612218453
-0.00122478058762
-0.00123517958806
-0.00123748889971
-0.00123768482763
-0.0012359844181
-0.00123611024285
-0.00123124736298
-0.00120391558393
-0.00114809182975
-0.00106297675253
-0.000933128025181
-0.000722887011301
-0.000325597097644
-0.000327332614944
-0.000728726630941
-0.000943108724764
-0.0010760376749
-0.00115522240743
-0.00119074753518
-0.00121363152806
-0.00123309793998
-0.00124386210497
-0.00124586145921
-0.00124594961439
-0.00124449279408
-0.00124656670686
-0.00124538940612
-0.00122139392421
-0.00116369401338
-0.00107839034254
-0.00094481501262
-0.000729877843702
-0.000328364512068
-0.000328187655415
-0.000731332562953
-0.000948343222646
-0.00108250446622
-0.00116061647165
-0.00119489245782
-0.00121727695082
-0.00123661314509
-0.0012472178591
-0.00124910935361
-0.00124919781045
-0.00124790678419
-0.00125061716072
-0.00125083649215
-0.00122838946774
-0.0011710468719
-0.00108531666137
-0.000950384799452
-0.000732741607075
-0.000329275035693
-0.000328289406653
-0.000732071148196
-0.000950292485729
-0.00108496624407
-0.00116301990712
-0.00119705479896
-0.00121916852383
-0.00123824913876
-0.00124870052874
-0.00125061021227
-0.00125068401396
-0.00124943965404
-0.00125229143125
-0.00125279623035
-0.00123073226426
-0.00117369233645
-0.00108799843839
-0.000952520461041
-0.000733629854803
-0.000329405058372
-0.000328270402807
-0.000731994486164
-0.000950203957887
-0.00108486938605
-0.0011629145672
-0.00119694550944
-0.00121905989493
-0.00123813761004
-0.0012485709096
-0.00125047275076
-0.00125055040991
-0.00124932446247
-0.0012521786424
-0.00125267472355
-0.00123059974396
-0.00117356217636
-0.00108788026183
-0.000952417201961
-0.000733546741538
-0.000329392145826
-0.000328138705382
-0.00073111692432
-0.000948089334391
-0.00108222094959
-0.00116030134189
-0.00119455634023
-0.00121693098893
-0.00123623391035
-0.00124677411873
-0.00124863825838
-0.00124875020026
-0.00124750868574
-0.00125024271453
-0.00125044724757
-0.00122798321471
-0.00117065644593
-0.00108496635523
-0.000950079625554
-0.000732495426329
-0.000329233087915
-0.000327263846437
-0.000728398726456
-0.000942717330016
-0.00107558697357
-0.00115455950785
-0.00118963558148
-0.00121206121044
-0.00123124202194
-0.00124186960374
-0.00124384586763
-0.00124394023115
-0.0012425172598
-0.00124467038055
-0.00124370793924
-0.00122015089828
-0.00116291344996
-0.00107783345825
-0.000944332938753
-0.000729487627151
-0.000328295613948
-0.000324577008517
-0.00072165377351
-0.00093136154954
-0.00106086235981
-0.00114274445319
-0.00118140778678
-0.00120300125919
-0.00122089777923
-0.00123103135238
-0.00123329746548
-0.00123349183373
-0.00123182985378
-0.00123215081657
-0.00122795597453
-0.00120190788538
-0.00114708691711
-0.00106227850455
-0.000932512275765
-0.000722385496725
-0.00032550544053
-0.00031855801148
-0.000707356247894
-0.000910356343104
-0.00103833567019
-0.00111839637353
-0.001162484549
-0.00118467352717
-0.00119974626273
-0.00120851681724
-0.0012111337802
-0.00121141996997
-0.00120941751711
-0.00120677457382
-0.00119748274034
-0.00117005593652
-0.00112024495206
-0.00103950465848
-0.000911129988275
-0.000707745203322
-0.000319365842527
-0.00030714679635
-0.000680512336191
-0.000872697625269
-0.000994761563721
-0.00107190721452
-0.00111839621262
-0.00114288224687
-0.00115662643567
-0.00116398352608
-0.00116684886328
-0.0011671535258
-0.00116484846772
-0.00115943142428
-0.00114635607176
-0.00112001815391
-0.00107313509003
-0.000995581760704
-0.000873171140268
-0.000680632940489
-0.000307846614665
-0.000287685019491
-0.000634683604816
-0.000810778485473
-0.000922890075946
-0.000994662102875
-0.00103819737992
-0.00106073244657
-0.00107572041623
-0.00108259053729
-0.00108544599751
-0.00108571251605
-0.00108330068292
-0.00107673125906
-0.00106176281986
-0.00103928361167
-0.000995538681011
-0.000923495684756
-0.000811071757645
-0.000634648885083
-0.000288291923983
-0.000256222967038
-0.000560805595029
-0.000713809348278
-0.000810651148451
-0.00087249921032
-0.000910156877447
-0.000931233383666
-0.000942746721564
-0.000948301172376
-0.000950579941366
-0.000950795168188
-0.000948858702873
-0.000943522813262
-0.000932076147493
-0.000910966865411
-0.000873179502128
-0.000811131532408
-0.000714026964553
-0.000560731332257
-0.000256746639956
-0.000206235848569
-0.000441513843749
-0.000560668187531
-0.000634445167895
-0.000680254434123
-0.00070715980248
-0.000721557212621
-0.000728438790067
-0.000731302915652
-0.000732292453092
-0.00073243795284
-0.000731673089411
-0.000728961505191
-0.000722136658221
-0.000707719646393
-0.000680763871667
-0.000634831545526
-0.000560859674864
-0.000441459821643
-0.000206646405087
-0.000133833050329
-0.000206391693871
-0.000256416479996
-0.000287860790657
-0.000307313703859
-0.000318749886323
-0.000324823935654
-0.000327597290272
-0.000328572309563
-0.000328787690383
-0.000328875015776
-0.000328812713563
-0.000327965227486
-0.00032526016259
-0.000319186479222
-0.000307702152322
-0.000288146447028
-0.000256583209496
-0.000206505464586
-0.000134091494942
-0.000136323594953
-0.000220664811219
-0.000279225559151
-0.000316750283432
-0.000340419947244
-0.000354547454103
-0.000362060511432
-0.000365296343903
-0.000366140110109
-0.000366089037932
-0.000366074587508
-0.000366136748203
-0.000365357979412
-0.000362201061355
-0.000354713250333
-0.000340553949796
-0.000316788092069
-0.000279129315696
-0.000220564988925
-0.000136619212921
-0.000220424412816
-0.000484336687723
-0.000620086026391
-0.000706212324187
-0.000761044290164
-0.000794366963162
-0.00081302914104
-0.000822279587
-0.000826100752538
-0.000827260535017
-0.000827333403038
-0.000826313553412
-0.000822622721107
-0.000813447728718
-0.000794743574752
-0.000761299437049
-0.000706293903173
-0.000619912805837
-0.000483886474492
-0.000220850623469
-0.000278918108155
-0.000620207406458
-0.000793968590198
-0.000906309890392
-0.000980016468982
-0.00102653980272
-0.00105394808149
-0.00106897407343
-0.00107636001856
-0.00107934050305
-0.00107957848239
-0.0010770182222
-0.00106993704419
-0.00105504463656
-0.00102756302355
-0.000980820033498
-0.000906813204347
-0.000794072344507
-0.000619843169338
-0.000279525567724
-0.000316439121288
-0.000706310055133
-0.000906290091257
-0.00103594207302
-0.00112091505147
-0.00117308312299
-0.00120288172394
-0.00122313619912
-0.00123409735346
-0.00123793878774
-0.00123830886531
-0.00123515994893
-0.00122831983254
-0.00121238180319
-0.00117836703579
-0.00112235374203
-0.0010369622714
-0.000906809159112
-0.000706247913383
-0.000317195890196
-0.000340056992182
-0.000760949606596
-0.000979815677541
-0.00112077564737
-0.0012065944627
-0.0012583205638
-0.00129096839152
-0.00131894221666
-0.00133540554805
-0.00133934717406
-0.0013396820716
-0.00133647815065
-0.00133448556371
-0.00132419522492
-0.00128631037799
-0.00121690672496
-0.0011224187443
-0.000980908343759
-0.000761368218662
-0.000340999735443
-0.0003540635736
-0.00079392651741
-0.00102600545954
-0.00117264412819
-0.00125276469132
-0.00129822513538
-0.00133494613911
-0.00137312989459
-0.00139556393421
-0.00139895196072
-0.00139906212303
-0.00139611654147
-0.00140142220303
-0.00140273078992
-0.00136819854226
-0.00129099010068
-0.00117861243103
-0.00102783568195
-0.000795001063156
-0.000355230328151
-0.000361406489392
-0.000812152014845
-0.00105293871324
-0.00119797108414
-0.00127002698531
-0.00131179453515
-0.00135226591877
-0.00139863337576
-0.00142506131025
-0.00142756277099
-0.00142731986849
-0.00142478090468
-0.00143698313862
-0.00145128678795
-0.00142374519538
-0.00134237674002
-0.00121625403781
-0.00105559353673
-0.000813936612517
-0.000362803318564
-0.00036446365843
-0.000820938762574
-0.00106742064207
-0.00120912671313
-0.00127700057254
-0.00131581800492
-0.00135841532648
-0.0014079422684
-0.00143552636792
-0.00143719328828
-0.00143659628374
-0.00143439956647
-0.00145076396162
-0.00147322941377
-0.00145308253524
-0.0013709390843
-0.00123969270871
-0.00107079285875
-0.000823318236652
-0.000366017584429
-0.000365180394742
-0.000824355549441
-0.00107425543142
-0.00121543616906
-0.00128201699668
-0.00131990246603
-0.00136228541066
-0.00141196023129
-0.00143894076704
-0.001440102976
-0.00143945971445
-0.00143765867693
-0.00145522566224
-0.00148055822733
-0.00146357612635
-0.00138261774336
-0.0012502986242
-0.00107815713465
-0.000827135321985
-0.000366792232817
-0.00036506340325
-0.00082521667005
-0.00107674666958
-0.00121863433989
-0.00128535897513
-0.00132309473628
-0.00136515662848
-0.00141439718217
-0.00144081223892
-0.00144174350435
-0.00144094546726
-0.00143936376476
-0.00145726573778
-0.00148309382685
-0.00146676447758
-0.00138624311382
-0.00125384006817
-0.00108093511355
-0.000828206916874
-0.000366690535916
-0.000365014411359
-0.000825080120136
-0.00107660415736
-0.00121849819947
-0.00128523924385
-0.001323003184
-0.00136510714296
-0.00141437698567
-0.00144077818461
-0.00144172201749
-0.00144093087963
-0.0014393782189
-0.00145724443402
-0.0014830173574
-0.00146663125883
-0.00138607674841
-0.0012536643718
-0.00108076988715
-0.000828063031357
-0.000366651803976
-0.000365048299168
-0.000823974652754
-0.00107385053725
-0.00121503642203
-0.00128164664437
-0.00131958988515
-0.00136206137087
-0.00141177167211
-0.00143866068151
-0.00143983296104
-0.00143924069279
-0.00143752329859
-0.00145504937649
-0.00148025180433
-0.00146313676398
-0.00138210402443
-0.00124977658185
-0.00107767347734
-0.000826718502323
-0.0003666776524
-0.000364264579307
-0.000820354192851
-0.00106678835925
-0.00120811763977
-0.0012750761268
-0.0013127596276
-0.00135435026481
-0.00140317337064
-0.00143045617882
-0.00143212117973
-0.00143155701358
-0.00142937861314
-0.00144569572071
-0.00146842450939
-0.00144930709811
-0.00136860643094
-0.00123848654396
-0.00107002777437
-0.000822656640631
-0.000365830975807
-0.000361154406946
-0.000811407523983
-0.00105212870723
-0.00119632607315
-0.00126616625078
-0.00130479253279
-0.00134218934782
-0.00138647196069
-0.00141212600654
-0.00141461041049
-0.00141437867071
-0.00141186969703
-0.00142418685171
-0.00143970734676
-0.00141546944078
-0.00133794614676
-0.00121438046041
-0.00105460880163
-0.000813074259646
-0.000362551816821
-0.000353775302795
-0.000793072435904
-0.00102507059543
-0.00117123724128
-0.00124914488287
-0.00129059142242
-0.00132319493111
-0.00135844237164
-0.00137986318235
-0.00138319383286
-0.00138328915794
-0.00138037170738
-0.00138612059319
-0.00138975355148
-0.00135966234323
-0.00128698346807
-0.00117697400176
-0.00102670476679
-0.000794004382076
-0.00035493257132
-0.000339761411114
-0.000760066424722
-0.000978853173157
-0.00111970805906
-0.00120456004898
-0.00125343882659
-0.00128265958403
-0.00130826002318
-0.00132383524591
-0.00132766786596
-0.00132797981624
-0.00132483772947
-0.00132348740684
-0.00131536507424
-0.00128106177414
-0.00121464860816
-0.00112112860879
-0.000979751772391
-0.000760331762111
-0.000340686875264
-0.00031616419298
-0.000705486867268
-0.000905366168072
-0.00103489150019
-0.00111968688474
-0.0011712499429
-0.00119976109723
-0.00121868743811
-0.00122909525394
-0.00123281928145
-0.00123315843504
-0.00123006312703
-0.00122370482424
-0.00120905848355
-0.00117630485652
-0.00112091074723
-0.00103571074292
-0.000905706327397
-0.000705271073428
-0.000316895370086
-0.000278684504363
-0.000619495576247
-0.000793132601991
-0.000905324902969
-0.000978844110546
-0.00102515573601
-0.0010524016676
-0.00106726548158
-0.00107450985941
-0.00107739689424
-0.0010776093497
-0.00107509302232
-0.0010681140194
-0.00105335295359
-0.00102601131198
-0.000979473580406
-0.000905657411524
-0.000793073021857
-0.000618982257114
-0.000279264321878
-0.000220264610061
-0.000483784221697
-0.000619391726326
-0.000705374169901