/*--------------------------------*- C++ -*----------------------------------*\
| =========                 |                                                 |
| \\      /  F ield         | OpenFOAM: The Open Source CFD Toolbox           |
|  \\    /   O peration     | Version:  3.0.1                                 |
|   \\  /    A nd           | Web:      www.OpenFOAM.org                      |
|    \\/     M anipulation  |                                                 |
\*---------------------------------------------------------------------------*/
FoamFile
{
    version     2.0;
    format      ascii;
    class       volScalarField;
    location    "6.1";
    object      ddt0(epsilon);
}
// * * * * * * * * * * * * * * * * * * * * * * * * * * * * * * * * * * * * * //

dimensions      [0 2 -4 0 0 0 0];

internalField   nonuniform List<scalar> 
7968
(
-5.69074719019e-05
-6.79908623449e-05
-7.7128287978e-05
-8.30843889691e-05
-8.66551565732e-05
-8.85646177967e-05
-8.93498977423e-05
-8.95244293241e-05
-8.94384513199e-05
-8.93175039257e-05
-8.94161972707e-05
-8.96122545305e-05
-8.97327677861e-05
-8.95778794053e-05
-8.87975189985e-05
-8.68893173179e-05
-8.32934282448e-05
-7.72951786255e-05
-6.81007171758e-05
-5.69571800102e-05
-6.79889995008e-05
-0.00011983938251
-0.000159358461582
-0.000184642630769
-0.000199319043723
-0.000206516349255
-0.000209062416813
-0.000209311636593
-0.000208926496224
-0.000208668742834
-0.000208770200798
-0.000209170667268
-0.000209674527234
-0.000209521961754
-0.000207041253204
-0.000199900722907
-0.000185198584721
-0.000159821444667
-0.000120132742166
-6.81044154315e-05
-7.71438149901e-05
-0.000159424232203
-0.000222670706054
-0.00026336010428
-0.000287088958924
-0.000298791579915
-0.00030295896793
-0.000303440447519
-0.000302959719101
-0.000302649567386
-0.000302738196833
-0.000303176834561
-0.000303785580078
-0.000303446000763
-0.000299401799745
-0.000287783577569
-0.000264037759221
-0.000223228015073
-0.000159778109382
-7.72997390173e-05
-8.31119185236e-05
-0.000184763702849
-0.000263420224735
-0.000313375126986
-0.000341399481989
-0.000353945115503
-0.000357295977926
-0.0003562695795
-0.000355024016113
-0.000354429743283
-0.000354497315274
-0.000355165925934
-0.00035651055635
-0.000357734948736
-0.000354554325997
-0.000342120451787
-0.000314062723192
-0.00026396934786
-0.000185106112511
-8.32798880388e-05
-8.66924454772e-05
-0.000199436065314
-0.000287144526632
-0.000341380624329
-0.000369378906317
-0.000378261931942
-0.000384174729991
-0.000386240565108
-0.000386383136278
-0.000386212939105
-0.000386260949828
-0.000386480839406
-0.000386402389602
-0.000384406518433
-0.000378206216768
-0.000370124614928
-0.000342076420016
-0.000287666986343
-0.000199750936958
-8.68605550413e-05
-8.86014831497e-05
-0.000206597033736
-0.000298765082115
-0.000353791845788
-0.000378075047456
-0.000394546707436
-0.000402225757742
-0.000404304874333
-0.000404074087805
-0.000403627079443
-0.000403662450648
-0.000404139131843
-0.000404451606194
-0.00040249326548
-0.000394811071523
-0.000378203476292
-0.000354537973146
-0.000299300943744
-0.000206913447185
-8.87655111068e-05
-8.93789389847e-05
-0.000209070002414
-0.00030278719933
-0.000356925187562
-0.00038397550783
-0.000402108650728
-0.000409471501453
-0.000410411978793
-0.000409179042213
-0.000408189738289
-0.000408220656143
-0.000409225466605
-0.000410565895134
-0.000409799367155
-0.000402518628901
-0.000384426302868
-0.000357787735529
-0.000303383678836
-0.000209405644442
-8.95415317164e-05
-8.95346342277e-05
-0.000209210315179
-0.00030309623282
-0.00035568377621
-0.000385908909811
-0.000404028213419
-0.000410234059562
-0.000409661517363
-0.000407220930369
-0.000405517521605
-0.000405556998851
-0.000407271595321
-0.00040984424601
-0.00041063309148
-0.000404524570196
-0.000386452053825
-0.000356634177321
-0.000303775033135
-0.000209589010937
-8.96969951257e-05
-8.94197769151e-05
-0.000208704905227
-0.000302456384183
-0.000354277163571
-0.000385930460173
-0.000403668171624
-0.000408865154097
-0.000407081879088
-0.000403349855593
-0.000400810258416
-0.000400888806615
-0.000403456028606
-0.00040729853835
-0.000409325023411
-0.000404237215539
-0.000386546971581
-0.000355334175218
-0.000303209969761
-0.000209126559356
-8.95837941707e-05
-8.9250728582e-05
-0.000208328272554
-0.000302008304499
-0.000353587450024
-0.000385666122656
-0.000403136338465
-0.000407792603085
-0.000405274639443
-0.00040067189163
-0.000397490013688
-0.000397622350466
-0.000400850702669
-0.000405542749126
-0.000408286649332
-0.000403739274803
-0.000386316800726
-0.000354670062854
-0.000302803079189
-0.000208774821565
-8.94162545944e-05
-8.92436971139e-05
-0.000208306798584
-0.000301969007173
-0.000353534855546
-0.000385615217237
-0.000403079495805
-0.000407724320404
-0.00040518809704
-0.000400560633462
-0.000397355839358
-0.000397485515902
-0.000400733822821
-0.000405450329734
-0.000408211894551
-0.000403675020636
-0.000386257831023
-0.000354606125617
-0.000302753963622
-0.000208747189822
-8.94070457841e-05
-8.94043893386e-05
-0.0002086414222
-0.000302341102609
-0.000354118615509
-0.000385782562853
-0.000403506531873
-0.000408677108031
-0.000406854553225
-0.000403072034446
-0.000400492449764
-0.000400564704782
-0.000403165876144
-0.000407057783892
-0.000409121093852
-0.000404055857667
-0.000386375566599
-0.000355139345292
-0.000303063911497
-0.000209043004534
-8.95622477283e-05
-8.9518452155e-05
-0.000209115987184
-0.000302918951645
-0.000355426506402
-0.000385675193182
-0.000403774897824
-0.000409942240861
-0.000409318391965
-0.000406826128973
-0.000405085275839
-0.000405119005134
-0.000406865137436
-0.00040948651755
-0.000410321001624
-0.000404242552326
-0.000386181215335
-0.000356320810099
-0.000303548935684
-0.000209463131078
-8.9672528978e-05
-8.93673123295e-05
-0.000208965826754
-0.000302580859302
-0.000356607853585
-0.000383652404064
-0.000401781427263
-0.000409102480672
-0.000409984888131
-0.000408701220337
-0.000407679768453
-0.000407705241647
-0.000408735047793
-0.000410120682924
-0.000409403108777
-0.00040215065112
-0.000384055392699
-0.000357399859901
-0.000303115225083
-0.000209260176309
-8.95201000799e-05
-8.85986118997e-05
-0.000206511032952
-0.00029857704961
-0.000353475622074
-0.000377444635428
-0.000394079834614
-0.000401808138006
-0.000403834289474
-0.000403559800338
-0.000403086497076
-0.00040311610332
-0.000403609034076
-0.00040395619536
-0.00040203675198
-0.000394298000862
-0.000377587922765
-0.000354139940744
-0.000299039509306
-0.000206776286287
-8.87523390605e-05
-8.6703738596e-05
-0.000199391835416
-0.000287016356416
-0.000341126159577
-0.000368962724395
-0.000377381061138
-0.000383678061919
-0.00038572630212
-0.00038584260875
-0.0003856580389
-0.000385701004039
-0.000385921977232
-0.000385859160458
-0.000383869810033
-0.00037741899897
-0.000369624169979
-0.000341736590164
-0.000287463528885
-0.000199658970658
-8.68623830611e-05
-8.31344399206e-05
-0.000184770744578
-0.000263377088231
-0.000313222620306
-0.000341101218258
-0.00035349007545
-0.000356702723671
-0.000355573757016
-0.000354299566088
-0.000353730731392
-0.000353791581893
-0.000354412745725
-0.000355775169899
-0.00035707984192
-0.000354025232946
-0.00034173793188
-0.000313826743751
-0.000263854414337
-0.000185068322141
-8.32922987403e-05
-7.71713444019e-05
-0.000159476663195
-0.000222706508423
-0.000263317811409
-0.000286930914318
-0.000298509499268
-0.000302561264702
-0.000302952116499
-0.000302419111076
-0.00030207745251
-0.000302157742729
-0.000302610136992
-0.000303254181147
-0.000302990301565
-0.000299051784299
-0.000287548639525
-0.000263921731704
-0.000223204433035
-0.000159791067534
-7.73179269298e-05
-6.80145848172e-05
-0.000119903745308
-0.000159430936762
-0.000184676013482
-0.000199285522478
-0.000206407698871
-0.000208884439729
-0.000209074985901
-0.000208650005612
-0.000208369354322
-0.000208465707697
-0.000208878059532
-0.00020940994484
-0.000209305140788
-0.000206884966768
-0.000199811271939
-0.000185186171209
-0.000159853614197
-0.00012016879826
-6.81237620698e-05
-5.69180807716e-05
-6.80166530534e-05
-7.7164128134e-05
-8.31201217874e-05
-8.6682247219e-05
-8.85774016163e-05
-8.93467234585e-05
-8.95054692508e-05
-8.94067931888e-05
-8.92758280868e-05
-8.93730432799e-05
-8.95767256533e-05
-8.97084089596e-05
-8.95677463455e-05
-8.88020261112e-05
-8.69080532377e-05
-8.33218882835e-05
-7.73250533473e-05
-6.81233199985e-05
-5.69664352339e-05
-6.63841954893e-05
-0.000111180097553
-0.000146969382077
-0.000170924729047
-0.00018578369944
-0.000194077076305
-0.000197944126346
-0.000199243928915
-0.000199403247349
-0.000199306771193
-0.000199381928207
-0.000199581449887
-0.000199488104103
-0.000198222535446
-0.000194360886449
-0.000186054385427
-0.00017114647636
-0.000147125498959
-0.000111279704764
-6.64751329536e-05
-0.000111145755009
-0.000136879347633
-0.000168031682228
-0.000190697055802
-0.000205436553364
-0.000214074493942
-0.000218516473954
-0.000220434178211
-0.000221107878572
-0.000221298272034
-0.000221337394556
-0.000221201811508
-0.000220566966816
-0.000218674851774
-0.000214246010605
-0.000205619093316
-0.0001908811635
-0.000168217097401
-0.000137065073379
-0.000111295856054
-0.000146947568108
-0.000168001657717
-0.000202105763306
-0.0002279391812
-0.00024503789643
-0.0002551054642
-0.000260241102758
-0.000262400798575
-0.000263155195176
-0.000263367957314
-0.000263396139829
-0.000263219843847
-0.000262490158769
-0.000260352502293
-0.000255234642699
-0.000245184778085
-0.000228104546481
-0.000202301338786
-0.00016823748304
-0.000147143550142
-0.000170931160867
-0.000190647999441
-0.000227915649902
-0.000256642527956
-0.000275759765033
-0.000286998560768
-0.000292747545182
-0.000294977994051
-0.000295904930895
-0.000296196731161
-0.000296214729164
-0.000295940750528
-0.000295023226432
-0.00029282435354
-0.000287095737319
-0.000275884658559
-0.00025679425755
-0.000228113669687
-0.000190908556928
-0.000171141696813
-0.000185809091249
-0.000205367689018
-0.000244988850238
-0.000275733828596
-0.000296164621453
-0.000308227440206
-0.000315681990233
-0.000319498297542
-0.000321148304986
-0.000321713227912
-0.000321733468523
-0.000321191029044
-0.000319549641973
-0.000315727755488
-0.000308232589189
-0.000296276911114
-0.000275887823806
-0.000245197048774
-0.000205646062707
-0.000186023965061
-0.000194094536128
-0.000213976349007
-0.000255020924152
-0.000286935200863
-0.00030819821325
-0.000322953647838
-0.000332061342604
-0.000336914286427
-0.000339080486446
-0.00033984263569
-0.000339865588876
-0.000339130940367
-0.000336987895092
-0.000332141587684
-0.000323008021724
-0.000308232683551
-0.000287106675622
-0.00025525519526
-0.000214277852715
-0.000194317471344
-0.000197928244599
-0.00021838067078
-0.000260111025343
-0.000292640045391
-0.000315641385039
-0.000332046763564
-0.000342274775234
-0.000347755424822
-0.000350215438918
-0.000351074770215
-0.000351096969125
-0.000350265251038
-0.000347839752857
-0.000342383439185
-0.000332149746924
-0.000315731221834
-0.000292846206199
-0.00026038390604
-0.000218712797329
-0.000198173389394
-0.000199169224575
-0.000220250686149
-0.000262221948923
-0.000294846059022
-0.000319436946573
-0.00033687538873
-0.000347740401804
-0.000353519667018
-0.000356112465131
-0.000356931318698
-0.000356942015563
-0.000356132257039
-0.000353591886864
-0.000347853044868
-0.000337010098863
-0.000319561605479
-0.00029504745598
-0.000262532680498
-0.000220614617721
-0.000199443377395
-0.00019924995997
-0.000220871606644
-0.000262927680392
-0.000295741624382
-0.00032105686171
-0.000339006883553
-0.000350166060269
-0.000356080066344
-0.000358509687638
-0.00035919433435
-0.000359205612038
-0.00035851652141
-0.000356118402504
-0.000350271109283
-0.000339151034447
-0.00032120160731
-0.000295965664608
-0.000263271231508
-0.000221261997288
-0.000199552023977
-0.00019906350533
-0.00022100972537
-0.000263093918472
-0.000296000904229
-0.000321586466374
-0.000339729064217
-0.000350981393438
-0.000356863912215
-0.000359149212596
-0.000359734244741
-0.000359753194908
-0.000359167139343
-0.000356898242018
-0.00035108667662
-0.000339877276388
-0.000321739629391
-0.000296236282802
-0.000263455529967
-0.000221415447045
-0.000199383302395
-0.000199044846018
-0.00022100005131
-0.000263079777779
-0.000295984315809
-0.000321570494911
-0.000339713283433
-0.000350964761168
-0.000356846580454
-0.000359129400085
-0.000359713819971
-0.000359735298876
-0.000359153282418
-0.000356886322622
-0.00035107432503
-0.000339862896218
-0.000321722471635
-0.000296216859518
-0.000263438206463
-0.000221403416465
-0.00019936172741
-0.000199197908315
-0.000220842972002
-0.000262885209191
-0.000295690963101
-0.000321009445882
-0.000338961937719
-0.000350120951835
-0.000356035956
-0.000358456986824
-0.00035914195037
-0.000359160694671
-0.000358479407153
-0.000356084473156
-0.000350234080277
-0.000339107088412
-0.000321149109511
-0.000295905556229
-0.000263218253602
-0.000221224681274
-0.000199489230257
-0.000199094800287
-0.000220207287501
-0.000262154182543
-0.000294761275556
-0.000319358975844
-0.00033680481585
-0.000347673358608
-0.00035345433573
-0.000356047728157
-0.000356867478722
-0.000356884532879
-0.000356078551985
-0.000353536412906
-0.000347790634359
-0.000336935508019
-0.0003194728184
-0.000294945844523
-0.000262447004127
-0.000220556140665
-0.00019935126116
-0.000197846643841
-0.000218330304056
-0.000260026070615
-0.000292525250451
-0.000315529485571
-0.00033194837947
-0.00034218628166
-0.000347671162584
-0.000350133675725
-0.000350995958662
-0.000351022920725
-0.000350192480374
-0.000347760998558
-0.000342293623082
-0.000332041930256
-0.000315604287386
-0.000292707283972
-0.000260274567696
-0.000218641569579
-0.000198068396774
-0.000194022673706
-0.000213929723314
-0.000254932865726
-0.000286806649824
-0.000308035910658
-0.000322810452258
-0.000331939659013
-0.000336796869908
-0.000338966761187
-0.000339731925944
-0.000339756419139
-0.00033901883311
-0.000336867858841
-0.000332012650934
-0.000322851810336
-0.000308056186015
-0.000286947786143
-0.000255137138961
-0.000214205721825
-0.000194218417372
-0.000185762943048
-0.000205335164075
-0.000244912000592
-0.000275611326026
-0.000296001752009
-0.000308023159049
-0.000315514765558
-0.000319335636384
-0.000320991009279
-0.000321559985364
-0.000321580266607
-0.000321031093695
-0.000319379015947
-0.000315548751389
-0.000308022962644
-0.000296083519274
-0.000275730537484
-0.000245087541666
-0.000205586357308
-0.000185949576146
-0.000170915005719
-0.000190636436333
-0.000227863073258
-0.000256544625424
-0.000275618753414
-0.000286819504093
-0.000292541677312
-0.000294764676697
-0.000295695425202
-0.000295990226916
-0.000296006788855
-0.000295725180694
-0.000294798654865
-0.000292598343462
-0.000286888993624
-0.000275709638386
-0.000256661030729
-0.000228028384198
-0.000190869834004
-0.000171097463158
-0.000146958335334
-0.000168011438043
-0.000202084093342
-0.000227878836813
-0.000244936937722
-0.000254966792692
-0.000260069309549
-0.000262205899883
-0.000262949056106
-0.000263155048705
-0.000263180661825
-0.00026300529831
-0.000262280465328
-0.00026015881738
-0.000255068093653
-0.000245052122516
-0.00022801190453
-0.000202249537434
-0.000168221899213
-0.000147128743
-0.000111171346762
-0.000136900228357
-0.000168036431141
-0.000190675536496
-0.000205382297348
-0.000213986634038
-0.000218398302652
-0.000220291247333
-0.000220949096164
-0.000221130655937
-0.000221167676989
-0.000221036041769
-0.0002204114659
-0.000218538037315
-0.000214134769838
-0.00020553883408
-0.000190833379136
-0.000168197061955
-0.000137065369444
-0.000111304430089
-6.64014669617e-05
-0.00011119111959
-0.000146976671885
-0.000170915210319
-0.000185744461348
-0.000193999694568
-0.000197828046778
-0.000199093262503
-0.000199227098147
-0.000199114683778
-0.00019918716006
-0.000199397088792
-0.000199323236828
-0.000198086125752
-0.000194258484111
-0.000185988554103
-0.000171111009648
-0.000147109461483
-0.000111275808744
-6.64920415343e-05
-7.35318052218e-05
-0.000141224257373
-0.000196692224852
-0.000234788091591
-0.000259140384287
-0.000273331934786
-0.000280496503549
-0.000283370682923
-0.000284103109869
-0.000284111651282
-0.000284137369902
-0.000284176241539
-0.000283495080076
-0.000280654392775
-0.000273490430093
-0.000259273236384
-0.000234864167585
-0.000196710739015
-0.000141241839803
-7.3660267055e-05
-0.000141153592438
-0.000163766076124
-0.000198493168631
-0.000225312724381
-0.000243829603079
-0.000255558763264
-0.000262293078891
-0.000265746074296
-0.000267288743249
-0.000267838502748
-0.000267861021743
-0.000267348907393
-0.000265835679754
-0.000262396948803
-0.000255662250958
-0.000243928717371
-0.000225410719733
-0.000198608356315
-0.000163920759405
-0.000141290407586
-0.000196615123325
-0.000198417817687
-0.000228694913376
-0.000254148489661
-0.000272340011945
-0.000284063752084
-0.000290855816067
-0.000294479184539
-0.000296158799508
-0.000296788404883
-0.000296808682128
-0.00029621127954
-0.000294552730399
-0.00029093433648
-0.000284142503406
-0.000272421143408
-0.000254250945054
-0.000228853014043
-0.000198661018534
-0.000196781252954
-0.000234734609825
-0.000225187704967
-0.000254088011151
-0.000279730997786
-0.000298431709343
-0.000310618505366
-0.00031747658905
-0.000321638517013
-0.000323558827589
-0.000324285197444
-0.000324303322218
-0.00032360743185
-0.000321706659446
-0.000317536591528
-0.00031069614698
-0.000298516968061
-0.000279851422341
-0.000254285913471
-0.00022549090876
-0.000234921273941
-0.000259092703735
-0.000243666775435
-0.00027223102219
-0.00029838344474
-0.000317708903925
-0.000330679113677
-0.00033854628369
-0.000343178401348
-0.00034556908754
-0.000346430509233
-0.000346446095268
-0.000345619909146
-0.000343559194531
-0.000339020720777
-0.000330788427439
-0.000317826888258
-0.000298540013479
-0.000272477771463
-0.000244021850054
-0.000259311867983
-0.000273247089086
-0.000255355529254
-0.000283910725454
-0.000310528647435
-0.000330638935558
-0.000344255770896
-0.00035287882584
-0.000358715900383
-0.000361888876522
-0.000362887930611
-0.000362885336368
-0.000361904622924
-0.000359896422139
-0.000355167031153
-0.00034549595351
-0.00033081171913
-0.000310739001533
-0.000284216536937
-0.000255765189495
-0.000273524018828
-0.000280332806506
-0.000262044139999
-0.000290660092941
-0.000317358753445
-0.000338463191954
-0.000352085388018
-0.00036158597485
-0.000368717073764
-0.000372612569318
-0.000373701474109
-0.000373658470022
-0.000372543171025
-0.00037069103949
-0.00036626071517
-0.000355838446275
-0.000339077681741
-0.00031759703921
-0.000291025070929
-0.000262510342096
-0.000280693998944
-0.000283098627061
-0.000265444336808
-0.000294238221957
-0.000321470768484
-0.000342654592539
-0.000356271790756
-0.000366574117784
-0.000374450981985
-0.000378724826022
-0.000379818859188
-0.000379725822171
-0.000378540798064
-0.000376786230865
-0.000372517372175
-0.000361955608342
-0.000343989658164
-0.000321797486167
-0.000294660339477
-0.000265960192692
-0.000283543587318
-0.000283719064739
-0.00026693171434
-0.000295871426597
-0.000323348552796
-0.000344680393815
-0.000358528676073
-0.000369186944822
-0.000377341149293
-0.000381694821546
-0.000382746701405
-0.000382629335715
-0.000381453312297
-0.000379703377263
-0.000375418140868
-0.000364705981487
-0.000346326932151
-0.000323710615112
-0.000296329115444
-0.000267481197655
-0.000284222868272
-0.000283636321618
-0.000267433737557
-0.000296459606994
-0.0003240383757
-0.00034550621206
-0.000359506891605
-0.000370291636367
-0.000378490159052
-0.000382810615336
-0.000383821659532
-0.000383681904492
-0.000382537575762
-0.000380808420359
-0.000376488053097
-0.000365671839646
-0.00034715384411
-0.00032441120683
-0.000296934072197
-0.000268001112987
-0.000284170042872
-0.000283596043892
-0.000267421146593
-0.000296448506124
-0.000324027765636
-0.000345498181649
-0.000359503672675
-0.000370295732579
-0.00037850285057
-0.000382826403862
-0.000383842198503
-0.000383706947363
-0.000382566223808
-0.000380830325218
-0.000376498789696
-0.00036567088872
-0.000347145156605
-0.000324398781414
-0.000296920964006
-0.000267987080963
-0.000284127759727
-0.000283607057904
-0.000266895989064
-0.000295838203501
-0.000323315746061
-0.000344654364192
-0.000358516164585
-0.000369193920745
-0.00037736547107
-0.000381721488369
-0.000382784221206
-0.000382684487648
-0.000381516770756
-0.000379752965291
-0.000375438229689
-0.000364695692412
-0.00034629650852
-0.000323670901218
-0.000296288381396
-0.000267438822325
-0.000284100961436
-0.000282930644717
-0.000265389307879
-0.000294183204989
-0.00032141267367
-0.000342574963232
-0.000356131408946
-0.000366374161953
-0.000374227564662
-0.000378502102819
-0.000379613860688
-0.000379532856682
-0.0003783452746
-0.000376579591034
-0.000372317975417
-0.000361806788689
-0.000343899596603
-0.00032172675377
-0.000294591481631
-0.000265892096486
-0.000283356512806
-0.000280130198514
-0.000261974687867
-0.000290583910542
-0.000317272684527
-0.000338341167099
-0.000351808169375
-0.000361096107239
-0.000368113478378
-0.000371987515856
-0.000373090858926
-0.000373056959499
-0.000371938396541
-0.000370094831999
-0.00036575757239
-0.000355546791107
-0.000338943713083
-0.000317495075021
-0.000290929499622
-0.000262421536931
-0.000280462882193
-0.00027303789132
-0.000255279890251
-0.000283818370161
-0.000310413246317
-0.000330516589248
-0.000344040943055
-0.000352435441408
-0.000358096679602
-0.000361229632236
-0.000362237635239
-0.000362237891866
-0.000361250284868
-0.000359272852363
-0.000354713944885
-0.00034526837049
-0.000330672766206
-0.000310600139367
-0.000284099198112
-0.000255665139133
-0.000273278519891
-0.000258906837079
-0.000243595419449
-0.000272133264131
-0.000298255501157
-0.000317561910562
-0.000330527181515
-0.000338366538305
-0.000342943953142
-0.000345310134259
-0.000346174351385
-0.000346190662112
-0.000345359387231
-0.000343317400691
-0.00033883501799
-0.000330622792035
-0.000317656560257
-0.000298383759948
-0.000272351520528
-0.000243923101541
-0.00025908526791
-0.000234592790031
-0.000225129474121
-0.000253997816467
-0.000279606976772
-0.000298281328648
-0.000310450901282
-0.000317312169409
-0.00032147036185
-0.000323388240947
-0.000324112138704
-0.000324129372773
-0.000323431805729
-0.000321527947171
-0.00031736026001
-0.000310507650066
-0.000298339255228
-0.000279697034905
-0.000254165749704
-0.000225403887259
-0.000234737410523
-0.000196528866964
-0.000198377394612
-0.00022862304412
-0.00025404295113
-0.000272205200276
-0.000283905959775
-0.000290683338866
-0.000294296753775
-0.000295967081964
-0.000296589886789
-0.000296608364055
-0.00029601308257
-0.00029435816215
-0.000290745166484
-0.000283962153912
-0.000272259201619
-0.000254115955046
-0.000228751635757
-0.000198592566865
-0.000196657179309
-0.000141125027234
-0.000163739044468
-0.000198440859671
-0.000225230333271
-0.000243716642416
-0.000255417239461
-0.000262127639611
-0.000265561359771
-0.000267089392556
-0.000267630479618
-0.00026765123201
-0.000267143175681
-0.000265639071727
-0.000262213737725
-0.00025549795157
-0.000243789444824
-0.00022529983229
-0.000198528093892
-0.000163869710441
-0.000141238640261
-7.3547707663e-05
-0.000141181774104
-0.000196606411658
-0.000234656968832
-0.000258956265126
-0.000273090537
-0.000280202223202
-0.000283032406903
-0.000283731588607
-0.000283719938598
-0.000283742412977
-0.000283794695249
-0.000283138790758
-0.000280332708979
-0.000273212987662
-0.000259047937475
-0.000234690393796
-0.000196586904914
-0.000141175282181
-7.36767454785e-05
-7.76260648371e-05
-0.000160672581658
-0.000229690583839
-0.000278039452833
-0.000309730266484
-0.000328807123167
-0.000338906259586
-0.000343274498919
-0.000344586496237
-0.000344719175492
-0.000344662980487
-0.000344458272045
-0.000343137803876
-0.000338792968518
-0.00032869307538
-0.000309591191709
-0.000277847995743
-0.000229448333141
-0.000160508800274
-7.77837099826e-05
-0.000160550540054
-0.000183114197089
-0.000221920985904
-0.000252748237165
-0.000274634006213
-0.000288968362356
-0.000297558370577
-0.000302178301236
-0.000304329425248
-0.00030510313388
-0.00030510480361
-0.000304342983434
-0.00030221139771
-0.000297603236807
-0.00028899987425
-0.000274638864318
-0.000252736259006
-0.000221918120461
-0.000183177396655
-0.000160631943238
-0.000229523971382
-0.000221806556197
-0.000252316323064
-0.000279288308678
-0.000299329256622
-0.000312839746632
-0.000321155374767
-0.000325824411815
-0.000328138794319
-0.000329048060821
-0.000329064329975
-0.000328186247682
-0.00032589524883
-0.000321232902982
-0.000312903994112
-0.000299378531614
-0.000279347075945
-0.000252423538283
-0.000222002755919
-0.000229646504978
-0.000277876988704
-0.000252559847242
-0.000279200857061
-0.000304741168976
-0.000324210304702
-0.000337280063271
-0.000345276965681
-0.000350565413975
-0.000353371432179
-0.000354344097316
-0.000354366161183
-0.000353440500376
-0.000351366285093
-0.000346875707666
-0.000338074832499
-0.000324317213087
-0.000304870094363
-0.000279399137025
-0.000252864934693
-0.000278050522401
-0.000309536979671
-0.000274391745217
-0.000299172651234
-0.00032414115385
-0.00034247715562
-0.000355034563268
-0.000363541013286
-0.000370368414125
-0.0003742766633
-0.00037528037846
-0.000375280408201
-0.000374299775116
-0.000373046639495
-0.000369488145733
-0.000359974898864
-0.000344191851509
-0.000324357988264
-0.000299469368037
-0.000274791629923
-0.000309804375072
-0.000328517887034
-0.000288673410384
-0.000312624827871
-0.000337152808484
-0.00035400983144
-0.000365579465142
-0.000375210815008
-0.000384318993295
-0.00038958597454
-0.00039057808536
-0.000390516080851
-0.000389462481741
-0.00038932829905
-0.000387530673406
-0.000378226302888
-0.000360843243068
-0.000338154189607
-0.000313029988525
-0.00028917430205
-0.000328938265225
-0.000338466481209
-0.000297206305277
-0.000320887033314
-0.000344343573882
-0.000359717211169
-0.00037099128721
-0.000381803544848
-0.000392883032636
-0.000399264470244
-0.000400181291754
-0.00040003152259
-0.000398911823889
-0.000399786715579
-0.000399957656746
-0.000391395814735
-0.000372831059617
-0.000347618278651
-0.000321394040653
-0.000297803770852
-0.000339081636088
-0.000342669455229
-0.000301763723447
-0.000325503613723
-0.000347960685689
-0.000362692450204
-0.000373772885011
-0.000385426938299
-0.000397485367236
-0.000404378054398
-0.000405203947892
-0.000404959441025
-0.00040379286259
-0.000405241903324
-0.000406574633752
-0.000398895768035
-0.000379766375417
-0.000353500348702
-0.000326084919009
-0.000302434325554
-0.000343448655302
-0.000343859803982
-0.000303861164521
-0.000327769391902
-0.00034995236179
-0.000364514585528
-0.000375647748373
-0.000387537438935
-0.000399888232568
-0.00040681889993
-0.000407563179114
-0.000407307936905
-0.000406183451799
-0.000407705160557
-0.000409346856296
-0.000401951582296
-0.000382777693261
-0.000356235608098
-0.000328393112999
-0.000304572124536
-0.000344731304657
-0.000343932449109
-0.000304600296109
-0.000328639181351
-0.000350878510409
-0.00036548712294
-0.000376683705527
-0.000388631068243
-0.000400993671513
-0.000407847232522
-0.000408535651535
-0.000408228356083
-0.000407154491541
-0.000408716463319
-0.000410368281027
-0.000402968673569
-0.000383767173414
-0.000357180477547
-0.000329281848641
-0.000305329731101
-0.000344843388815
-0.000343861897642
-0.000304583222748
-0.000328627455043
-0.000350869982221
-0.000365485206226
-0.000376692589929
-0.000388656387427
-0.000401034446129
-0.000407888861098
-0.000408585948835
-0.000408283767005
-0.00040721931792
-0.000408765895435
-0.000410396784819
-0.000402976658449
-0.000383761898908
-0.000357168622271
-0.000329268167731
-0.000305312200008
-0.000344772775082
-0.000343659102338
-0.000303812746819
-0.00032773469016
-0.000349925547766
-0.00036450486314
-0.000375667811636
-0.000387599392892
-0.000399979816448
-0.000406896406224
-0.000407659543752
-0.000407432321857
-0.000406330681816
-0.000407826516633
-0.000409413966714
-0.000401965048422
-0.000382755223175
-0.000356196983359
-0.000328350925064
-0.000304520721479
-0.00034452640788
-0.000342358533075
-0.000301686215949
-0.000325443337244
-0.000347838650232
-0.000362419881525
-0.000373318760685
-0.000384818304257
-0.000396776415608
-0.00040363513893
-0.000404480594495
-0.000404255647327
-0.000403086684361
-0.000404501455521
-0.00040584765219
-0.000398324776153
-0.00037943426628
-0.000353357456102
-0.000326011499604
-0.000302348876483
-0.000343125087588
-0.000338075660279
-0.000297101104049
-0.000320798311003
-0.000344105881073
-0.000359091227931
-0.000369824500548
-0.000380103173115
-0.000390824168681
-0.000397084601842
-0.000398017345848
-0.000397879528768
-0.000396759617992
-0.000397631896334
-0.000397992968337
-0.000390008091024
-0.000372120227624
-0.000347357769326
-0.000321287372008
-0.00029768486604
-0.000338666293952
-0.000328087128817
-0.000288541967513
-0.000312503723534
-0.000336948355628
-0.000353420071229
-0.000364292687167
-0.00037320771471
-0.000381805115148
-0.000386911315594
-0.000387911806463
-0.000387852531958
-0.000386793314714
-0.000386715363517
-0.000385316474164
-0.000376792853563
-0.000360206245947
-0.00033792819296
-0.000312888181633
-0.000289025416576
-0.000328472659519
-0.000309116795774
-0.000274246537531
-0.00029903100107
-0.000323985102151
-0.000342162175775
-0.000354226742429
-0.000362141231158
-0.000368566766203
-0.000372336996794
-0.000373338812619
-0.000373340216573
-0.000372360836674
-0.000371203521401
-0.000368015457979
-0.000359124833857
-0.000343859312241
-0.000324179126929
-0.000299305198683
-0.000274624971959
-0.000309341590048
-0.000277511720728
-0.0002524144467
-0.000279050278231
-0.000304571983944
-0.000324026380019
-0.000337011738371
-0.000344806802264
-0.000349877219706
-0.00035260318071
-0.00035357035924
-0.000353591557176
-0.000352666447541
-0.000350662417097
-0.000346387700256
-0.000337785339735
-0.000324111235792
-0.0003046764197
-0.000279224027527
-0.000252693462227
-0.000277636351002
-0.000229243328207
-0.000221669014643
-0.00025216677545