/*--------------------------------*- C++ -*----------------------------------*\
| =========                 |                                                 |
| \\      /  F ield         | OpenFOAM: The Open Source CFD Toolbox           |
|  \\    /   O peration     | Version:  3.0.1                                 |
|   \\  /    A nd           | Web:      www.OpenFOAM.org                      |
|    \\/     M anipulation  |                                                 |
\*---------------------------------------------------------------------------*/
FoamFile
{
    version     2.0;
    format      ascii;
    class       volScalarField;
    location    "1.7";
    object      epsilon;
}
// * * * * * * * * * * * * * * * * * * * * * * * * * * * * * * * * * * * * * //

dimensions      [0 2 -3 0 0 0 0];

internalField   nonuniform List<scalar> 
7968
(
0.00344195911367
0.00374397869838
0.00395429251609
0.00406120941655
0.00410834616205
0.00412574720285
0.0041296222324
0.00412813109953
0.00412521043531
0.0041229829897
0.00412327340286
0.00412589510663
0.00412901824203
0.00413060796699
0.00412675833279
0.00410930989236
0.00406204062778
0.00395490725289
0.00374436235954
0.00344207125362
0.00374401347173
0.00538871288058
0.00650067247625
0.00710593152564
0.00739804782657
0.00751553958622
0.0075480891167
0.0075478401835
0.00754105597996
0.0075369798399
0.00753737076519
0.00754218748986
0.00754962368011
0.00755038797695
0.00751817189081
0.00740077625739
0.00710835504975
0.00650255378202
0.00538984816737
0.00374428740331
0.00395452449387
0.00650104961458
0.00832182254004
0.00937026148007
0.0099070534498
0.0101386959048
0.0102113111575
0.0102191488019
0.0102120042019
0.0102072917831
0.0102077191268
0.0102132341101
0.0102211854821
0.0102140634289
0.0101419707847
0.00991035237419
0.00937321030319
0.00832408236909
0.00650231220382
0.00395482908533
0.00406151340298
0.00710663932823
0.00937049425694
0.0107150090127
0.0114169506163
0.0117175722038
0.0118060729687
0.0118093126181
0.0117959601203
0.0117885945952
0.0117889999027
0.0117970835701
0.011811242348
0.0118088757
0.0117209777906
0.0114204522485
0.0107181768728
0.00937291520261
0.00710795037049
0.00406180430372
0.00410870091044
0.00739855325089
0.00990732678664
0.0114168051263
0.0121977531132
0.012518222872
0.0126421358254
0.0126815878316
0.0126823201327
0.0126779506619
0.0126783467216
0.0126833985126
0.0126833285583
0.0126444968286
0.0125219431519
0.0122017194012
0.0114203265355
0.00990998287235
0.00739996074824
0.00410898227214
0.00412609790596
0.00751603058565
0.0101386853837
0.0117170326916
0.0125176958366
0.0129251741348
0.0130923432096
0.0131300495859
0.0131253133752
0.0131178494387
0.0131182873728
0.0131265557726
0.0131320856741
0.0130950351418
0.0129282588982
0.0125223212494
0.0117212573895
0.0101418231384
0.00751782628036
0.00412642043984
0.00412993211514
0.00754822268657
0.0102106744687
0.0118046939062
0.0126415923362
0.0130918970165
0.0132536425078
0.013276833154
0.0132606618608
0.013247601412
0.0132481074998
0.0132621610184
0.0132793812832
0.0132570270179
0.0130954956274
0.0126449865951
0.0118098790818
0.0102145067822
0.00755035038112
0.00413033632272
0.00412834332599
0.0075474685688
0.0102177064142
0.0118068320724
0.012680399367
0.0131288430971
0.0132759987382
0.0132821686223
0.0132527403534
0.0132327392256
0.013233359285
0.0132546431397
0.0132853052109
0.0132801207951
0.0131332196879
0.0126844109896
0.0118131063453
0.0102223005573
0.00755003870478
0.00412884502502
0.00412525459831
0.00754010238455
0.0102097282125
0.0117925289247
0.0126804246971
0.0131233811711
0.0132589379245
0.0132516257207
0.0132106191724
0.0131835723962
0.0131842903233
0.0132130405538
0.0132553705668
0.0132635588616
0.0131282870876
0.0126850438312
0.0117996435083
0.0102149315165
0.00754302626427
0.00412584932311
0.00412274723362
0.00753546492852
0.0102043216387
0.0117845118892
0.0126755317641
0.013115308864
0.0132450630032
0.0132304026857
0.0131819442004
0.0131493853932
0.0131503947132
0.0131846459583
0.0132344226963
0.0132498427017
0.0131203592359
0.0126803200253
0.0117918436133
0.0102098101545
0.00753857330019
0.00412339825196
0.00412270537215
0.00753540927911
0.010204223044
0.0117843410148
0.0126754110312
0.0131151606086
0.0132448743697
0.0132301432968
0.0131815866891
0.0131489378507
0.0131499380486
0.0131842825362
0.01323416589
0.0132496591572
0.0131202141519
0.012680181468
0.0117916062175
0.0102096210528
0.00753844764241
0.00412331579548
0.00412516292464
0.00753994259637
0.0102094387454
0.0117920335228
0.0126800890463
0.0131229857475
0.0132584204857
0.013250931429
0.0132097446212
0.0131825728439
0.0131832424205
0.0132121251644
0.0132546650151
0.013263027983
0.0131278524324
0.0126846277007
0.0117989182112
0.0102143943454
0.00754267094382
0.00412566371834
0.00412823596995
0.00754723967021
0.0102172665949
0.0118060602787
0.0126798844822
0.0131282450459
0.0132752433657
0.0132811882002
0.0132515789596
0.0132314869605
0.0132320840966
0.0132534767826
0.0132843320195
0.0132793303442
0.0131325399345
0.0126837524277
0.0118119707302
0.0102214828463
0.00754950412593
0.00412861723249
0.00412984392452
0.0075479879079
0.0102102049649
0.0118037674477
0.0126409550794
0.0130912002635
0.0132527569695
0.0132757449187
0.0132594182471
0.0132462970369
0.0132468003678
0.013260931849
0.0132782920926
0.0132560701732
0.0130946278051
0.0126441094576
0.0118084716673
0.010213549639
0.00754974759618
0.00413010904483
0.00412604269102
0.00751593575078
0.0101383125613
0.0117162054922
0.0125163040232
0.0129243561404
0.0130914306651
0.0131289622638
0.0131240954648
0.0131165684378
0.0131170037723
0.0131253281666
0.0131309526778
0.0130939927832
0.0129271895329
0.0125204127085
0.011719807797
0.0101408791726
0.00751724575273
0.00412622159533
0.00410868593196
0.0073985181119
0.00990718406223
0.0114162439994
0.0121966357986
0.0125166851643
0.0126412194264
0.0126805167634
0.012681111827
0.0126766655174
0.0126770399368
0.0126821275777
0.0126821312924
0.0126433441724
0.0125197597887
0.0121999469416
0.0114190880273
0.00990920680379
0.00739950030357
0.00410882209991
0.00406154338586
0.00710676154268
0.00937060531449
0.0107148458801
0.0114162884178
0.0117164409915
0.0118045285265
0.011807337331
0.0117937046236
0.0117861948295
0.0117865370834
0.0117946414776
0.0118089365297
0.0118068270146
0.0117192597459
0.0114191631166
0.0107173206139
0.00937238256857
0.00710759988306
0.00406168104957
0.00395456849502
0.00650131222845
0.00832214766214
0.00937043890419
0.00990690577132
0.0101382049647
0.0102104403603
0.0102179669594
0.0102105741133
0.0102057148374
0.0102060762508
0.0102116276582
0.0102196926486
0.0102127708503
0.0101409325352
0.00990962128792
0.00937274656096
0.00832382047109
0.00650211502975
0.0039547345223
0.0037441022883
0.0053890451761
0.00650106935996
0.0071062430452
0.00739816729217
0.00751543860895
0.00754778007308
0.00754732247625
0.00754037808249
0.00753619422598
0.00753654492641
0.00754138806539
0.00754890068492
0.00754978509436
0.00751771865945
0.00740044968808
0.00710822240381
0.00650249881422
0.00538974973182
0.00374424241632
0.0034419813764
0.00374407395353
0.00395440762626
0.0040613111982
0.00410840448712
0.00412575618158
0.0041295751037
0.00412802273602
0.00412504408965
0.00412275811614
0.00412301746692
0.00412565501586
0.00412880972461
0.00413043745274
0.00412663275775
0.00410922716075
0.00406199724406
0.00395488402819
0.00374431932522
0.00344202640772
0.00372923372776
0.00529998488087
0.00637810322711
0.00697190478944
0.00726467890758
0.00738958248952
0.00743060198409
0.0074364920605
0.00743233651541
0.007428727189
0.00742904905899
0.00743323293961
0.00743782791944
0.00743220454638
0.00739126217484
0.00726621287431
0.00697308208584
0.00637879340437
0.00530025829523
0.00372939808063
0.005299912947
0.00606661389559
0.00700214590129
0.007566372036
0.00785914770428
0.00799057017799
0.00803826721666
0.00804943703496
0.00804889499808
0.00804711061974
0.00804728786761
0.00804940350166
0.00805022672132
0.00803925091496
0.007991620379
0.00786011244255
0.00756710906784
0.00700260467081
0.00606688861269
0.00530019064894
0.00637831815278
0.00700222514391
0.00803251320701
0.00869534318498
0.00905785695892
0.0092289431033
0.00929481819077
0.00931225827809
0.00931303131364
0.00931123969462
0.00931139422054
0.00931347768392
0.00931296875519
0.00929572472608
0.0092299212929
0.00905874036891
0.008696002914
0.00803292184296
0.00700249494067
0.0063785573372
0.00697239646213
0.00756658314529
0.00869546520396
0.00944879742113
0.00987479952167
0.0100826806535
0.0101667927636
0.0101915247838
0.010194501109
0.0101931797879
0.0101933289047
0.0101949266853
0.0101922075001
0.0101676779669
0.0100836473292
0.00987566541851
0.00944943101194
0.00869585287378
0.00756685313778
0.00697257269245
0.00726535084209
0.00785942405194
0.00905804946672
0.00987486282704
0.0103456087819
0.0105818474842
0.0106882927449
0.0107272848537
0.0107364499485
0.0107369687861
0.010737124921
0.0107368986147
0.0107279779459
0.0106891461025
0.0105828535278
0.0103465460071
0.00987555689532
0.00905848506974
0.00785974224197
0.00726552034133
0.00739026535685
0.00799082795797
0.0092290998803
0.0100826995862
0.0105818137249
0.0108510129088
0.0109763288403
0.0110222167963
0.0110332126429
0.0110338972701
0.0110340771539
0.0110337372328
0.0110230205603
0.0109772759996
0.010851974516
0.010582864952
0.0100835643435
0.00922968652702
0.00799128377437
0.00739054868427
0.0074311315258
0.00803839276135
0.00929481377923
0.0101666401769
0.0106882414004
0.0109762704981
0.0111089955148
0.011155802416
0.0111654112746
0.0111648808677
0.0111650963223
0.0111660499581
0.0111567686051
0.011110115466
0.0109773406006
0.0106891911621
0.0101677421243
0.00929563326455
0.00803904831306
0.00743164089491
0.0074367446596
0.00804934603048
0.00931200575715
0.0101911034511
0.0107270613842
0.0110219933348
0.0111556267627
0.0112000248223
0.0112064258929
0.0112038231113
0.0112040890492
0.0112071778444
0.0112011674628
0.0111569393549
0.0110232456459
0.0107281786737
0.0101924903535
0.00931308411842
0.00805022476226
0.00743752314934
0.00743220316168
0.00804854765315
0.00931250596002
0.010193800578
0.0107360026856
0.0110327548318
0.0111649693314
0.0112061307098
0.0112090468637
0.0112042411851
0.0112045867481
0.0112099115858
0.0112074169271
0.011166440764
0.011034162001
0.0107372836406
0.0101954167214
0.00931379319708
0.00804961291752
0.00743322781958
0.00742816459309
0.0080465136887
0.00931047270377
0.0101922577387
0.0107363071082
0.0110332017949
0.0111641563405
0.0112032057134
0.0112039064246
0.0111975767131
0.0111979278493
0.0112048513699
0.0112045701513
0.0111657072544
0.0110346871862
0.0107376673408
0.0101939524039
0.00931185706949
0.0080476725841
0.00742932435907
0.00742811704356
0.00804649073868
0.00931043478883
0.010192209849
0.0107362757492
0.0110331766149
0.0111641299987
0.0112031845394
0.0112038886396
0.011197561942
0.0111979015932
0.0112048257871
0.011204552797
0.0111656891369
0.0110346607832
0.0107376275914
0.0101938844289
0.0093117921946
0.00804761993067
0.00742923489491
0.00743207136377
0.0080484799521
0.00931239512052
0.0101936602774
0.0107359142838
0.0110326875134
0.0111649085577
0.0112060725231
0.011208985032
0.011204178855
0.0112045244399
0.0112098599488
0.0112073713922
0.0111663862668
0.0110340839334
0.0107371667232
0.0101952143787
0.00931360533086
0.00804946260966
0.00743298245196
0.00743655639623
0.00804924477126
0.00931183573384
0.0101908853547
0.0107269254729
0.0110218923421
0.0111555383179
0.0111999407623
0.0112063345174
0.0112037258375
0.011203998838
0.0112071010728
0.011201093378
0.0111568449788
0.0110231161687
0.0107279889462
0.0101921689346
0.00931279201014
0.00804999809299
0.00743717236092
0.00743094672759
0.00803828565792
0.00929461695264
0.0101663732874
0.0106880564116
0.0109761349516
0.0111088803638
0.0111556878128
0.0111652910058
0.0111647518541
0.0111649754947
0.0111659377157
0.0111566511138
0.0111099773061
0.0109771553988
0.010688919001
0.0101673275546
0.00929527040361
0.00803877792437
0.0074312508854
0.0073901272217
0.00799074944499
0.00922891554846
0.0100824209287
0.0105814893757
0.0108508118505
0.0109761660761
0.0110220536316
0.0110330419484
0.0110337209849
0.0110339019406
0.0110335624565
0.0110228381626
0.0109770678851
0.0108516854033
0.0105823861935
0.0100830874339
0.00922929133731
0.00799100297869
0.00739017712022
0.00726529277703
0.00785938611735
0.00905790699165
0.009874616907
0.0103452708882
0.0105814717038
0.010688029372
0.0107270129084
0.0107361581655
0.0107366660917
0.0107368169164
0.0107365882229
0.0107276650334
0.01068880397
0.0105823193654
0.010346003174
0.00987507156475
0.00905809195982
0.0078594712983
0.00726519788488
0.00697243276052
0.0075665986449
0.00869538079251
0.00944861591505
0.00987451231657
0.0100822976611
0.0101663325048
0.0101909849433
0.0101939025653
0.0101925579251
0.0101926920589
0.0101942816267
0.0101915818341
0.010167082913
0.0100830795605
0.00987514940532
0.00944898112312
0.00869548248237
0.00756659226503
0.00697230644874
0.00637842144239
0.00700228573884
0.00803248718225
0.00869523659066
0.00905765695128
0.00922864597412
0.00929442491676
0.00931178058417
0.00931248773676
0.00931065607548
0.00931079261632
0.00931288028257
0.00931239550573
0.00929519046434
0.00922943495725
0.00905830651264
0.0086956179893
0.00803258742706
0.00700223983245
0.00637833972065
0.00530006448616
0.00606669889998
0.00700216056344
0.00756632931209
0.00785903355399
0.00799037520976
0.00803799020765
0.0080490839658
0.00804848083559
0.00804665479956
0.00804681443847
0.00804893671136
0.00804978291392
0.00803884329856
0.00799125532854
0.00785978344214
0.00756680516424
0.00700231035929
0.00606662691753
0.00530003015283
0.00372925787433
0.00530002510015
0.00637813714248
0.00697191185987
0.00726461116331
0.00738941251193
0.00743031778862
0.00743609214265
0.00743183842604
0.00742815734233
0.00742845190582
0.00743265809696
0.00743730409623
0.00743175134372
0.0073908869972
0.00726590216084
0.00697280702925
0.00637851671506
0.00529999171389
0.00372935719697
0.00392656191011
0.00633510745724
0.00808397035538
0.00910499747873
0.00964311762794
0.00989322588926
0.00998881442374
0.0100137429268
0.0100142814676
0.0100112486668
0.0100115748509
0.0100152189429
0.0100151924061
0.00999058341826
0.00989504446213
0.00964467521348
0.00910602942453
0.00808437014383
0.006335092776
0.00392677990646
0.00633498584257
0.00697076540062
0.00800655539821
0.00867636685816
0.00904877326771
0.00923168797122
0.00930891274987
0.00933512539488
0.00934123461045
0.00934177609152
0.0093419317851
0.00934168161291
0.00933581338109
0.00930974264447
0.00923251409291
0.00904943908742
0.00867676018696
0.0080066795469
0.00697078241816
0.00633504961379
0.00808417091625
0.00800653842911
0.0088989724908
0.00953408052517
0.00990713109576
0.0100988601725
0.0101835691727
0.0102139641571
0.0102217276879
0.0102226547654
0.0102227583585
0.0102220286703
0.010214438042
0.0101841514639
0.0100994368234
0.00990757818096
0.00953432282701
0.00889904454528
0.00800660222447
0.00808401116309
0.00910561737275
0.00867644575447
0.00953414357917
0.0101819812872
0.010577253877
0.0107878184608
0.010884703972
0.0109213917707
0.0109317482556
0.010933471115
0.0109335589835
0.0109319985558
0.010921794074
0.0108852096149
0.010788317148
0.0105776279364
0.0101821676046
0.00953419882631
0.00867654333502
0.00910526035015
0.00964403109293
0.00904893993034
0.00990725050382
0.0105773040201
0.0109959684716
0.0112252600707
0.0113350094342
0.0113785458631
0.0113915494503
0.0113939134956
0.0113940016545
0.0113917963157
0.0113789122608
0.011335478887
0.0112257659098
0.0109963687833
0.010577519635
0.00990734422303
0.00904910190191
0.00964359438939
0.0098941813863
0.00923185437591
0.010098961998
0.010787846655
0.0112252570713
0.011469852386
0.0115881744071
0.0116350419349
0.0116485603329
0.0116506516142
0.0116507431027
0.0116488163622
0.0116353423066
0.0115884888767
0.0114703099648
0.0112257292638
0.010788183461
0.0100991762559
0.00923215423126
0.00989387048584
0.00998955417286
0.00930896706258
0.0101835580289
0.0108846128784
0.0113349112186
0.0115881951549
0.0117099864676
0.0117565497845
0.0117684041403
0.0117692086202
0.0117693082302
0.0117686728299
0.0117567741178
0.011710052479
0.0115884471332
0.0113354970567
0.0108851469006
0.0101839648478
0.00930947726324
0.0099895617682
0.0100140803217
0.00933498075482
0.0102137717063
0.0109211290774
0.0113783578075
0.011635136637
0.0117566949083
0.0118006556134
0.0118094669568
0.0118083043268
0.0118084230575
0.0118097714104
0.0118008491317
0.0117566192933
0.0116352037032
0.0113789803531
0.010921845978
0.0102143798588
0.00933572387807
0.0100144963259
0.0100141062601
0.00934085011851
0.0102213352209
0.0109313106185
0.0113912506391
0.011648631858
0.0117685643079
0.0118094758503
0.0118151779641
0.0118120094124
0.0118121350102
0.0118155369724
0.0118097006721
0.0117684559699
0.0116486634705
0.011391923999
0.0109321575679
0.0102220993704
0.00934178583311
0.0100148860977
0.0100105573903
0.00934116134488
0.0102220933309
0.0109329668266
0.0113935001264
0.0116506191826
0.0117692538512
0.011808154028
0.0118118022391
0.0118073169852
0.0118074785781
0.0118121665039
0.0118083738979
0.0117691292793
0.0116506411055
0.0113941879303
0.0109337611405
0.0102229195744
0.00934219231451
0.0100115320838
0.0100104871565
0.00934114125759
0.0102220620418
0.0109329354921
0.0113934714476
0.011650592742
0.0117692348137
0.0118081471797
0.0118118048428
0.0118073284768
0.011807477633
0.0118121593749
0.0118083683566
0.0117691177915
0.0116506193302
0.0113941534278
0.0109337157868
0.0102228679324
0.00934214481518
0.0100114120041
0.0100138971078
0.00934078785896
0.010221240872
0.0109312080478
0.0113911692744
0.0116485699165
0.0117685228819
0.0118094541501
0.0118151715411
0.0118120186986
0.0118121324627
0.0118155237276
0.0118096789026
0.0117684181186
0.0116485969704
0.0113918201085
0.0109320139769
0.0102219479726
0.00934164890149
0.010014542811
0.0100137613635
0.00933488396101
0.0102136218978
0.010920963936
0.011378228487
0.0116350432997
0.011756630537
0.0118006185259
0.0118094463966
0.0118082892388
0.0118084069578
0.0118097492749
0.0118008102304
0.0117565481504
0.0116350889633
0.0113788064819
0.0109216112594
0.0102141402721
0.00933551679477
0.0100139815527
0.00998919710154
0.00930885784065
0.0101833710189
0.010884393906
0.0113347334183
0.0115880621541
0.0117098891521
0.0117564783132
0.011768346484
0.0117691507975
0.0117692525982
0.0117686097803
0.0117566868825
0.0117099330557
0.0115882689052
0.0113352477944
0.0108848256318
0.0101836544583
0.00930922613146
0.00998895574898
0.00989386221939
0.00923175719306
0.0100987621645
0.0107875945462
0.0112250377997
0.0114696494158
0.0115879969042
0.01163488251
0.0116484060534
0.011650492564
0.0116505827516
0.0116486477629
0.0116351546929
0.0115882667286
0.0114700379696
0.0112254123884
0.0107877940555
0.0100988171374
0.0092318825497
0.00989325225731
0.00964380130478
0.00904886617108
0.00990705314126
0.0105770278519
0.010995660256
0.0112249809948
0.0113347043223
0.0113782318396
0.0113912265852
0.0113935889057
0.0113936721408
0.0113914549605
0.0113785608295
0.0113351104278
0.0112253927326
0.0109959221209
0.0105770705454
0.00990695186094
0.00904881821209
0.00964301388802
0.00910550032861
0.00867639600665
0.00953396081122
0.0101817049059
0.0105769098345
0.0107874250188
0.010884260843
0.0109209133186
0.010931243203
0.0109330168156
0.0109330969678
0.0109314636438
0.0109212590462
0.0108846752377
0.0107877955798
0.0105771163798
0.0101816872463
0.00953378419283
0.00867623978338
0.00910473384176
0.00808415508107
0.00800650309754
0.0088988108743
0.00953383021223
0.00990680537365
0.0100984626967
0.0101831032974
0.0102134400446
0.0102211570778
0.0102220610615
0.0102221519486
0.010221417824
0.0102138417492
0.0101835776639
0.0100988940823
0.00990706772425
0.00953384627942
0.00889861656616
0.00800626240974
0.0080835420246
0.00633505408517
0.00697072375933
0.00800640986943
0.00867615792911
0.00904850363366
0.00923134891756
0.00930849941246
0.00933464228749
0.00934069357629
0.00934119615349
0.00934133600506
0.00934109297836
0.00933524667138
0.00930921092477
0.00923202188918
0.00904897665098
0.00867630996193
0.00800623618583
0.00697038615977
0.00633468275016
0.00392659395466
0.00633500568559
0.0080837649139
0.00910470319592
0.00964269137665
0.00989263352211
0.00998804274125
0.0100128059888
0.0100132118695
0.010010090371
0.0100103859214
0.0100140614545
0.0100141049096
0.00998960370212
0.00989419026899
0.00964392951637
0.00910535236454
0.00808372850038
0.0063345654509
0.00392676403265
0.00402751038158
0.00690703947104
0.00907961992509
0.0103991230887
0.0111262477419
0.0114836922919
0.0116329917587
0.0116810994609
0.011690060126
0.0116894409264
0.011689761431
0.011690994186
0.0116825784681
0.0116348136961
0.011485516385
0.0111277120107
0.0103999583735
0.00907976750395
0.00690680566942
0.00402779420056
0.00690690644425
0.00751768780094
0.00865745495726
0.0094229383059
0.00986658555848
0.0100961118833
0.0102004607315
0.0102405661498
0.0102527660474
0.0102553924316
0.010255551093
0.0102532236808
0.0102412733423
0.0102012994747
0.010096897121
0.00986713370371
0.00942314442109
0.00865736710205
0.00751752399314
0.00690677845304
0.009079825865
0.00865738609019
0.00952527426765
0.0101796449938
0.0105811179861
0.0107983343288
0.0109015082114
0.0109432136668
0.0109567275419
0.0109598177654
0.0109599062517
0.0109569902736
0.0109436345117
0.0109020185114
0.0107988011676
0.0105814085927
0.0101796998333
0.00952516709051
0.00865731475493
0.00907932202052
0.0103998226861
0.00942294204542
0.0101796714076
0.0108016846444
0.0111999564682
0.0114234459959
0.0115333726874
0.0115795078116
0.0115953687573
0.0115991134966
0.0115991750628
0.0115955563579
0.0115797419332
0.0115336063437
0.0114237540667
0.0112001950962
0.0108017124991
0.0101795867881
0.00942295314587
0.0103989851598
0.011127298266
0.00986667340919
0.0105811794005
0.011199977435
0.0116070148116
0.0118409458847
0.0119573327611
0.0120060094647
0.0120217853492
0.0120250807202
0.0120251247494
0.0120218820542
0.0120059686611
0.0119570748915
0.0118407548479
0.0116071124439
0.0112000942893
0.0105811848507
0.00986681072008
0.0111263103067
0.0114847673778
0.010096188573
0.0107983575863
0.011423431063
0.0118410650556
0.0120817055291
0.0122011056538
0.0122495181299
0.0122636345959
0.0122655822147
0.0122656159231
0.0122636367933
0.0122491072695
0.0122000464804
0.0120805086694
0.0118405798315
0.0114236221508
0.0107985465727
0.0100965421482
0.0114839474232
0.0116337341537
0.0102003926268
0.0109013948507
0.0115333634994
0.0119578777477
0.0122017491044
0.0123203991643
0.0123656554624
0.0123762607672
0.0123758829895
0.0123759432804
0.0123762424112
0.0123649686091
0.0123185526026
0.0121994030215
0.0119564447403
0.0115334099789
0.0109018382258
0.0102010453641
0.011633385534
0.0116812600849
0.0102402546152
0.0109428993566
0.0115796135726
0.0120069986851
0.0122508498028
0.0123664301455
0.0124068145822
0.0124129171864
0.0124096240433
0.0124097472683
0.0124130507332
0.0124060957972
0.0123641950241
0.0122477705194
0.0120048603801
0.0115793801895
0.0109435765561
0.010241218308
0.0116815158621
0.0116895368801
0.0102521737131
0.0109561990381
0.0115954160201
0.0120228941657
0.0122652355956
0.0123773496233
0.0124132154872
0.012415116479
0.0124089389094
0.0124090965646
0.0124154328353
0.0124126510471
0.0123750833075
0.0122619747813
0.0120205831212
0.0115951625145
0.0109570485387
0.0102533834332
0.0116903180695
0.0116882729394
0.0102545419285
0.0109591023303
0.0115989662327
0.0120261128216
0.0122671643149
0.0123769334111
0.012409772841
0.0124086820887
0.0124005681387
0.012400788287
0.0124090560267
0.0124092792794
0.0123746914891
0.0122638930875
0.0120238189872
0.0115988437152
0.0109600403708
0.0102558724024
0.0116893320966
0.0116881587854
0.0102545200164
0.0109590702265
0.01159893508
0.0120260863179
0.0122671475667
0.0123769374777
0.0124097792443
0.0124086878639
0.0124005728133
0.0124007940093
0.0124090603645
0.0124092815465
0.0123746915884
0.0122638847396
0.0120237947746
0.0115988056145
0.0109599905675
0.0102558230546
0.0116891553365
0.0116891853821
0.0102521026612
0.0109561028063
0.011595333353
0.0120228241696
0.0122652031696
0.012377358155
0.0124132461877
0.0124151607776
0.0124089903378
0.0124091329644
0.0124154536857
0.0124126669451
0.0123750897985
0.0122619529324
0.0120205142196
0.0115950587533
0.010956903213
0.0102532396992
0.0116898037131
0.0116807075561
0.0102401408624
0.0109427422055
0.0115794795714
0.0120068936071
0.0122508114565
0.0123664520423
0.0124068794447
0.0124130113398
0.0124097302672
0.0124098394522
0.0124131216218
0.0124061441298
0.0123642147669
0.0122477345277
0.0120047426701
0.0115792035192
0.0109433431843
0.0102410007752
0.0116807324568
0.0116330801451
0.0102002545646
0.0109011838599
0.0115331522492
0.0119577271723
0.0122016960736
0.0123204317809
0.0123657444469
0.0123763801845
0.0123760149861
0.0123760614366
0.0123763334459
0.0123650218804
0.0123185588641
0.0121993197509
0.0119562481365
0.0115331174762
0.0109015214266
0.0102007769603
0.0116324449102
0.0114841318316
0.0100960446264
0.0107981079073
0.0114231493737
0.0118408344039
0.0120815682377
0.0122010651739
0.0122495367102
0.0122636697769
0.0122656093534
0.0122656322472
0.0122636313308
0.0122490648423
0.0121999393522
0.0120803037426
0.0118402636354
0.0114232242009
0.0107981573854
0.0100962383413
0.0114829649533
0.0111267636102
0.00986652628211
0.010580897723
0.0111996274449
0.0116066630759
0.0118406435213
0.0119570907608
0.012005809823
0.0120215862317
0.0120248634074
0.0120248961272
0.0120216435706
0.0120057044162
0.0119567525215
0.0118403596891
0.0116066417736
0.0111995946302
0.0105807291115
0.00986646955212
0.0111253711948
0.0103994280963
0.00942278612617
0.0101793685345
0.0108012888405
0.0111995094557
0.0114229720982
0.0115328928235
0.0115790726836
0.0115949180218
0.0115985932168
0.0115986461408
0.0115950788833
0.0115792577344
0.0115330468822
0.01142316914
0.0111996007702
0.0108011339219
0.0101790722132
0.00942255984734
0.0103981318877
0.00907957674568
0.00865721753642
0.00952496597651
0.010179243984
0.0105806489843
0.0107978032058
0.0109009176005
0.0109425737891
0.0109560409794
0.0109590944036
0.0109591725981
0.010956270307
0.0109429318979
0.010901330723
0.0107981376208
0.0105807701979
0.0101790902354
0.00952461079332
0.00865685703328
0.00907857951168
0.00690681153395
0.00751749851353
0.00865714637279
0.00942256389677
0.00986615762419
0.010095618847
0.0101998895244
0.0102399172391
0.0102520514288
0.0102546351715
0.0102547795558
0.0102524663071
0.0102405454064
0.0102006160359
0.0100962591964
0.00986652404664
0.00942254188031
0.00865677454968
0.00751699476535
0.00690624430422
0.00402754859616
0.00690674415902
0.00907909983105
0.0103984089287
0.0111252921094
0.011482450327
0.0116314483043
0.0116792906537
0.0116880483186
0.011687296127
0.0116875779722
0.0116888715764
0.0116805769057
0.0116330105668
0.0114839542153
0.0111263799732
0.0103988111153
0.0090787721917
0.00690607737532
0.00402781823058
0.00407636962693
0.00721758641828
0.00964583581332
0.0111597730393
0.0120196490604
0.0124587635192
0.0126528490703
0.0127223417705
0.0127398983234
0.0127419739717
0.0127423024721
0.0127408822742
0.0127240023855
0.0126549653589
0.0124608402079
0.0120212550057
0.0111606663444
0.00964602636132
0.00721743841796
0.00407674308109
0.00721747449099
0.00781963123185
0.00903439525849
0.00986831863958
0.0103637062107
0.0106279342847
0.0107529362805
0.0108036386488
0.0108202709459
0.0108242688773
0.0108244542791
0.0108208183108
0.010804515678
0.0107540033242
0.0106289295983
0.0103643736608
0.00986853678509
0.00903426015661
0.00781943570056
0.00721740171476
0.009646069088
0.00903430352214
0.00990975600656
0.0105902423628
0.0110178823269
0.0112560399672
0.0113735965526
0.0114235110844
0.0114406077181
0.0114448314981
0.0114449318944
0.0114409090088
0.0114239380994
0.011374068892
0.0112565649505
0.011018266046
0.0105903129616
0.00990961950414
0.00903422684063
0.00964551599352
0.0111605294772
0.00986828121434
0.0105902482679
0.0112129309317
0.0116224194457
0.0118587035634
0.0119786310411
0.0120308544629
0.0120484797135
0.0120525400853
0.0120525964361
0.0120486192822
0.0120308493057
0.0119783400959
0.0118583883715
0.0116223877343
0.0112130456345
0.0105902067825
0.00986836893589
0.0111595432466
0.0120207373445
0.0103637191299
0.0110178923315
0.0116224599273
0.0120314189133
0.012271330542
0.0123925273603
0.0124433992673
0.0124591804498
0.0124617819451
0.0124618135989
0.0124591331719
0.0124427519473
0.0123908843651
0.0122692312729
0.0120300798554
0.0116222715064
0.0110180691325
0.0103640954489
0.0120196313499
0.0124597337854
0.0106278668283
0.0112559832814
0.0118591301319
0.0122722130954
0.0125129725777
0.0126321862285
0.0126789847884
0.0126906130106
0.0126903920004
0.0126904776427
0.0126905368661
0.0126777309345
0.0126288437688
0.0125082123268
0.0122683563415
0.011857862452
0.0112563630445
0.0106286699855
0.01245901871
0.0126531660567
0.0107526072895
0.0113734833153
0.0119798764235
0.0123950829709
0.0126342114305
0.0127483053794
0.0127889324969
0.0127949821344
0.0127908144963
0.0127910963723
0.0127952979846
0.0127876034423
0.0127437561297
0.012626932393
0.0123883958436
0.0119769957096
0.0113738502454
0.0107539286436
0.0126533330867
0.0127216572484
0.0108029305659
0.0114233599459
0.0120328097885
0.0124473412946
0.0126827087403
0.0127906408232
0.0128247761248
0.012825293262
0.012816511231
0.0128171004469
0.0128264578143
0.0128241160459
0.0127858888163
0.0126741740522
0.0124388886446
0.0120287441339
0.0114236664757
0.010804743867
0.0127228770951
0.0127381640593
0.0108191659022
0.011440279371
0.0120505775017
0.0124635610175
0.0126948943344
0.0127971675287
0.0128256021216
0.0128212999939
0.0128077345499
0.012808588461
0.0128233526477
0.0128258947708
0.0127929177222
0.0126863005297
0.0124547357606
0.0120462514071
0.0114406900225
0.010821342453
0.0127402304362
0.012739361288
0.010822829591
0.0114442797342
0.0120544878238
0.012466103082
0.012694570966
0.0127926331018
0.0128160185983
0.0128065833684
0.01278928699
0.0127902752148
0.0128090082968
0.0128167716157
0.012788732109
0.0126861600435
0.012457360553