/*--------------------------------*- C++ -*----------------------------------*\
| =========                 |                                                 |
| \\      /  F ield         | OpenFOAM: The Open Source CFD Toolbox           |
|  \\    /   O peration     | Version:  3.0.1                                 |
|   \\  /    A nd           | Web:      www.OpenFOAM.org                      |
|    \\/     M anipulation  |                                                 |
\*---------------------------------------------------------------------------*/
FoamFile
{
    version     2.0;
    format      ascii;
    class       volScalarField;
    location    "1.7";
    object      k;
}
// * * * * * * * * * * * * * * * * * * * * * * * * * * * * * * * * * * * * * //

dimensions      [0 2 -2 0 0 0 0];

internalField   nonuniform List<scalar> 
7968
(
0.00351896614097
0.00372424536993
0.0038643397817
0.00393491736382
0.00396600697282
0.00397752823819
0.00398012628601
0.0039791664651
0.00397725044235
0.00397578382051
0.00397597389259
0.00397769838915
0.00397974719673
0.00398077224918
0.00397819191295
0.00396664140234
0.00393546758526
0.00386475103178
0.00372450680838
0.00351904506535
0.00372426914289
0.00475511980243
0.00539342693751
0.00572652004769
0.00588454960688
0.00594784597305
0.00596545787763
0.00596539307671
0.00596175773567
0.00595955732024
0.00595976568823
0.0059623606759
0.00596634402976
0.00596668534039
0.00594925548846
0.00588602067469
0.00572784676664
0.00539449000642
0.00475580363356
0.00372445629129
0.0038644945188
0.00539363941324
0.00636457675848
0.00689250135338
0.00715601427033
0.0072687153402
0.00730407060986
0.00730796864352
0.00730452530441
0.00730222818241
0.00730243244089
0.00730511379867
0.00730894500177
0.00730539381716
0.00727029742873
0.00715762409325
0.00689397109104
0.00636575172914
0.00539435436233
0.0038646993576
0.00393511832968
0.00572690697367
0.00689261731056
0.00754126785884
0.0078699528996
0.00800912735378
0.00805009233827
0.0080516937019
0.0080455529673
0.00804213608893
0.00804231856477
0.00804605843249
0.00805256675485
0.00805136865727
0.00801068893027
0.00787157747248
0.00754277362657
0.00689382471811
0.00572762624663
0.00393531214692
0.0039662406179
0.00588482267593
0.00715614655006
0.00786988350605
0.00822748553541
0.00837244498226
0.00842854520333
0.00844650592133
0.00844691150235
0.00844495035996
0.00844512561786
0.00844738845972
0.0084472781665
0.00842959791142
0.00837411040424
0.00822928250313
0.00787151884857
0.00715744351944
0.00588558227017
0.00396642671046
0.00397775875058
0.00594810816499
0.00726870694789
0.00800887300984
0.00837220237304
0.00855497336592
0.00862980578735
0.00864683561279
0.00864482379242
0.00864151038067
0.00864170169898
0.00864536614193
0.00864772757626
0.00863099174755
0.00855634294359
0.00837428181358
0.00801081794181
0.00727022531229
0.00594907011893
0.00397797094152
0.00398032951935
0.00596552713515
0.00730375658919
0.00804944721299
0.00842829601579
0.00862960500569
0.00870177553873
0.00871232278094
0.00870524331277
0.00869944907574
0.00869966880207
0.00870589460709
0.00871343468118
0.00870326084771
0.00863119691954
0.00842981929669
0.00805183094348
0.00730560688097
0.00596666426537
0.00398059457276
0.00397930522519
0.00596519039763
0.00730726258526
0.00805053838264
0.00844596507135
0.00864629560171
0.00871195197636
0.00871493920965
0.00870195626219
0.00869306069495
0.00869332945035
0.0087027834215
0.00871630781209
0.00871376019653
0.00864823054865
0.00844776493798
0.00805342438515
0.00730948090717
0.00596656348125
0.00397963391007
0.00397727868624
0.00596124243162
0.0073034151998
0.00804395875286
0.00844605270822
0.00864396161219
0.00870447943713
0.00870146338367
0.00868329335171
0.00867123306548
0.00867154353565
0.00868434801094
0.00870309828581
0.00870650581312
0.00864613026229
0.00844812519684
0.00804723211283
0.0073059285186
0.00596280518681
0.00397766823118
0.00397562836241
0.00595874090722
0.007300782502
0.00804024471324
0.00844385729378
0.00864037977391
0.00869832650525
0.00869202758557
0.00867051079586
0.00865597108074
0.00865641024713
0.00867168820482
0.00869378214685
0.00870042065664
0.00864261061297
0.0084460046773
0.00804361581851
0.00730343308395
0.00596040239834
0.0039760546613
0.00397560025864
0.00595870988948
0.00730073308806
0.00804016368972
0.00844380097036
0.00864031152634
0.00869824016047
0.00869190906916
0.00867034773592
0.00865576716048
0.00865620229052
0.00867152237386
0.00869366440753
0.00870033617627
0.00864254363242
0.008445940229
0.00804350392317
0.00730333962467
0.00596033366757
0.00397599998117
0.0039772171605
0.00596115336571
0.00730327006147
0.0080437237618
0.00844589594291
0.00864377936506
0.00870424263143
0.00870114643648
0.00868289432737
0.00867077689068
0.0086710656253
0.00868392993794
0.00870277526982
0.00870626218672
0.00864593020755
0.00844793192291
0.00804689058308
0.00730566286551
0.00596261088458
0.00397754523341
0.00397923321291
0.00596506251603
0.00730704201122
0.00805017219998
0.00844572457821
0.00864602003994
0.0087116061219
0.00871449173061
0.00870142631459
0.00869248887451
0.00869274705741
0.00870225026066
0.00871586249038
0.00871339802363
0.00864791817843
0.00844745934758
0.00805288964441
0.00730907657455
0.00596627138897
0.00397948313569
0.00398027008202
0.0059653954381
0.00730351973852
0.00804900720209
0.00842799761482
0.00862928307167
0.00870136953833
0.00871182515541
0.0087046749235
0.0086988525558
0.00869907072032
0.00870533194488
0.0087129359767
0.00870282261896
0.0086307982138
0.00842941207859
0.00805116797872
0.00730513315813
0.00596633478905
0.00398044437805
0.00397772131771
0.005948051619
0.00726851660624
0.00800847674807
0.00837155498825
0.0085545936384
0.00862938524492
0.00864633593625
0.00864426438322
0.00864092187715
0.00864111182827
0.00864480200515
0.00864720707376
0.00863051275557
0.00855584992105
0.00837339987595
0.00801013309494
0.00726975720821
0.00594875279503
0.00397783987688
0.00396623013485
0.00588479912575
0.00715606892212
0.00786960990649
0.00822695905322
0.00837172920944
0.00842811746773
0.00844600770479
0.00844634995931
0.00844435339399
0.00844451878199
0.00844679826306
0.00844672239937
0.00842906266344
0.0083731012785
0.0082284561901
0.00787092883824
0.00715705643753
0.00588533028493
0.00396632176175
0.00393513825311
0.00572697120959
0.00689266787813
0.00754118204827
0.00786963179096
0.00800858771477
0.00804935990517
0.00805075976965
0.00804448714339
0.00804100318555
0.00804115642558
0.00804490562676
0.00805147896156
0.00805040207601
0.00800987651822
0.00787096327522
0.00754235782841
0.00689355569369
0.00572743387794
0.00393523206152
0.00386452432864
0.00539378670161
0.00636474363946
0.00689258599982
0.00715593543538
0.00726846690238
0.00730363577104
0.00730738055318
0.00730381497436
0.00730144565312
0.00730161761876
0.00730431705168
0.00730820493891
0.00730475322486
0.00726978246442
0.00715725954272
0.00689373720794
0.00636561620122
0.00539424521094
0.00386463817571
0.00372432969491
0.00475531895691
0.00539365053668
0.00572668967978
0.00588461190312
0.00594778752061
0.005965285709
0.00596510732737
0.00596138458551
0.00595912552743
0.00595931204068
0.00596192179409
0.00596594742993
0.00596635506435
0.00594900752324
0.00588584253091
0.00572777496527
0.00539446148449
0.00475574791811
0.00372442755498
0.0035189819217
0.00372431031325
0.00386441716464
0.00393498538462
0.00396604587502
0.00397753413117
0.00398009479346
0.00397909424358
0.00397713968747
0.0039756343508
0.00397580409663
0.00397753936186
0.00397960942813
0.003980660123
0.00397811009269
0.00396658831968
0.00393544080579
0.00386473752919
0.00372447942942
0.003519014672
0.00371421039835
0.00470162732806
0.00532397427785
0.00565280572422
0.00581221479884
0.00587994622824
0.00590227851225
0.00590557071016
0.00590336873318
0.00590142674446
0.00590159950193
0.00590384982775
0.00590628791085
0.00590313977031
0.00588085119987
0.00581304668791
0.00565345384508
0.00532436653947
0.0047017932047
0.0037143233584
0.00470158429172
0.00892623515343
0.0107915541765
0.0117736378154
0.0122700861417
0.0124921485908
0.0125700138885
0.0125835721864
0.0125771712483
0.0125707808622
0.0125709989144
0.0125778065808
0.0125845920999
0.0125713331982
0.0124936004587
0.0122714612381
0.0117747030534
0.0107921142657
0.00892617898403
0.00470175195423
0.00532409627996
0.0107920464964
0.013247183511
0.0145942219673
0.0153130059908
0.0156604394288
0.0158013846074
0.0158425383217
0.0158465803976
0.0158434426275
0.0158436668458
0.0158472360786
0.0158436083273
0.0158027865993
0.0156619691045
0.0153143929191
0.0145952043874
0.0132475608082
0.010791709104
0.005324232615
0.00565307642391
0.0117744620411
0.0145945934362
0.0161838001083
0.0170563237584
0.0174916857661
0.0176762760784
0.0177349764527
0.0177449903883
0.0177435791882
0.0177437944246
0.0177456026428
0.0177360062868
0.0176776781638
0.0174932159554
0.0170576673883
0.01618467968
0.0145948171939
0.0117739423932
0.00565317420779
0.0058125796469
0.0122710527148
0.0153135347556
0.0170564720864
0.0180259564325
0.0185134633369
0.0187227508111
0.018786013988
0.0187955318863
0.0187935136628
0.0187937460741
0.0187961421144
0.0187870913709
0.0187243214224
0.018515187555
0.0180274527823
0.0170574250702
0.0153137643001
0.0122705015688
0.00581267177851
0.00588031463514
0.0124930409636
0.0156608754102
0.0174916915798
0.0185132807579
0.0190221167195
0.019224784715
0.019279143923
0.0192817282415
0.0192764465983
0.0192766817237
0.0192823952213
0.0192804044879
0.0192267497271
0.0190244288082
0.0185152599504
0.0174930070531
0.0156613441708
0.0124926431803
0.00588046689477
0.00590256299781
0.0125706549266
0.0158014825717
0.0176758338493
0.018722000353
0.0192241903061
0.0194126549945
0.0194525345955
0.0194451781835
0.0194352560792
0.0194354830797
0.0194459163135
0.0194540915804
0.0194151817938
0.0192272733897
0.0187248401527
0.0176777802277
0.0158023901089
0.0125705604183
0.00590283624333
0.00590570507192
0.0125838359026
0.0158421517837
0.0177339497736
0.0187845889309
0.0192777508401
0.0194516963556
0.0194773602632
0.0194601708194
0.0194454422271
0.0194456637753
0.0194610955089
0.019479225965
0.0194547348819
0.0192815391949
0.0187881591154
0.0177365193232
0.0158435414774
0.0125840891674
0.00590612304338
0.00590329443944
0.0125770228166
0.0158456911295
0.0177434100882
0.0187934990724
0.0192797517601
0.0194436378028
0.019459248496
0.0194346938331
0.0194161876757
0.0194163144616
0.019435869906
0.0194614494975
0.019446900092
0.0192838962613
0.0187976012708
0.0177464431365
0.015847461764
0.0125775666701
0.00590384506496
0.0059011206884
0.0125702560529
0.0158421360547
0.0177416371534
0.0187911238339
0.0192740625762
0.0194331414075
0.0194435361381
0.0194147997932
0.0193943166749
0.0193946959954
0.0194160096201
0.0194457795283
0.0194363520101
0.0192781901351
0.0187952842985
0.0177447676669
0.0158440670431
0.0125709375508
0.00590174406479
0.00590109414874
0.0125701751773
0.0158420306491
0.0177415037535
0.0187909534005
0.019273851408
0.0194328928642
0.0194432230219
0.0194144115836
0.0193938791058
0.0193942494325
0.0194156162707
0.0194454650826
0.0194361032024
0.0192779865275
0.0187951021428
0.017744597499
0.0158439139835
0.0125708112594
0.00590169484039
0.00590322084868
0.0125767838261
0.0158453817223
0.0177430162935
0.0187930156089
0.0192791805277
0.0194429413658
0.0194583905341
0.0194337031672
0.0194151269615
0.0194151883279
0.0194348079469
0.0194605545382
0.0194461760869
0.0192832867365
0.018797049483
0.0177459341531
0.0158470149825
0.0125772002964
0.00590371004457
0.00590559992472
0.0125834652846
0.0158416717702
0.0177333327257
0.0187838282575
0.0192768610988
0.0194506414585
0.019476085208
0.0194587532697
0.0194439655079
0.0194441486225
0.0194596481874
0.0194779454294
0.0194536386531
0.0192805738524
0.0187872696233
0.0177357082828
0.0158428426498
0.0125835226581
0.00590593007333
0.00590245915266
0.0125702149845
0.0158009089233
0.0176750812076
0.0187210746774
0.0192231044453
0.0194113391361
0.0194510102579
0.0194435158629
0.0194335550249
0.0194337714334
0.0194442629899
0.0194525720941
0.019413802835
0.0192260085716
0.0187236871908
0.0176767449535
0.0158015161845
0.0125698562712
0.00590262169019
0.00588023603626
0.0124926104668
0.0156603086333
0.0174909236373
0.0185122985014
0.0190208997936
0.0192233311043
0.0192774892719
0.0192799420925
0.0192746042722
0.0192748354817
0.019280603956
0.0192787143572
0.0192251706671
0.0190229899273
0.0185139797822
0.0174918738761
0.0156603962955
0.0124918786269
0.00588026240501
0.00581254498719
0.0122706876856
0.0153130503592
0.0170557820819
0.018025019761
0.0185122864854
0.0187213077712
0.0187843581454
0.0187937368941
0.0187916505073
0.0187918644522
0.0187942911052
0.0187853166864
0.0187226645014
0.0185137137329
0.0180261381069
0.0170562990855
0.0153128301696
0.0122697349444
0.00581249415036
0.00565309455965
0.0117742038685
0.0145942433244
0.0161832619709
0.0170555358744
0.0174906358449
0.017674965991
0.0177334559618
0.0177433256935
0.0177418769875
0.0177420619795
0.0177438439119
0.0177343144462
0.0176761055676
0.0174918199131
0.0170564575138
0.0161836594191
0.0145939594799
0.0117732053886
0.00565302681392
0.00532415400283
0.0107919040332
0.0132469827201
0.0145938660501
0.0153124314347
0.0156596254593
0.0158003403552
0.0158413019434
0.0158452010845
0.0158419833119
0.0158421740394
0.0158457544235
0.0158421917377
0.0158014780798
0.0156608085513
0.0153133942219
0.0145943544068
0.0132468166668
0.0107910204953
0.00532410994213
0.00470167531756
0.0089262316284
0.0107914955401
0.0117734555683
0.012269733842
0.0124916116529
0.0125693018491
0.012582711159
0.0125761964186
0.0125697338567
0.0125699245555
0.0125767485106
0.0125835844195
0.0125704055568
0.012492776029
0.0122707424708
0.0117740680705
0.0107915198733
0.0089255785455
0.00470165690339
0.00371422736918
0.00470165095301
0.00532399293701
0.00565280881397
0.00581217648613
0.0058798517678
0.00590212140805
0.00590535009156
0.00590309413996
0.00590111280535
0.00590127075392
0.00590353359183
0.00590600009472
0.00590289119799
0.00588064585436
0.00581287675057
0.00565330248492
0.00532421051638
0.00470163387333
0.00371429683031
0.00384576877316
0.00529946142681
0.00624025611118
0.00675932300567
0.00702607488221
0.00714895361717
0.00719593685426
0.00720830762991
0.00720866659413
0.00720721485257
0.00720737278628
0.00720912045622
0.00720900977129
0.00719679499708
0.00714983894854
0.00702683980277
0.00675983954502
0.00624046387526
0.00529945243627
0.00384591585801
0.00529939260833
0.0107218690165
0.0131542544492
0.0144849466304
0.0151924807371
0.0155332793687
0.015670692349
0.0157096301635
0.0157117005147
0.0157071915258
0.015707372193
0.0157122344495
0.0157105020024
0.015671811917
0.0155344514377
0.015193465949
0.0144855086466
0.013154209606
0.0107211198056
0.00529942677248
0.00624036129153
0.0131548718231
0.0162621495687
0.0180165676824
0.0189945609452
0.0194983731835
0.0197254758092
0.0198084355831
0.01982934129
0.0198312567245
0.019831437659
0.0198298809849
0.019809335437
0.0197266430813
0.0194995588781
0.0189954564876
0.0180168945609
0.0162617166877
0.0131536091695
0.00624027549684
0.00675963494048
0.0144860133445
0.0180170579694
0.0200538005529
0.0212201541315
0.0218409199716
0.0221326480283
0.0222466190586
0.0222804113584
0.0222866978882
0.0222868620951
0.0222808806917
0.0222474524067
0.0221337942964
0.0218420762822
0.0212209574172
0.0200539320877
0.0180163290641
0.0144843942296
0.00675945329362
0.00702652555943
0.0151937784799
0.0189953009293
0.0212203986256
0.0225136252796
0.0232116665101
0.0235409362499
0.0236679106724
0.0237039596603
0.0237096759042
0.0237098108476
0.0237043238715
0.0236685360087
0.0235419892753
0.0232129268533
0.0225145384199
0.0212205592565
0.0189944927337
0.0151920058874
0.00702630740211
0.00714942046269
0.0155345405827
0.0194990546497
0.0218410708335
0.0232115952982
0.0239446674259
0.0242829547359
0.0244064287642
0.0244356550072
0.0244369070464
0.0244369800943
0.0244358632495
0.0244065689422
0.0242832793985
0.0239458543882
0.023212822134
0.0218415746856
0.0194984613215
0.0155328656711
0.00714926491728
0.00719629594355
0.0156716705166
0.0197257976486
0.0221323434204
0.0235402858435
0.0242828101194
0.0246140106342
0.0247231115475
0.0247391247986
0.0247329368722
0.0247329480654
0.0247391589056
0.0247227177401
0.0246132355088
0.0242832130386
0.0235421876742
0.0221334897389
0.0197256741643
0.0156703164301
0.00719629591223
0.0072084689745
0.015710163193
0.0198082202446
0.022245721927
0.0236668016357
0.0244063897702
0.0247234663134
0.0248142402723
0.0248147874069
0.0248000803147
0.0248000520787
0.0248147948161
0.0248135517962
0.0247220318815
0.0244060816957
0.0236688883037
0.0222474305999
0.0198086056681
0.0157092121126
0.00720866809504
0.0072085768541
0.0157117477012
0.0198285699679
0.0222789587347
0.0237024383463
0.0244355232688
0.0247395338006
0.0248147690652
0.0248024185095
0.0247804596871
0.0247802914274
0.0248025001334
0.0248140890546
0.0247378733604
0.0244350598442
0.0237047195249
0.0222810590376
0.0198293528113
0.0157111387477
0.00720895363704
0.00720687280472
0.0157068157283
0.0198300573116
0.0222851007092
0.0237078337461
0.0244364902732
0.0247330065734
0.0247994629256
0.0247795684025
0.024753513374
0.0247535443882
0.0247796010319
0.0247987391138
0.0247312392526
0.024435959011
0.0237101360143
0.0222869864922
0.0198309831098
0.0157063680371
0.00720734464615
0.00720683721535
0.0157066833387
0.0198299070463
0.022284950809
0.0237076542565
0.0244362792794
0.0247327733789
0.024799181497
0.0247792275484
0.0247531373387
0.0247531595228
0.0247792546735
0.0247984573884
0.024731009403
0.0244357610247
0.0237099441805
0.022286802818
0.0198307846306
0.0157061833884
0.00720728456715
0.00720847096018
0.0157113511259
0.0198281221849
0.0222784826642
0.0237019155775
0.0244349399968
0.0247388798301
0.0248140000973
0.0248015410473
0.0247795258591
0.0247793074873
0.0248015654322
0.0248132901411
0.02473721403
0.0244344720293
0.0237041383208
0.0222804780916
0.0198287676563
0.0157105977938
0.00720878188464
0.00720830743824
0.0157095349752
0.0198075120027
0.0222449618141
0.0236659772539
0.0244054980988
0.0247224872454
0.0248131312372
0.024813571331
0.0247988002383
0.0247987383279
0.0248135317475
0.0248124215581
0.0247210382111
0.0244051456436
0.0236679413481
0.0222464884854
0.0198076768757
0.0157083646438
0.0072084105463
0.0071961144993
0.0156708959247
0.0197249139745
0.0221313685664
0.0235392427565
0.0242816801316
0.0246127893688
0.0247217857725
0.024737700362
0.0247314640553
0.0247314521712
0.0247376980917
0.0247213508736
0.0246119520813
0.0242819502963
0.0235409353612
0.0221322406671
0.019724479201
0.0156692432518
0.00719599247611
0.00714925697306
0.0155337279119
0.0194981137513
0.0218400115891
0.0232105351054
0.0239433479118
0.0242814730767
0.0244048365644
0.0244339633479
0.0244351518225
0.0244352098152
0.0244341253891
0.024404899616
0.0242816675068
0.0239443361952
0.02321150313
0.0218401525081
0.0194971152538
0.0155316671199
0.00714895471487
0.00702640586339
0.0151930196214
0.0189943943378
0.0212193159174
0.0225123790563
0.0232103604898
0.0235392432216
0.0236660342268
0.0237019673825
0.0237076375676
0.0237077512019
0.0237022682877
0.0236665397317
0.0235401017213
0.0232113679488
0.0225129228645
0.0212190257176
0.0189930951711
0.0151907714959
0.00702601466107
0.00675957152019
0.0144853677264
0.018016257134
0.0200527853829
0.0212188894363
0.0218394068622
0.0221308594115
0.0222446443993
0.0222783127505
0.0222847555061
0.0222848950362
0.0222786916079
0.0222453121909
0.0221317468363
0.0218402152746
0.0212192518619
0.0200523990864
0.0180149619921
0.0144831832985
0.00675918445932
0.00624035020805
0.0131543635419
0.0162614922974
0.0180156879818
0.0189934055378
0.0194969233253
0.0197237460704
0.0198064824361
0.0198272233265
0.0198290644126
0.0198292103748
0.0198276532132
0.0198071880421
0.0197246256624
0.0194977292798
0.0189938308088
0.0180154611262
0.0162604375747
0.0131524527497
0.00624002848509
0.00529943010091
0.0107215269555
0.0131537663001
0.0144842532366
0.0151915355682
0.0155320650031
0.015669226694
0.0157079538633
0.0157098635897
0.0157052571286
0.0157054044705
0.0157102952181
0.0157086436111
0.0156700807753
0.0155328872337
0.0151920795729
0.0144842757589
0.013153085435
0.0107200687509
0.005299219249
0.00384579074658
0.0052994018153
0.00624014606337
0.00675917171899
0.00702585995031
0.00714865730371
0.00719555203598
0.00720784074318
0.00720813356094
0.00720663763221
0.00720678043848
0.00720854400631
0.00720846858863
0.0071963076883
0.0071494137295
0.00702646688329
0.00675949606214
0.00624012670215
0.00529915319142
0.00384590649125
0.00391250834491
0.00561691475185
0.00674655215666
0.00738981540643
0.00773379489618
0.00790086562163
0.00797052322658
0.00799309516191
0.00799739495223
0.00799716086871
0.00799730735243
0.0079978219337
0.00799377215044
0.00797135889693
0.00790170573207
0.00773447554306
0.0073902107188
0.00674662157994
0.00561678312366
0.00391269824966
0.00561684159827
0.0116914602864
0.0144743033739
0.0160402670701
0.0169021437473
0.0173374819818
0.0175276953
0.01759283366
0.0176060346488
0.0176051912716
0.0176053170653
0.0176064221623
0.0175935145665
0.017528589821
0.0173383656802
0.016902755719
0.0160403919524
0.0144737896091
0.0116902185566
0.0056167664979
0.00674665619441
0.0144750089788
0.0179883394714
0.0200148238399
0.0211779935863
0.0218015541628
0.0220997701907
0.0222202963051
0.0222579781555
0.0222654683669
0.0222655769119
0.0222583396019
0.0222209850389
0.0221007197025
0.0218024658731
0.0211784970926
0.0200146243517
0.0179872672461
0.0144730319846
0.00674639640127
0.00739015215958
0.0160414974793
0.0200153838746
0.022346409076
0.0237170812621
0.0244741558577
0.0248491661821
0.0250080856971
0.0250625830899
0.0250751280438
0.0250751759965
0.0250627795547
0.0250082672724
0.0248493212539
0.0244747243251
0.0237175285712
0.0223459941345
0.020013908301
0.0160389760737
0.00738974241706
0.00773428872351
0.0169036466796
0.0211788306197
0.0237173430846
0.0252307174171
0.0260770361477
0.0264944395865
0.0266666908334
0.0267202853747
0.0267301794768
0.0267300831402
0.0267199334424
0.0266655816524
0.0264924996938
0.0260755338006
0.0252304665108
0.0237170259886
0.0211772533051
0.0169008478618
0.00773381597481
0.00790136476036
0.0173389228816
0.0218022749013
0.0244743376866
0.026077561533
0.0269650553467
0.027393812112
0.0275591770806
0.0276004094388
0.0276018831995
0.0276016136853
0.0275993348044
0.0275562143455
0.0273884094971
0.0269593529034
0.0260747448019
0.024473998058
0.0218009982844
0.0173362042167
0.0079009737306
0.00797086437113
0.0175287343615
0.0220999904979
0.0248494140065
0.026496596118
0.0273961891237
0.0278140982518
0.0279571214506
0.027976190373
0.0279644966818
0.0279641735818
0.0279746384577
0.0279526499888
0.0278053678523
0.0273858131084
0.0264897944937
0.0248481544372
0.0220993303429
0.0175264215626
0.00797069285276
0.00799316450467
0.0175932544416
0.0222198043115
0.0250087946971
0.0266705275678
0.0275640651043
0.0279599262079
0.0280729397109
0.0280655016406
0.0280386864387
0.0280384221927
0.0280640445839
0.0280679023853
0.0279493476318
0.0275506894454
0.0266607922892
0.025006219522
0.0222197622228
0.0175914661844
0.00799327310758
0.00799714584784
0.0176058045255
0.0222567647598
0.0250630939888
0.0267245824584
0.027606324785
0.0279802251604
0.0280666794201
0.0280361365199
0.0279960743427
0.0279957727888
0.0280348793145
0.0280617653233
0.0279692342697
0.0275921049746
0.0267140842482
0.0250603338648
0.02225720886
0.0176044642385
0.00799749819593
0.00799661226563
0.0176044215601
0.0222636749978
0.0250749845433
0.0267342650489
0.0276078663004
0.0279686299978
0.0280396988616
0.0279956775759
0.0279480476632
0.0279479089601
0.0279944907004
0.0280349506885
0.0279576909556
0.0275936161383
0.0267238340493
0.0250726795065
0.022264389669
0.0176033042809
0.00799709356862
0.00799655744777
0.0176042111122
0.0222634592046
0.0250747863211
0.0267340732578
0.0276076869067
0.027968470124
0.0280394781474
0.0279953875864
0.0279477062469
0.0279475966796
0.0279942260368
0.0280347355365
0.0279575302097
0.0275934752613
0.0267236664512
0.0250724700369
0.0222641277164
0.0176030294401
0.00799700948016
0.00799697731057
0.0176051684276
0.0222561281695
0.0250625374186
0.0267240290931
0.0276058268443
0.0279797583067
0.028066137172
0.0280354930239
0.027995353247
0.0279950244669
0.0280341869931
0.0280612118742
0.0279688073662
0.0275916979254
0.0267135820198
0.0250597373187
0.0222564387727
0.0176036531582
0.0079972535
0.00799289955062
0.0175922371904
0.0222187865459
0.0250079050832
0.0266696652467
0.0275633317347
0.027959285241
0.0280722596125
0.0280647358574
0.0280378559952
0.0280375480014
0.0280632161951
0.0280672038319
0.0279487567011
0.0275500428057
0.0266599527224
0.0250052269718
0.0222185275097
0.0175901916709
0.00799290023267
0.00797054999644
0.017527462326
0.0220986858104
0.0248481825713
0.0264954714585
0.0273952651847
0.0278133569556
0.027956427661
0.027975437946
0.0279637012361
0.0279633220095
0.0279737987047
0.0279518733267
0.0278045826049
0.0273848571362
0.0264885717174
0.0248466872993
0.0220977076493
0.0175248006602
0.00797024432745
0.00790105730858
0.0173375628818
0.0218008337267
0.0244728800416
0.0260761758292
0.0269638199299
0.0273927660177
0.027558214399
0.0275993901461
0.0276007764782
0.0276004605693
0.0275981872067
0.0275550754796
0.0273871802254
0.0269579387122
0.0260731134702
0.0244721858398
0.0217991289188
0.0173343941831
0.00790050346367
0.00773402681948
0.016902340592
0.0211773783011
0.0237157559259
0.0252290315734
0.0260753387778
0.026492782915
0.0266650666925
0.0267185756553
0.026728345932
0.0267281999102
0.0267180769581
0.026663731627
0.0264905783787
0.0260735459204
0.0252284142582
0.0237149813557
0.0211752747202
0.016898999612
0.00773336276419
0.0073899542777
0.0160403438009
0.0200140203765
0.0223448006198
0.02371519674
0.0244720041658
0.0248468293446
0.0250057752971
0.025060138662
0.025072392934
0.0250724011566
0.0250602239412
0.025005772762
0.0248467134705
0.0244722139901
0.0237151867199
0.0223438403953
0.0200119345663
0.0160371951776
0.00738932333652
0.00674652534703
0.0144740470442
0.0179871260139
0.0200132906147
0.0211760786229
0.021799229236
0.0220970629995
0.0222172932512
0.0222547371559
0.0222620546849
0.0222621222886
0.0222549734804
0.0222177619986
0.0220976849827
0.0217997112404
0.0211760592416
0.020012487031
0.0179853836667
0.01447137346
0.00674601754727
0.00561678638655
0.0116907176319
0.0144732949891
0.0160389181261
0.0169003860477
0.0173352815747
0.0175250737388
0.0175898603538
0.0176027917935
0.0176017783202
0.0176018565396
0.0176030379977
0.0175902924009
0.0175256177164
0.0173357225062
0.0169004693616
0.0160384333689
0.014472095286
0.0116887388508
0.00561647044543
0.00391253434146
0.00561674840549
0.00674628510701
0.00738946485741
0.00773333585856
0.0079002747609
0.00796979182689
0.00799223904133
0.00799644276474
0.00799614564833
0.00799627387459
0.0079968174176
0.00799282507697
0.00797050503449
0.00790096379343
0.00773383784358
0.00738965096654
0.00674611550969
0.00561637933416
0.00391271532025
0.00394479694757
0.00578661027564
0.00702763762114
0.00774981138675
0.00814665219035
0.00834646575782
0.00843448298006
0.00846610947065
0.00847419627633
0.00847519979993
0.00847534468509
0.00847463082577
0.008466845469
0.00843542405243
0.00834739322534
0.00814737593457
0.00775022070431
0.00702772368549
0.00578652587086
0.00394504562827
0.00578654956856
0.0122423252449
0.015245129417
0.016969458913
0.0179415676285
0.0184484932342
0.0186812945432
0.0187687815927
0.0187917759408
0.0187941944984
0.0187942716286
0.0187920476858
0.0187693986347
0.018682191139
0.0184493401389
0.0179420552877
0.016969415546
0.0152444512761
0.0122409122389
0.00578650429971
0.00702775329492
0.0152459156072
0.0190199363057
0.0212308459834
0.0225245401743
0.0232352184778
0.0235863688433
0.0237341020694
0.023782258541
0.0237924952197
0.023792532876
0.0237824580273
0.0237343651128
0.0235866612902
0.023235931861
0.0225251095083
0.0212305551145
0.0190186221044
0.0152435498109
0.00702747022968
0.00775016738986
0.0169708191127
0.0212314443302
0.0237606355295
0.0252726118238
0.0261242345514
0.0265547152182
0.02673994507
0.0267997984087
0.0268118502429
0.0268117195747
0.0267993930131
0.0267386542727
0.0265522747176
0.0261219035385
0.025271615842
0.0237602237253
0.0212297108975
0.0169677130897
0.00774969099085
0.00814715080062
0.0179431988625
0.0225253763464
0.0252731206077
0.0269342670647
0.0278743240851
0.0283410768165
0.0285297598485
0.0285814153395
0.0285858348034
0.0285854087782
0.0285797230152
0.0285252308988
0.028332561919
0.0278642500668
0.0269274243426
0.0252708359361
0.0225236597959
0.0179397025462
0.00814662826994
0.0083469036876
0.0184499258275
0.0232359624647
0.0261268288582
0.0278784628898
0.0288539777961
0.0293192541813
0.0294846635573
0.0295093960121
0.0294969153407
0.0294964014024
0.0295067765453
0.0294766685876
0.0293027065558
0.0288318271718
0.0278600354117
0.0261188353554
0.0232340891887
0.0184466110545
0.00834656127935
0.00843462165706
0.0186819896868
0.0235873070603
0.0265613220347
0.0283525654194
0.0293278851762
0.0297625365553
0.0298831014759
0.0298658384519
0.029829020341
0.0298289076245
0.0298637679596
0.0298737632071
0.0297400148748
0.0292941253209
0.0283209355124
0.0265449348381
0.0235839912385
0.018679382475
0.00843467696236
0.00846579396325
0.018768433952
0.0237353785048
0.0267499633011
0.0285472358781
0.0295003473891
0.0298901047114
0.0299555074497
0.0298892966943
0.0298248208226
0.0298254073108
0.0298890277014
0.0299475294491
0.0298657995421
0.0294604808869
0.028507171174
0.0267273188087
0.0237305461102
0.0187666878628
0.00846632270436
0.00847340589147
0.0187904236221
0.0237830796151
0.0268106025329
0.0286008848703
0.0295275690614
0.0298750344974
0.0298908991513
0.0297812023724
0.0296922235205
0.0296932908545
0.0297824755912
0.029885013567
0.0298517475473
0.029486817786
0.0285587422782
0.0267863557685
0.0237781235924
0.0187893544109
0.00847431570554
0.00847401313798
0.0187920926182
0.0237925995003
0.0268222084176
0.0286053691593
0.0295152250203
0.0298377032176
0.0298249333912
0.0296903009401
0.0295872301573
0.0295885883273