/*--------------------------------*- C++ -*----------------------------------*\
| =========                 |                                                 |
| \\      /  F ield         | OpenFOAM: The Open Source CFD Toolbox           |
|  \\    /   O peration     | Version:  3.0.1                                 |
|   \\  /    A nd           | Web:      www.OpenFOAM.org                      |
|    \\/     M anipulation  |                                                 |
\*---------------------------------------------------------------------------*/
FoamFile
{
    version     2.0;
    format      ascii;
    class       surfaceScalarField;
    location    "1.7";
    object      phi;
}
// * * * * * * * * * * * * * * * * * * * * * * * * * * * * * * * * * * * * * //

dimensions      [0 3 -1 0 0 0 0];

internalField   nonuniform List<scalar> 
22672
(
1.73333654593e-06
1.75441003176e-06
-3.48774588042e-06
4.02950827336e-06
1.44184777507e-06
-3.73801801628e-06
6.27854868663e-06
1.56310350818e-06
-3.81214064443e-06
7.96299020405e-06
2.10690365836e-06
-3.79133934783e-06
8.74652992254e-06
2.98945637104e-06
-3.77298745298e-06
8.48471711139e-06
4.04113718089e-06
-3.77931320895e-06
7.23659216583e-06
5.05505598392e-06
-3.80691802638e-06
5.19691624552e-06
5.89737459086e-06
-3.8576846292e-06
2.64342245185e-06
6.47236560447e-06
-3.91885748933e-06
-1.52330552934e-07
6.75808646582e-06
-3.9623194032e-06
-2.94576856742e-06
6.75878353314e-06
-3.96533206455e-06
-5.49167410642e-06
6.47401080039e-06
-3.92809263759e-06
-7.51698387978e-06
5.89869818042e-06
-3.8733768215e-06
-8.74210944434e-06
5.05449141786e-06
-3.82935551111e-06
-8.9715821659e-06
4.03819633357e-06
-3.8087146202e-06
-8.14566548433e-06
2.98395924131e-06
-3.80986815159e-06
-6.41183300796e-06
2.10144397668e-06
-3.83526947169e-06
-4.11174485364e-06
1.55912556296e-06
-3.85920684339e-06
-1.76657358219e-06
1.44208728133e-06
-3.78725100293e-06
1.7649132865e-06
-3.53148120052e-06
1.41564214449e-06
4.08074782888e-06
-3.74197841497e-06
4.03443685587e-06
4.09591649803e-06
-5.27286038458e-06
6.72512586746e-06
4.81705971764e-06
-5.94463971842e-06
8.7376012819e-06
6.30671456499e-06
-6.21227758464e-06
9.68443899349e-06
8.38612745985e-06
-6.34349660489e-06
9.41137594197e-06
1.07174362928e-05
-6.4032208109e-06
8.00036506076e-06
1.29254663805e-05
-6.45938206267e-06
5.71863267024e-06
1.47218589394e-05
-6.54273330493e-06
2.89901156876e-06
1.59410616038e-05
-6.64905593282e-06
-1.6099132149e-07
1.65457104845e-05
-6.72760248189e-06
-3.21878891604e-06
1.6547575951e-05
-6.73097687692e-06
-6.0314422172e-06
1.5946156897e-05
-6.65947579935e-06
-8.29943522384e-06
1.47274646324e-05
-6.56075764521e-06
-9.68758348854e-06
1.2928441328e-05
-6.48578731893e-06
-9.92650929388e-06
1.07161334376e-05
-6.43899865727e-06
-8.93393680912e-06
8.38126920102e-06
-6.38987146131e-06
-6.86765666238e-06
6.30026199036e-06
-6.26508848423e-06
-4.11827055578e-06
4.81245839925e-06
-6.00270994652e-06
-1.44555704009e-06
4.09840694633e-06
-5.32902414376e-06
4.09789941561e-06
-3.77853657572e-06
1.53773174714e-06
6.37155487314e-06
-3.82853532597e-06
4.752937569e-06
6.82715937655e-06
-5.9464430031e-06
8.10891155657e-06
8.21617962097e-06
-6.75508510244e-06
1.06080672036e-05
1.06494688222e-05
-6.84189715793e-06
1.17535072616e-05
1.38439510189e-05
-6.60324666135e-06
1.13724943721e-05
1.73286091301e-05
-6.23013928154e-06
9.59967640804e-06
2.05787376001e-05
-5.88042991503e-06
6.81027616389e-06
2.31889457851e-05
-5.67766180616e-06
3.44247159235e-06
2.49440676404e-05
-5.635176287e-06
-1.60909142596e-07
2.58090654347e-05
-5.65994938815e-06
-3.7627375621e-06
2.58113303938e-05
-5.66190194133e-06
-7.12627986695e-06
2.49509186813e-05
-5.64119635317e-06
-9.9051744608e-06
2.31964794958e-05
-5.69009833264e-06
-1.16570888213e-05
2.05821866854e-05
-5.90181062426e-06
-1.20034729067e-05
1.73264779969e-05
-6.26394211072e-06
-1.08122516361e-05
1.38368679942e-05
-6.64680400052e-06
-8.25731862376e-06
1.06405787266e-05
-6.89523591713e-06
-4.83930365493e-06
8.20970833266e-06
-6.81525278757e-06
-1.56741819493e-06
6.82872007994e-06
-6.00218718692e-06
6.38913569963e-06
-3.85864609689e-06
2.08099687566e-06
8.09145024173e-06
-3.80088592678e-06
6.24234230393e-06
8.87988615064e-06
-6.21406288249e-06
1.05401322653e-05
1.07550709026e-05
-6.83666807835e-06
1.36945157683e-05
1.38464414845e-05
-6.35133814842e-06
1.5068653908e-05
1.77885981766e-05
-5.31876210318e-06
1.44579129315e-05
2.2010914205e-05
-4.07153629242e-06
1.2087274178e-05
2.59017090725e-05
-2.95230152689e-06
8.49674704214e-06
2.89904151598e-05
-2.21090913325e-06
4.2798033107e-06
3.1046427936e-05
-1.88538284929e-06
-1.57956466092e-07
3.20515989119e-05
-1.80474024184e-06
-4.59534939373e-06
3.20532729146e-05
-1.80451678164e-06
-8.81189463104e-06
3.10513747617e-05
-1.88387880163e-06
-1.23968377706e-05
2.89944857792e-05
-2.21303206712e-06
-1.47489082769e-05
2.58995485149e-05
-2.96526173879e-06
-1.53257435953e-05
2.2000755322e-05
-4.09741476558e-06
-1.39046256913e-05
1.77731645063e-05
-5.35739037655e-06
-1.06919608726e-05
1.38306483978e-05
-6.40271409448e-06
-6.32891854325e-06
1.07432029594e-05
-6.89651985911e-06
-2.10872630961e-06
8.87666188387e-06
-6.26811867741e-06
8.10451438155e-06
-3.82409367244e-06
2.96614270837e-06
8.90593592146e-06
-3.78061873763e-06
8.32240579206e-06
9.85613161148e-06
-6.33249510277e-06
1.3736001448e-05
1.1933694001e-05
-6.59220064175e-06
1.76354361417e-05
1.52552994493e-05
-5.30826867539e-06
1.92226031578e-05
1.94137983075e-05
-3.21233683393e-06
1.82805614735e-05
2.38129472658e-05
-8.59955320603e-07
1.51410104277e-05
2.78054520528e-05
1.23584845152e-06
1.05547679614e-05
3.09460965888e-05
2.63060398714e-06
5.29733181717e-06
3.30110793907e-05
3.29282860806e-06
-1.5520596418e-07
3.40112799393e-05
3.49290061803e-06
-5.60798999313e-06
3.40123537795e-05
3.49374662391e-06
-1.08694076258e-05
3.30118937527e-05
3.30094174436e-06
-1.54557272297e-05
3.09430009734e-05
2.63784706489e-06
-1.85792560209e-05
2.77940514318e-05
1.22906737208e-06
-1.94860838209e-05
2.37919505097e-05
-8.84328457604e-07
-1.78489120676e-05
1.93880399752e-05
-3.25201252369e-06
-1.3888670089e-05
1.52305207254e-05
-5.36008500969e-06
-8.40769136834e-06
1.1914391709e-05
-6.65214345399e-06
-2.99144944737e-06
9.8453593143e-06
-6.38491829625e-06
8.91175826254e-06
-3.79867793271e-06
4.01983805259e-06
8.66715971542e-06
-3.78104886835e-06
1.06585000967e-05
9.60809792144e-06
-6.39061086005e-06
1.72250565917e-05
1.15779753859e-05
-6.21081491678e-06
2.18609886473e-05
1.46709769842e-05
-4.05157972815e-06
2.36221049467e-05
1.8499936989e-05
-8.47217576755e-07
2.22692552302e-05
2.24903442692e-05
2.67549707588e-06
1.82945749096e-05
2.60714857047e-05
5.7086963764e-06
1.26527906254e-05
2.8868521538e-05
7.71941227353e-06
6.32349328457e-06
3.06896191417e-05
8.65081182757e-06
-1.53548109703e-07
3.15654879024e-05
8.92288781059e-06
-6.63267496503e-06
3.15666432104e-05
8.9248917457e-06
-1.29695388471e-05
3.06871050421e-05
8.66170722851e-06
-1.86160698554e-05
2.88591268734e-05
7.73046019143e-06
-2.25764812562e-05
2.60529557733e-05
5.70156171165e-06
-2.38903113006e-05
2.24623449623e-05
2.64348773854e-06
-2.20759285962e-05
1.84659723229e-05
-8.92268060236e-07
-1.73764641785e-05
1.4640028114e-05
-4.10893203805e-06
-1.07418291697e-05
1.15537201278e-05
-6.27393102882e-06
-4.04185719811e-06
9.59404929052e-06
-6.4486337525e-06
8.66772646418e-06
-3.79780507792e-06
5.0367113758e-06
7.4346207244e-06
-3.80415648158e-06
1.28718870922e-05
8.21247123272e-06
-6.43952802132e-06
2.04813526547e-05
9.81955606274e-06
-5.85101908584e-06
2.57574246867e-05
1.23140660349e-05
-2.91912611423e-06
2.76167038376e-05
1.53729769408e-05
1.26772450977e-06
2.58504984397e-05
1.85297081784e-05
5.72689315062e-06
2.10826825864e-05
2.13196170077e-05
9.51974240212e-06
1.44805207166e-05
2.34974833007e-05
1.19732616482e-05
7.20874737507e-06
2.48999198888e-05
1.30615355874e-05
-1.51906411301e-07
2.55693153817e-05
1.33568895785e-05
-7.51885775181e-06
2.55718641136e-05
1.33617941305e-05
-1.48032704738e-05
2.48938831468e-05
1.30776996182e-05
-2.14127756045e-05
2.34861876458e-05
1.19825111273e-05
-2.61665696104e-05
2.13020018203e-05
9.5048154554e-06
-2.78907305885e-05
1.85037073433e-05
5.68286400723e-06
-2.59715153153e-05
1.53413684311e-05
1.20544821007e-06
-2.06295195658e-05
1.22845480313e-05
-2.98646493331e-06
-1.29514080659e-05
9.79609723688e-06
-5.92044716158e-06
-5.05642184935e-06
8.19815047139e-06
-6.49905125345e-06
7.43407329327e-06
-3.82274306883e-06
5.88194451005e-06
5.40226976783e-06
-3.84957538866e-06
1.46731269044e-05
5.93681389255e-06
-6.51550138051e-06
2.30972356881e-05
7.03419164077e-06
-5.63871404612e-06
2.88514795694e-05
8.72482639448e-06
-2.16496541111e-06
3.07624499292e-05
1.07867181047e-05
2.67533678863e-06
2.86498260319e-05
1.28863393562e-05
7.75604985259e-06
2.32595299743e-05
1.47190662815e-05
1.1990910598e-05
1.59097996847e-05
1.61558474553e-05
1.46914337987e-05
7.9054066805e-06
1.7079517231e-05
1.58248647807e-05
-1.51915506624e-07
1.75187904511e-05
1.61079167228e-05
-8.21818469049e-06
1.75220310432e-05
1.61161730487e-05
-1.62359925701e-05
1.70741042036e-05
1.58376603153e-05
-2.35966276124e-05
1.61467558002e-05
1.47001438449e-05
-2.89733733604e-05
1.47110540318e-05
1.19677726593e-05
-3.10400970839e-05
1.28720014068e-05
7.69850732554e-06
-2.90654381638e-05
1.07654551883e-05
2.60132571036e-06
-2.32429461688e-05
8.70501391226e-06
-2.24289672279e-06
-1.47496086243e-05
7.01829854039e-06
-5.71548858479e-06
-5.89972590351e-06
5.9281963377e-06
-6.57988451857e-06
5.40516526321e-06
-3.87078720419e-06
6.45900683397e-06
2.84844432312e-06
-3.90516177588e-06
1.58956745657e-05
3.11488989379e-06
-6.61471840359e-06
2.48563231468e-05
3.66208404875e-06
-5.58850873155e-06
3.09116038825e-05
4.50188603863e-06
-1.83229917471e-06
3.28306510476e-05
5.52226009739e-06
3.34546203198e-06
3.04765938067e-05
6.55264570385e-06
8.6878112966e-06
2.46683837355e-05
7.44555267566e-06
1.30817909222e-05
1.68325031334e-05
8.15572432545e-06
1.58360748222e-05
8.35370855015e-06
8.61346324172e-06
1.69449211932e-05
-1.49820790884e-07
8.82780206583e-06
1.71945913915e-05
-8.67216654672e-06
8.82300014909e-06
1.72214527467e-05
-1.71616454396e-05
8.61484633906e-06
1.69488173426e-05
-2.50050152006e-05
8.15450062826e-06
1.58357108495e-05
-3.08048256769e-05
7.44806096765e-06
1.30628929698e-05
-3.31136761704e-05
6.55235439433e-06
8.62858595013e-06
-3.11256642936e-05
5.51804190682e-06
3.25948305687e-06
-2.50003664243e-05
4.4971840806e-06
-1.91739784977e-06
-1.59701662456e-05
3.65916112304e-06
-5.67100476919e-06
-6.47563417123e-06
3.11677581974e-06
-6.68306047201e-06
2.85869351085e-06
-3.92912750374e-06
6.74585054346e-06
4.56425417162e-08
-3.9430286007e-06
1.6502093841e-05
4.60545333495e-08
-6.68738206046e-06
2.57231235583e-05
4.92718017922e-08
-5.60818457318e-06
3.19200476239e-05
5.53123536248e-08
-1.75030834172e-06
3.38376477169e-05
6.31258663284e-08
3.54158638682e-06
3.1364388764e-05
7.14464934154e-08
8.95451977952e-06
2.53553586321e-05
7.93701154994e-08
1.33752812242e-05
1.72872713202e-05
8.74204635236e-08
1.61364637175e-05
8.56894299794e-06
9.38875017956e-08
1.72379786846e-05
-1.51786563104e-07
9.77364198587e-08
1.74508720402e-05
-8.88240501457e-06
9.90297517971e-08
1.74546698468e-05
-1.76131474081e-05
9.66518559777e-08
1.72490242896e-05
-2.56900022097e-05
9.15225117395e-08
1.61399272405e-05
-3.16935185488e-05
8.46834501356e-08
1.336699248e-05
-3.41235139815e-05
7.72514378089e-08
8.90519590358e-06
-3.21368427715e-05
7.01255172594e-08
3.46133502695e-06
-2.586887945e-05
6.39420406667e-08
-1.83464414019e-06
-1.65766778202e-05
6.00304703029e-08
-5.69300710735e-06
-6.76226855324e-06
6.02834843635e-08
-6.75786054564e-06
6.53555096377e-08
-3.96889268176e-06
6.74791263418e-06
-2.75957111114e-06
-3.94267926351e-06
1.65065936356e-05
-3.02530476423e-06
-6.68729647696e-06
2.5729813737e-05
-3.56645140649e-06
-5.60746470187e-06
3.1928146765e-05
-4.3947282945e-06
-1.74825100168e-06
3.38461990372e-05
-5.40019558532e-06
3.54532087878e-06
3.13727474858e-05
-6.41516954433e-06
8.96012882981e-06
2.53637239786e-05
-7.2926037493e-06
1.33810658608e-05
1.72946041607e-05
-7.98858330288e-06
1.61451967769e-05
8.57353228038e-06
-8.43566870424e-06
1.72507045976e-05
-1.51286825408e-07
-8.64390988039e-06
1.74665458888e-05
-8.88562235594e-06
-8.6358919283e-06
1.74693438092e-05
-1.76187797939e-05
-8.43076514731e-06
1.72606690645e-05
-2.56970976908e-05
-7.97912909844e-06
1.61490718322e-05
-3.17013485826e-05
-7.28497671589e-06
1.33740174921e-05
-3.41311697931e-05
-6.40288957061e-06
8.91006655924e-06
-3.21438657236e-05
-5.38204080293e-06
3.46495756332e-06
-2.58747834077e-05
-4.37311367957e-06
-1.83194526628e-06
-1.6580905811e-05
-3.5427587485e-06
-5.69102115771e-06
-6.76433168802e-06
-2.99956667612e-06
-6.75666464449e-06
-2.73095738324e-06
-3.96797960272e-06
6.46483348394e-06
-5.32053009236e-06
-3.90385632249e-06
1.59087234232e-05
-5.85490952211e-06
-6.61426189177e-06
2.48756505356e-05
-6.94721651461e-06
-5.58613190556e-06
3.09348362054e-05
-8.62767745189e-06
-1.82619723603e-06
3.28550832416e-05
-1.0676431885e-05
3.3560390125e-06
3.05010438376e-05
-1.27627008505e-05
8.7016304029e-06
2.46908349213e-05
-1.45823833964e-05
1.31000562987e-05
1.68500697074e-05
-1.60080076437e-05
1.58602633035e-05
8.36446089614e-06
-1.69238138558e-05
1.69738328501e-05
-1.45995003387e-07
-1.73589778673e-05
1.72256087534e-05
-8.67742181826e-06
-1.73609445534e-05
1.72565720927e-05
-1.71758960178e-05
-1.69149701741e-05
1.69827807022e-05
-2.50248500516e-05
-1.59934734731e-05
1.58634072555e-05
-3.08271144238e-05
-1.4566232387e-05
1.30836317292e-05
-3.31359129828e-05
-1.27377301796e-05
8.64374699986e-06
-3.11465532016e-05
-1.06425464394e-05
3.2712430072e-06
-2.50181657513e-05
-8.59278485088e-06
-1.90863422017e-06
-1.59827440603e-05
-6.91273531215e-06
-5.66537762905e-06
-6.48177050311e-06
-5.820886853e-06
-6.67959394321e-06
-5.28639237124e-06
-3.92629682189e-06
5.89100653614e-06
-7.36423544665e-06
-3.84728569344e-06
1.46937302463e-05
-8.14273436012e-06
-6.51487884609e-06
2.31278762822e-05
-9.74637925321e-06
-5.63495669854e-06
2.88882219563e-05
-1.223293398e-05
-2.15505341037e-06
3.08006506236e-05
-1.52818679579e-05
2.69305382812e-06
2.86873295375e-05
-1.84281484194e-05
7.77882564192e-06
2.32935794022e-05
-2.12071545322e-05
1.20185874481e-05
1.59352821544e-05
-2.3377572994e-05
1.47279364502e-05
7.92030065697e-06
-2.47740913982e-05
1.58653399797e-05
-1.47363373512e-07
-2.54404467659e-05
1.6149221558e-05
-8.22587566321e-06
-2.54426973628e-05
1.61603624094e-05
-1.62559393706e-05
-2.47658752775e-05
1.58810746518e-05
-2.36253395819e-05
-2.33618129127e-05
1.47378514494e-05
-2.90065093852e-05
-2.11826115823e-05
1.19976615789e-05
-3.1074347637e-05
-1.83918835916e-05
7.72209830171e-06
-2.909859857e-05
-1.52389818443e-05
2.62078081823e-06
-2.32715497209e-05
-1.21909020562e-05
-2.22885282959e-06
-1.47697449382e-05
-9.70753488161e-06
-5.70694079541e-06
-5.90952519011e-06
-8.10648399983e-06
-6.57456600828e-06
-7.32944814471e-06
-3.86643304612e-06
5.04836262152e-06
-8.61035143062e-06
-3.80223491789e-06
1.28985169886e-05
-9.55336005051e-06
-6.43951313117e-06
2.05210697624e-05
-1.15216216449e-05
-5.84728860987e-06
2.58045237982e-05
-1.46099307955e-05
-2.90642646962e-06
2.76655065262e-05
-1.84317835504e-05
1.28897441603e-06
2.58983665314e-05
-2.2414118928e-05
5.75316318461e-06
2.11241164566e-05
-2.59884519263e-05
9.55561044337e-06
1.45111150727e-05
-2.87802956749e-05
1.2015796213e-05
7.22624703952e-06
-3.05972854373e-05
1.31081427958e-05
-1.46773944489e-07
-3.14699633836e-05
1.3402626949e-05
-7.52767207557e-06
-3.14708360229e-05
1.34091347176e-05
-1.48259967138e-05
-3.05923320329e-05
1.31248865937e-05
-2.1446173698e-05
-2.87662359381e-05
1.20247090838e-05
-2.62069088721e-05
-2.59632957965e-05
9.54152694887e-06
-2.79348690007e-05
-2.23786495898e-05
5.71482596453e-06
-2.60152882408e-05
-1.83895068896e-05
1.23103120166e-06
-2.06676452807e-05
-1.45699247747e-05
-2.96854866964e-06
-1.2978104423e-05
-1.14861526903e-05
-5.91086491134e-06
-5.06925839453e-06
-9.52140607309e-06
-6.49387291747e-06
-8.58038369081e-06
-3.81829037291e-06
4.0328315295e-06
-8.86294906912e-06
-3.78022671305e-06
1.06894670996e-05
-9.8152647875e-06
-6.39472063079e-06
1.72710295955e-05
-1.18944214305e-05
-6.20874679248e-06
2.19162762548e-05
-1.52145978477e-05
-4.0405551427e-06
2.36794468524e-05
-1.93701716422e-05
-8.2474750156e-07
2.23238125994e-05
-2.37654951131e-05
2.70705667772e-06
1.83413043154e-05
-2.77535745975e-05
5.74768803166e-06
1.26874173498e-05
-3.08908054748e-05
7.7644638224e-06
6.34390245411e-06
-3.29530863788e-05
8.69939211886e-06
-1.47761831979e-07
-3.39509471406e-05
8.97273294228e-06
-6.64240818822e-06
-3.39513507706e-05
8.97525361912e-06
-1.29940478623e-05
-3.29509504877e-05
8.71035609244e-06
-1.86529246593e-05
-3.0882647558e-05
7.77538806299e-06
-2.2622861815e-05
-2.77360340079e-05
5.74277164258e-06
-2.39423507413e-05
-2.37381168695e-05
2.67904384789e-06
-2.21281438808e-05
-1.93388941999e-05
-8.64744508645e-07
-1.74218889784e-05
-1.51849031068e-05
-4.09121549227e-06
-1.07735908106e-05
-1.18687887875e-05
-6.26561264927e-06
-4.0567370591e-06
-9.79304940297e-06
-6.44516689258e-06
-8.84223419848e-06
-3.79485898625e-06
2.98045260489e-06
-8.0612427206e-06
-3.78215654492e-06
8.35464531095e-06
-8.85225789662e-06
-6.33719497428e-06
1.37847917469e-05
-1.07301320274e-05
-6.59442620914e-06
1.76943742178e-05
-1.38229986069e-05
-5.30116436279e-06
1.92841999087e-05
-1.77651818281e-05
-3.1947884695e-06
1.83401381858e-05
-2.19865144454e-05
-8.34881337608e-07
1.51920046667e-05
-2.58765887103e-05
1.27119571145e-06
1.05930579565e-05
-2.89639880307e-05
2.67218714169e-06
5.3205782228e-06
-3.10185902424e-05
3.33805037236e-06
-1.48160861703e-07
-3.20225355199e-05
3.54040204651e-06
-5.61771899773e-06
-3.20234290869e-05
3.54171722865e-06
-1.08949643987e-05
-3.10209987476e-05
3.3473780776e-06
-1.54952600738e-05
-2.8964213525e-05
2.68194607284e-06
-1.86299886511e-05
-2.58705120184e-05
1.26928672077e-06
-1.95434190335e-05
-2.19736921388e-05
-8.50922616122e-07
-1.79065557133e-05
-1.77480525936e-05
-3.22764434753e-06
-1.39387933154e-05
-1.38063205538e-05
-5.34629603613e-06
-8.44285619476e-06
-1.07166635614e-05
-6.6480227061e-06
-3.00782469648e-06
-8.84201714722e-06
-6.38602846573e-06
-8.05186840249e-06
-3.79816806461e-06
2.09589734949e-06
-6.35091198642e-06
-3.80622997189e-06
6.27499687294e-06
-6.80845446255e-06
-6.22290337112e-06
1.05893760403e-05
-8.20067616046e-06
-6.84383131238e-06
1.37546727676e-05
-1.06369276883e-05
-6.35135740795e-06
1.51319155721e-05
-1.38338869432e-05
-5.30851919437e-06
1.45185134189e-05
-1.7319878348e-05
-4.05320629925e-06
1.21399702938e-05
-2.05706466592e-05
-2.9273620451e-06
8.53685177348e-06
-2.31813164884e-05
-2.17950740528e-06
4.30462856711e-06
-2.49361447187e-05
-1.85016885437e-06
-1.49508743507e-07
-2.58005337597e-05
-1.76780440269e-06
-4.60373147398e-06
-2.58022761621e-05
-1.76686535145e-06
-8.8368698764e-06
-2.49415805936e-05
-1.84621258857e-06
-1.24367279586e-05
-2.31868893774e-05
-2.17739970286e-06
-1.48007049805e-05
-2.05726864221e-05
-2.9337864039e-06
-1.53846383317e-05
-1.73171319311e-05
-4.07257185668e-06
-1.39640757438e-05
-1.38273993946e-05
-5.34116971184e-06
-1.07439092712e-05
-1.06302580721e-05
-6.39619177198e-06
-6.36576162857e-06
-8.19663046026e-06
-6.89815025757e-06
-2.12624558878e-06
-6.80837083615e-06
-6.27313462129e-06
-6.35175805983e-06
-3.82633804878e-06
1.55253756652e-06
-4.06939928303e-06
-3.83405554698e-06
4.78555890272e-06
-4.0822408255e-06
-5.95923934301e-06
8.15784514493e-06
-4.80614991856e-06
-6.76681361914e-06
1.06679411253e-05
-6.29857073195e-06
-6.84844887635e-06
1.18171710397e-05
-8.38068719021e-06
-6.60241897039e-06
1.1433936145e-05
-1.07138654236e-05
-6.2227598656e-06
9.65325850889e-06
-1.29234570529e-05
-5.86648611156e-06
6.85191952269e-06
-1.47209804531e-05
-5.65896378582e-06
3.46918349692e-06
-1.5940627226e-05
-5.61274153489e-06
-1.5060837212e-07
-1.65452356444e-05
-5.63546082305e-06
-3.76954710482e-06
-1.65469608927e-05
-5.63632728519e-06
-7.14956137901e-06
-1.59453429413e-05
-5.6161724541e-06
-9.94333281881e-06
-1.4726170933e-05
-5.66689692992e-06
-1.17070690253e-05
-1.29265019134e-05
-5.88240164494e-06
-1.20607382238e-05
-1.07136484463e-05
-6.24977315645e-06
-1.08704612811e-05
-8.3777563087e-06
-6.63988551083e-06
-8.30890516824e-06
-6.29595591152e-06
-6.89583008184e-06
-4.87653611666e-06
-4.80596608567e-06
-6.82300971641e-06
-1.58554768937e-06
-4.08693612711e-06
-6.01240090868e-06
-4.07562498455e-06
-3.86166582131e-06
1.43088336923e-06
-1.7470341441e-06
-3.75325629974e-06
4.06815920995e-06
-1.43202658673e-06
-5.28749713737e-06
6.77535817131e-06
-1.55510191681e-06
-5.95825133949e-06
8.79881332425e-06
-2.10054603909e-06
-6.22147986621e-06
9.74972786785e-06
-2.98460594154e-06
-6.34699017387e-06
9.47433764352e-06
-4.03735149909e-06
-6.40111161533e-06
8.05588240204e-06
-5.05221410806e-06
-6.45276881096e-06
5.76257371088e-06
-5.89556177923e-06
-6.53208443186e-06
2.92844043619e-06
-6.47093678985e-06
-6.63552558982e-06
-1.47749266469e-07
-6.75676254584e-06
-6.71224691492e-06
-3.22227004875e-06
-6.75746048987e-06
-6.71493978208e-06
-6.05090716871e-06
-6.47262909255e-06
-6.64403544605e-06
-8.33322889778e-06
-5.89690324014e-06
-6.54690535556e-06
-9.73271905827e-06
-5.05211731224e-06
-6.4748565626e-06
-9.97849174406e-06
-4.03548409934e-06
-6.43235810927e-06
-8.98797185772e-06
-2.98086840046e-06
-6.3873792901e-06
-6.91590361542e-06
-2.0974337858e-06
-6.27056654335e-06
-4.15395585619e-06
-1.55426971347e-06
-6.0136234759e-06
-1.46411346853e-06
-1.43556360062e-06
-5.34119471064e-06
-1.75314718528e-06
-3.78657767036e-06
1.75051194673e-06
-3.49755187361e-06
4.06811502988e-06
-3.74963465131e-06
6.3339887853e-06
-3.82097858289e-06
8.02897740989e-06
-3.79553441068e-06
8.81591561152e-06
-3.77153992429e-06
8.55174596531e-06
-3.77317321134e-06
7.29633724671e-06
-3.79679223089e-06
5.24502254771e-06
-3.8442296632e-06
2.67735448234e-06
-3.90324763404e-06
-1.34041542485e-07
-3.94534261363e-06
-2.94339073242e-06
-3.94808564664e-06
-5.50439669582e-06
-3.9115969501e-06
-7.54293479194e-06
-3.85833971388e-06
-8.77824637752e-06
-3.81678221081e-06
-9.01347239394e-06
-3.8002373e-06
-8.18836783907e-06
-3.80595516701e-06
-6.4492180892e-06
-3.83656839631e-06
-4.13813807821e-06
-3.86533603244e-06
-1.77877380892e-06
-3.7949145844e-06
-3.53191449515e-06
2.30523603309e-06
2.32701498804e-06
-8.11999680438e-06
4.8154290725e-06
2.68935973134e-06
-8.93756998857e-06
7.14128277687e-06
3.32110565028e-06
-9.45909693983e-06
8.83631310078e-06
4.35605516198e-06
-9.84241856211e-06
9.57710972494e-06
5.66079835219e-06
-1.01745726531e-05
9.21587705126e-06
7.05679188079e-06
-1.04748594296e-05
7.81350279986e-06
8.34990414906e-06
-1.07544324206e-05
5.58599950877e-06
9.39804650768e-06
-1.10282106627e-05
2.83277371564e-06
1.01104472787e-05
-1.12760608659e-05
-1.62564162493e-07
1.0465545491e-05
-1.14325085298e-05
-3.15556998217e-06
1.04675963517e-05
-1.14399041004e-05
-5.90123132028e-06
1.01159835079e-05
-1.12983966107e-05
-8.11436041202e-06
9.40523713157e-06
-1.10654673411e-05
-9.49396069423e-06
8.35641211106e-06
-1.08061509667e-05
-9.82185103308e-06
7.06152649352e-06
-1.05423359944e-05
-9.03718086547e-06
5.66254489579e-06
-1.02570702531e-05
-7.28967202335e-06
4.35560195632e-06
-9.93836900682e-06
-4.90528190661e-06
3.32085524256e-06
-9.56444217196e-06
-2.34072562748e-06
2.69354241058e-06
-9.04534019439e-06
2.34451889395e-06
-8.21671926465e-06
2.65322001451e-06
4.87331474441e-06
-8.94149731557e-06
5.33496079009e-06
5.40786725083e-06
-1.0673106257e-05
7.70182416039e-06
6.54983083116e-06
-1.154022285e-05
9.40992553149e-06
8.39507468767e-06
-1.1959389108e-05
1.01333542116e-05
1.07086095992e-05
-1.21147229509e-05
9.72137611982e-06
1.31759776349e-05
-1.21104111098e-05
8.22048291591e-06
1.54606854753e-05
-1.20692499265e-05
5.86698069053e-06
1.7302301772e-05
-1.20934642278e-05
2.97414953673e-06
1.85537215985e-05
-1.21994760317e-05
-1.65081403479e-07
1.91782961628e-05
-1.23010988258e-05
-3.30220655564e-06
1.91819838164e-05
-1.23082158671e-05
-6.18875637593e-06
1.85638161763e-05
-1.2220735692e-05
-8.52994915977e-06
1.73154101285e-05
-1.2129715665e-05
-1.0009819037e-05
1.54724222254e-05
-1.21219066781e-05
-1.03902891667e-05
1.31838504386e-05
-1.21808335028e-05
-9.62601766827e-06
1.07115306256e-05
-1.22031120178e-05
-7.86736846162e-06
8.3950868055e-06
-1.20632081661e-05
-5.44431391605e-06
6.54988791624e-06
-1.16547846788e-05
-2.70554041736e-06
5.41368631862e-06
-1.07879301428e-05
4.89552241715e-06
-9.03507261508e-06
3.2795728421e-06
7.23674745778e-06
-9.47153753533e-06
6.46997135292e-06
7.81237236493e-06
-1.15413409518e-05
9.19787995108e-06
9.31514229624e-06
-1.22482957789e-05
1.11090061128e-05
1.17450895446e-05
-1.21030240609e-05
1.18568332206e-05
1.47720100452e-05
-1.14144551451e-05
1.12803680819e-05
1.79728360216e-05
-1.04505091024e-05
9.46686408738e-06
2.09176699619e-05
-9.52388378678e-06
6.71530967337e-06
2.32752871931e-05
-8.8990643381e-06
3.39983374155e-06
2.48695169135e-05
-8.63546647576e-06
-1.60969552131e-07
2.56626943157e-05
-8.58351504815e-06
-3.72092917655e-06
2.56667730837e-05
-8.58670268338e-06
-7.03355334919e-06
2.48810988631e-05
-8.64582637305e-06
-9.7774846896e-06
2.32897584747e-05
-8.92048746201e-06
-1.15737942504e-05
2.09291858354e-05
-9.56223792455e-06
-1.21222008658e-05
1.79779683791e-05
-1.05096285697e-05
-1.13348272717e-05
1.47719614542e-05
-1.14945861512e-05
-9.37468224397e-06
1.17424696931e-05
-1.22027444956e-05
-6.59068687688e-06
9.31300851727e-06
-1.23623521081e-05
-3.34005307427e-06
7.81598577082e-06
-1.16551053618e-05
7.25507757063e-06
-9.55824353561e-06
4.31453499633e-06
8.97143566143e-06
-9.85010215915e-06
8.31270392596e-06
9.55558033733e-06
-1.19554296709e-05
1.16243408376e-05
1.12629507177e-05
-1.20960987863e-05
1.38592341188e-05
1.4017394323e-05
-1.08585159634e-05
1.46238342285e-05
1.74179079656e-05
-8.72923407966e-06
1.37633703433e-05
2.09825980523e-05
-6.22080339644e-06
1.14361631162e-05
2.42251897399e-05
-3.93257958226e-06
8.04763542507e-06
2.67979747767e-05
-2.34503282028e-06
4.06537788833e-06
2.85221711012e-05
-1.55574302109e-06
-1.54625947371e-07
2.93746179941e-05
-1.29662411854e-06
-4.37513332596e-06
2.93777024583e-05
-1.29490343047e-06
-8.35944859431e-06
2.85318246498e-05
-1.5502543174e-06
-1.1746608742e-05
2.68085072088e-05
-2.34458583724e-06
-1.40619043112e-05
2.42299109577e-05
-3.95065703749e-06
-1.48962449145e-05
2.09788850738e-05
-6.26395814163e-06
-1.40930477086e-05
1.74087583534e-05
-8.79735452121e-06
-1.18095094584e-05
1.40068230344e-05
-1.09505793735e-05
-8.44055142357e-06
1.12540677804e-05
-1.22065145054e-05
-4.37877942458e-06
9.55242101461e-06
-1.2066305353e-05
8.98146115635e-06
-9.92924173272e-06
5.61915964714e-06
9.74681786964e-06
-1.01751494532e-05
1.06280030141e-05
1.03135588472e-05
-1.20993018756e-05
1.46506890247e-05
1.20431601172e-05
-1.13950756232e-05
1.72581809688e-05
1.48161156185e-05
-8.71445496775e-06
1.80130649931e-05
1.820880125e-05
-4.75808054599e-06
1.67680196192e-05
2.17208445427e-05
-3.53117298051e-07
1.37969098514e-05
2.49032403201e-05
3.52895032543e-06
9.63151029307e-06
2.74062387282e-05
6.18778358396e-06
4.85216330903e-06
2.90699549008e-05
7.52443530063e-06
-1.48655103088e-07
2.98872432941e-05
7.98113594748e-06
-5.15046687146e-06
2.98895397737e-05
7.98376225751e-06
-9.9377953301e-06
2.90747541503e-05
7.54538173156e-06
-1.41089165128e-05
2.74094567563e-05
6.20806031739e-06
-1.70725342082e-05
2.48981467325e-05
3.52449137077e-06
-1.82918093059e-05
2.17051745135e-05
-3.91301482349e-07
-1.74975497981e-05
1.81866832152e-05
-4.82415819587e-06
-1.48410557073e-05
1.47945023002e-05
-8.80422389784e-06
-1.07599886481e-05
1.20251912251e-05
-1.15043040626e-05
-5.68530080093e-06
1.03024039147e-05
-1.22095616429e-05
9.74684680397e-06
-1.02493444447e-05
7.01865494883e-06
9.41214639894e-06
-1.04650170313e-05
1.30986042737e-05
9.92562697388e-06
-1.20826082992e-05
1.78553236947e-05
1.14905051633e-05
-1.04148533503e-05
2.08250875636e-05
1.39797024456e-05
-6.18489713297e-06
2.1525349067e-05
1.69887301086e-05
-3.27367378876e-07
1.98736015492e-05
2.00965473206e-05
5.95158817656e-06
1.62190537235e-05
2.28825263323e-05
1.13840078082e-05
1.12461467811e-05
2.50613295895e-05
1.50372784259e-05
5.65019931833e-06
2.64967473132e-05
1.68200152996e-05
-1.43692376673e-07
2.71984796264e-05
1.74055892629e-05
-5.94145254929e-06
2.7199842736e-05
1.74123935608e-05
-1.15495195757e-05
2.64969338562e-05
1.68476394153e-05
-1.6535266962e-05
2.50562865682e-05
1.506942441e-05
-2.01857947601e-05
2.28683655623e-05
1.13819193169e-05
-2.18106375388e-05
2.00722388789e-05
5.90131531312e-06
-2.10669809765e-05
1.69592863676e-05
-4.08480653063e-07
-1.80472741783e-05
1.39502554599e-05
-6.28434932169e-06
-1.32314920003e-05
1.14653306964e-05
-1.05298151805e-05
-7.08572425704e-06
9.9063409124e-06
-1.21983036629e-05
9.40404430449e-06
-1.05407016955e-05
8.31427747672e-06
8.02532198047e-06
-1.07315904814e-05
1.5387982216e-05
8.43949380995e-06
-1.20270752696e-05
2.08064268096e-05
9.69020785491e-06
-9.46913555313e-06
2.4073058595e-05
1.16639812962e-05
-3.86999825048e-06
2.47117983097e-05
1.40286847255e-05
3.58907615515e-06
2.26609998061e-05
1.64535796349e-05
1.14207108757e-05
1.83767539539e-05
1.86118732415e-05
1.8074695294e-05
1.26762633207e-05
2.02971691162e-05
2.24379658056e-05
6.3552406549e-06
2.13997498049e-05
2.44796056817e-05
-1.40064587632e-07
2.19348062744e-05
2.5115914672e-05
-6.64242558808e-06
2.19361319062e-05
2.51279107392e-05
-1.2981542999e-05
2.13948829551e-05
2.45189137595e-05
-1.86988954658e-05
2.02876092684e-05
2.24685901165e-05
-2.29803821096e-05
1.85948969467e-05
1.80598238723e-05
-2.50018012103e-05
1.64276034317e-05
1.13489739014e-05
-2.4316835956e-05
1.39985234926e-05
3.48130009747e-06
-2.09977336555e-05
1.16343570851e-05
-3.98961885536e-06
-1.55206374473e-05
9.6644821205e-06
-9.59665016841e-06
-8.38064827312e-06
8.41941255744e-06
-1.21520700305e-05
8.01463707981e-06
-1.08139541659e-05
9.36471521472e-06
5.80491627756e-06
-1.09938628204e-05
1.72339303643e-05
6.09124043851e-06
-1.20364354422e-05
2.31698176531e-05
6.94169930031e-06