/*--------------------------------*- C++ -*----------------------------------*\
| =========                 |                                                 |
| \\      /  F ield         | OpenFOAM: The Open Source CFD Toolbox           |
|  \\    /   O peration     | Version:  3.0.1                                 |
|   \\  /    A nd           | Web:      www.OpenFOAM.org                      |
|    \\/     M anipulation  |                                                 |
\*---------------------------------------------------------------------------*/
FoamFile
{
    version     2.0;
    format      ascii;
    class       surfaceVectorField;
    location    "1.7";
    object      Uf;
}
// * * * * * * * * * * * * * * * * * * * * * * * * * * * * * * * * * * * * * //

dimensions      [0 1 -1 0 0 0 0];

internalField   nonuniform List<vector> 
22672
(
(0.000693334618374 0.00028585623866 -0.000718943271898)
(0.000280932709198 0.000701764012706 -0.000719526658333)
(0.000416526864431 0.000420780352607 -0.00139509835217)
(0.00161180330934 0.000214502400737 -0.000726718148223)
(0.00104817346882 0.000576739110028 -0.000992313542346)
(0.00125084930366 0.000424518872911 -0.00149520720651)
(0.00251141947465 0.000247049530061 -0.000697963874071)
(0.00213510501732 0.000625241403273 -0.00109571040433)
(0.00225250727901 0.000500027096352 -0.00152485625777)
(0.00318519608162 0.000372710383594 -0.000660019676314)
(0.00302818665595 0.000842761463345 -0.00111822539256)
(0.00307644432566 0.00067651867567 -0.00151653573913)
(0.00349861196902 0.000564360753083 -0.000631222207527)
(0.00359100493809 0.00119578254842 -0.00112653084332)
(0.00358675976732 0.000929499719672 -0.00150919498119)
(0.00339388684456 0.00077621521297 -0.000613713696764)
(0.00371246216178 0.00161645487236 -0.00113234757713)
(0.00367840023875 0.0012180468385 -0.00151172528358)
(0.00289463686633 0.000970076493445 -0.000605954324202)
(0.00338317731485 0.00202202239357 -0.00114343086298)
(0.00334309298332 0.00148844284951 -0.00152276721055)
(0.00207876649821 0.00112140603971 -0.000605875742662)
(0.00266370802669 0.00235894983634 -0.00116089061666)
(0.00263109870596 0.00171400695252 -0.00154307385168)
(0.00105736898074 0.00121376258194 -0.000609207062799)
(0.0016717731697 0.00258894624179 -0.00118168766679)
(0.00165194238448 0.00186785318759 -0.00156754299573)
(-6.09322211738e-05 0.0012444925138 -0.000611384236287)
(0.000530618598162 0.00270323458633 -0.00119640666956)
(0.000523960543111 0.00194437605974 -0.00158492776128)
(-0.00117830742697 0.0012137433755 -0.000610479721983)
(-0.000656044017168 0.00270351341326 -0.00119713797498)
(-0.00065001112855 0.00194459067952 -0.00158613282582)
(-0.00219666964257 0.00112118478256 -0.000608474655667)
(-0.00179518969001 0.00258960432015 -0.00118398504451)
(-0.00177589815624 0.00186834063545 -0.00157123705504)
(-0.00300679355191 0.000969369366302 -0.000609982233143)
(-0.00278289624765 0.00235947927217 -0.00116483277223)
(-0.00275071750506 0.00171445076432 -0.0015493507286)
(-0.00349684377774 0.000774963994228 -0.000619205069707)
(-0.00349495104403 0.00202179656714 -0.00114914291095)
(-0.0034552086248 0.00148840423577 -0.00153174220444)
(-0.00358863286636 0.00056250986687 -0.000638259289686)
(-0.00381300221439 0.00161527853343 -0.00113993516918)
(-0.00377938469923 0.00121764902287 -0.00152348584808)
(-0.00325826619373 0.00037065470193 -0.000668618439749)
(-0.00367596992828 0.00119358369652 -0.00113637617485)
(-0.00367244637384 0.000928241813987 -0.00152394726064)
(-0.00256473320318 0.000245419562853 -0.000707501650464)
(-0.00309379293228 0.000840577590672 -0.00112935977078)
(-0.00314311361639 0.000675159216746 -0.00153410778868)
(-0.00164469794145 0.000213426835705 -0.000737045220776)
(-0.00217889972766 0.000623650225183 -0.00110766598908)
(-0.00229752136473 0.000498970847282 -0.00154368273736)
(-0.000706629432874 0.000286130487687 -0.000729523942249)
(-0.00107037170958 0.00057683491253 -0.00100449870107)
(-0.00127441408411 0.000424301100868 -0.00151490040117)
(-0.000285092093809 0.000705965314599 -0.000728368318986)
(-0.000421408704707 0.000423174002185 -0.00141259248021)
(0.000566256857797 0.00106301856274 -0.000992896928781)
(0.000209335920991 0.00163229913155 -0.000730093926278)
(0.000417379309216 0.00126480263384 -0.00149679136599)
(0.00161377474235 0.00107826651391 -0.00136130579845)
(0.00106171546022 0.00163836659921 -0.00136164126716)
(0.00129273377502 0.00131164705422 -0.00210914415383)
(0.00269005034698 0.00133565965505 -0.00151597192281)
(0.00240022263954 0.00192682388706 -0.00162881113506)
(0.00241144087753 0.00156070666757 -0.00237785588737)
(0.00349504051276 0.00181316294711 -0.00158473655957)
(0.00349364536529 0.002522685826 -0.00170474232941)
(0.00332702214208 0.00204747459468 -0.00248491103386)
(0.0038737755974 0.00243170634799 -0.00162765621293)
(0.00417713730312 0.00335445098394 -0.0017170101686)
(0.00388891339545 0.00270783884236 -0.00253739864196)
(0.00376455037679 0.00308073764547 -0.00166206474335)
(0.00432396543502 0.00428697451712 -0.00170364424698)
(0.00399169128603 0.00343831429577 -0.00256128832436)
(0.0032001460243 0.00365871847252 -0.00169836715543)
(0.00392294520612 0.0051701865522 -0.00169273887325)
(0.0036182430307 0.00412636740753 -0.00258375282507)
(0.0022874530681 0.00409640957728 -0.00173670254079)
(0.00306812083301 0.00588874357578 -0.00170068583635)
(0.00283788464353 0.00468607828518 -0.00261709332197)
(0.0011596046275 0.00436176233596 -0.00176888727355)
(0.00191388522116 0.00637642464151 -0.00172632217392)
(0.00177601603514 0.00506710424048 -0.00265962237313)
(-6.43965285959e-05 0.00445009021167 -0.00178216040826)
(0.000609229466949 0.0066182841938 -0.00174890058658)
(0.000563509308534 0.00525689913588 -0.00269104099275)
(-0.00128751556642 0.00436276810522 -0.00177064329751)
(-0.000738175793716 0.00661903038039 -0.00174962683311)
(-0.000694062797831 0.00525780048702 -0.00269239075077)
(-0.00241257688688 0.0040978993533 -0.00174034316107)
(-0.00204126610276 0.00637846275879 -0.00172853191987)
(-0.00190479112669 0.00506953064387 -0.00266379031974)
(-0.00331977408954 0.00365981138443 -0.00170399345003)
(-0.00319204751446 0.00589098585298 -0.00170475661428)
(-0.00296282851945 0.00468906853666 -0.00262430305808)
(-0.00387503339542 0.00308066779543 -0.00166987301042)
(-0.00404013857827 0.00517137653118 -0.00169896875145)
(-0.00373624695185 0.00412876477165 -0.00259431492757)
(-0.00397060371755 0.00243025171088 -0.00163805205435)
(-0.00442988095947 0.00428645337503 -0.00171278506455)
(-0.00409877454758 0.00343938243173 -0.00257559946291)
(-0.00357357472365 0.00181086066103 -0.00159711750589)
(-0.00426685283403 0.00335250768041 -0.00172861302894)
(-0.00398062730063 0.00270743991971 -0.00255594858452)
(-0.00274706266495 0.00133351851921 -0.0015295241094)
(-0.0035631043373 0.00252010479614 -0.00171806643281)
(-0.00339942198106 0.00204631101836 -0.00250603539369)
(-0.00164730822231 0.00107786610412 -0.00137511946938)
(-0.00244615115738 0.0019249833597 -0.00164358447543)
(-0.00246139462167 0.0015599341383 -0.00240108397861)
(-0.000578222816036 0.00106692820257 -0.00100334307781)
(-0.00108325644277 0.00163936277853 -0.00137510586397)
(-0.00131949199462 0.00131349773098 -0.0021316096575)
(-0.000213030538969 0.00163915976624 -0.000736376708015)
(-0.000424936190862 0.00127301357253 -0.00151141463029)
(0.000615092698855 0.00216557146423 -0.00109883826465)
(0.000242097790738 0.00254862194926 -0.000702325962218)
(0.000492302152827 0.00228205310203 -0.00153141413039)
(0.0019011750276 0.00243353930136 -0.00162914660377)
(0.00131895284713 0.00273086375062 -0.00151694724403)
(0.0015403945397 0.0024458737144 -0.00237857720124)
(0.00324356462263 0.00304902213863 -0.00181758154166)
(0.00301463604738 0.00328647184839 -0.00181669827957)
(0.00289506792721 0.00293181822693 -0.00270203404097)
(0.00424322688144 0.00398405027224 -0.00183701593845)
(0.00439499703746 0.00425978752887 -0.00180838241013)
(0.00399079825121 0.00376637518612 -0.00273675886317)
(0.00470140290465 0.00511062800687 -0.00179299820265)
(0.00524115284392 0.00553758040757 -0.0016734364469)
(0.0046475300945 0.00484647162032 -0.00264129866454)
(0.00454899774884 0.0062564116929 -0.00173431837688)
(0.00539620060257 0.00693144365205 -0.00149085943632)
(0.00474483222344 0.00601564186801 -0.00249205571261)
(0.00383987056322 0.00725992467588 -0.00169505755417)
(0.00485623722644 0.00823149504002 -0.00132762966616)
(0.00427011542803 0.0071052048172 -0.00235217196601)
(0.00272411046556 0.00801158205986 -0.00169030546949)
(0.00376171446265 0.00927557831404 -0.00123121641101)
(0.00332255308249 0.00798352527697 -0.00227106472247)
(0.00137698863694 0.00846484501537 -0.00170633548696)
(0.00232860464727 0.00997762705618 -0.00120599240551)
(0.00206712723801 0.00857841012116 -0.0022540705148)
(-6.43636570385e-05 0.0086153898331 -0.00171636701144)
(0.000746059283577 0.0103236261739 -0.00121217264297)
(0.000660207045235 0.00887400696603 -0.00226397975526)
(-0.00150509502484 0.00846658545667 -0.00170751545547)
(-0.000873895398215 0.0103245321575 -0.00121253628881)
(-0.000789117068168 0.00887529984433 -0.00226476077653)
(-0.00285051194678 0.00801429716328 -0.00169294537309)
(-0.00245571635719 0.00998036747254 -0.00120689250702)
(-0.0021951049334 0.0085819985177 -0.00225647854127)
(-0.00396206978432 0.00726215623937 -0.00169973191571)
(-0.0038870145938 0.00927859179832 -0.00123354170025)
(-0.00344824441762 0.00798792990388 -0.00227603933305)
(-0.00466283552851 0.00625703761915 -0.00174188080558)
(-0.00497614855485 0.00823287467416 -0.00133255115515)
(-0.00439038543874 0.00710857793705 -0.0023607242497)
(-0.00480138916268 0.00510942714398 -0.00180334603914)
(-0.00550519990809 0.00693059119875 -0.00149908986458)
(-0.00485498409494 0.00601703932231 -0.00250557684429)
(-0.00432490065443 0.00398157180812 -0.00184956195587)
(-0.00533381965814 0.00553474719766 -0.00168428376731)
(-0.00474270845172 0.00484597313368 -0.00265872160021)
(-0.00330292744951 0.00304650948857 -0.00183212679884)
(-0.00446688720569 0.00425623149064 -0.00182209176462)
(-0.0040668410131 0.00376484477189 -0.00275809436685)
(-0.00193572146197 0.00243291602853 -0.00164357087002)
(-0.00306192822325 0.00328388333306 -0.00183228201114)
(-0.00294831230673 0.00293066629751 -0.00272610111503)
(-0.000626967277974 0.002169548402 -0.00110813949418)
(-0.00134010952225 0.00273148803198 -0.00153026665229)
(-0.00156918429936 0.00244735298162 -0.00240087487477)
(-0.000245446442453 0.00255565427985 -0.000706348762231)
(-0.00050134995403 0.0022896893973 -0.00154345843876)
(0.000832398750266 0.00307508598676 -0.00112043494159)
(0.000368171967032 0.00323658009669 -0.000663095928987)
(0.000668822954072 0.00312181543502 -0.00152035437071)
(0.00249693692157 0.00354382393388 -0.00170449891983)
(0.00179682388565 0.00355195446026 -0.00158353645078)
(0.00202677995348 0.00337734416623 -0.002485625153)
(0.00421605290612 0.00444683425764 -0.00180749914804)
(0.00394967531516 0.00430202836106 -0.00183460124879)
(0.00372888431056 0.0040435783431 -0.00273466723134)
(0.00547780630734 0.00574441092268 -0.00164480291858)
(0.00569198947475 0.0055385765938 -0.00164311612709)
(0.00508769478036 0.00514195644295 -0.00254053525937)
(0.00602746156318 0.00726462908082 -0.00137129768057)
(0.00673046874649 0.00711543927066 -0.00124804881501)
(0.00587247205628 0.00653249425863 -0.00212750484127)
(0.00578316517261 0.00878549676843 -0.0010841707256)
(0.00687181566128 0.00880436568201 -0.00078161271208)
(0.00594083316732 0.00801649301517 -0.00162861451697)
(0.00483490967118 0.0101011935704 -0.000863788523004)
(0.00612668420702 0.010360683629 -0.000372337287563)
(0.00529326287343 0.00938394476069 -0.00118092061076)
(0.00339869881686 0.0110760805893 -0.000746903347034)
(0.00469873747762 0.0115961660639 -0.000106868871709)
(0.00407709488922 0.0104748216405 -0.0008843636533)
(0.00171192132428 0.0116587289933 -0.000711829561531)
(0.00288589391143 0.0124185711744 2.72681991932e-06)
(0.00251772307222 0.011206813151 -0.000754153139715)
(-6.31825864367e-05 0.0118509606592 -0.000708341920345)
(0.000929502411137 0.0128206395647 2.47336782675e-05)
(0.000809736262943 0.0115678993863 -0.000721896096736)
(-0.00183813975749 0.0116604364102 -0.000711913340356)
(-0.00105517847446 0.0128213091659 2.45922801348e-05)
(-0.000934990902093 0.0115690401292 -0.000721806712656)
(-0.00352475785241 0.0110787542396 -0.000747488834187)
(-0.00301170496749 0.0124205499047 3.55506649805e-06)
(-0.00264316701123 0.0112103863479 -0.000753551520653)
(-0.00495873510823 0.0101028802917 -0.000866360939698)
(-0.00482496044785 0.0115977943117 -0.000106733526946)
(-0.00420250458774 0.0104788753024 -0.000885212826849)
(-0.00589956331075 0.00878478694658 -0.00108976021416)
(-0.00624920202996 0.010359819406 -0.000375552941312)
(-0.00541528525244 0.00938613208941 -0.00118610469551)
(-0.00613029743812 0.00726146955801 -0.00138002759275)
(-0.00698374223306 0.0088003021288 -0.000789039951682)
(-0.00605370614948 0.00801583354362 -0.00163896590623)
(-0.00556185027652 0.00573990481646 -0.00165681357606)
(-0.00682544219502 0.00710926580251 -0.00125873410529)
(-0.00597055744516 0.00652967498791 -0.00214295615062)
(-0.00427678434904 0.00444265956335 -0.00182224697692)
(-0.00576524792694 0.00553225935911 -0.00165706703426)
(-0.00516641137928 0.00513842250141 -0.00256108563779)
(-0.0025315674173 0.00354194784417 -0.00171897779341)
(-0.00399736431624 0.00429728118374 -0.00185051899864)
(-0.00378419838556 0.00404080505032 -0.00275860794365)
(-0.000843490523844 0.00307813420273 -0.00112847592035)
(-0.00181707635069 0.00355066475355 -0.00159642370801)
(-0.00205634425363 0.00337737061565 -0.00250724747096)
(-0.00037074876125 0.00324180575262 -0.000665181347071)
(-0.000677998750233 0.00312780368142 -0.00152963746897)
(0.00118645708335 0.00365156016922 -0.00112619743817)
(0.000560500412172 0.00356237436858 -0.000633483276549)
(0.000922169481735 0.0036463690903 -0.00151224749505)
(0.00332896231683 0.00424167264848 -0.00171363877974)
(0.00241651519982 0.00394245264459 -0.00162442159556)
(0.00268782621156 0.00395337500042 -0.00253299804111)
(0.00549440057922 0.00530813661746 -0.00167021822784)
(0.00507742900387 0.00477347760041 -0.00178895868412)
(0.00480927627646 0.00471473299235 -0.0026368802567)
(0.00705417445669 0.00679917550898 -0.00124636202352)
(0.00721317794246 0.00610211977973 -0.00136693605208)
(0.00647819633736 0.00594185017633 -0.00212330747016)
(0.0076890412631 0.00851740873535 -0.000658363846527)
(0.00844850435249 0.007765519323 -0.000656670162812)
(0.00740168129209 0.00747213568719 -0.00128493473357)
(0.00731222458939 0.0102151514466 -6.97792740476e-05)
(0.00855071058973 0.00952517890633 0.000141198654304)
(0.00741504697524 0.00908577715039 -0.000343982128241)
(0.00605640417108 0.0116681162276 0.000384582363731)
(0.00755692680111 0.0111221808211 0.000834835627685)
(0.00654134924374 0.010557564731 0.000494339380609)
(0.00422190718455 0.0127343318291 0.000642761295244)
(0.00574344506786 0.0123784386355 0.00128784800916)
(0.00499000944231 0.0117206115686 0.00105224159486)
(0.00211893272687 0.0133658237995 0.000739290059718)
(0.00350113116983 0.0132044317563 0.00148179941494)
(0.00305941436082 0.0124933815791 0.00131713144322)
(-6.2082385672e-05 0.0135728237675 0.000757667878748)
(0.00113066064036 0.0136045119757 0.00152660670024)
(0.000988461980918 0.0128715960672 0.00139716024721)
(-0.00224319599725 0.0133666003428 0.000740060686989)
(-0.00125471561512 0.0136049415118 0.00152658014961)
(-0.00111018405855 0.0128723807481 0.00139749864956)
(-0.00434776305033 0.0127350009308 0.000644310373739)
(-0.00362633573395 0.0132047575011 0.00148359309888)
(-0.00318230579672 0.0124953765945 0.00132037669774)
(-0.00618229089189 0.0116668929837 0.000384074471439)
(-0.00587114031827 0.0123772003894 0.0012894306433)
(-0.00511558544395 0.0117221789697 0.00105513882596)
(-0.00743170240836 0.0102105955152 -7.48326788349e-05)
(-0.00768262899947 0.0111176205727 0.00083209694388)
(-0.00666577675653 0.0105561917443 0.000491626948832)
(-0.00779443352838 0.00851003888824 -0.000667746464219)
(-0.00866558852512 0.00951678020388 0.00013263748362)
(-0.00753081148715 0.00908062191562 -0.000353731383042)
(-0.00713956482705 0.00679087389137 -0.00125898756349)
(-0.00854497213444 0.00775521599008 -0.000668830807578)
(-0.00750190348372 0.00746480274731 -0.00130080500948)
(-0.00555546803561 0.00530080919716 -0.00168533905598)
(-0.00728675126602 0.00609220829016 -0.00138190218401)
(-0.00655837565875 0.00593447594734 -0.00214403400388)
(-0.00336307654733 0.00423695219559 -0.00172796491323)
(-0.00512479474546 0.0047657566836 -0.0018054837857)
(-0.00486556601165 0.00470881040731 -0.0026608573816)
(-0.00119657977895 0.00365181405063 -0.00113312913473)
(-0.00243559595948 0.00393814372572 -0.00163811422298)
(-0.00271749813374 0.00395034634318 -0.0025539673185)
(-0.000562066897429 0.00356470330502 -0.000634446600722)
(-0.000931146799564 0.00364902649929 -0.00151947117309)
(0.00160793522104 0.00378382478708 -0.00113170743394)
(0.000772809934183 0.00346686388617 -0.000614913660915)
(0.00121152837376 0.00374965616771 -0.00151241954734)
(0.00426340003868 0.00439982833454 -0.00169974149994)
(0.00306711960528 0.00384323916858 -0.0016584105442)
(0.00341965872873 0.004067524764 -0.00255624434402)
(0.00689002263666 0.00547534709859 -0.00148567650835)
(0.00622542729942 0.00463119015438 -0.00172801384923)
(0.00598020311606 0.00482375195574 -0.00248432596671)
(0.00874439545891 0.0069536159158 -0.000777244191374)
(0.00873621997728 0.0058683907937 -0.00107721344899)
(0.0079637152838 0.00602248738957 -0.00162063189126)
(0.00944884197869 0.00863382967567 0.00014289233802)
(0.0101474374542 0.00739997479558 -6.3820727573e-05)
(0.00901599017573 0.00749876597759 -0.000338887030702)
(0.00890770209207 0.0102706149968 0.00104581355604)
(0.0101875718183 0.00899613770767 0.00104805471954)
(0.00895388558908 0.00903794767317 0.00107019883035)
(0.00731782996384 0.0116531290014 0.00173810127311)
(0.00893518737122 0.0104285942819 0.0020022916049)
(0.00783252046522 0.0104254507816 0.00228347855056)
(0.00506111625015 0.0126548456369 0.00212688612885)
(0.00673601989244 0.0115474086152 0.00261426560013)
(0.00592484435926 0.0115102818834 0.00308776490941)
(0.00252939731383 0.013240626947 0.00226911605546)
(0.00407771577925 0.0122758476567 0.00286546553195)
(0.00360808148326 0.0122222890979 0.00346032473103)
(-6.14192438812e-05 0.0134312490621 0.0022955189711)
(0.00131783274097 0.012626195161 0.0029183250941)
(0.00116821659131 0.0125677267382 0.00356915512424)
(-0.00265306998601 0.0132406818297 0.0022701125615)
(-0.00144088669882 0.0126266572842 0.00291887498379)
(-0.00128751767675 0.0125683045233 0.00356995669828)
(-0.00518781553884 0.0126532336691 0.00212871336844)
(-0.0042037838902 0.0122748420169 0.00286793223837)
(-0.0037299103572 0.0122226806609 0.00346468289141)
(-0.00744642794218 0.0116484561973 0.00173745311574)
(-0.00686628926899 0.0115436507494 0.00261527138444)
(-0.00605151267105 0.0115086087848 0.00309218407657)
(-0.00903059250248 0.0102621621189 0.00103956710634)
(-0.00906443345882 0.0104211823093 0.00199765050248)
(-0.00796011218258 0.0104200996366 0.00228062468466)
(-0.00955612452023 0.00862227945466 0.000131553140262)
(-0.0103054687128 0.00898493798492 0.00103681064641)
(-0.00907267239596 0.00902844023967 0.00105739509541)
(-0.00883037143847 0.00694141983203 -0.000791745428091)
(-0.0102449023787 0.00738638892917 -7.91648947418e-05)
(-0.00911761867129 0.00748692192218 -0.000356907224094)
(-0.0069505856714 0.00546489599761 -0.00150204691373)
(-0.00880911386134 0.00585601124562 -0.00109429696047)
(-0.00804413274978 0.00601121070197 -0.00164357281522)
(-0.00429673166787 0.00439254335841 -0.00171563309545)
(-0.00627173409627 0.00462148805114 -0.00174581335373)
(-0.00603646383261 0.00481459272379 -0.00250957241153)
(-0.00161674287924 0.00378160621591 -0.00113943168897)
(-0.0030849394836 0.00383761971621 -0.00167308222687)
(-0.00344890952505 0.00406154983521 -0.002579453501)
(-0.000773469446765 0.00346709058567 -0.000615734764484)
(-0.00122000477643 0.00374910559641 -0.00151912203117)
(0.00201468455032 0.00346258736645 -0.00114161677118)
(0.000967334520064 0.00297384828976 -0.00060626763138)
(0.00148246256619 0.00342243371682 -0.00152166259263)
(0.00514875483686 0.00400702294038 -0.0016866828935)
(0.00364677933942 0.00328498849309 -0.0016929717961)
(0.00410935501303 0.00370218505998 -0.00257581120853)
(0.00819254106188 0.00494358229991 -0.00131955078987)
(0.00723127392889 0.0039278224251 -0.00168627328972)
(0.00707211906106 0.00435685496995 -0.00234040763434)
(0.0103029698747 0.00621677777278 -0.000363789985194)
(0.0100543554147 0.00492562641396 -0.000853365007487)
(0.0093337497492 0.00538271319055 -0.00116765044569)
(0.011046681535 0.0076488630592 0.000841341653946)
(0.0116023241797 0.00614919077632 0.000394586083278)
(0.0104895973472 0.00663291967939 0.000507089803908)
(0.0103401993759 0.00902788388303 0.0020045327684)
(0.011571132528 0.00741188327135 0.00174529865049)
(0.0103421387585 0.00792534451796 0.00229075726025)
(0.00843307303458 0.0101841895361 0.00287845593191)
(0.0100916014005 0.00852784680307 0.00288101092921)
(0.00898466110397 0.00907753449033 0.00380789696085)
(0.00579220828663 0.0110190064897 0.00335284500322)
(0.00756259789884 0.00939899332029 0.0035867934031)
(0.00674836976508 0.00997682507007 0.00478930465928)
(0.00288349895003 0.0115047755598 0.00351467457059)
(0.00455524568499 0.00995996795554 0.00384708176823)
(0.00408674565849 0.0105629167519 0.00522461423496)
(-6.07625645206e-05 0.0116625147455 0.0035416811068)
(0.00147233742006 0.0102277261527 0.00389255307732)
(0.00132436371572 0.0108460039563 0.00534275583139)
(-0.00300754310072 0.0115040834325 0.00351669466067)
(-0.00159515424142 0.0102287456454 0.0038939263125)
(-0.00144190699649 0.0108463641429 0.0053447176522)
(-0.00592130818952 0.0110159442002 0.00335449025436)
(-0.0046828179713 0.00995755325872 0.00384967164559)
(-0.00420907303372 0.0105614962143 0.0052310798473)
(-0.0085651102418 0.0101778805552 0.00287546877117)
(-0.00769546439344 0.00939447505832 0.00358714099217)
(-0.00687758771916 0.00997299675996 0.00479300445094)
(-0.0104666278442 0.00901786614556 0.00199489404255)
(-0.0102243855386 0.00852080072811 0.00287307293905)
(-0.00911558669612 0.00906997507091 0.00380192618216)
(-0.0111562922354 0.00763598414295 0.00082609261141)
(-0.0116917100145 0.00740148293733 0.0017300547672)
(-0.0104638639617 0.00791396473361 0.00227314560289)
(-0.0103886061261 0.00620337208565 -0.000381716427119)
(-0.0117005326956 0.00613654737244 0.000375649094265)
(-0.0105922753199 0.006619545408 0.00048217928403)
(-0.00825180782632 0.00493204985136 -0.00133806340047)
(-0.0101262864659 0.00491381921254 -0.000873424754086)
(-0.00941354958651 0.00536993360749 -0.00119458597333)
(-0.00518056322638 0.00399885231146 -0.00170326248514)
(-0.00727620106595 0.00391843889475 -0.0017058462)
(-0.0071274961237 0.00434629123536 -0.00236817886463)
(-0.00202256873974 0.00345928995469 -0.00114938530238)
(-0.00366345504978 0.00327926018856 -0.00170813960376)
(-0.00413793025164 0.00369483560082 -0.00259962050138)
(-0.000967459175133 0.00297362931731 -0.000607409982305)
(-0.00149049527584 0.00342002946449 -0.00152909722753)
(0.00235277780402 0.00274764573966 -0.0011576226563)
(0.00111933941564 0.00216090790713 -0.00060507382116)
(0.00170871144283 0.00271507759023 -0.00153983015546)
(0.00586925076175 0.00315622135063 -0.00169256219232)
(0.00408579940088 0.00237472555702 -0.00172953431201)
(0.00467050743809 0.00292598354881 -0.0026062005522)
(0.00923889427524 0.00385238015758 -0.00122008750733)
(0.0079848001405 0.00281367665631 -0.00167927616954)
(0.00795262435849 0.00341272279993 -0.00225548561845)
(0.0115405918278 0.00479157031691 -9.49889390145e-05)
(0.0110312895827 0.00348993055779 -0.000733477621242)
(0.0104269949005 0.0041690918634 -0.000865986164442)
(0.0123049799717 0.00583772450421 0.00129854307983)
(0.0126702827224 0.00431468724189 0.000655673556301)
(0.011655079272 0.0050835319199 0.00107013471545)
(0.0114599304128 0.0068314110215 0.0026217768113)
(0.0125744691387 0.00515453574247 0.00213654841512)
(0.0114289194718 0.00601928042126 0.00310241994103)
(0.00930381198972 0.00765933022854 0.0035893484004)
(0.0109281439403 0.0058876265126 0.00335836211123)
(0.00988480702989 0.00684373757146 0.00479636423918)
(0.00636391987389 0.00825771227061 0.00408103016811)
(0.00816135593184 0.00646233898211 0.00408287283077)
(0.00739281063288 0.007488922053 0.00587657351949)
(0.0031621626722 0.00860402371015 0.00422496027495)
(0.00489945405429 0.0068318068924 0.00432826079521)
(0.00446023519329 0.00790464696128 0.0063299459123)
(-6.07662026497e-05 0.00871663458488 0.00424479828302)
(0.00158499895538 0.00700751618045 0.00436064155111)
(0.00144587402412 0.00810400795546 0.00644316668912)
(-0.0032872738762 0.00860336319193 0.00422690329742)
(-0.00170758944305 0.00700881241728 0.00436564197796)
(-0.00156297261896 0.00810570911197 0.00644646921949)
(-0.00649439702804 0.00825357371016 0.00408232238339)
(-0.00502955834423 0.00682964168144 0.00432848152959)
(-0.00458327055095 0.00790157008126 0.0063350641261)
(-0.00943865104496 0.00765385968573 0.00358474516005)
(-0.00829486156485 0.00645870232009 0.00408132957517)
(-0.00752326780194 0.00748417123807 0.00588005753795)
(-0.0115893493441 0.00682391273433 0.0026082336637)
(-0.0110628880738 0.00588442161273 0.00334930768604)
(-0.0100185601345 0.00683759023363 0.0047871090637)
(-0.0124160388336 0.00582736357846 0.00127961125006)
(-0.0126975412538 0.00514880056272 0.00211903298691)
(-0.0115526344621 0.00600989139528 0.00307940293022)
(-0.0116261752655 0.00478039866314 -0.000116059232702)
(-0.012769366488 0.0043061820753 0.000633027690182)
(-0.0117582836578 0.00507207091854 0.00104053028415)
(-0.00929717846751 0.00384277870867 -0.00124120755361)
(-0.0111024588019 0.0034820055649 -0.000756524291617)
(-0.0105063200745 0.00415819785549 -0.000897158689115)
(-0.00589984344973 0.00314937847963 -0.00171072331861)
(-0.00802872646353 0.00280731941616 -0.00170057844812)
(-0.00800715709878 0.00340361374231 -0.00228619543392)
(-0.0023598903614 0.00274504547051 -0.00116616428369)
(-0.00410162124521 0.00237127853508 -0.0017457175101)
(-0.00469846055229 0.00291957401657 -0.00263195380743)
(-0.00111911248366 0.00216206610528 -0.000606554106951)
(-0.0017164453116 0.00271298158738 -0.00154831488167)
(0.00258360273359 0.00175675409703 -0.00117698547687)
(0.00121216493039 0.00113937772925 -0.000607255049155)
(0.00186296643284 0.00173713688094 -0.00156206471035)
(0.00635826982626 0.00200225153322 -0.00171624828923)
(0.00435197247319 0.00124595595752 -0.00176007083587)
(0.00505243812992 0.00186464626152 -0.00264588736144)
(0.00994252925874 0.00241853494709 -0.00119266628345)
(0.00843921758596 0.0014648336195 -0.00169355555122)
(0.008548943308 0.00215690093326 -0.00223540349262)
(0.012364641553 0.00297700716942 1.71848740733e-05)
(0.0116152534021 0.00180075441545 -0.000696916080014)
(0.0111607589462 0.00260818068761 -0.000732919669882)
(0.013132260419 0.00359329437681 0.0014936788916)
(0.0133033099113 0.00220890403896 0.000752840089338)
(0.0124293924622 0.00315051511492 0.00133818481279)
(0.0121906375227 0.00417179006646 0.00287313371506)
(0.0131628647303 0.00262105828154 0.00227784188194)
(0.0121427990412 0.00369993113908 0.00347512451864)
(0.00986735349421 0.00465328241642 0.00385188654161)
(0.0114184185243 0.00297822107026 0.00352037298069)
(0.0104739065066 0.0041808028022 0.00523271636887)
(0.00673300125336 0.00500166615496 0.00433010345788)
(0.00851265593612 0.00326228973018 0.00423140028068)
(0.00781078335489 0.0045583297764 0.00633442992889)
(0.00334148342006 0.00520125247591 0.00446394207137)
(0.0050994726785 0.00344538529669 0.00447103210858)
(0.00469928780033 0.00479987404539 0.00677796847728)
(-5.99283163535e-05 0.00526498348665 0.00448148524605)
(0.0016490905255 0.00353112082633 0.004491785572)
(0.00152572250217 0.0049142357939 0.00687783655659)
(-0.00346886661869 0.0052004719311 0.00446722021012)
(-0.00177181482521 0.00352920005963 0.00449570074418)
(-0.00164135526537 0.00491375400442 0.00688858109868)
(-0.00686465817586 0.00499987657382 0.00432748872137)
(-0.00522985618645 0.00344593853562 0.00447074898048)
(-0.00482486265873 0.00479858702176 0.00677952693702)
(-0.0100020060802 0.00465154338226 0.00384589210116)
(-0.00864562921478 0.0032618002513 0.00422848432948)
(-0.0079403030247 0.00455546825497 0.00633428433978)
(-0.0123219302708 0.00416996621405 0.00286010700925)
(-0.0115531348468 0.00297922438706 0.00351371986882)
(-0.010607846846 0.0041788543279 0.00522515718792)
(-0.0132454704681 0.00358928645118 0.00147244942703)
(-0.0132877268944 0.00262094175773 0.00226179255811)
(-0.0122685800218 0.00369616477395 0.00345143438005)
(-0.0124502657174 0.00297173865913 -7.43736873333e-06)
(-0.0134036567517 0.00220721676273 0.000729028125466)
(-0.012533445181 0.00314479366952 0.00130379322275)
(-0.0100001465697 0.0024138392934 -0.00121589518612)
(-0.0116865168721 0.00179887363224 -0.000721446383586)
(-0.0112395809871 0.00260243001341 -0.000766959139907)
(-0.00638806649823 0.00199931512762 -0.0017355726396)
(-0.00848285958973 0.00146366444921 -0.0017159899087)
(-0.00860293181786 0.00215208269828 -0.00226840190768)
(-0.00259025366849 0.00175703048558 -0.00118610733336)
(-0.0043674476051 0.0012467103279 -0.00177693133606)
(-0.00508003518 0.00186176047454 -0.0026732241888)
(-0.0012117575465 0.00114347740434 -0.000609115293702)
(-0.00187054858652 0.00173758763963 -0.0015716510015)
(0.00269834021738 0.000613709095289 -0.00119034040816)
(0.00124328575958 1.82570166865e-05 -0.000608461212249)
(0.00193971654523 0.000607315698014 -0.00157721144028)
(0.0066008375364 0.00069502757121 -0.00173737809786)
(0.00444093306604 1.84218133398e-05 -0.00177217611623)
(0.00524261147354 0.000649638996427 -0.00267495282418)
(0.0102892494233 0.000833030001213 -0.00119780534779)
(0.00859084223602 1.97087207169e-05 -0.0017025242286)