/*--------------------------------*- C++ -*----------------------------------*\
| =========                 |                                                 |
| \\      /  F ield         | OpenFOAM: The Open Source CFD Toolbox           |
|  \\    /   O peration     | Version:  3.0.1                                 |
|   \\  /    A nd           | Web:      www.OpenFOAM.org                      |
|    \\/     M anipulation  |                                                 |
\*---------------------------------------------------------------------------*/
FoamFile
{
    version     2.0;
    format      ascii;
    class       volVectorField;
    location    "2.3";
    object      ddt0(U);
}
// * * * * * * * * * * * * * * * * * * * * * * * * * * * * * * * * * * * * * //

dimensions      [0 1 -2 0 0 0 0];

internalField   nonuniform List<vector> 
7968
(
(2.80857878536e-05 -2.56842267488e-05 -1.04615077808e-05)
(0.000147659045685 -7.62165039201e-05 -1.05105431919e-05)
(0.000352256400803 -9.66178471768e-05 -8.89414787404e-06)
(0.000538275433323 -0.000103453885282 -2.08176455616e-06)
(0.000709995407249 -9.51218786401e-05 4.99331766565e-06)
(0.00084174170846 -7.75138377309e-05 1.19018589213e-05)
(0.000930058757655 -5.82182063183e-05 1.6223325435e-05)
(0.000971775647505 -3.99359112016e-05 2.01779208281e-05)
(0.00097348951584 -2.5795651745e-05 2.54591936447e-05)
(0.000945894027188 -1.7931358942e-05 3.33269838635e-05)
(0.000894541968251 -1.80266339693e-05 4.33200157583e-05)
(0.000825077905014 -2.56920984373e-05 5.5444796148e-05)
(0.000745344186848 -3.88245800748e-05 6.81306209945e-05)
(0.000665561676269 -5.43929341296e-05 8.1203782235e-05)
(0.000589460359668 -6.93631867493e-05 9.20768519831e-05)
(0.000519931824511 -8.1236783004e-05 9.78906495132e-05)
(0.000453421108618 -8.39031530972e-05 0.000101299471013)
(0.000374049807703 -7.3543062421e-05 0.000102820289063)
(0.000288676738488 -5.1314425565e-05 0.000107132914143)
(0.000111216101454 -4.92041210216e-06 0.000110959282577)
(-2.01554888147e-05 -2.77526615323e-05 -9.37219110024e-06)
(0.000107370019873 -7.57037711311e-05 -0.000131591955512)
(0.00036874849114 -7.78050441324e-05 -0.000188777178609)
(0.000590624785274 -5.38339886814e-05 -0.000205204575003)
(0.000786206509156 -8.11622784465e-06 -0.000205270583381)
(0.000928655396584 4.62071714736e-05 -0.000194135877631)
(0.00101281230105 9.51286772927e-05 -0.000176948967114)
(0.00103944606369 0.000134050214311 -0.000155856081433)
(0.00101698677821 0.0001601055078 -0.000135692293726)
(0.000959126740316 0.000171816520163 -0.000119444818861)
(0.000876178266788 0.000169415822206 -0.000108734280287)
(0.000779040843573 0.000154084598197 -0.000102711821778)
(0.000680458849051 0.000126956610162 -0.000100736352442)
(0.000591673854746 9.0974815664e-05 -9.95087066628e-05)
(0.000516891617557 5.05289255714e-05 -9.67128915678e-05)
(0.000460237434612 1.08842936826e-05 -9.07393588494e-05)
(0.000415367093238 -1.77828936344e-05 -7.79415019948e-05)
(0.00036600169949 -2.7821166155e-05 -5.39570818825e-05)
(0.000326832719897 -1.68388948662e-05 2.83899852102e-06)
(0.000154291272737 2.84933064128e-05 0.000117293372912)
(-4.10426536808e-05 5.37862188457e-05 -1.29369691617e-05)
(0.00010804069075 5.80991006866e-05 -0.000196805417594)
(0.000414473997715 9.78892672303e-05 -0.000270068599137)
(0.000662274559089 0.000166658310857 -0.000278236229923)
(0.000868859306761 0.000254741225995 -0.000263144495478)
(0.00100896360457 0.000344293608045 -0.000236681014912)
(0.00108059514097 0.000418869206675 -0.000206303525856)
(0.00108909013948 0.000473645560364 -0.000175995809215)
(0.00104562297022 0.000505612219943 -0.000150066395175)
(0.000966045538769 0.00051683579939 -0.000130722800557)
(0.000862616010646 0.000509294130501 -0.000120680780444)
(0.000747033365084 0.000485826077824 -0.000119345018493)
(0.000632262224163 0.000448172932412 -0.000124579267445)
(0.000532002925244 0.000391264520599 -0.000131288434887)
(0.000453259749418 0.000325574430576 -0.000138651289969)
(0.000400156453895 0.000255623438382 -0.000142922479568)
(0.000367541759717 0.000193564632216 -0.000139362443978)
(0.000340007036155 0.000149453413857 -0.000119272902842)
(0.000335406197885 0.000127959771481 -4.73389291416e-05)
(0.00017590389677 0.000129319649173 0.000121783706445)
(-4.94912511073e-05 0.000139745483891 -1.58017528206e-05)
(0.000132325167731 0.000178714390842 -0.00022852214488)
(0.000486067428268 0.000244175650853 -0.000295394114187)
(0.000760032588777 0.000339184951595 -0.000278279753174)
(0.000972915279247 0.000451229047442 -0.000235598835036)
(0.00110260193981 0.000560605252739 -0.000186606384166)
(0.0011541744239 0.00064985557185 -0.000141418746147)
(0.00113809468442 0.000712762990366 -0.000104769528265)
(0.00107038596377 0.000747543515495 -7.72463331185e-05)
(0.000968982834144 0.000757747247433 -5.97067065441e-05)
(0.000846069044167 0.000746557300305 -5.16280007544e-05)
(0.000714294717422 0.000716886032808 -5.35759014588e-05)
(0.000579662540152 0.000668897616073 -6.87571639948e-05)
(0.000462076725313 0.000603225496728 -7.98394504934e-05)
(0.00037617323457 0.000523037067132 -0.000100199472546)
(0.000322627988035 0.000435345489453 -0.000122120884376)
(0.000300496422259 0.000353718908447 -0.000138194616091)
(0.000295767035589 0.000289441194473 -0.000135086080322)
(0.000326642893643 0.000247737807837 -6.56827859683e-05)
(0.000187285188567 0.00021983618915 0.00012926319965)
(-4.31646031292e-05 0.000236203378983 -2.07417113027e-05)
(0.000177402266795 0.000300892702124 -0.000246400285159)
(0.000575776366367 0.000379245567065 -0.000299616134625)
(0.00087374279603 0.000482557359981 -0.000254641211585)
(0.00108955158101 0.000598896497712 -0.00018333923411)
(0.00120468822466 0.000711000587815 -0.000112503908639)
(0.00123128581672 0.000800842700293 -5.40160088873e-05)
(0.0011863404352 0.000862143636949 -1.02412256799e-05)
(0.00109228977149 0.000894205618254 1.71198438259e-05)
(0.000968218520728 0.000901092619432 3.1856788242e-05)
(0.000825658711138 0.00088713245672 3.74423187717e-05)
(0.000673772951942 0.000855379879752 3.41392968477e-05)
(0.000523326498353 0.000803946261202 1.92022910152e-05)
(0.000390909014313 0.0007397405266 -5.46521254476e-06)
(0.000290629439549 0.000658193707347 -3.94757442267e-05)
(0.000233447446963 0.000567460985899 -7.97220165693e-05)
(0.000220109890905 0.000481105370353 -0.000116122879985)
(0.000237317507613 0.000409575484742 -0.000131504013652)
(0.00030134227246 0.000356408489153 -6.98257630586e-05)
(0.000186103316685 0.000305965592081 0.000136266125073)
(-2.70294668114e-05 0.000322641177196 -2.64028449517e-05)
(0.000231517954846 0.000401338754125 -0.000252653490878)
(0.000667824605747 0.000479819405046 -0.000291081404154)
(0.000985791473743 0.000575510366181 -0.000222167746874)
(0.00120296672246 0.000680439180413 -0.000126424671158)
(0.00130243568818 0.000778298438875 -3.83838358468e-05)
(0.00130298577597 0.000856012439021 3.13770202001e-05)
(0.0012295231662 0.000908610355616 7.67445776041e-05)
(0.00110988821618 0.00093433685948 0.000101005057564)
(0.000964990073656 0.000937099367796 0.000111675040201)
(0.000805350578885 0.000921411019299 0.000114916171304)
(0.000637280879748 0.000890944771585 0.000111418772442)
(0.000470308326176 0.000845538249187 9.67076759992e-05)
(0.000321632187184 0.000786325011356 6.67800544429e-05)
(0.000208029054619 0.000714272959936 2.14995867485e-05)
(0.000146028201891 0.000633733816465 -3.32041760345e-05)
(0.000139765231911 0.000555960779322 -8.58457031484e-05)
(0.000175768039848 0.000488998607004 -0.000116363384841)
(0.000267166051199 0.000433535138087 -6.34676690697e-05)
(0.000176055166124 0.000369703407677 0.000142169700638)
(-8.63985816549e-06 0.000392310654184 -3.40482999941e-05)
(0.000281221076273 0.000470476278404 -0.000250931407685)
(0.000746303050702 0.000538393651011 -0.000276071177039)
(0.0010806302056 0.000615467982564 -0.000190600167841)
(0.00129679625742 0.000698369570385 -8.05875384178e-05)
(0.00138166815776 0.000772565174806 2.11495374752e-05)
(0.00136162823799 0.000831631852011 9.59690274885e-05)
(0.00126379809449 0.000870516684196 0.000142470662584)
(0.00112166737794 0.000887099524969 0.000163681355565)
(0.000958631268888 0.00088472725381 0.000170265555155)
(0.000784910676766 0.000867900851347 0.000170863956893)
(0.000604343919513 0.000840360513561 0.00016700464648)
(0.000424444949953 0.000802477412943 0.00015241291222)
(0.000262950794065 0.000754665056738 0.000121657964646)
(0.000139535414788 0.000698189148023 7.18344706073e-05)
(7.33197225246e-05 0.000635715461195 7.33296460659e-06)
(7.24617828639e-05 0.000574378257825 -5.49835982586e-05)
(0.000122950783694 0.000519981970257 -9.55526156669e-05)
(0.000234080726617 0.000470442487643 -5.10954085519e-05)
(0.00016276179625 0.000405317484576 0.000144976053188)
(8.88677881833e-06 0.000442486084768 -4.08113372211e-05)
(0.000320700076657 0.000507635804748 -0.000243504904796)
(0.0008042109926 0.000557789448592 -0.000259057309671)
(0.00114920714883 0.000610107375227 -0.000164552280458)
(0.00136395943464 0.000663556260198 -4.52942604473e-05)
(0.00143834776643 0.000710469551621 6.03714252852e-05)
(0.00140228212319 0.000746519083387 0.000137518719453)
(0.00128589815069 0.000768815552212 0.000183106093164)
(0.00112614271548 0.000775003164515 0.000200606885249)
(0.000949162803577 0.000767484601956 0.00020303351193)
(0.000765301563096 0.000750159956817 0.000201003095539)
(0.000576422312504 0.000726633614689 0.000196971509597)
(0.000388364278576 0.000697694064354 0.000183401866137)
(0.000218677121613 0.000664015081557 0.000153056787966)
(8.93695158888e-05 0.000625936236299 0.000104279259874)
(2.03029425572e-05 0.000585038586033 3.74130110547e-05)
(2.32313701539e-05 0.000544694399755 -2.8527511033e-05)
(8.33051973983e-05 0.000506319430958 -7.4436940933e-05)
(0.000206198540231 0.000468004179422 -3.63377586682e-05)
(0.000148784362046 0.000411429031228 0.000146125047998)
(2.19979487961e-05 0.000473759476031 -4.58095051047e-05)
(0.00034552262464 0.000515960207068 -0.000233991398232)
(0.000838599120844 0.000544493931712 -0.000243611959706)
(0.00118827607231 0.000570146628917 -0.000145902968418)
(0.00140076115951 0.000594094924546 -2.35616211411e-05)
(0.00146874920886 0.000613665795044 8.15420961122e-05)
(0.0014225092779 0.000626803986268 0.000157676562265)
(0.00129425617729 0.000632470623073 0.0002012297285)
(0.00112269488433 0.000628580198141 0.000214965662159)
(0.000936718445351 0.000616869767661 0.000213265260963)
(0.000747255514861 0.000600276658256 0.000208258397235)
(0.000554765605887 0.000581889360204 0.000203430424377)
(0.000363673609937 0.000562477358048 0.000190808177655)
(0.000190920781465 0.000542537828353 0.000162676394574)
(5.94760878283e-05 0.000521654208999 0.00011678957882)
(-1.02533127104e-05 0.000500745705612 5.25109728468e-05)
(-6.21991846372e-06 0.000480008543519 -1.38093938037e-05)
(5.78809492524e-05 0.000458143615581 -5.86558955994e-05)
(0.000185901268783 0.000433691915152 -2.38576879534e-05)
(0.000136479064369 0.000394320648669 0.00014729959016)
(2.82011726546e-05 0.000486500221783 -4.7675239741e-05)
(0.000354644257505 0.000501864592617 -0.000224609620867)
(0.000849005254764 0.000507591778876 -0.000231641711335)
(0.00119869218069 0.000508400378189 -0.00013378471209)
(0.00140903619506 0.000505174909442 -1.26186243484e-05)
(0.00147362285583 0.00049979520894 9.01286890739e-05)
(0.00142274792179 0.000492090247737 0.000163905016832)
(0.00128921042719 0.000482616499958 0.000205201183567)
(0.00111235351146 0.000470384940999 0.00021568749339)
(0.000922999099232 0.000456379103792 0.000210804354057)
(0.00073252263591 0.000442476155848 0.000203274866229)
(0.000540484167719 0.00043072252065 0.000197429686543)
(0.000350160947309 0.000421200703332 0.000185341653868)
(0.000178051170144 0.000413686092346 0.000159356844559)
(4.71042047188e-05 0.000407267975654 0.000116848796603)
(-2.23271391001e-05 0.000402609707657 5.67777405187e-05)
(-1.78607538376e-05 0.000397175746427 -6.04153181141e-06)
(4.68027779073e-05 0.000390676363343 -4.91570376139e-05)
(0.000174715625574 0.000380291293849 -1.61017060472e-05)
(0.000129026221711 0.000362986058157 0.000146574741538)
(2.85114430291e-05 0.000486100422014 -4.21580036153e-05)
(0.000350673650632 0.000474262226746 -0.000215802978902)
(0.00083888016674 0.000457384243461 -0.000222593790173)
(0.00118422091404 0.000434104685065 -0.00012715467602)
(0.00139133795709 0.000405591196355 -8.44831376626e-06)
(0.00145547990292 0.000377563180991 9.19150924025e-05)
(0.00140527320967 0.000351311438437 0.000163907529466)
(0.00127278701829 0.000328555982441 0.000204046807132)
(0.00109702992684 0.000309840995753 0.000213530860158)
(0.000909676676478 0.000294912758708 0.000207253399299)
(0.000722580433758 0.000284963324417 0.000198396051797)
(0.000534378962235 0.000280569737575 0.000192338722348)
(0.000347395753634 0.000280936596578 0.000180840394304)
(0.000178183584908 0.000284810250899 0.000155835459793)
(4.92506216554e-05 0.000291011876868 0.000114737011421)
(-1.92262532675e-05 0.000299850767934 5.70647954299e-05)
(-1.49708106422e-05 0.000306508218411 -2.8765559959e-06)
(4.77008072927e-05 0.000314075309721 -4.49586085976e-05)
(0.000171780449749 0.000316850598232 -1.2769850651e-05)
(0.000126718545763 0.000321023291747 0.000146816132976)
(2.2389938903e-05 0.000479771526941 -2.72079743197e-05)
(0.000332953873886 0.000439658408356 -0.000207432203212)
(0.000807006057703 0.000401220923034 -0.000217677519434)
(0.00114415404118 0.000354023717047 -0.000125965936608)
(0.00134947476741 0.00030114454854 -1.08856658263e-05)
(0.00141623832484 0.000251203955765 8.79407708298e-05)
(0.00137175332341 0.000207110443632 0.000159331298213)
(0.00124639427368 0.00017165640455 0.000199822434512)
(0.00107777147001 0.000146755933062 0.000210070854184)
(0.000897477830996 0.000131045452307 0.00020392434804)
(0.000717766521326 0.000124885467419 0.000195244798369)
(0.000536282349761 0.000127196987247 0.000190039001871)
(0.000354775417014 0.000136696891145 0.000179219492508)
(0.00019023420777 0.000151773990664 0.000154099462992)
(6.44114333482e-05 0.000171272824395 0.000112358879328)
(-3.45713776326e-06 0.000195032377254 5.51935107712e-05)
(1.04261567388e-06 0.000218403103123 -1.18388791733e-06)
(6.04822053786e-05 0.000237001999881 -4.47876383282e-05)
(0.000176330640025 0.000252103358262 -1.25093757902e-05)
(0.000128918261952 0.000275507570836 0.000149174950597)
(8.41503506333e-06 0.000464688857677 -1.27524352935e-05)
(0.000300313872163 0.000401993225953 -0.000200638316054)
(0.000755099632287 0.00034502413454 -0.000216688883214)
(0.00108023709036 0.000276430561045 -0.000131899457985)
(0.00128364623852 0.000200287916582 -2.30658827716e-05)
(0.00135609763509 0.000128421150607 7.29491309159e-05)
(0.00132225037218 6.6429812139e-05 0.000143202559921)
(0.00120986505291 1.82274771498e-05 0.000184288043204)
(0.00105419107235 -1.34186886644e-05 0.000196637644138)
(0.000885738053053 -3.05202899735e-05 0.000192113041589)
(0.000716885531874 -3.42702675642e-05 0.00018482874113)
(0.00054480536113 -2.67022556788e-05 0.000180604935435)
(0.000371749454469 -8.79898920755e-06 0.000169798664033)
(0.000215215750927 1.83511959127e-05 0.000144086125414)
(9.57872682127e-05 5.34914383796e-05 0.000101430481959)
(3.31515913883e-05 9.45569741559e-05 4.46138869726e-05)
(3.31774881321e-05 0.000137156634433 -1.16854807573e-05)
(8.22601579762e-05 0.000168794574866 -4.98259380118e-05)
(0.000189174618882 0.000195419766154 -1.51721193184e-05)
(0.000135761918105 0.000232492749652 0.000150608771352)
(-8.80557127781e-06 0.000444171258227 4.26758996388e-06)
(0.000256653946374 0.000369759958051 -0.000193191494304)
(0.000684988696071 0.000299453932023 -0.000218026086032)
(0.000994088300539 0.000213101302805 -0.000143974442668)
(0.00119544041291 0.000116362499965 -4.72384360281e-05)
(0.00127629339705 2.4529244262e-05 4.19162838865e-05)
(0.00125765885294 -5.39968494627e-05 0.000108484986372)
(0.00116366282027 -0.00011401617232 0.000149195263527)
(0.00102613095211 -0.000152220226695 0.000163961295378)
(0.000873467268679 -0.000171037712178 0.000162221729856)
(0.000718324564758 -0.000173568502578 0.000156806775656)
(0.000558852675125 -0.000161988676417 0.000153164513064)
(0.000398395484022 -0.000136185363974 0.00014254676552)
(0.000253905018494 -9.67423842625e-05 0.000116159705325)
(0.000143713708086 -4.50067836656e-05 7.49078273178e-05)
(8.62642613535e-05 1.47400790415e-05 2.51950996124e-05)
(8.24317981985e-05 7.16655216487e-05 -2.50978422129e-05)
(0.000118643858201 0.000118190303418 -5.65217140191e-05)
(0.000209162303553 0.000153893760532 -1.76041443712e-05)
(0.000144109558174 0.000196921923636 0.000152933123074)
(-2.61068853005e-05 0.000421791352984 2.10889958881e-05)
(0.000206770337938 0.000346368749147 -0.000182654770953)
(0.000602092485625 0.000269967579819 -0.000219278049542)
(0.000891118667284 0.000172984674066 -0.000161979939075)
(0.00108958358437 6.29006254806e-05 -8.08883315946e-05)
(0.00118166995699 -4.34949274013e-05 -4.5607776107e-06)
(0.00118157611272 -0.000133055099515 5.58529593738e-05)
(0.00110997738459 -0.000200992018401 9.48704133675e-05)
(0.000994250621117 -0.000243522783968 0.000111819235098)
(0.000859994832297 -0.000263649578831 0.00011337532275)
(0.000720454572814 -0.000265748036775 0.000110006087336)
(0.000576440726741 -0.00025187309768 0.00010638730675)
(0.000432761796054 -0.000220383595208 9.55116293699e-05)
(0.000304904933634 -0.000171607287881 7.12629468414e-05)
(0.00020852937531 -0.000106285877506 3.6407283882e-05)
(0.00015523753587 -3.24547551939e-05 -3.2642214986e-06)
(0.000144244911077 3.57240999996e-05 -4.07074006851e-05)
(0.000164857291187 9.06701376206e-05 -6.16569340191e-05)
(0.000233341439042 0.000129946318985 -1.74605568109e-05)
(0.000151932837905 0.000171260897168 0.000153814365355)
(-4.07511351491e-05 0.000396863757531 3.35579775961e-05)
(0.000156038390586 0.000333329518757 -0.000168820565619)
(0.000513050588535 0.000260206544143 -0.000217981312912)
(0.000779788440892 0.000162496881664 -0.000182321619431)
(0.000973725234144 4.95433761353e-05 -0.000123189208714)
(0.00107749783816 -6.14571784573e-05 -6.27357667022e-05)
(0.00109877883797 -0.000155510344768 -1.38079925017e-05)
(0.00105240513258 -0.000226989027086 2.20936983004e-05)
(0.000961228645374 -0.000270129290234 4.0519541845e-05)
(0.00084711778448 -0.000290337165938 4.57668945755e-05)
(0.000724406326429 -0.000291783160233 4.49837437345e-05)
(0.000597831373749 -0.000277003064313 4.19407553664e-05)
(0.000473255639698 -0.000241420613695 3.19919342858e-05)
(0.000364577072047 -0.000187700296023 1.56741024497e-05)
(0.000282204334034 -0.000117604714703 -9.02495429425e-06)
(0.000232310512672 -4.01682904073e-05 -3.37906119297e-05)
(0.000213346244977 3.17540769472e-05 -5.55387793098e-05)
(0.000215173698467 8.78378822028e-05 -6.31488192529e-05)
(0.00025693545946 0.000124673849935 -1.35451056241e-05)
(0.000157144113763 0.000156032340451 0.000151665804721)
(-4.59924235174e-05 0.000367880961754 4.33961767547e-05)
(0.000116644027901 0.00032678484159 -0.000148521798791)
(0.000432379719512 0.000267258814998 -0.00020946993678)
(0.00067532834652 0.000181857239233 -0.000197847721498)
(0.000864016689841 7.96272332837e-05 -0.000163351333138)
(0.000977658217745 -2.19210411123e-05 -0.000122684805931)
(0.00101734299327 -0.000108674191901 -8.48515045002e-05)
(0.000996236361478 -0.000173896138481 -5.27166433275e-05)
(0.000929605493087 -0.000214851443755 -3.57505976856e-05)
(0.00083457243441 -0.000234024690821 -2.73667803022e-05)
(0.000727794406766 -0.000235197440482 -2.48955466848e-05)
(0.000619312505229 -0.000220668651481 -2.42959590657e-05)
(0.000514417930364 -0.000188645288312 -3.30095500671e-05)
(0.0004217444174 -0.00013913027961 -4.27041827587e-05)
(0.000350933003012 -7.59552856293e-05 -5.35387291276e-05)
(0.000304031828659 -6.46624575474e-06 -6.21173325606e-05)
(0.000276612571683 5.71207293549e-05 -6.67377189224e-05)
(0.000259145157476 0.000104836585923 -5.93793577592e-05)
(0.000272204065435 0.000132797267342 -4.57124969568e-06)
(0.000155022110301 0.000148407137046 0.000147249649521)
(-3.71619949038e-05 0.000318813021329 4.97813761253e-05)
(9.83096739244e-05 0.000310205164616 -0.000118041511235)
(0.000372587832517 0.000275672977828 -0.000184659301816)
(0.000591456905968 0.000217074795948 -0.000194200151498)
(0.000772264968344 0.000140933026127 -0.000182517861812)
(0.000892145514924 6.20510027969e-05 -0.000160388015828)
(0.000947884862922 -5.96682969786e-06 -0.000134621585801)
(0.000945719372616 -5.71479592663e-05 -0.000109870386307)
(0.000898305056477 -9.16209216904e-05 -9.15794589025e-05)
(0.000822280925485 -0.000108243707786 -8.06019398161e-05)
(0.000731861344295 -0.000110100285718 -7.57666313089e-05)
(0.000637118512268 -9.90938716895e-05 -7.47394214566e-05)
(0.000546721090363 -7.64215816135e-05 -7.74105623284e-05)
(0.000468227789075 -3.97980882677e-05 -7.99498321404e-05)
(0.000405374406227 7.01725463487e-06 -7.97075778095e-05)
(0.000358927812957 5.71952018821e-05 -7.4642406824e-05)
(0.000322986005212 0.000101028291929 -6.43134459357e-05)
(0.000288000868683 0.000130552038085 -4.37791578057e-05)
(0.000273517245635 0.000142934654059 1.2906802194e-05)
(0.000143294383599 0.000137272376889 0.000141804566269)
(-1.51128449156e-05 0.000257985952485 5.72848975165e-05)
(0.000104148424325 0.000299902353061 -5.42325889184e-05)
(0.000339534189137 0.000305109069384 -0.000105342194544)
(0.000534979716493 0.000288473184637 -0.000119978704602)
(0.000704073068131 0.000252434071016 -0.000119234877496)
(0.000823328463807 0.00020766249422 -0.000108371883487)
(0.000887728998572 0.000165526885426 -9.24133503092e-05)
(0.000899638207064 0.000130753959052 -7.45028567025e-05)
(0.000868967273211 0.0001061440669 -5.94217243568e-05)
(0.000809799717493 9.28565037008e-05 -4.95308746905e-05)
(0.000734126576777 8.80383342465e-05 -4.39650723496e-05)
(0.000652311267778 9.15709043732e-05 -4.13056403552e-05)
(0.000573379546486 0.000103718127439 -4.05409488108e-05)
(0.000503173783621 0.000123140507487 -3.85639248693e-05)
(0.000442642171069 0.000146873627525 -3.35286919567e-05)
(0.000393010063814 0.000169105723956 -2.391251451e-05)
(0.000347944328297 0.000183038233362 -9.62306102572e-06)
(0.000298139214677 0.000183490869417 1.17873597631e-05)
(0.000259263991603 0.00016954869692 5.54829714881e-05)
(0.000123142223786 0.000129570317657 0.000139140214762)
(3.34987036689e-05 0.000100498641734 6.14502268311e-05)
(0.000149175521252 0.000147422492615 6.77975166078e-05)
(0.000334592381535 0.000169009885131 7.42180895106e-05)
(0.000497870362977 0.000178464994987 8.51411274859e-05)
(0.000644229487748 0.000174042184786 9.62776388865e-05)
(0.000751857610897 0.000160672918182 0.000106357120963)
(0.000818017117185 0.000144666848234 0.000112959949067)
(0.000841830699011 0.000128752842217 0.000117763309787)
(0.000831606801758 0.000115751845307 0.000121879379742)
(0.000795627669145 0.000108341751689 0.000124165043368)
(0.00074203317968 0.000105533032263 0.000129439967138)
(0.000678657653841 0.000108281826108 0.000134262663466)
(0.000611097031182 0.000114173109454 0.000140570422536)
(0.000545114220492 0.00012191787786 0.000146039370383)
(0.000479935037711 0.000128822854798 0.000149529554768)
(0.000418832338574 0.000132715872678 0.000149774323234)
(0.000357633116377 0.000129182918182 0.000147291713192)
(0.000287622606366 0.000116246675671 0.000143088764467)
(0.000216879973718 9.54101417609e-05 0.000140375132711)
(8.38053135807e-05 5.64299938642e-05 0.000134422270144)
(7.43228782166e-05 1.94473666681e-05 -0.000124034987517)
(0.000227165583337 2.53501637886e-05 -0.000164205687896)
(0.000430500880093 4.79505043528e-05 -0.000194691037207)
(0.000607842399651 7.53768555664e-05 -0.000205291830904)
(0.000762998117624 0.000101397924036 -0.000203861643425)
(0.000879790424687 0.000121011640881 -0.000194037327895)
(0.000954295861163 0.000132339944471 -0.000179075156005)
(0.000988377103691 0.000137755638554 -0.000157876278758)
(0.000988477416663 0.000138468643687 -0.000130752319219)
(0.000960017290828 0.000136672568681 -9.99542782483e-05)
(0.000907255311229 0.000134358672304 -6.6834120959e-05)
(0.00083585804943 0.000131758352387 -3.22390904389e-05)
(0.000753596534371 0.000127757201479 2.66832212034e-06)
(0.000666069175623 0.000120886813078 3.84516387066e-05)
(0.000577171515856 0.000110685413802 7.23824058375e-05)
(0.000492207333208 9.56915646359e-05 0.000102240680449)
(0.0004078439558 7.70567383265e-05 0.000131406256269)
(0.000315522679858 5.74884413283e-05 0.000163184564517)
(0.000223438843636 4.2073903167e-05 0.000204336361373)
(7.20198242312e-05 4.11967678053e-05 0.000246603161415)
(8.90720837916e-05 4.29792013478e-05 -0.000165422154058)
(0.000257223903984 5.73931010584e-05 -0.000346731120285)
(0.000469733810988 0.00010184906677 -0.000428759479649)
(0.000642153511921 0.000159448361865 -0.000455410848853)
(0.000788228594205 0.000218901573179 -0.000452340563389)
(0.000897708836649 0.000269649201346 -0.000429920662999)
(0.000967908650494 0.00030609392506 -0.000395747973746)
(0.000999256112124 0.000328408159346 -0.000354611710791)
(0.000995335670932 0.000337573670808 -0.000312149996039)
(0.00096210981247 0.000339212803098 -0.000272385533584)
(0.000904108257463 0.000335316372947 -0.000238343496529)
(0.000828021982423 0.000327204167253 -0.000210452462049)
(0.0007427318827 0.000312733546782 -0.000187522291909)
(0.00065364631289 0.00028966109937 -0.000166471258194)
(0.00056359612004 0.000257942052105 -0.000144332725999)
(0.000474181420239 0.000218706423606 -0.000118179494508)
(0.000382974348672 0.000176547485406 -8.31509619864e-05)
(0.000285421803136 0.000137576794935 -3.17771722385e-05)
(0.000194741617022 0.000109878167695 5.71346234634e-05)
(5.51114164354e-05 0.000105444803795 0.000224925609958)
(0.000116789929685 0.000113897772889 -0.000216987465394)
(0.00031035148792 0.000139560134159 -0.000453682736472)
(0.000532734688457 0.000195786890914 -0.000533382553555)
(0.000698785450266 0.000270549833069 -0.000533042171155)
(0.000831674899931 0.000349883972263 -0.000497653253127)
(0.000927100358749 0.000421186242023 -0.000446797935386)
(0.000985476335278 0.000476699845129 -0.00039124375132)
(0.00100893821896 0.000513592784816 -0.000336538490568)
(0.00100083631087 0.000533825885581 -0.000287018134914)
(0.000964624072819 0.00054030171756 -0.000244878036641)
(0.000903809920833 0.000535315407893 -0.000212051351597)
(0.000824890103014 0.000520139768755 -0.000190079547507)
(0.00073592841103 0.000491888728479 -0.000176956736502)
(0.000641396680391 0.000455453837339 -0.000169606519462)
(0.000544289909486 0.000406209151436 -0.000164830463529)
(0.000446850235242 0.000349737542405 -0.00015781500186)
(0.000347564371137 0.000293412221396 -0.000142025811905)
(0.000244780621292 0.000244794813487 -0.000104781417459)
(0.000157957479454 0.000212011729154 -1.13975797284e-05)
(3.32722582696e-05 0.000199933059326 0.000206142384634)
(0.000147346564002 0.000186356651582 -0.000262949637379)
(0.000373604053148 0.000210968185127 -0.00052129386681)
(0.000611691076544 0.000264522664045 -0.000575063109315)
(0.000775821406231 0.000340569496764 -0.000528698639216)
(0.000896870431529 0.000425601733197 -0.000447238115548)
(0.000976624858239 0.000506466897506 -0.0003597299433)
(0.00101919470218 0.000574051234249 -0.000280056533725)
(0.00102967924141 0.000623299530184 -0.000213230824733)
(0.0010120281816 0.000652796327252 -0.000159985255567)
(0.000968690768847 0.000663812366554 -0.000118767731309)
(0.000901790240949 0.000658953719959 -8.85569371384e-05)
(0.000814014219179 0.000639530395438 -7.12215895432e-05)
(0.000717868535825 0.000604511581441 -6.94143932055e-05)
(0.00061511241385 0.000554669657489 -7.60497434595e-05)
(0.000506592939166 0.000493654394007 -9.40394217403e-05)
(0.000401118929226 0.00042797243648 -0.000115728165038)
(0.000297154639979 0.000366785551229 -0.000131115010711)
(0.000194982055396 0.000318377513603 -0.000121860315111)
(0.000118136703811 0.00028961115139 -4.06479527612e-05)
(1.24773004885e-05 0.000279195305521 0.000199959878938)
(0.000176171648146 0.000265603283723 -0.00030496151825)
(0.000438097973336 0.000285801132835 -0.000566243196653)
(0.000695455983259 0.000330112424167 -0.000587483819089)
(0.000862891350065 0.000398046032592 -0.000493665452882)
(0.000976287625524 0.000479020742516 -0.000365728420125)
(0.00104249007721 0.000560587940677 -0.000241123111938)
(0.00106962893401 0.000633159532628 -0.000137027554275)
(0.00106422773053 0.000689599686924 -5.82517298909e-05)
(0.00103161312227 0.000725327325545 -2.0966985011e-06)
(0.000975440244007 0.000739811691574 3.7303713463e-05)
(0.000897250878882 0.000734558904992 6.47296378898e-05)
(0.000799079891106 0.000711797654994 7.87089676461e-05)
(0.000687495755778 0.000673305839047 7.43335164442e-05)
(0.000569911226778 0.000615574568278 5.03019933121e-05)
(0.000452967155252 0.000549513055551 8.38654136388e-06)
(0.000341941818239 0.000482118782558 -4.37761295843e-05)
(0.000237714476083 0.000422901217141 -9.16293467581e-05)
(0.00014173666474 0.000379697541943 -0.000111669918787)
(7.90524567457e-05 0.00035721075968 -4.71327392883e-05)
(-5.2356843328e-06 0.000349025963886 0.000201703391971)
(0.000198610439798 0.000338094223518 -0.000339699204017)
(0.000493929836203 0.00035419502351 -0.000591981308634)
(0.000772819684212 0.000386979865803 -0.00058301210338)
(0.000948923262336 0.00044175803845 -0.000448732412375)
(0.00106033937053 0.000511594335994 -0.00028059293458)
(0.0011172872816 0.000587247679077 -0.000124547250534)
(0.00113073563884 0.000658016688078 1.20339272589e-06)
(0.00110809892097 0.00071497291981 9.1854952532e-05)
(0.00105737045653 0.000752677092884 0.000150829946845)
(0.000983660625659 0.00076792795575 0.000187952946299)
(0.000889362500219 0.000761634203293 0.000212146604769)
(0.000775926956207 0.000736204457847 0.000222845548436)
(0.000648598870403 0.000693966278395 0.000212160245255)
(0.000517088706641 0.000637267086767 0.000174579748345)
(0.000391577607935 0.000573093835836 0.00011215382061)
(0.000277928536968 0.000510238994246 3.42735668962e-05)
(0.000177484416149 0.000457673084443 -4.09496820291e-05)