/*--------------------------------*- C++ -*----------------------------------*\
| =========                 |                                                 |
| \\      /  F ield         | OpenFOAM: The Open Source CFD Toolbox           |
|  \\    /   O peration     | Version:  3.0.1                                 |
|   \\  /    A nd           | Web:      www.OpenFOAM.org                      |
|    \\/     M anipulation  |                                                 |
\*---------------------------------------------------------------------------*/
FoamFile
{
    version     2.0;
    format      ascii;
    class       volScalarField;
    location    "5.7";
    object      epsilon;
}
// * * * * * * * * * * * * * * * * * * * * * * * * * * * * * * * * * * * * * //

dimensions      [0 2 -3 0 0 0 0];

internalField   nonuniform List<scalar> 
7968
(
0.000163921375669
0.000209014795819
0.000245458226491
0.000266982380607
0.000275769679075
0.000276124794597
0.000271803259248
0.00026505631083
0.000258358557782
0.000253353246975
0.000253341766069
0.000258338105063
0.000265034807941
0.000271786759017
0.000276120130962
0.000275776519741
0.000267001519646
0.000245483326512
0.000209039652096
0.000163935154208
0.000209002536273
0.000386485168964
0.000516852574031
0.000591181041195
0.000620362572474
0.000619652955832
0.000603121779425
0.00058023273419
0.00056007378907
0.000548270901309
0.000548233991464
0.000559981505674
0.000580105204418
0.000602987741744
0.000619544591862
0.000620296394597
0.000591166680143
0.000516874702987
0.000386522271405
0.000209023622454
0.000245431721412
0.000516822011486
0.000715480976078
0.00082978268901
0.0008767828869
0.000877963780766
0.000854203365588
0.000821249804482
0.000792584924062
0.000776168513801
0.00077610860756
0.000792429254234
0.000821024086199
0.000853951007535
0.000877738921992
0.000876621920153
0.000829700779775
0.000715463098041
0.000516842451248
0.000245452849794
0.000266939349132
0.000591123696231
0.000829759850878
0.000967444180089
0.0010236815625
0.00102368398947
0.000993385785424
0.000953593338148
0.000920726103722
0.000904338757267
0.000904275033571
0.000920542436448
0.000953283175272
0.000993018320642
0.00102333919681
0.00102341342996
0.000967274789122
0.000829678051857
0.000591106909029
0.000266955247778
0.000275714652795
0.000620308113749
0.000876786834384
0.00102372493077
0.00108030121597
0.00107633464736
0.00106762807062
0.00104705199965
0.00102381095881
0.00100874051427
0.00100867353416
0.00102363591464
0.00104679606259
0.00106731491063
0.00107590143183
0.00107992852854
0.00102346062098
0.000876627587059
0.00062023791644
0.000275717465949
0.000276078605502
0.00061966109818
0.000878075563095
0.00102387565437
0.0010765026061
0.00110876062158
0.00111503988658
0.00110091372591
0.00107953070305
0.00106404711267
0.00106397764807
0.00107935573721
0.00110066473646
0.00111474766791
0.00110842406489
0.00107607425345
0.00102353934972
0.000877853588598
0.000619546448208
0.000276066872739
0.000271770813315
0.000603214581598
0.000854470614243
0.000993798934747
0.00106790934087
0.0011152071158
0.0011274660031
0.00111386661509
0.00109038601082
0.00107271125883
0.00107264262573
0.00109021622521
0.00111363004367
0.00112719844909
0.0011149274115
0.00106761227053
0.000993448675584
0.000854223365999
0.000603070570746
0.000271742436931
0.000265038832622
0.000580403570826
0.000821652373988
0.000954184838966
0.00104749555002
0.00110127299348
0.00111407540827
0.00109739520189
0.00106961120786
0.00104834945524
0.00104828783891
0.0010694649149
0.00109720088056
0.00111386551757
0.00110106507619
0.00104728389492
0.000953918239085
0.000821447577898
0.000580269706358
0.000265001236661
0.000258340047826
0.000560266597624
0.000793028302514
0.000921291384321
0.00102434447375
0.00108002394882
0.00109075773596
0.00106978499951
0.00103586442384
0.0010093961673
0.00100935070876
0.00103576738911
0.00106967382475
0.00109065761511
0.00107994080804
0.00102426834948
0.000921202901488
0.00079293917774
0.000560191690917
0.00025830660044
0.000253319970825
0.000548418058675
0.000776536552676
0.000904758593035
0.00100921864144
0.00106454016876
0.0010731190316
0.00104859222459
0.00100948634659
0.000978037178979
0.000978021437635
0.00100946957734
0.00104860479335
0.00107317433213
0.00106463052403
0.00100932506553
0.000904860532483
0.000776618581704
0.000548444160336
0.000253307798619
0.000253323865842
0.000548314712211
0.000776341480032
0.000904544028815
0.00100900258095
0.00106434254275
0.0010729672142
0.00104851163047
0.00100948981473
0.00097811818658
0.0009781452994
0.00100957636939
0.00104867063041
0.00107319711238
0.00106462092265
0.00100930055209
0.000904835625678
0.000776605573684
0.000548456659992
0.000253347280926
0.000258334123845
0.000560015927348
0.000792548397408
0.000920700552709
0.00102381249643
0.00107956254076
0.00109041964608
0.0010696282922
0.00103591566697
0.00100963042419
0.00100967766948
0.00103605056702
0.00106985670328
0.00109073346644
0.00107993052722
0.00102421103928
0.000921125155305
0.000792905864787
0.000560217707617
0.000258373855059
0.000265036712853
0.000580102469391
0.000821045495168
0.000953315312493
0.00104681608381
0.00110070514189
0.00111368395633
0.00109725378578
0.00106975130317
0.00104872617742
0.00104877841249
0.00106989678945
0.00109749244804
0.00111400316094
0.00110107293944
0.00104721268509
0.000953780540136
0.000821401238932
0.000580303958182
0.000265074523129
0.000271786852179
0.000602955360728
0.000853895438342
0.000992923123865
0.00106720093587
0.00111464528109
0.00112711220323
0.00111379263158
0.00109061819884
0.00107319077
0.00107324177467
0.00109075657579
0.00111400901077
0.00112738660483
0.00111495038716
0.00106752079047
0.000993281809647
0.000854168411917
0.000603106706747
0.000271808982643
0.000276115933146
0.000619503247809
0.000877648901563
0.00102317793951
0.00107565957823
0.00110822034971
0.00111475376645
0.0011009074698
0.00107981858239
0.00106457428398
0.00106462270087
0.00107994443633
0.00110108970753
0.00111496564746
0.00110843618276
0.00107587512877
0.00102337480037
0.000877800883487
0.000619581619137
0.000276118193593
0.000275769019206
0.000620271738369
0.000876551225794
0.00102327305954
0.00107970056799
0.00107578446187
0.00106740996324
0.00104710470155
0.00102413372955
0.00100927247706
0.00100931951372
0.00102425021776
0.00104725635077
0.00106755997966
0.00107588723734
0.00107977077319
0.00102333420347
0.000876597010915
0.000620285465472
0.000275756074927
0.000266989165544
0.000591178205735
0.000829691493472
0.000967222087123
0.00102334955907
0.00102336929569
0.000993238769741
0.000953709649617
0.000921087673402
0.000904861189339
0.000904907481312
0.000921198550354
0.000953836495452
0.000993337197252
0.00102342009684
0.00102336095766
0.000967218392511
0.000829679080524
0.000591155301512
0.000266969349863
0.000245467439567
0.000516917159889
0.000715515917011
0.0008297186946
0.000876642404432
0.000877829665444
0.00085417260592
0.000821398418628
0.000792938777739
0.0007766972415
0.000776742866119
0.000793042795688
0.000821513091239
0.000854258820366
0.000877870767832
0.000876644463759
0.000829698930255
0.000715487241598
0.000516886655209
0.00024544928963
0.000209023527768
0.000386567991243
0.000516920780118
0.00059120022914
0.00062033565359
0.000619623894863
0.000603139907041
0.000580349456555
0.000560310692945
0.000548616234098
0.000548651252921
0.000560387007931
0.000580431990925
0.000603201264331
0.000619652588348
0.000620335585124
0.000591182246387
0.000516897359053
0.000386546171095
0.00020901060879
0.000163926450774
0.000209044089463
0.000245497473074
0.000267021020939
0.000275802570373
0.000276157153631
0.000271841981372
0.00026511541413
0.000258445053704
0.000253468606842
0.00025348157849
0.000258472231662
0.000265141848457
0.000271857999658
0.000276161149278
0.000275797391405
0.000267010422468
0.000245487810296
0.000209037000481
0.000163919616528
0.000206742825212
0.000333216450177
0.000441367378981
0.000514320492874
0.000554478787375
0.000570084624457
0.000570128637865
0.000562238239996
0.000553331250604
0.000547681529095
0.000547655078593
0.000553267477283
0.00056215529998
0.00057004611643
0.000570023775335
0.000554451509223
0.00051432718201
0.000441397408529
0.000333252359666
0.000206761513301
0.000333195391557
0.000421041282818
0.000514516123643
0.000580769092104
0.00061988705058
0.000637911002023
0.000641920027387
0.000638256150583
0.000632506914212
0.000628518364957
0.00062849330363
0.000632443031759
0.000638167660038
0.000641824945188
0.000637830064139
0.000619835122765
0.000580750608628
0.000514524867547
0.000421065262025
0.000333224630852
0.00044132487324
0.000514503220063
0.000610003736442
0.000679993052582
0.000722585127357
0.000742972465763
0.000748055725785
0.000744393703345
0.000737891617594
0.000733150087302
0.000733123892406
0.000737823964307
0.000744297494373
0.000747947014664
0.000742871970385
0.000722508788822
0.000679947850242
0.000609986874633
0.000514506843827
0.00044134541916
0.000514255689994
0.000580751368446
0.000679991425974
0.00075432843546
0.000801009386707
0.0008250412884
0.000833372652552
0.000833367355111
0.000829454080341
0.000825925426542
0.000825903309304
0.000829396534271
0.000833280755171
0.000833258459061
0.000824925156965
0.000800908015328
0.000754252133809
0.000679941294812
0.000580723651912
0.000514251396604
0.000554413980322
0.000619884696275
0.000722601098635
0.000801027194282
0.000852794181473
0.000884828009766
0.000904587340168
0.000912169882187
0.000911874717145
0.000909471305976
0.000909450623735
0.000911823682893
0.000912099903003
0.000904502894494
0.000884723102535
0.0008526766004
0.000800921912331
0.000722516042945
0.00061982047761
0.000554373821818
0.000570059601955
0.000637953078862
0.000743031484306
0.000825100207132
0.00088486142187
0.000931032809321
0.00096065876381
0.000974223923764
0.000976548169283
0.000974805783049
0.000974784761543
0.000976498658685
0.00097416097192
0.000960589654145
0.000930951633557
0.000884755222942
0.00082497857917
0.000742920264063
0.000637857464753
0.000569982620678
0.000570171994652
0.000642024293545
0.000748171933723
0.000833482677486
0.000904652615947
0.000960698111186
0.000997364816522
0.00101457813777
0.00101779353903
0.00101579236516
0.00101577121063
0.0010177447976
0.00101451972406
0.000997305449698
0.000960633989757
0.000904570949047
0.000833366139481
0.000748054198607
0.000641913771152
0.000570068511816
0.00056235398131
0.00063841526855
0.000744555620882
0.000833498454256
0.000912272863771
0.000974321724781
0.00101465455001
0.00103300233119
0.00103611514171
0.00103318788287
0.00103317060725
0.00103607910107
0.00103296207186
0.00101461261434
0.000974278063535
0.000912217807976
0.00083342048376
0.000744461391682
0.00063831918969
0.000562252189604
0.000553477748491
0.000632681517093
0.00073806597387
0.0008295918465
0.000912011158775
0.000976707692962
0.0010179579358
0.00103621366689
0.00103719815342
0.00103196725734
0.00103195968403
0.00103718841584
0.00103621014014
0.00101795671685
0.000976704154561
0.000911998458116
0.00082956598037
0.000738026635983
0.000632635194879
0.000553418007223
0.000547797476668
0.000628657407956
0.000733291677886
0.000826039562971
0.00090960715345
0.000974987506577
0.00101599209728
0.00103334478009
0.00103203694179
0.0010245017269
0.00102451038156
0.00103206918411
0.00103340060738
0.00101605821299
0.000975049467018
0.000909658244935
0.000826082330954
0.000733332874481
0.000628689969909
0.000547818601305
0.000547711899721
0.000628565568729
0.00073319825087
0.000825962185053
0.000909537267173
0.000974923789334
0.00101594155737
0.00103331883326
0.00103204654201
0.00102454756285
0.00102457675859
0.00103212848676
0.00103344265571
0.0010160840119
0.000975060497967
0.000909660096466
0.00082607919905
0.000733325605036
0.000628683944695
0.000547826990152
0.000553276351054
0.000632455639631
0.000737834307971
0.000829398505689
0.000911845984301
0.00097656510576
0.00101784898366
0.00103616893026
0.00103724023152
0.00103209490935
0.00103213259474
0.00103734236803
0.00103632094893
0.00101802606034
0.00097673618602
0.000912005526127
0.000829557836038
0.000738007796681
0.000632618625859
0.000553437152382
0.000562118825051
0.000638130037651
0.000744255991537
0.000833236416004
0.000912068456504
0.000974159240472
0.00101454323901
0.00103297677562
0.00103620367127
0.00103338241809
0.00103342001306
0.00103630495534
0.00103312584466
0.00101471532812
0.000974328000907
0.000912230357017
0.000833405599894
0.000744433491893
0.000638294264453
0.000562276031413
0.000569973731573
0.00064175104078
0.000747870741569
0.00083318288435
0.00090444024346
0.000960547295333
0.000997278161235
0.00101458531677
0.00101792163063
0.00101601983555
0.00101605415527
0.00101801305323
0.00101471758974
0.00099742737692
0.000960694162677
0.000904583116054
0.000833336727909
0.000748018129997
0.000641881953123
0.000570091257255
0.000569936587031
0.00063774154925
0.000742783801664
0.00082483690211
0.000884644802746
0.000930894270122
0.000960592685437
0.000974245086769
0.000976675596783
0.000975030212871
0.000975060757189
0.000976755548829
0.000974357251137
0.00096071599872
0.000931012420675
0.000884755101992
0.00082494353968
0.00074288049223
0.000637820906037
0.000569999521043
0.000554366558869
0.000619754260091
0.00072243423443
0.000800833481507
0.000852601323225
0.000884693450531
0.000904530401513
0.000912193232964
0.000911990001654
0.000909671581186
0.000909700021747
0.000912062498268
0.00091229039236
0.000904631377411
0.000884780917193
0.000852670599025
0.000800891784682
0.000722480988061
0.000619784376399
0.000554382228112
0.000514258202777
0.00058069556165
0.000679907079292
0.000754213917712
0.00080087919835
0.000824931480889
0.000833321313893
0.000833397783703
0.000829570138829
0.00082611863724
0.000826146545238
0.000829639367512
0.000833485797579
0.000833404664797
0.000824994814739
0.000800920353394
0.000754239010795
0.000679918603111
0.000580692173285
0.000514247189532
0.000441345972888
0.000514501792566
0.000609987049889
0.000679947201668
0.000722515043858
0.000742905343819
0.000748028936683
0.000744439497123
0.000738025872491
0.000733367556525
0.000733396310363
0.000738094529912
0.000744521733145
0.000748101055127
0.000742953954556
0.000722538994454
0.000679952499554
0.000609978515855
0.000514481941816
0.00044132639673
0.000333208905638
0.000421070710885
0.000514545979655
0.000580774358694
0.000619863514593
0.000637878531573
0.000641913021968
0.000638309322452
0.000632638249465
0.000628724995137
0.00062875287936
0.000632702233686
0.000638382239078
0.000641972583033
0.000637913850298
0.000619874856442
0.00058076825048
0.000514528981572
0.000421047038427
0.000333188930706
0.000206722367014
0.000333266372266
0.000441432751852
0.000514363615665
0.000554490427123
0.000570083074785
0.00057014944637
0.000562322893733
0.00055349962518
0.00054792971647
0.000547960958004
0.000553568622196
0.000562399970115
0.000570213196521
0.000570124487084
0.000554510194964
0.000514368415396
0.000441429270425
0.000333256978321
0.000206707623641
0.000257192540089
0.000454571868204
0.000625610620995
0.000743295690501
0.000810975778978
0.00084115343336
0.000849223600515
0.00084941337207
0.000850903530739
0.00085388188383
0.000853835747979
0.000850780294271
0.00084924118876
0.000849040197994
0.000841005485566
0.000810893319123
0.000743280985544
0.000625643139054
0.000454617751258
0.00025721387402
0.000454557385128
0.000544772231597
0.000658261895256
0.000744214726821
0.000799186125187
0.000828297881008
0.000840132238396
0.000843311563559
0.000844085375573
0.000844669760389
0.000844634669086
0.000843990886202
0.000843177437297
0.000839985478819
0.000828171900011
0.000799106004139
0.000744186238336
0.000658273574985
0.000544805269198
0.00045460568345
0.000625574054628
0.000658261461739
0.00074619494876
0.000817067894271
0.000864345404636
0.000890689100328
0.000902073691417
0.000904330863002
0.000902664761759
0.000900881367021
0.000900853380755
0.000902590191207
0.000904224909129
0.000901955604547
0.000890578261053
0.000864262986989
0.00081702264863
0.000746183049814
0.000658272665176
0.000625610338713
0.000743233883316
0.000744218177551
0.000817076170533
0.000879445704331
0.000923915073089
0.00095192979827
0.00096894217546
0.000976251137446
0.000977074829587
0.000975975465792
0.000975956680365
0.000977026129458
0.000976184772614
0.000968872853062
0.00095183838927
0.000923829079156
0.000879377579115
0.000817029501218
0.000744189536609
0.000743226022608
0.000810927510204
0.000799214648831
0.00086437582702
0.000923932588134
0.000971455483314
0.00100905069129
0.00103301448672
0.00104502849828
0.00104847017504
0.00104827621032
0.00104826174532
0.001048434332
0.00104498219958
0.00103296406712
0.00100898959462
0.000971375963353
0.000923845589542
0.000864291601181
0.000799136160822
0.000810855095956
0.000841188106714
0.000828388908695
0.000890761704864
0.000951970153032
0.00100906471121
0.00105442775822
0.00108550653262
0.001102307539
0.00110803749747
0.00110853876044
0.0011085243637
0.00110800328353
0.00110226630806
0.00108546637657
0.00105438523931
0.001009006096
0.0009518785434
0.000890649028071
0.000828264201637
0.000841046688578
0.000849403628585
0.000840314530763
0.000902198519192
0.00096898625002
0.00103303575991
0.00108552429603
0.00112272278734
0.00114309839817
0.00114989959882
0.00115032073989
0.00115030590383
0.00114986619668
0.0011430599257
0.00112268700825
0.00108549224003
0.00103299519824
0.000968921413944
0.000902080341984
0.000840166764983
0.000849214206451
0.000849745039347
0.000843576765858
0.0009045025321
0.000976324172166
0.00104506890353
0.00110237033589
0.00114317352145
0.00116478609698
0.00117071838378
0.00116995046768
0.00116994187472
0.00117070118826
0.00116476766867
0.00114315224932
0.00110235130761
0.00104504480928
0.000976273294041
0.000904407319682
0.000843449665985
0.000849564937153
0.000851284113382
0.000844367627021
0.000902845757517
0.000977160864774
0.0010485409989
0.00110816375298
0.00115007849868
0.00117084922519
0.00117450645782
0.00117169498009
0.0011716986823
0.00117452059383
0.00117087169186
0.00115009685476
0.0011081771402
0.0010485470383
0.000977149249701
0.000902811184306
0.000844316219078
0.000851194924811
0.000854171000239
0.000844884036027
0.000901018098433
0.000976045448719
0.00104835943488
0.00110870327766
0.0011505692565
0.00117016564798
0.00117179015517
0.00116723712642
0.00116725498449
0.00117184267006
0.00117024405854
0.00115065172554
0.00110877253486
0.00104841578378
0.000976094993397
0.000901073562776
0.00084494942959
0.000854237707573
0.000853966037215
0.000844726150282
0.000900898432188
0.000975963563737
0.00104829587064
0.00110864778963
0.00115052401718
0.00117014393105
0.00117180051878
0.0011672760183
0.00116730749025
0.00117188844325
0.00117027528129
0.00115067031266
0.00110877665959
0.0010484083516
0.000976078577155
0.000901046598067
0.000844909850438
0.000854191988729
0.000850774054877
0.000843964728242
0.000902538380871
0.000976953013314
0.00104838498846
0.00110803139916
0.00114997489205
0.00117080281104
0.0011745394984
0.00117179969985
0.00117183614398
0.00117463977226
0.0011709508634
0.00115013982823
0.00110818223421
0.00104852259963
0.000977102048707
0.000902736809232
0.000844210941888
0.000851080429024
0.000849106820224
0.00084304739691
0.000904091196808
0.000976049907107
0.00104486852154
0.0011022062855
0.00114304914911
0.00116474140037
0.00117078146568
0.00117010952477
0.00117014372361
0.001170876347
0.00116487968395
0.00114320045877
0.00110234636378
0.00104500051844
0.00097619814446
0.000904292308545
0.000843293520616
0.000849404791113
0.000848804400565
0.000839776822598
0.000901764533812
0.00096870431312
0.00103282237718
0.00108535791823
0.00112260313843
0.00114306253195
0.00114997549939
0.00115049954979
0.0011505289402
0.0011500571034
0.00114317914602
0.00112272767733
0.00108547226875
0.00103293134469
0.000968825449084
0.000901931194811
0.00083997381835
0.000849027703281
0.000840722775504
0.00082792394443
0.000890358458302
0.000951651943956
0.00100883892534
0.00105426402662
0.00108539166845
0.00110226098256
0.00110808199029
0.00110867000068
0.00110869620347
0.00110815176337
0.00110235609292
0.00108548980676
0.00105435141425
0.00100892161469
0.000951745536514
0.000890470467328
0.000828044713592
0.000840841655421
0.000810608071819
0.000798856665809
0.000864042266144
0.000923639895152
0.000971219218783
0.00100888053995
0.00103289369428
0.00104495969285
0.00104847427831
0.00104835571785
0.00104838069719
0.00104853835537
0.00104504236044
0.00103297414137
0.00100894655676
0.000971271999098
0.000923692222827
0.000864096811133
0.000798903324467
0.000810635665683
0.000743027092809
0.000743967337935
0.000816825721263
0.000879201874388
0.000923689309228
0.000951740948424
0.000968809826822
0.000976173533603
0.00097706998589
0.000976044820015
0.000976071611181
0.00097713621173
0.000976254384584
0.000968882761498
0.000951790514284
0.000923717507138
0.000879219274281
0.000816835093542
0.000743961704694
0.00074300167767
0.000625435862579
0.000658102009132
0.000746024976994
0.000816877375315
0.000864137971253
0.000890486651526
0.000901910381303
0.000904238786676
0.000902662484006
0.000900966088786
0.000900996860694
0.000902735333332
0.000904321771823
0.000901975735141
0.000890521005373
0.000864144135415
0.000816866264978
0.000746002280028
0.000658066503683
0.000625390971294
0.000454453350046
0.00054468156686
0.000658158941278
0.00074406940632
0.000798991150402
0.000828075406255
0.000839929139173
0.000843177192269
0.000844042339353
0.000844715718841
0.00084474863084
0.000844116175558
0.000843254420635
0.000839980768049
0.000828090090612
0.000798973696716
0.000744033862403
0.000658114535583
0.000544632376007
0.000454405899133
0.000257087670716
0.000454523484328
0.000625554501197
0.000743182500016
0.000810791969693
0.000840925403656
0.000849013818884
0.000849289735894
0.000850887676282
0.000853964570066
0.000854006134768
0.000850976468149
0.000849379754308
0.000849074927016
0.000840947554864
0.000810780086085
0.000743152369036
0.000625515861573
0.00045448213298
0.000257051304653
0.00032538404714
0.000619659114831
0.000873589538208
0.00105048306726
0.0011595361255
0.00122036985964
0.00125904940171
0.00129844951379
0.00134276248908
0.00137478186518
0.00137471491453
0.00134256639156
0.00129815424645
0.00125870925539
0.00122008057233
0.00115936301764
0.00105042975602
0.000873616668749
0.000619710067029
0.000325405882663
0.000619672471497
0.000714803608782
0.000865765791361
0.000985728496682
0.00106674619265
0.00111409021817
0.00114072919998
0.00116012644224
0.00117820494947
0.00119078145367
0.0011907324877
0.00117806427134
0.00115992040251
0.00114050223799
0.00111390275675
0.00106664036048
0.000985707184741
0.000865801922326
0.000714861945247
0.000619745201294
0.000873589076772
0.000865785537388
0.000959866207614
0.00103981515361
0.00109412736635
0.00112483848848
0.00113951425061
0.00114531043783
0.001147955379
0.00114948312266
0.00114944518073
0.00114784960282
0.00114515845314
0.00113934737504
0.0011246937889
0.00109403216004
0.00103978230802
0.000959884561354
0.000865831062396
0.000873656394483
0.00105046136691
0.000985759638366
0.00103983513079
0.00109166848839
0.00113058412098
0.00115670621094
0.00117541060346
0.00118297508234
0.00118407903139
0.00118324748414
0.00118322522605
0.00118401953605
0.00118289343417
0.00117532350551
0.00115663606429
0.00113050036717
0.00109161078069
0.00103981380926
0.000985764899217
0.0010504753586
0.00115954577817
0.001066807861
0.00109417597001
0.00113060443738
0.00116960901688
0.00120269978213
0.00122517457599
0.00123550527544
0.00123686075188
0.00123523737576
0.00123522165212
0.00123682036911
0.00123545375792
0.00122512317382
0.0012026584443
0.00116957649064
0.00113053297463
0.00109410696196
0.00106675130069
0.0011594703181
0.00122051559472
0.00111423291548
0.00112493567954
0.00115672802277
0.00120270011198
0.00124307234865
0.00127111330903
0.0012839180829
0.00128523119962
0.00128299570473
0.00128297716868
0.00128518375463
0.00128385861125
0.00127106141011
0.00124303961433
0.00120267345981
0.00115668345665
0.00112482898408
0.00111410938283
0.00122033340967
0.00125943427496
0.00114100048231
0.00113967676124
0.0011754451244
0.00122516352361
0.00127111932954
0.00130292344875
0.00131635534254
0.00131631712509
0.00131290042478
0.00131287947405
0.00131626473803
0.00131628868042
0.00130286109116
0.00127108231714
0.00122514091431
0.00117539715223
0.00113955557872
0.00114083756183
0.00125917593554
0.00129904348077
0.00116050684381
0.00114552691241
0.00118301348819
0.00123548964736
0.00128397607575
0.00131646847185
0.00132851669012
0.00132580942908
0.00132031840101
0.00132031000179
0.00132578836799
0.00132848899056
0.001316423686
0.0012839476692
0.00123548060198
0.00118298407898
0.00114543389043
0.00116037363255
0.00129881729393
0.0013433217571
0.00117856863917
0.00114816994277
0.00118412672895
0.00123688445035
0.00128537604653
0.0013165799911
0.00132601111781
0.00131971284227
0.00131172773739
0.00131173816501
0.00131974060983
0.00132604675912
0.00131659544564
0.00128538729478
0.0012369010798
0.00118414014622
0.0011481602897
0.0011785560844
0.00134327350525
0.00137508230792
0.00119099482373
0.00114961909581
0.00118328120724
0.001235299372
0.00128320282869
0.00131326115165
0.00132062966967
0.0013118579584
0.00130216749377
0.00130219337531
0.00131193016886
0.00132073541991
0.00131336661959
0.00128328501165
0.00123536747806
0.0011833640022
0.00114973168618
0.00119115918981
0.00137529465749
0.00137470504839
0.00119072507035
0.00114942907301
0.0011831609556
0.00123521098187
0.0012831219618
0.00131319319331
0.00132059478356
0.00131186158778
0.00130220049836
0.00130223760221
0.00131196639104
0.00132075729011
0.00131337935156
0.00128327634765
0.00123534010885
0.00118331815062
0.00114966164503
0.00119105391169
0.00137514424252
0.00134232413006
0.00117785253298
0.00114766347608
0.00118381094988
0.00123665964513
0.00128517018776
0.00131640625412
0.00132591603919
0.00131971677149
0.00131180844572
0.00131184979842
0.00131983280387
0.00132609454132
0.00131660883874
0.00128534492931
0.00123681120866
0.00118400481613
0.00114796315192
0.00117826971118
0.00134287533392
0.00129771443584
0.00115953093974
0.00114482342812
0.0011825742064
0.00123518194244
0.00128369384497
0.00131622300122
0.00132838803789
0.00132582334101
0.00132044253806
0.00132048104076
0.00132593350889
0.00132855353315
0.00131640159532
0.00128384677718
0.00123531989487
0.00118276343114
0.00114512598011
0.00115994478955
0.00129823999576
0.00125810441389
0.00113997285971
0.00113890007198
0.00117494371869
0.0012248053504
0.00127080635153
0.00130265094243
0.00131620521853
0.00131632561121
0.00131303871082
0.0013130706363
0.00131641775394
0.00131633945057
0.00130278764818
0.00127091855748
0.00122491376138
0.00117510385985
0.0011391572225
0.00114031080606
0.00125850048449
0.00121939646675
0.00111330083048
0.00112417930796
0.00115622250729
0.00120231861177
0.00124275420213
0.00127082827516
0.00128371758914
0.00128515433847
0.00128303412094
0.00128306189638
0.00128522930864
0.00128381733395
0.00127092275303
0.00124282869809
0.00120240114605
0.0011563404263
0.00112435984697
0.00111351889133
0.00121960911938
0.00115868297455
0.00106603333522
0.0010934881919
0.00113003616715
0.00116920597677
0.0012023506422
0.00122485389158
0.00123522622009
0.00123666852441
0.00123514506808
0.00123516998934
0.00123673365291
0.00123530663306
0.00122492612386
0.00120240993884
0.0011692702841
0.00113011244184
0.00109358875682
0.00106613266465
0.00115873076337
0.00104981649596
0.000985153421124
0.00103924859115
0.00109111503096
0.00113008549494
0.0011562899782
0.0011750214046
0.00118263577949
0.00118382247065
0.00118308465204
0.00118311283808
0.00118389240487
0.00118271712582
0.00117508814464
0.00115633680341
0.00113011219314
0.00109114265915
0.00103927947621
0.000985163692833
0.00104976297989
0.000873104111205
0.000865335653157
0.000959391354274
0.00103930115482
0.00109358152605
0.00112428706061
0.00113899272465
0.00114486673968
0.00114761419028
0.00114924513438
0.00114927902734
0.0011476933541
0.00114495034028
0.00113904727644
0.00112430247576
0.00109356881435
0.00103927877828
0.000959363324898
0.000865288146195
0.000873009988912
0.000619318375985
0.000714483258042
0.000865386604121
0.000985245089028
0.00106614328461
0.00111339097951
0.00113999650542
0.00115943032269
0.0011775756111
0.00119023091153
0.00119026393687
0.0011776454915
0.00115948961593
0.00114001252847
0.00111335764786
0.00106607511854
0.000985165594085
0.000865305836546
0.000714400499072
0.00061922046703
0.000325152430149
0.000619377873045
0.000873210249267
0.00104995020451
0.00115881693332
0.00121948252316
0.0012580751731
0.00129747475316
0.00134180193302
0.00137385920855
0.00137389397198
0.00134186356351
0.00129750606025
0.00125804905833
0.00121940145461
0.00115870038751
0.00104982763419
0.000873093604922
0.000619275911218
0.000325077707856
0.0004204867597
0.000868014701788
0.00125716162628
0.00154454283628
0.00174990443082
0.00190066596648
0.00203466238077
0.0021774124828
0.00231311148301
0.00239874251034
0.00239866534055
0.00231292373035
0.00217710094288
0.00203424876653
0.00190029329177
0.00174968776782
0.001544492954
0.00125720998878
0.000868087573347
0.000420513866967
0.000868074064978
0.000966133510042
0.00118060219917
0.00136528723451
0.00150170197369
0.00159448483465
0.00166286881068
0.00172555139793
0.00178299702901
0.00181931216155
0.00181926130914
0.00178284798412
0.00172531820939
0.00166260902001
0.00159428946271
0.00150163700416
0.00136534546447
0.00118072587454
0.00096625723347
0.000868185303075
0.00125720913754
0.00118064574229
0.00128723275364
0.00138586410482
0.0014527069598
0.001490625505
0.00151100017288
0.00152424359328
0.00153513606327
0.00154284236961
0.00154279991642
0.00153499596186
0.00152403654655
0.00151077670049
0.00149045290778
0.0014526322969
0.00138590557965
0.00128735655931
0.00118078853718
0.00125734745332
0.00154456748315
0.00136533392207
0.00138588481801
0.00141843135742
0.00144372608896
0.00146393324219
0.00147654322597
0.00147988720824
0.0014773364483
0.00147438387409
0.00147435382992
0.00147725207792
0.00147976862137