/*--------------------------------*- C++ -*----------------------------------*\
| =========                 |                                                 |
| \\      /  F ield         | OpenFOAM: The Open Source CFD Toolbox           |
|  \\    /   O peration     | Version:  3.0.1                                 |
|   \\  /    A nd           | Web:      www.OpenFOAM.org                      |
|    \\/     M anipulation  |                                                 |
\*---------------------------------------------------------------------------*/
FoamFile
{
    version     2.0;
    format      ascii;
    class       volScalarField;
    location    "6.3";
    object      epsilon;
}
// * * * * * * * * * * * * * * * * * * * * * * * * * * * * * * * * * * * * * //

dimensions      [0 2 -3 0 0 0 0];

internalField   nonuniform List<scalar> 
7968
(
0.000119291750279
0.00015181786287
0.000179123774087
0.000196907814824
0.000207026575755
0.000211397345082
0.000212053192054
0.000210377571363
0.000207932344
0.000205845493603
0.000205634744278
0.000207550317502
0.000209934037564
0.00021160255563
0.000210987805329
0.000206686219111
0.000196668061187
0.000178987298733
0.000151756166791
0.000119276954893
0.000151856639059
0.00028788489324
0.000389633602852
0.00045082291981
0.00048090162716
0.000489467220612
0.000486107783605
0.000477363148667
0.00046888990124
0.000463785305875
0.000463420158102
0.000467956803558
0.00047605839422
0.000484638719967
0.000487999739573
0.000479523965316
0.000449659800215
0.000388800398499
0.000287430977514
0.000151710170293
0.000179232774883
0.000389669346315
0.000545896268769
0.000639595117928
0.000685550169267
0.000698677360176
0.000693333606474
0.000680792483375
0.0006691917055
0.000662435388915
0.000661882802559
0.00066775762526
0.000678800121893
0.00069110897793
0.000696429795585
0.000683403138814
0.000637709863614
0.000544481990607
0.000388864524698
0.000178939530482
0.000197045860389
0.000450908005212
0.000639649768981
0.000751276938618
0.000803599157653
0.000815662246495
0.000806096065462
0.000789571830902
0.000775824212149
0.000768184669963
0.000767433774215
0.000773894401094
0.000786973833905
0.000803271228143
0.00081286522381
0.000800885522944
0.000748803934984
0.000637707662408
0.000449732248158
0.000196580897659
0.000207186721056
0.000481004238044
0.000685650174697
0.000803629317278
0.000853755370437
0.000861290582002
0.000865043013288
0.000858662571449
0.000849469821695
0.000843114864521
0.000842345291381
0.000847557207245
0.000856198821352
0.000862522741007
0.000858792579637
0.000850813999284
0.000800793477622
0.000683291143139
0.000479481066008
0.000206547635755
0.000211573753412
0.000489597519129
0.000698776801621
0.000815590108206
0.000861129398431
0.000891584939508
0.000900850877433
0.000895724708268
0.000885996536262
0.000878809188591
0.000877859479313
0.000883685737425
0.000892854658978
0.000898110451692
0.00088919401401
0.000858880918978
0.00081276126409
0.000696242594004
0.000487884329884
0.000210808611378
0.000212229020263
0.0004862433113
0.000693386137166
0.000805836991561
0.000864755412439
0.000900705728259
0.000910010310397
0.000902473809353
0.000889813536621
0.00088057919154
0.000879385561575
0.000886956234601
0.000899006513566
0.000906847419223
0.000898188908321
0.000862666349049
0.000803227435128
0.000690869211014
0.000484458924984
0.000211407516395
0.000210545482134
0.000477540015225
0.000680887463533
0.000789303871256
0.000858374631767
0.000895620472171
0.000902551638097
0.000890734330143
0.000873641142749
0.000861544017796
0.000860091317388
0.000870209634677
0.000886580724459
0.000898839342095
0.000892803033072
0.000856256788808
0.000786864751332
0.000678423178908
0.000475759548716
0.000209720451976
0.000208098639889
0.000469184420502
0.000669509399861
0.000775895703478
0.000849492700463
0.000886306360763
0.000890426089474
0.00087425650443
0.000852560946895
0.000836701217743
0.000834960983603
0.000848529754018
0.00086948288796
0.000886146255711
0.000883103797771
0.000847179987673
0.000773341598353
0.000667020210688
0.000467414870187
0.000207288625824
0.00020604042092
0.000464261559102
0.000663108473969
0.000768840485237
0.000843709401417
0.000879858546569
0.000882138722317
0.000863281383875
0.000837943152963
0.000818764697416
0.000816779236428
0.000833467639815
0.000858039364302
0.000877451812913
0.000876354335399
0.000841195284321
0.000766098322841
0.000660544263378
0.000462469895704
0.000205223050301
0.0002059392324
0.000464114727318
0.000662942532853
0.000768684056193
0.00084355459722
0.00087971250504
0.0008819952489
0.000863125320755
0.000837749945047
0.000818523268741
0.000816528664565
0.000833259402938
0.000857868752775
0.000877293474663
0.000876191996565
0.000841017945422
0.00076589980394
0.000660325972323
0.000462273679303
0.00020509054087
0.000207891986982
0.000468785237562
0.000669037750485
0.000775438503306
0.000849052997192
0.000885893695885
0.000890025849456
0.000873837437009
0.000852082550632
0.000836148086004
0.0008343916092
0.000848022194894
0.000869034386148
0.000885714132661
0.000882653694158
0.000846685975985
0.000772781496663
0.000666424596456
0.000466902503626
0.000207021506855
0.000210285096586
0.000476928048455
0.000680122144451
0.000788514541792
0.000857643820506
0.000894927085703
0.00090187122555
0.000890028230396
0.000872895038046
0.000860738520388
0.000859270230848
0.000869432513594
0.000885839580396
0.000898119046281
0.000892060741644
0.000855454270612
0.000785942860889
0.000677501449004
0.000475005441436
0.000209389088876
0.000211954772014
0.000485493745774
0.00069239117726
0.000804734399806
0.000863754275341
0.000899748487823
0.000909065137713
0.000901504741714
0.000888803137835
0.000879528774804
0.000878319592183
0.000885910811826
0.000897992801655
0.000905850904054
0.00089717133753
0.000861580841697
0.000801976154801
0.000689704469761
0.000483554353877
0.000211061190208
0.000211325700115
0.000488809397644
0.000697669175003
0.000814292252317
0.000859872362292
0.000890392886384
0.000899693732171
0.000894550898697
0.000884791205727
0.000877575180783
0.000876608143398
0.000882437063699
0.000891620255643
0.000896883162852
0.000887928029301
0.00085752537333
0.000811296098103
0.000694948376671
0.000486933067558
0.000210492953527
0.000206991464748
0.000480262263012
0.000684573777605
0.000802316139878
0.000852229482855
0.000859895058776
0.000863697366414
0.000857305443114
0.000848079156004
0.000841694440335
0.000840901776411
0.000846106492487
0.000854752228907
0.000861072023395
0.000857298361621
0.000849111905374
0.000799276615818
0.000682006617784
0.000478572703664
0.000206291534393
0.000196923235333
0.000450327431274
0.000638763486512
0.000750147117322
0.00080223365061
0.00081407702433
0.000804336278558
0.000787752622084
0.000773950196499
0.000766267609593
0.000765475393757
0.000771917209994
0.000784990862296
0.000801310118552
0.000811066242188
0.000799286002844
0.000747432836761
0.000636597833739
0.000448984101122
0.000196408035858
0.000179175401481
0.000389306453835
0.000545310891622
0.000638796974488
0.000684533130953
0.000697460984013
0.000691958185844
0.000679305324723
0.00066761438238
0.000660788350815
0.000660191591831
0.000666059490407
0.000677128260057
0.000689515631685
0.00069497921397
0.00068213677227
0.000636673221246
0.000543688839731
0.000388351857464
0.000178846739437
0.000151852538777
0.000287747376841
0.000389388060787
0.000450437800402
0.000480337593078
0.000488744530828
0.000485261641905
0.000476417060478
0.000467854903703
0.00046267927326
0.000462273736991
0.000466816896539
0.000474957404361
0.000483614775371
0.000487089678586
0.000478767360029
0.000449100670188
0.000388403754292
0.000287193615428
0.000151686954004
0.000119298662436
0.000151814725621
0.000179098656613
0.000196842250335
0.000206898130247
0.000211198154041
0.000211794865933
0.000210065759949
0.00020757150506
0.000205440869206
0.000205201558752
0.000207129995693
0.000209544265457
0.000211260655449
0.000210707236893
0.000206482170594
0.000196540570676
0.000178913970331
0.000151721019622
0.000119272760468
0.000146990067311
0.000252639223338
0.000340929669011
0.000401106580124
0.000437276033122
0.000455253780962
0.000461099553702
0.0004600140412
0.000456590730674
0.000453909486208
0.000453617718675
0.000455849951167
0.000458999004744
0.000459977270634
0.000454157672609
0.000436299371645
0.000400338822861
0.000340419545866
0.000252383375335
0.000146932895432
0.000252775323617
0.000316793612464
0.00039148049198
0.000445868740256
0.000480158329091
0.00049854105634
0.000506040459416
0.000507100108973
0.000505586417466
0.000504087809244
0.000503903101636
0.000505106438666
0.000506429723239
0.000505285383525
0.000497780875249
0.00047942789254
0.000445195094024
0.000390861621582
0.000316194187361
0.000252177535399
0.000341167418403
0.000391632432304
0.000469607307122
0.000528352989013
0.00056583830576
0.000585923874646
0.000593956099531
0.000595004039448
0.000593284641578
0.000591593792382
0.000591382861222
0.000592735809023
0.000594245387861
0.000593107134554
0.000585056696503
0.000564965609201
0.000527469318395
0.000468698606477
0.000390661368285
0.00034014939131
0.000401400535386
0.000446128319996
0.000528462021388
0.000591668175106
0.000632491705324
0.000654851663252
0.00066443159378
0.000666682653348
0.000665829145123
0.000664484943825
0.000664253053166
0.000665228703043
0.00066585848283
0.000663488092081
0.000653897798378
0.000631512374974
0.000590625639434
0.000527322018265
0.000444849420659
0.000400034889347
0.000437604821239
0.00048048215194
0.000566004216716
0.000632535297335
0.00067646241243
0.000702933252145
0.000718472057851
0.000724707299004
0.000725600837044
0.000724803655246
0.000724551299098
0.000724957852315
0.000723847643308
0.000717565014626
0.000702054900538
0.00067548155613
0.000631435322077
0.000564725422409
0.000478978038149
0.00043595254923
0.000455592059492
0.000498884587712
0.000586090874577
0.000654865444473
0.000702898473445
0.000737160029234
0.000757414661361
0.000766200264132
0.000768027804174
0.000767389391674
0.000767097307778
0.000767291492744
0.000765212552914
0.000756388397397
0.000736250906457
0.000702063899184
0.000653814116065
0.000584775606206
0.000497262598925
0.000453762398289
0.000461423991117
0.00050637322201
0.000594092171833
0.00066438689119
0.000718400657216
0.000757393014676
0.00078045142462
0.000790270762713
0.000792013315735
0.000791035775334
0.000790695978001
0.0007911643378
0.000789105699016
0.000779225149085
0.00075635749844
0.000717569885655
0.000663419449482
0.000592806957551
0.000504723097657
0.000459535725395
0.000460339432111
0.000507430016546
0.000595134574922
0.000666626869681
0.000724655304663
0.000766244619269
0.000790377275356
0.000799840600595
0.000800575948393
0.000798961108695
0.000798581253896
0.000799639894361
0.000798486847077
0.000788927277395
0.000765038853483
0.000723767547771
0.000665752320542
0.000593887208074
0.000505800650907
0.000458467708008
0.000456963950915
0.000505947960296
0.000593470627768
0.000665850221191
0.000725656271375
0.000768240174554
0.000792344024626
0.000800828951714
0.000800537725708
0.000797713752191
0.00079725840332
0.000799447640403
0.000799327384487
0.0007906903656
0.00076686871504
0.000724681661294
0.000664961041822
0.000592226418625
0.000504340754501
0.000455125996676
0.000454386159314
0.0005045164907
0.000591886803632
0.000664645724645
0.000725029600668
0.000767826372651
0.000791641992481
0.00079952079001
0.000798051736277
0.000794090332771
0.000793566231823
0.000796821839472
0.000797863530824
0.000789845580008
0.000766343909816
0.000723986410535
0.000663720748987
0.000590622359614
0.000502906459446
0.000452550275164
0.000454245610017
0.000504422104984
0.000591799092869
0.000664563247761
0.000724949337511
0.000767745612303
0.000791555530888
0.000799422279157
0.000797931522056
0.000793949537872
0.000793424040766
0.000796697698728
0.000797758348462
0.00078975072598
0.000766255167308
0.00072389789994
0.000663627024775
0.000590516193695
0.000502785399828
0.000452370489031
0.000456584447559
0.000505685276113
0.000593223168992
0.000665616956462
0.000725433043781
0.000768020742078
0.00079211503767
0.000800577035274
0.00080024905899
0.000797388614526
0.000796930151818
0.000799147592779
0.000799058457765
0.000790440468488
0.000766629271433
0.000724438034565
0.000664699922421
0.000591934402484
0.000504015515744
0.000454658546488
0.000459780291461
0.000507030793576
0.000594747936332
0.000666257406248
0.000724312488479
0.000765920496471
0.000790054973127
0.000799498246512
0.000800214435802
0.000798569973179
0.000798184244653
0.000799261678016
0.000798117876187
0.000788575458446
0.000764686890412
0.000723396223747
0.000665344739247
0.000593442798428
0.000505322056732
0.000457801796764
0.000460768184592
0.00050588827329
0.000593601631517
0.000663898695044
0.000717963057586
0.000756997545804
0.000780080800567
0.000789900234878
0.000791627010536
0.000790629262823
0.000790281624002
0.000790757194324
0.000788706356058
0.000778822645713
0.000755928780366
0.000717097071413
0.000662883696682
0.000592251626682
0.000504152194961
0.000458769544119
0.000454927874408
0.000498372903872
0.000585543023404
0.000654294354964
0.000702375760924
0.000736696446368
0.000756997980405
0.000765805529698
0.000767634327615
0.000766987270176
0.000766687328104
0.000766878540321
0.000764791186046
0.000755938175427
0.000735748871678
0.000701499026082
0.000653186820248
0.00058415551759
0.000496660520475
0.000452988377184
0.000437011248276
0.000479994602241
0.000565448564695
0.000631925887873
0.000675836467591
0.000702379096458
0.000717965168959
0.000724235062674
0.000725139296739
0.000724338933137
0.000724077565404
0.000724473683795
0.000723343987528
0.00071701812045
0.000701455520839
0.000674797188301
0.00063075569241
0.000564086526972
0.000478394171631
0.000435250224687
0.000400946827773
0.000445714553258
0.000527947177843
0.00059107186669
0.000631841008791
0.000654174683624
0.000663752838158
0.000666050300333
0.000665204275098
0.000663854291547
0.000663610645987
0.000664572743882
0.000665179139636
0.000662746369492
0.000653149396919
0.000630781910373
0.000589941572007
0.000526712378693
0.000444335666713
0.000399479801962
0.000340881400972
0.00039131161266
0.000469161901243
0.00052780224197
0.0005652054784
0.000585229623714
0.000593218582684
0.000594238440481
0.000592489270193
0.000590771139202
0.000590542726642
0.000591892926445
0.000593408390041
0.000592283680419
0.00058426843751
0.000564233110131
0.000526816621962
0.00046815190716
0.000390244329379
0.000339779063328
0.000252656950839
0.000316562420789
0.000391110165764
0.000445374438329
0.000479553595056
0.000497843099008
0.000505268322102
0.000506267878028
0.000504698716609
0.000503155814143
0.00050294775626
0.000504156303227
0.000505504664307
0.000504405818447
0.000496969609645
0.00047870824206
0.00044459034817
0.000390390512336
0.000315878448306
0.000252004741411
0.000146987260652
0.000252458055205
0.000340607500506
0.000400665538758
0.000436713715184
0.000454574029312
0.000460320019502
0.000459145225836
0.000455635933512
0.000452884534338
0.000452558345454
0.000454806311789
0.000458003403782
0.000459058743807
0.000453339623354
0.000435604817547
0.000399780355124
0.000339999870263
0.00025213471497
0.000146914339703
0.000171094814075
0.00033081922263
0.000466738633851
0.000561495813435
0.00062049515813
0.000652220540348
0.00066558671048
0.000668483893686
0.000667332162566
0.000665888172033
0.000665529372621
0.000666348071007
0.000667039486108
0.000663885825752
0.00065046355469
0.000618848402354
0.000560117175236
0.000465747716652
0.000330275871427
0.000171001069981
0.000331075837225
0.000387582975334
0.000471829586466
0.000537782786439
0.000582855048624
0.000610166604356
0.0006244081041
0.000630255126883
0.000631799726192
0.000631831886448
0.000631650378064
0.000631302094918
0.000629529273026
0.000623551655492
0.000609265277044
0.000581956778742
0.000536903050341
0.000470940532738
0.000386600588856
0.000329886121119
0.000467161038086
0.000472083542372
0.000540196370038
0.000598308165576
0.000639554218858
0.000665271804488
0.000679157800752
0.000685175515053
0.00068683461356
0.000686852937658
0.000686673407296
0.000686348359508
0.000684480300224
0.000678351063621
0.000664397438756
0.000638610975393
0.000597251606515
0.000538957111045
0.000470549353761
0.000465184050333
0.000562027640372
0.000538214843935
0.000598494609265
0.000653440053724
0.000693809160239
0.000720014348078
0.000735255833407
0.000742783209432
0.000745207884117
0.000745486876442
0.000745293976815
0.000744688260454
0.00074204954303
0.000734449256116
0.000719104268671
0.000692791631302
0.000652221395357
0.000596965996271
0.000536242589604
0.000559462082017
0.000621118898054
0.00058340363996
0.000639860168094
0.000693918131657
0.000735413909415
0.000764597152641
0.000782344239015
0.000791277894524
0.000794457240419
0.000794989163878
0.000794771419757
0.000793855627214
0.000790360169249
0.000781316670515
0.000763618430044
0.000734364128402
0.000692617208305
0.000638139123884
0.00058111226233
0.000618080401784
0.000652906987011
0.000610773880693
0.000665632326787
0.000720155535878
0.0007646318125
0.000796756304813
0.000817018429534
0.000827340316973
0.000831053781074
0.000831694574716
0.000831445946105
0.000830325816303
0.000826065741157
0.000815439738594
0.000795415319671
0.000763530285162
0.000718845250109
0.000663814876072
0.000608292107735
0.000649560143643
0.000666302020577
0.000625030500193
0.000679530581832
0.000735398645661
0.000782425487553
0.000817196468281
0.000839364720567
0.000850501888859
0.000854285667386
0.000854788266692
0.000854528430208
0.000853449682504
0.000848803991627
0.000837035811098
0.00081519829272
0.000781121064338
0.000734140004959
0.000677691010167
0.000622479198138
0.000662831789336
0.00066923844121
0.000630886551186
0.000685569264049
0.000742981308405
0.000791543266339
0.000827981311651
0.000851138250609
0.000862314657543
0.000865569669805
0.000865579752494
0.000865323964732
0.000864691865941
0.000860331554095
0.0008481982718
0.000825341825554
0.000789915394481
0.00074160746547
0.00068371693428
0.000628349081139
0.000665791460109
0.00066816229586
0.000632460184794
0.000687288269741
0.000745517535198
0.0007949750842
0.000832162356308
0.000855545772515
0.000866246636276
0.000868509550862
0.000867780552109
0.000867529519674
0.000867594092917
0.000864081847294
0.00085227498192
0.000829153770213
0.000793109639365
0.000744053276552
0.00068541950685
0.000629961121727
0.00066480528692
0.000666839933236
0.000632548073561
0.000687400604173
0.000745939228372
0.000795721779904
0.000833110079113
0.00085641140104
0.000866634095736
0.000868157343557
0.000866841696501
0.000866589034644
0.000867199320291
0.00086436475116
0.000852998452291
0.00082995424823
0.00079374930359
0.000744416219366
0.000685507187606
0.000630059013728
0.000663529997776
0.000666662523781
0.000632448128598
0.000687322823964
0.000745877477562
0.000795671716619
0.000833067140107
0.0008563685781
0.000866579137807
0.000868082418454
0.00086675139602
0.000866500602895
0.000867125310408
0.000864304729982
0.000852947367534
0.000829904293352
0.000793691946028
0.000744344320238
0.000685410836404
0.000629926686821
0.00066329879326
0.000667643179392
0.000632168659314
0.000687062389564
0.000745339429118
0.000794833614929
0.000832048815921
0.000855441685155
0.000866123218372
0.000868352028181
0.000867596416141
0.000867348242852
0.000867429788986
0.000863940147326
0.000852148907178
0.000829020959432
0.000792949816502
0.000743850585666
0.000685149715398
0.000629595482444
0.000664169272936
0.000668426523843
0.000630435214101
0.000685214857048
0.000742701243086
0.000791329567523
0.000827837241064
0.000851050798277
0.000862240270419
0.000865477409724
0.000865466392826
0.000865208055122
0.000864581761981
0.000860224944518
0.000848074479777
0.00082516853019
0.000789675496021
0.00074129490976
0.000683307170137
0.000627805292107
0.000664841873309
0.000665304672505
0.000624477690185
0.000679080151652
0.00073503368502
0.000782141558456
0.000817020850931
0.000839300592487
0.000850503686641
0.000854302110607
0.000854796841402
0.000854530072081
0.000853442646204
0.000848769662402
0.000836933329571
0.000814989344143
0.000780804482848
0.000733737650758
0.000677180008978
0.000621826964371
0.000661694177809
0.000651856468559
0.000610186172709
0.000665118545049
0.000719693267112
0.000764251616176
0.000796483043587
0.000816864747626
0.000827274006093
0.000831022243415
0.000831665945422
0.000831411178873
0.000830277394339
0.000825974155658
0.000815253291269
0.000795102258949
0.000763112180138
0.000718339122441
0.000663234113093
0.000607598646191
0.000648366599739
0.000620140467496
0.000582837841012
0.000639317063186
0.000693384491393
0.000734918405608
0.000764174487568
0.00078200078821
0.000790991895057
0.000794198818065
0.000794733477442
0.000794507436873
0.000793576624768
0.00079004555503
0.000780935310778
0.000763152395053
0.000733822982203
0.000692028045365
0.000637518079032
0.000580433610763
0.000616954272782
0.000561229006515
0.00053771180049
0.000597946663172
0.000652848713833
0.000693203746679
0.000719422570997
0.000734732629367
0.000742256917023
0.000744679674643
0.000744950314435
0.000744746026426
0.000744130025759
0.000741479711317
0.000733874189072
0.000718451669378
0.0006921199059
0.00065155400286
0.000596325328913
0.000535621859155
0.000558517438817
0.000466603880732
0.000471651010748
0.000539648842979
0.000597661103078
0.000638838728864
0.000664513038389
0.000678374561028
0.000684361914203
0.000685988032472
0.000685977553215
0.000685780125194
0.000685452837097
0.000683592986335
0.000677480833386
0.000663544299321
0.000637797176706
0.000596502832043
0.000538302876168
0.000470001408576
0.00046449809133
0.000330795295749
0.000387200294574
0.000471262323345
0.000537058783571
0.000582000734361
0.00060920576892
0.000623362827958
0.000629139765058
0.000630617705946
0.000630598788283
0.000630389886163
0.000630045958142
0.00062830099889
0.000622375897024
0.000608167602091
0.00058096582842
0.000536048516707
0.000470253314292
0.000386111172001
0.000329514866247
0.00017108959356
0.000330411056859
0.000466055201355
0.000560615427478
0.000619435327903
0.000650995650158
0.000664221637809
0.000666998453818
0.000665732935371
0.000664202774354
0.000663798879557
0.000664628770917
0.000665376282816
0.000662326697381
0.000649047014755
0.000617605238929
0.000559070401575
0.000464924331548
0.000329771580832
0.000170976484867
0.000191162598811
0.000400430525946
0.000578160464872
0.000703047226315
0.000783156516167
0.000829347327803
0.000852661472651
0.000862624371013
0.000866532618398
0.000867940712404
0.000867602626275
0.000865538958783
0.000861076666489
0.000850711800635
0.000827214489948
0.000781078747568
0.000701268708548
0.000576877109708
0.000399728153272
0.000191059927477
0.000400871352419
0.000452893120268
0.000549573536837
0.000627885892974
0.000683584101708
0.000719455428895
0.0007402470618
0.000750800423702
0.000755468444865
0.000757117176196
0.000756950688373
0.00075498895152
0.000750075253725
0.000739362122697
0.000718513945515
0.000682646573428
0.000626953389613
0.00054857848684
0.000451651144476
0.000399037683879
0.000578874358941
0.000549946071807
0.000617358955311
0.000679115547266
0.000725121762576
0.000755621010165
0.000773821421519
0.000783157301927
0.000787091701242
0.000788276705284
0.000788094030375
0.000786586385907
0.000782426445643
0.000772969530644
0.000754711202453
0.000724129839814
0.000677958581095
0.000615912280657
0.000547979207303
0.00057583722116
0.000703965229475
0.00062850648752
0.000679378882194
0.000732015639946
0.000773167505313
0.000801651200655
0.000819866820369
0.000829175388922
0.00083291927498
0.000833891273519
0.00083364516861
0.000832230917265
0.000828092196101
0.000818603904745
0.000800523512771
0.000772041059752
0.000730626133865
0.000677547852472
0.00062596520772
0.000699993340982
0.000784288454494
0.000684369327963
0.000725566343691
0.000773338238633
0.000813224866715
0.000842295386569
0.000860507686019
0.000869805364819
0.000873351090349
0.000874124434467
0.000873795288985
0.000872353041792
0.000867981455695
0.000858119247246
0.000840170177307
0.000811738949838
0.000771780499036
0.000723445020305
0.000681392767114
0.000779509088686
0.000830668652548
0.000720334801221
0.000756171189973
0.000801908785005
0.000842546278328
0.00087245217373
0.000891136280839
0.000900363158744
0.000903587054126
0.000904094896324
0.000903694711721
0.00090223695407
0.000897565299918
0.000887046541272
0.000868494746816
0.000839887703665
0.000800107175237
0.000753845517218
0.000717062026179
0.000825311669415
0.000854099888073
0.000741160409257
0.000774420001246
0.000820320779939
0.000861423617478
0.000892104510505
0.000911081584842
0.000920055148006
0.000922805441933
0.000923007108923
0.000922600011935
0.000921233952283
0.000916357002732
0.000905292408765
0.000886154605345
0.000857216870746
0.00081795440551
0.000771964192613
0.000737748392829
0.00084848625304
0.000864121827588
0.00075171948033
0.000783797506932
0.000830014526501
0.000871645426996
0.000902792547209
0.000921793261034
0.000930240012003
0.00093232747333
0.00093215559354
0.000931802325834
0.000930805385514
0.000926136347597
0.000914879942744
0.000895402806209
0.000866233684447
0.000827042167374
0.000781278055634
0.000748322651986
0.000858583344655
0.000868039382876
0.000756390839706
0.000787809733156
0.000834104299334
0.000875925353341
0.000907148857771
0.000925893789873
0.000933715135281
0.000935000906473
0.000934376066791
0.000934091936068
0.000933601300734
0.000929552841548
0.000918580593778
0.000899133589409
0.000869945100778
0.000830807022118
0.000785249055113
0.000753080542209
0.000862770435881
0.000869478525437
0.000758063214645
0.000789104473324
0.000835325547908
0.000877129824303
0.000908264269483
0.000926752944473
0.000934144784973
0.000934917125994
0.000933966829288
0.000933723980435
0.000933559643528
0.000929960953882
0.000919339313819
0.000900074293497
0.000870976644335
0.000831911496514
0.000786507576373
0.000754800500256
0.000864393349634
0.000869288823815
0.000757966675282
0.000789038823115
0.000835285884801
0.000877114413126
0.000908266640625
0.000926761888669
0.000934139090632
0.000934886534253
0.000933919504838
0.000933681461653
0.000933534610026
0.000929951632826
0.000919338544906
0.000900069736865
0.000870954864273
0.000831862498834
0.000786420806296
0.00075466237299
0.000864126084407
0.0008674443113
0.000756094109008
0.000787610745159
0.000833986066685
0.000875886634795
0.000907178242915
0.000925955675041
0.000933757393173
0.00093500207961
0.000934347555726
0.00093407064713
0.000933594478315
0.00092957435498
0.000918615347591
0.000899139843336
0.000869889714972
0.000830667268836
0.000785002340737
0.000752691967012
0.000862013171914
0.00086315638979
0.000751253926551
0.000783480165702
0.000829834189399
0.000871620133861
0.000902928207036
0.000922051054451
0.000930527529889
0.000932587603083
0.000932390004113
0.000932035280949
0.000931044643784
0.000926378216374
0.000915078168316
0.000895493735489
0.000866181787429
0.000826832245408
0.000780902099097
0.000747742231643
0.000857429551854
0.000852891816903
0.000740593781495
0.000774014896948
0.000820076692413
0.000861399485691
0.000892337163892
0.000911545936819
0.000920640930204
0.000923411950359
0.000923599460724
0.000923182902849
0.000921802508109
0.000916877810937
0.000905682622675
0.000886335579841
0.000857153061295
0.000817671020619
0.000771493854431
0.000737056390471
0.000847086752999
0.000829392797631
0.000719744777896
0.000755708488887
0.000801553864785
0.00084240960059
0.00087260611122
0.000891566009572
0.000900964340501
0.00090424400319
0.000904753976886
0.000904347278538
0.000902870200714
0.000898122277269
0.000887420124691
0.000868590291438
0.00083970504268
0.000799708479776
0.000753308918283
0.000716336208331
0.000823837286895
0.000783106645885
0.000683813428545
0.000725068790761
0.000772882945879
0.000812904520552
0.000842149282894
0.00086058991801
0.000870046624903
0.000873651689988
0.000874431478352
0.000874093048372
0.000872629747497
0.000868183193332
0.000858148243693
0.000839968455697
0.000811367741129
0.000771270325435
0.000722860942835
0.000680694156367
0.000778121472072
0.000702997846086
0.000628011771233
0.000678855399992
0.000731463009732
0.00077262238222
0.000801148301727
0.000819463102454
0.000828842652409
0.000832609111796
0.000833576950338
0.00083331883942
0.000831889310796
0.000827710967124
0.00081813716544
0.000799953389251
0.000771426765962
0.000729993689075
0.000676920421098
0.000625326033509
0.000698823120355
0.000578185767636
0.000549500688514
0.000616795691533
0.000678450468917
0.000724391218992
0.000754850221092
0.00077302004449
0.000782322897956
0.000786221145681
0.00078737655173
0.000787173974525
0.000785661743313
0.00078150804918
0.000772067417568
0.00075383112852
0.000723287436701
0.000677179328879
0.000615227330272
0.000547394762161
0.000574971236566
0.000400506915498
0.000452442675509
0.00054891667463
0.000627052361441
0.000682601302171
0.000718344459821
0.000739028901222
0.000749496210756
0.000754085718981
0.000755680041924
0.000755480616456
0.000753518296647
0.000748632260015
0.000737981735736
0.000717232916333
0.000681496901396
0.000625963964604
0.000547779597613
0.000451071148495
0.000398548038347
0.000191187473153
0.00039984043783
0.000577199608584
0.000701817998102
0.000781670363567
0.000827620129699
0.000850738640571
0.000860557958299
0.000864340947828
0.000865659535695
0.000865259364472
0.000863183149944
0.000858761486524
0.00084851778953
0.000825223220097
0.000779344668904
0.00069981796312
0.000575730760162
0.000399013221406
0.000191061519394
0.000210764089062
0.000473893293062
0.000694451599115
0.000850467686785
0.000954183617614
0.00101869121526
0.00105637659821
0.00107742087139
0.00108925025938
0.00109491363381
0.00109476589472
0.00108875665295
0.00107657094795
0.00105511518763
0.0010171039203
0.000952521385519
0.00084908001873
0.000693630231232
0.000473537734828
0.000210704454595
0.000474607565086
0.000517682781515
0.000626165429729
0.00071603606311
0.000781364984051
0.000825009143912
0.000851940230878
0.000867093122766
0.000874853018268