/*--------------------------------*- C++ -*----------------------------------*\
| =========                 |                                                 |
| \\      /  F ield         | OpenFOAM: The Open Source CFD Toolbox           |
|  \\    /   O peration     | Version:  3.0.1                                 |
|   \\  /    A nd           | Web:      www.OpenFOAM.org                      |
|    \\/     M anipulation  |                                                 |
\*---------------------------------------------------------------------------*/
FoamFile
{
    version     2.0;
    format      ascii;
    class       volVectorField;
    location    "6.3";
    object      U_0;
}
// * * * * * * * * * * * * * * * * * * * * * * * * * * * * * * * * * * * * * //

dimensions      [0 1 -1 0 0 0 0];

internalField   nonuniform List<vector> 
7968
(
(0.000688886710898 0.000654691873493 -0.00117422597092)
(0.00262804404692 0.000105283859106 -0.00130322621432)
(0.00535713052352 -0.000122443693191 -0.00121333795065)
(0.00756087905513 -9.05262285899e-05 -0.000937998782871)
(0.00900256257309 0.000193274941801 -0.000651698640687)
(0.00918327517115 0.000657020730824 -0.000399054969187)
(0.00845456257001 0.00102057849765 -0.000258414702035)
(0.00679380562715 0.00141959105424 -0.000150191212005)
(0.00445533881951 0.0017144277565 -0.000106596658827)
(0.00175602940306 0.00186514527187 -9.82876196501e-05)
(-0.00106266776447 0.00186853873704 -9.62732631784e-05)
(-0.00378091147342 0.00172371248032 -9.98902989699e-05)
(-0.00615609331265 0.00143257643993 -0.000137326325698)
(-0.00787047236171 0.0010349700318 -0.000238067866651)
(-0.00866091597545 0.000664884752967 -0.00037517519093)
(-0.00855738616338 0.000209428643234 -0.000619037047977)
(-0.00720672562581 -7.49468862182e-05 -0.000903514643519)
(-0.00510262389112 -0.00010359721635 -0.00117741887219)
(-0.00247572866577 0.000126042365678 -0.00126787576524)
(-0.00063506651704 0.00067641364652 -0.00113996739956)
(0.000138975067121 0.00253392197973 -0.00130397118745)
(0.00226617979706 0.00217465891399 -0.00335121715325)
(0.00557578977867 0.00233033895631 -0.00404008618661)
(0.00813131745712 0.00298353018826 -0.00402375277269)
(0.00965562171944 0.00404067084104 -0.00379989645763)
(0.00988903113319 0.00523939764196 -0.00353690136445)
(0.00900107555173 0.00628376713467 -0.00332744048057)
(0.00717108408066 0.00716933843811 -0.00317884785053)
(0.0046743986911 0.00779513167063 -0.00311041768093)
(0.00183190233627 0.00811491973088 -0.00309424817906)
(-0.00112213203784 0.00812208001912 -0.00309089712852)
(-0.00398575270167 0.00781451486198 -0.00309969365218)
(-0.00652286050659 0.00719593986263 -0.00316038847892)
(-0.00840906844624 0.00631243246283 -0.00330224560422)
(-0.00936055755468 0.00527051426169 -0.00350745043968)
(-0.00920705927802 0.00408196616743 -0.00376683002147)
(-0.00777397558773 0.00303267721686 -0.00398885124795)
(-0.0053209705005 0.00238719643633 -0.00400638441476)
(-0.00211220579149 0.00223376155649 -0.00331926981847)
(-8.1343424962e-05 0.00258911520021 -0.00126806025182)
(-8.70659705589e-05 0.0052115971969 -0.00122399993993)
(0.00242257121232 0.00543164799099 -0.00404404245472)
(0.00627696737608 0.00613380149888 -0.00482033794985)
(0.00918240386936 0.00743932050241 -0.00461514577063)
(0.0108263829716 0.00918258926306 -0.00413481336584)
(0.0110161816848 0.0110462707697 -0.00364812731387)
(0.00992404385623 0.0126996013394 -0.00328148364823)
(0.00782837050239 0.0140542530544 -0.00305979890502)
(0.00506222683439 0.0150106327201 -0.00297138642174)
(0.00196453295456 0.015500686303 -0.00295290856031)
(-0.00123772073586 0.0155135062075 -0.00294836986235)
(-0.00436199616099 0.0150447043998 -0.00295769844017)
(-0.00717539367997 0.0140997000729 -0.00303878702466)
(-0.00932970239479 0.0127468743561 -0.00325484028937)
(-0.0104853544163 0.0110968314923 -0.00361623313874)
(-0.01037164261 0.00924528505855 -0.0040972336536)
(-0.00881783566216 0.00751397267059 -0.0045730736926)
(-0.00601644907311 0.00621960741743 -0.00477761137876)
(-0.00226519610876 0.00552169930012 -0.00400468853679)
(0.000146555699492 0.00529439105429 -0.00118289412174)
(-5.61921104871e-05 0.00737362964619 -0.00094986611206)
(0.00307381497749 0.00794248937399 -0.00403376667707)
(0.0075811823694 0.00899386359475 -0.00462139447782)
(0.0109231074911 0.0107360514194 -0.00403305778275)
(0.0127161101638 0.0129379147212 -0.00312815677586)
(0.0127917046259 0.0152330414842 -0.00226564446673)
(0.0113974915626 0.017277978346 -0.00161713140722)
(0.00889370351024 0.018942214961 -0.00122717642448)
(0.00569343587882 0.020108872892 -0.00106587177597)
(0.00217859179762 0.0207093548572 -0.00102544448609)
(-0.00142831736069 0.0207273365117 -0.00101787473923)
(-0.00497869115336 0.020156470555 -0.00104464678351)
(-0.00823756286153 0.0190027792407 -0.00119773869904)
(-0.0108043997044 0.0173369630574 -0.00158374124274)
(-0.0122586542267 0.0152912351589 -0.00222748031192)
(-0.0122518974998 0.0130068738776 -0.00308119590167)
(-0.0105461579378 0.0108200589978 -0.00397800084429)
(-0.00730965949101 0.00909231864233 -0.00456375067798)
(-0.00290908106583 0.00804739084057 -0.00398043012553)
(0.000119124953151 0.00747010859652 -0.000899008291975)
(0.00022857711165 0.00878088176909 -0.00066658716838)
(0.00412999115897 0.00943209780676 -0.0038125431709)
(0.00932392299416 0.0106040102089 -0.00414711197246)
(0.0131243144241 0.0124973711477 -0.00313434893483)
(0.0150748694117 0.0148594706286 -0.00173642595884)
(0.015011960931 0.0173141366306 -0.000419381726271)
(0.0132636849711 0.01948556132 0.000611963100557)
(0.0102811154124 0.0212574448866 0.00129009646709)
(0.00654252202938 0.0225073861092 0.00163619385871)
(0.00247483893349 0.0231585540521 0.00176346578668)
(-0.00169069363605 0.0231815879791 0.00177684519931)
(-0.00580900632456 0.0225675252549 0.00167128943105)
(-0.00962529134979 0.021329744817 0.00133282035786)
(-0.0126790838917 0.0195480697271 0.000652110619571)
(-0.0144821338429 0.0173680939972 -0.000380058581535)
(-0.0146027681673 0.0149199742038 -0.00168534484096)
(-0.0127330509027 0.012573052585 -0.00306822567801)
(-0.0090393867914 0.0106966701886 -0.00407409854049)
(-0.00395756854932 0.00953316575547 -0.00374306797531)
(-0.000163286078978 0.00887539070005 -0.000605152030499)
(0.000691199297782 0.00893756014285 -0.00041927081995)
(0.00532848408515 0.00964016149533 -0.00355618264347)
(0.0111894621457 0.0107692349067 -0.00366615820695)
(0.0154223988061 0.0125503501233 -0.00227435808037)
(0.0175303499002 0.0147766519021 -0.000418370133588)
(0.0172634637284 0.0170305397756 0.00134579448232)
(0.0151507877177 0.0190208517118 0.00270217867409)
(0.0116734744499 0.0206538832846 0.00360290264887)
(0.0073850334521 0.0218124416039 0.00406828504058)
(0.00276744270207 0.0224226723149 0.00423808597485)
(-0.00194652902907 0.0224495195565 0.00425924210763)
(-0.00663488223511 0.0218835557055 0.00412152569334)
(-0.0110273601927 0.0207377627506 0.00365855612798)
(-0.0145849298816 0.019087317999 0.00273923773636)
(-0.0167425126688 0.0170790736207 0.00137465271522)
(-0.0170506824764 0.014824221853 -0.000375937136727)
(-0.0150151416504 0.012609949038 -0.00220763003072)
(-0.0108895113945 0.0108440261251 -0.00358514934238)
(-0.00514688246265 0.00972208509243 -0.00347803498801)
(-0.000621395619736 0.00901444821226 -0.000351969471231)
(0.00105604667373 0.0081913114845 -0.000281378728965)
(0.00637398598137 0.00873408703279 -0.00335129120217)
(0.0128463180546 0.00965703543287 -0.00330278697596)
(0.0174723123302 0.0111335945053 -0.00162417120285)
(0.0197048375742 0.01300416699 0.000619739696339)
(0.0192546443207 0.0148941538813 0.00271234132379)
(0.0168272222474 0.0165705605144 0.00430332122366)
(0.0129087578731 0.0179754449176 0.00537966805421)
(0.00812901170737 0.0189895900178 0.00594863905754)
(0.0030266205778 0.019514022239 0.00616986956709)
(-0.00216558713786 0.0195400992817 0.0061990820197)
(-0.00735940501184 0.0190620712641 0.00602015311806)
(-0.0122734009204 0.018066092182 0.00544449044631)
(-0.0162831143917 0.0166424781279 0.00433323534941)
(-0.0187480286044 0.0149447203928 0.00272760548824)
(-0.0192236252048 0.0130469442414 0.000650739456761)
(-0.0170532582014 0.0111829818833 -0.00156344396404)
(-0.0125340065416 0.00971610033201 -0.00321938808705)
(-0.00618559165298 0.00879835431257 -0.00326813002156)
(-0.000986528405979 0.00825273363145 -0.000212835878323)
(0.0014533449702 0.00651846839612 -0.000176001383538)
(0.00725752927499 0.00689018039199 -0.00320691474046)
(0.0141999976178 0.00754315541458 -0.00308493679559)
(0.019137204541 0.00860433567747 -0.00123575355198)
(0.0214774275153 0.0099888387457 0.00130147319086)
(0.020888198466 0.0113782473366 0.00362384682719)
(0.0182326098612 0.0126081018359 0.00539715900672)
(0.0139549057263 0.0136497698501 0.00665819831332)
(0.00873923373852 0.0143766173313 0.00734012876751)
(0.00324408403116 0.0148504990422 0.00730789877902)
(-0.00235268178329 0.0148783093495 0.00732584602371)
(-0.00795741456528 0.014457999591 0.0073713345049)
(-0.0133197833539 0.013729935281 0.00673876633578)
(-0.0177063446074 0.0126800272139 0.00542489463915)
(-0.0203963619937 0.0114307055461 0.00363219915885)
(-0.0210001885683 0.0100310929745 0.00132439679169)
(-0.0187140156342 0.00864863421319 -0.00117773692153)
(-0.0138843429148 0.00758934132822 -0.00300105204661)
(-0.00706817923932 0.00693739757852 -0.00312296460761)
(-0.00138478308251 0.00656395990426 -0.000109213033905)
(0.0017448573968 0.00417540057705 -0.000134347131343)
(0.00787697878007 0.00438724413576 -0.0031421708135)
(0.0151479005419 0.0047658831336 -0.00300198438287)
(0.0202944383249 0.00538469188672 -0.00108176244071)
(0.0227172520018 0.00622020747085 0.00163990325291)
(0.022035042959 0.00704798534276 0.00408314010288)
(0.0192356288755 0.00777478062194 0.00596150871062)
(0.0146753420463 0.00837154231232 0.00733892226991)
(0.00924809093126 0.00887973599411 0.0074882480581)
(0.00340590905985 0.00915139176463 0.00756201246863)
(-0.00249318888556 0.00916933697471 0.00758955445557)
(-0.00844749139928 0.0089282781076 0.0075485575162)
(-0.0140579924573 0.00844005152255 0.007360678399)
(-0.018712825486 0.0078290359963 0.006000082939)
(-0.0215524844519 0.00709170087479 0.0040964105776)
(-0.022244811205 0.00625684980027 0.00166545944214)
(-0.0198730824065 0.00542137013519 -0.00102001148079)
(-0.0148347554488 0.00480030199554 -0.00291681776897)
(-0.00769000929791 0.00442063715325 -0.00305961839315)
(-0.00167840163917 0.0042080621774 -6.97796537327e-05)
(0.0018915002345 0.00147987197507 -0.000127173029463)
(0.00818803887384 0.00154827036547 -0.00312878565689)
(0.0156251662431 0.00166978789265 -0.00298935948381)
(0.0208777348682 0.00186817505558 -0.00105080189949)
(0.0233481397569 0.0021446291444 0.00175191836481)
(0.0226219751233 0.00241529588209 0.00423059171955)
(0.0197386742143 0.00265084403239 0.00615402557294)
(0.015129689332 0.00285037087951 0.00728996278789)
(0.00951326261091 0.00300354707839 0.00754026852988)
(0.00350194477698 0.00309547888095 0.00767916261071)
(-0.00257169692617 0.00310224532246 0.00770836131318)
(-0.00869844169312 0.00302175687533 0.00761060231646)
(-0.0144985553124 0.00287475845402 0.00733264604291)
(-0.0192128350074 0.00267284963499 0.00620301439038)
(-0.0221413511012 0.00243563836745 0.00425225196425)
(-0.0228774817932 0.00216384949225 0.00178259237321)
(-0.0204580819864 0.00188913490649 -0.000985398875756)
(-0.0153131884976 0.00169078562394 -0.00290202265145)
(-0.00800312547929 0.00156972624786 -0.00304673247033)
(-0.00182648375793 0.00150159229716 -6.37206648871e-05)
(0.00189143132987 -0.00132680043112 -0.000126326669192)
(0.00818734391221 -0.00139258037551 -0.00312785438521)
(0.0156251507005 -0.00151692968293 -0.00298944742064)
(0.0208782220872 -0.00171943247 -0.00105174705434)
(0.0233489730081 -0.00199876355099 0.00175053876807)
(0.0226224900675 -0.00227228088412 0.00422825499142)
(0.0197389219807 -0.0025112597535 0.00615096008745)
(0.0151302520363 -0.00271473368419 0.00728529771456)
(0.00951394094279 -0.00287153838091 0.00753657170163)
(0.00350263271485 -0.00296469508274 0.00767608747966)
(-0.00257157780239 -0.0029703582385 0.00770547126907)
(-0.00869854015667 -0.00288706713303 0.00760710716714)
(-0.0144983227975 -0.00273471471813 0.00732772562688)
(-0.0192117926656 -0.00252639640206 0.00619982839518)
(-0.0221402704652 -0.00228240508257 0.00424976224791)
(-0.0228762724966 -0.00200302114934 0.00178127149737)
(-0.0204565021291 -0.00171920078969 -0.000985478993875)
(-0.0153115384527 -0.00151174713939 -0.00290078853018)
(-0.00800154034607 -0.0013837376347 -0.00304431581017)
(-0.0018262765847 -0.00131650979873 -6.22628673979e-05)
(0.00174489396645 -0.00402545347423 -0.000131413182901)
(0.00787546905605 -0.00423426138092 -0.00313878463245)
(0.015148690044 -0.00461418792363 -0.00300150840646)
(0.0202969075661 -0.00523451438891 -0.00108370695478)
(0.0227208678623 -0.00607012081062 0.00163706970945)
(0.0220376183451 -0.00689736425021 0.00407821096792)
(0.0192373596503 -0.00762402925123 0.00595483899224)
(0.0146772643515 -0.00822216299215 0.0073273568491)
(0.00925015448349 -0.00873282771369 0.00747625400468)
(0.00340790995947 -0.00900485223414 0.00755195791496)
(-0.00249260181165 -0.00902198243093 0.00757994897415)
(-0.00844764400866 -0.00877891561651 0.00753673103758)
(-0.0140580194396 -0.00828665495643 0.00734620860981)
(-0.0187107528018 -0.0076713964005 0.00599282599322)
(-0.0215503891106 -0.00693088569732 0.00409103404426)
(-0.0222426645642 -0.00609218811837 0.00166287893065)
(-0.0198699555852 -0.00525142933104 -0.00101982310834)
(-0.0148312247054 -0.00462457853264 -0.00291322220923)
(-0.00768614871234 -0.00423990817435 -0.00305284675766)
(-0.0016780723513 -0.00402818621906 -6.53672627084e-05)
(0.00145410506315 -0.0063769426071 -0.000170574518065)
(0.0072569924123 -0.00674497146251 -0.00320083607495)
(0.014203905528 -0.00739670771692 -0.00308278733309)
(0.019144568371 -0.00845527014728 -0.00123634923857)
(0.0214871096846 -0.00983543477253 0.00130097242214)
(0.0208964219151 -0.0112192093158 0.00362249064639)
(0.0182395482099 -0.0124436510713 0.00539488430452)
(0.0139591223156 -0.0134808638296 0.00665708466105)
(0.00874413759765 -0.0142102274102 0.00732530871337)
(0.00324713901032 -0.0146823227735 0.00729227540269)
(-0.0023517215586 -0.0147091421918 0.00731034363163)
(-0.00795923236433 -0.0142895792212 0.00735210766373)
(-0.0133190229821 -0.0135553612223 0.00673602152813)
(-0.0177070058141 -0.0125075354096 0.00542121651442)
(-0.0203970369556 -0.0112609110396 0.00362997519954)
(-0.0210010864278 -0.00986346543966 0.00132410552875)
(-0.0187131147573 -0.00848158971624 -0.00117576053019)
(-0.0138819723016 -0.00742155520062 -0.00299510838639)
(-0.00706430542383 -0.00676772391481 -0.0031126745465)
(-0.00138510406864 -0.00639553182758 -0.000101695556117)
(0.0010578987099 -0.00806483098772 -0.000273527655161)
(0.00637623833659 -0.00860312594384 -0.00334348667221)
(0.012855899024 -0.00952224870327 -0.00329858936854)
(0.0174878556905 -0.0109925569394 -0.00162130762653)
(0.0197243806993 -0.0128553317794 0.000624607994673)
(0.0192727132212 -0.0147362069196 0.00271942394607)
(0.0168424168236 -0.0164036683059 0.00431157572806)
(0.0129201375726 -0.0178019504766 0.00538922545588)
(0.00813599685961 -0.0188112003503 0.00595889165211)
(0.00303068065638 -0.0193322718446 0.00617935425971)
(-0.00216295346434 -0.0193569582685 0.00620850277441)
(-0.00735967394944 -0.0188791638445 0.00602971735963)
(-0.0122774137935 -0.0178850380435 0.00545291166516)
(-0.0162900035184 -0.016465685507 0.00434033297981)
(-0.0187565663322 -0.0147748897012 0.00273364955479)
(-0.0192323871988 -0.0128837912952 0.000655835149599)
(-0.0170588352816 -0.011025323338 -0.00155795069558)
(-0.0125360410984 -0.00956240779521 -0.00321118102528)
(-0.00618401653872 -0.00864632739373 -0.00325549279659)
(-0.000988124151177 -0.0081029277829 -0.000202667760222)
(0.00069100935161 -0.00882825337698 -0.000411314486523)
(0.00533583509159 -0.00952707978239 -0.00354830969143)
(0.0112079381631 -0.0106516670123 -0.0036604702486)
(0.0154492793029 -0.012424922822 -0.00226768533985)
(0.0175624936854 -0.0146422951179 -0.000407808301748)
(0.017293657005 -0.0168861031615 0.0013615006)
(0.0151762945234 -0.0188663653813 0.00272076244217)
(0.0116925949526 -0.0204916252949 0.00362297876288)
(0.00739758375968 -0.0216452983881 0.00408793848112)
(0.00277474277238 -0.0222522209249 0.00425682118405)
(-0.00194338926618 -0.0222774311737 0.00427787649681)
(-0.00663688109271 -0.0217112892662 0.00414112628516)
(-0.011036084464 -0.0205667937009 0.00367869652911)
(-0.0146001673473 -0.0189214675472 0.00275741978874)
(-0.0167615262188 -0.0169212561677 0.00138943635517)
(-0.0170708523644 -0.0146750465593 -0.000364639243976)
(-0.0150314314477 -0.0124687050001 -0.00219809613263)
(-0.0109002427155 -0.0107096141821 -0.00357488411791)
(-0.00515063854262 -0.00959111504631 -0.00346481798201)
(-0.000620753801541 -0.00888516829928 -0.000342095737729)
(0.000233535437692 -0.00869492269383 -0.000657104949815)
(0.00414481450244 -0.00934374873729 -0.00380575322973)
(0.00935266241002 -0.0105099971531 -0.00414108599829)
(0.0131631163207 -0.0123950739445 -0.00312532859459)
(0.0151192083213 -0.0147488751106 -0.00172156037443)
(0.0150551169615 -0.0171951682597 -0.000398651944617)
(0.0133014621769 -0.019356978069 0.000638254296391)
(0.0103111416822 -0.0211212790568 0.00132036011881)
(0.00656353377954 -0.0223654682801 0.00166857853166)
(0.00248691711516 -0.023012337759 0.00179681475914)
(-0.00168741495373 -0.0230333924181 0.00181016479767)
(-0.00581468420035 -0.0224198105644 0.00170407990665)
(-0.00964081165559 -0.0211841253511 0.00136425286789)
(-0.0127036043096 -0.0194070936367 0.000679744918598)
(-0.0145124254433 -0.0172347612328 -0.000357871981106)
(-0.0146349799547 -0.0147946292036 -0.001668001559)
(-0.0127618749169 -0.0124560472957 -0.00305522475815)
(-0.00906158233403 -0.0105882653349 -0.0040628691841)
(-0.00397022663916 -0.0094304276912 -0.00373139753226)
(-0.000169246286895 -0.00877339631998 -0.000593669541117)
(-5.17201966288e-05 -0.00731178823959 -0.000941603974678)
(0.00309261581116 -0.0078782097957 -0.00402998473057)
(0.00761627907511 -0.00892450370916 -0.00461694666425)
(0.0109693613516 -0.0106594813493 -0.00402389683973)
(0.0127673757249 -0.0128545178962 -0.00311249822728)
(0.0128410102302 -0.0151434870861 -0.00224388566503)
(0.0114405272641 -0.0171821070556 -0.00159125423136)
(0.00892804642931 -0.0188418337912 -0.00119953982991)
(0.00571837645272 -0.0200047812376 -0.00103655317049)
(0.00219421186732 -0.0206021009871 -0.00099513381243)
(-0.00142233091704 -0.0206181678456 -0.000987060886863)
(-0.00498273119662 -0.0200468364967 -0.00101334670086)
(-0.00825289756273 -0.0188937576944 -0.00116678594894)
(-0.0108310430569 -0.0172299750057 -0.00155396524909)
(-0.0122934913364 -0.0151890969013 -0.00220174749494)
(-0.0122908388247 -0.0129108858639 -0.00306046855312)
(-0.0105832875309 -0.0107315540918 -0.00396299396327)
(-0.00733947593205 -0.00901192218506 -0.00455332167506)
(-0.00292703420484 -0.0079724641675 -0.00397160242749)
(0.000113169684137 -0.00739684132247 -0.000889613314145)
(-8.1887943848e-05 -0.00517261080011 -0.00121617241562)
(0.00244358717647 -0.00539040185748 -0.00404331516836)
(0.00631594340224 -0.006088482372 -0.00481856853552)
(0.00923341464762 -0.00738832188818 -0.00460753975564)
(0.0108824063993 -0.00912597996216 -0.0041199684666)
(0.0110695978029 -0.0109846084302 -0.00362766069166)
(0.00997129114197 -0.0126324212584 -0.0032575534088)
(0.0078671334208 -0.0139828544577 -0.0030338905888)
(0.00509119424207 -0.0149359177804 -0.00294398865864)
(0.00198328163062 -0.0154233010587 -0.00292430082924)
(-0.00122979339826 -0.0154346785612 -0.00291891652281)
(-0.00436539051465 -0.0149658782531 -0.00292780760878)
(-0.00719120235755 -0.0140218863889 -0.00300862751035)
(-0.00935748759625 -0.0126716103385 -0.00322582907601)
(-0.0105224255337 -0.0110262432745 -0.00359009725088)
(-0.0104150741724 -0.00918031989087 -0.00407555122861)
(-0.00886041036426 -0.00745540618206 -0.00455886112543)
(-0.00605118673139 -0.00616753785339 -0.00476992355875)
(-0.00228651014473 -0.00547427653756 -0.00399917948934)
(0.000139156145146 -0.00524822610227 -0.00117514206775)
(0.000144449034464 -0.00251444348772 -0.0013001792127)
(0.00228662634664 -0.00215309774782 -0.00335238526216)
(0.00561416623163 -0.00230611158698 -0.00404099454583)
(0.00818266442508 -0.00295620984574 -0.00401969998381)
(0.00971284749852 -0.00401033611812 -0.00378746027852)
(0.00994303632425 -0.00520610371472 -0.00351916088337)
(0.00904925572414 -0.00624670524474 -0.00330673575022)
(0.00721114480922 -0.00712966004947 -0.00315617345386)
(0.00470508137206 -0.00775328065905 -0.00308607654217)
(0.00185261791872 -0.00807147947298 -0.00306860940075)
(-0.00111201088176 -0.00807779222894 -0.0030643173515)
(-0.00398705695321 -0.0077702042307 -0.00307273178798)
(-0.00653669092029 -0.00715255411865 -0.00313345463784)
(-0.00843523351959 -0.00627090902303 -0.00327651720459)
(-0.00939649302057 -0.00523248485782 -0.00348420646919)
(-0.00925103341176 -0.00404774030378 -0.0037484415281)
(-0.00781676112515 -0.00300197171691 -0.00397964359143)
(-0.00535545036422 -0.00235982263321 -0.00400223257899)
(-0.00213346431242 -0.00220875545715 -0.00331759714514)
(-8.90524219595e-05 -0.00256420420288 -0.00126504911046)
(0.000691556440028 -0.00064785896026 -0.00117176124339)
(0.00264268643598 -9.72114393677e-05 -0.00130417957402)
(0.00538822565967 0.000131332880036 -0.00121374196785)
(0.00760367189255 0.000100048668749 -0.000936166114872)
(0.0090522485086 -0.000183149058785 -0.000645899992518)
(0.00923054628661 -0.00064606358176 -0.000389525104616)
(0.00849827078471 -0.00100843387398 -0.000247711329883)
(0.00683143856874 -0.0014069417463 -0.000138473388361)
(0.00448522234238 -0.00170162790532 -9.41565825897e-05)
(0.00177728808604 -0.00185216165753 -8.53807881497e-05)
(-0.00105066720481 -0.0018553471935 -8.28591570345e-05)
(-0.00377881307187 -0.00171023353093 -8.59820544051e-05)
(-0.0061647240034 -0.00141893671571 -0.000123059567858)
(-0.00788941730365 -0.0010217721036 -0.00022423235175)
(-0.00868745677204 -0.000652355983548 -0.000362590607658)
(-0.00859123534114 -0.000198911545682 -0.000609575670013)
(-0.00723878835068 8.50497894838e-05 -0.000898651059324)
(-0.00512735395135 0.000113048776051 -0.00117506924057)
(-0.00248818286245 -0.000116641724854 -0.00126570817097)
(-0.000638082574504 -0.000666566467853 -0.00113332139888)
(0.00143139021664 0.00139685069632 -0.00527869586067)
(0.00412821278309 0.00194542662694 -0.0059228909902)
(0.00685009885926 0.00246730492162 -0.00598839632959)
(0.00889669198986 0.00310773334454 -0.00565987162506)
(0.0100662958723 0.00382871965409 -0.0052163213661)
(0.0100602021412 0.00452660910677 -0.00480203104691)
(0.00910759174767 0.00506203517982 -0.00448667702228)
(0.00724942630847 0.00552401063858 -0.00426255629801)
(0.00472819743996 0.0058465390383 -0.00417405801386)
(0.00185363841732 0.00601030816733 -0.00416479934931)
(-0.00113587746495 0.0060145434763 -0.00415848796088)
(-0.00403022738325 0.00585815737909 -0.00415348811681)
(-0.0065899308386 0.0055402557628 -0.00422465036895)
(-0.00850353684249 0.00507994992454 -0.00442996298844)
(-0.00952049254683 0.00454249568297 -0.00473076013292)
(-0.00960700219589 0.00385677827592 -0.00512943554292)
(-0.00853518892542 0.00313877965691 -0.00556619313636)
(-0.00659363364559 0.00250277104694 -0.00589142078838)
(-0.00398067361608 0.00197974118577 -0.00582653130503)
(-0.0013832646433 0.00142362525638 -0.00518520159081)
(0.00198118870872 0.00403516773269 -0.0059273838191)
(0.00478220307103 0.00468372341452 -0.00817851752651)
(0.00729727922285 0.00550720766579 -0.00865080070652)
(0.00909715646987 0.0066562011471 -0.00829807447319)
(0.0100052398331 0.00799065055384 -0.00765890605316)
(0.00991199895238 0.00931747808309 -0.00698867688291)
(0.00887429810366 0.0104739112091 -0.00643516135884)
(0.00702094597038 0.0114193208769 -0.0060471087206)
(0.00457893000369 0.0120832799992 -0.00584242210586)
(0.0018073806508 0.0124258295659 -0.00576987954062)
(-0.00107613755948 0.0124369447916 -0.00576186137179)
(-0.00386986458669 0.0121134551538 -0.00581735164405)
(-0.00635291180628 0.0114606682809 -0.00600405883976)
(-0.00826173701681 0.0105188920362 -0.00637467056463)
(-0.00936520235555 0.00936553475355 -0.00691292423599)
(-0.00953720854645 0.00804876044025 -0.00756852691825)
(-0.00872164918499 0.00672549146735 -0.00819721913603)
(-0.00702624580941 0.00558582295609 -0.00854560130006)
(-0.00461749341662 0.00476328676704 -0.00807378457878)
(-0.00192453249738 0.00410170630682 -0.00581970099184)
(0.00250380202269 0.00670006562501 -0.00600949221681)
(0.0056073800575 0.00714420833486 -0.00866226988047)
(0.00823464710788 0.00808095094764 -0.0089428996544)
(0.0100108574737 0.00949040942032 -0.00812562979534)
(0.0108081005967 0.0111691361689 -0.00691481195633)
(0.0105660759111 0.0128743134919 -0.00568901557441)
(0.0093459103104 0.0143966583854 -0.00468592799351)
(0.0073257604049 0.0156253734765 -0.0039984986548)
(0.0047518859647 0.0164845496154 -0.00361938836295)
(0.00186786168239 0.0169348921177 -0.00346714941552)
(-0.00112538161327 0.0169519465711 -0.00345512326943)
(-0.00403693051639 0.0165303934467 -0.00358459760145)
(-0.00665814301048 0.0156859530847 -0.00394520910529)
(-0.00873515470178 0.0144601194372 -0.00461758475031)
(-0.0100179233095 0.0129398493538 -0.00560363342464)
(-0.010333198376 0.0112444372424 -0.00680981018949)
(-0.00962404360871 0.00957916493418 -0.00800358458626)
(-0.00795098885035 0.00818216847434 -0.00881246433184)
(-0.00543061980172 0.00725081952219 -0.00853177236469)
(-0.00244076204376 0.00679968011802 -0.00587960944945)
(0.00314527152704 0.00869776607579 -0.00569348652114)
(0.00675640077136 0.00889637662962 -0.00832407694879)
(0.00964348887704 0.00981047456941 -0.008140520956)
(0.0114804172717 0.0112821393832 -0.00664481166658)
(0.0121856556533 0.0130577930658 -0.00469337264357)
(0.0117379807299 0.0148643384616 -0.00279496788192)
(0.0102467105955 0.0164820395186 -0.00126026207107)
(0.00794402570106 0.0177853012826 -0.000219863213132)
(0.00511057884489 0.0186967915642 0.00035783580796)
(0.0019909102571 0.0191749221916 0.00059996631213)
(-0.00123187285475 0.0191977192732 0.00061912597037)
(-0.0043887405811 0.0187573253066 0.000409848261071)
(-0.00728134229515 0.0178630263735 -0.000150183887935)
(-0.00964535697754 0.0165586170811 -0.00118297059505)
(-0.0111940569275 0.0149362905422 -0.0027031491063)
(-0.011706023564 0.0131347597318 -0.00457583378652)
(-0.0110819625146 0.0113721787581 -0.00650064046594)
(-0.00934607141036 0.0099155284773 -0.00798051557463)
(-0.00656754222373 0.00901038707288 -0.00816098602945)
(-0.00307519372884 0.0088096045739 -0.0055305871632)
(0.00386637436496 0.00983255089858 -0.00526425710393)
(0.00808983032731 0.00976893094901 -0.0076990447554)
(0.0113217715178 0.0105728879629 -0.00694487874885)
(0.0132544825104 0.0119548462262 -0.00470668485553)
(0.0138542261542 0.0136275858445 -0.00196807385457)
(0.0131724113413 0.0153459822024 0.000639649310098)
(0.0113942126972 0.0169095540252 0.00270405064867)
(0.00877533036545 0.0181782759544 0.00408776068015)
(0.00561542097572 0.0190718610522 0.0048571567079)
(0.00216815597066 0.0195451493456 0.00518650868262)
(-0.00138605118708 0.0195741396698 0.00521538215275)
(-0.00488556189435 0.0191485248689 0.00493110765496)
(-0.00812454115599 0.0182739597805 0.00417386282229)
(-0.0108142392199 0.0169962813769 0.00278221987919)
(-0.0126433766117 0.0154189414823 0.000720622105704)
(-0.0133742248682 0.0136969205093 -0.00185616904155)
(-0.0128449316542 0.0120340626501 -0.00455321000091)
(-0.0110097654966 0.0106676525147 -0.00676172854497)
(-0.00788900722326 0.00987384097246 -0.0075058100058)
(-0.00379030741205 0.00993643684601 -0.00506862088221)
(0.00456404625538 0.00980446510883 -0.00486388648946)
(0.00941633991542 0.00965104511597 -0.00704241569974)
(0.0130280566861 0.0103055444291 -0.00573066543668)
(0.0150613093769 0.0114827547223 -0.00281213401654)
(0.0155695065318 0.0129226864588 0.000641710659571)
(0.0146959876526 0.0144513830211 0.00385163524939)
(0.0126433457102 0.0158620721386 0.00635743070596)
(0.00969927362704 0.0170158005313 0.00803114966652)
(0.00618788611783 0.0178380013185 0.00896617395495)
(0.00237406653208 0.0182821784213 0.009372000009)
(-0.00155789083987 0.0183171047024 0.00941595852982)
(-0.00544413518805 0.0179306900977 0.00907696596786)
(-0.00906442755138 0.0171304758675 0.00814860479235)
(-0.012094557081 0.0159614242802 0.00643377120849)
(-0.0141911331464 0.0145274104969 0.00390484004596)
(-0.0150966467048 0.0129866276597 0.000723907863605)
(-0.0146424832848 0.0115481342265 -0.00267041342887)
(-0.0127013078551 0.0103834366655 -0.00553869430877)
(-0.00920442089972 0.00973639867496 -0.0068314714236)
(-0.00447896424584 0.00988627816127 -0.00464906159366)
(0.00510081591247 0.0088358419621 -0.00455771569581)
(0.0105726468709 0.00859508348154 -0.00649903941201)
(0.0145513536842 0.00906465302316 -0.00473421477159)
(0.0166784079619 0.00996761601784 -0.00127365176577)
(0.0171290929793 0.0111184283148 0.00271827644529)
(0.0161023565778 0.0123712573562 0.00637384122218)
(0.0138173175545 0.0135468950806 0.00920271236012)
(0.010584867161 0.0145242964164 0.0111017723197)
(0.00674917172205 0.0152425447697 0.0121789897519)
(0.00258347642112 0.0156469428174 0.0126615528155)
(-0.00171879872405 0.0156848428278 0.0127264433759)
(-0.00597948568195 0.0153431332272 0.0123438809083)
(-0.00995822237974 0.0146483369457 0.0112737051784)
(-0.0132974383202 0.0136555664752 0.00929865154656)
(-0.0156242895341 0.0124532695136 0.0064088386425)
(-0.0166692310345 0.0111817556296 0.00277060230944)
(-0.0162577506591 0.010025508768 -0.00115315801285)
(-0.0142152794508 0.0091274027013 -0.00454482164419)
(-0.0103543946418 0.00866015378081 -0.00628194655395)
(-0.0050129073616 0.0088972363797 -0.00433755321259)
(0.00556102994777 0.00696632814467 -0.00434077522557)
(0.0115143712729 0.00672851128202 -0.00612061983227)
(0.0157760633029 0.00702708963301 -0.00405466883145)