/*--------------------------------*- C++ -*----------------------------------*\
| =========                 |                                                 |
| \\      /  F ield         | OpenFOAM: The Open Source CFD Toolbox           |
|  \\    /   O peration     | Version:  3.0.1                                 |
|   \\  /    A nd           | Web:      www.OpenFOAM.org                      |
|    \\/     M anipulation  |                                                 |
\*---------------------------------------------------------------------------*/
FoamFile
{
    version     2.0;
    format      ascii;
    class       volScalarField;
    location    "6.5";
    object      nut;
}
// * * * * * * * * * * * * * * * * * * * * * * * * * * * * * * * * * * * * * //

dimensions      [0 2 -1 0 0 0 0];

internalField   nonuniform List<scalar> 
7968
(
0.000104269309004
0.000111857012877
0.000117633674328
0.000121162329918
0.000123165256318
0.000124146121298
0.000124486273961
0.000124510087511
0.000124440933253
0.000124331785904
0.000124325498214
0.000124443997387
0.000124511416654
0.000124469314682
0.000124053613529
0.000122998992752
0.00012095594963
0.000117433139075
0.000111720464056
0.000104210162891
0.000111843919096
0.000138164126268
0.000153869578177
0.000163081313763
0.000168470613894
0.000171388754942
0.000172725063775
0.000173100545904
0.000173020159066
0.000172842792568
0.0001727722412
0.000172794831128
0.000172679797165
0.000172081982181
0.000170547515923
0.000167511088599
0.000162144671688
0.000153120936809
0.000137729240837
0.000111724038497
0.00011761635687
0.000153880525969
0.000174418296209
0.000186417377623
0.000193547976555
0.000197537844413
0.000199478482815
0.000200152314618
0.000200172968536
0.000199967004591
0.000199759301234
0.00019954370192
0.000199099673172
0.000198036277191
0.000195804235514
0.000191695790654
0.00018468604729
0.000173066572277
0.000153098085691
0.000117462294378
0.000121174397813
0.000163152815817
0.000186494382741
0.000200110819707
0.00020822843949
0.00021279853118
0.000215057198015
0.000215888750346
0.000216047735582
0.000215879176126
0.000215491424814
0.000214922467605
0.000214218626233
0.000212865616768
0.00021024430973
0.000205555180962
0.000197644010209
0.000184578573553
0.000162053128087
0.000120975363612
0.000123220442716
0.000168649289805
0.000193766918357
0.000208387816501
0.000217071174316
0.00022197134326
0.00022472657385
0.000225995734399
0.000226230331769
0.000225942007189
0.000225423705058
0.000224715056702
0.000223608487444
0.00022168376087
0.000218674783116
0.000213675164254
0.000205270568305
0.000191351320191
0.00016729163591
0.000122954343637
0.000124247878007
0.000171702622219
0.000197948306355
0.00021318688301
0.000222214842278
0.000227771379681
0.000230831661614
0.000232010218051
0.000232078545837
0.000231636540491
0.000231018064654
0.000230269065415
0.000229143968294
0.000227161577669
0.000223694197273
0.000218193919523
0.000209520821002
0.000195113310503
0.000170125621909
0.000123953952482
0.000124625595549
0.000173182331103
0.000200110928216
0.000215722207345
0.000225216125676
0.000231140456716
0.000234097677812
0.00023506829449
0.000234928749095
0.000234335420273
0.000233649264594
0.000232915951375
0.000231864846597
0.000229972480408
0.000226522247813
0.000220655159505
0.00021161342382
0.0001969419105
0.000171433592269
0.00012433035001
0.000124621353594
0.000173694373121
0.000201018839991
0.000216851462582
0.000226840622835
0.000232720759185
0.000235489482499
0.000236233701335
0.000235895509675
0.000235174637645
0.000234453139508
0.000233769279615
0.000232826721392
0.000231069321236
0.000227739194606
0.000221897659881
0.000212423780424
0.000197601613062
0.000171828012442
0.000124450772888
0.000124520910239
0.000173730501303
0.000201267012629
0.000217237011434
0.000227473023267
0.000233248743288
0.000235841733795
0.000236400094724
0.000235908350069
0.00023509806296
0.000234367334995
0.000233744614157
0.000232904443873
0.000231269378174
0.000228059012081
0.000222301451275
0.000212718676393
0.000197681831141
0.00017178361063
0.000124415260627
0.000124399003399
0.000173643878416
0.000201269664637
0.000217349221005
0.000227602032113
0.000233286521411
0.00023576789202
0.000236219820244
0.000235646946482
0.000234793017961
0.000234066309994
0.000233490517579
0.000232716660185
0.000231154675533
0.000228018992675
0.000222328608223
0.000212776046616
0.000197586595332
0.000171636539237
0.000124310245769
0.000124374851541
0.000173642529706
0.000201245576662
0.00021728000832
0.000227488111276
0.000233136062693
0.000235594704032
0.000236039993062
0.000235473790444
0.000234631769264
0.00023391525803
0.000233347150294
0.000232578520686
0.000231022148302
0.000227897268584
0.00022222612525
0.000212700398253
0.00019751886573
0.000171575234402
0.00012423569901
0.000124491609567
0.000173721790758
0.000201185714177
0.000217042511415
0.000227136588466
0.000232804394975
0.000235327898837
0.000235861452259
0.000235383074057
0.000234604528505
0.000233905140124
0.000233304204769
0.000232480210466
0.000230863922892
0.000227688256229
0.000221989484069
0.000212483483918
0.00019746350725
0.000171611105371
0.000124278502663
0.00012459508775
0.000173656156926
0.000200859396588
0.000216532028965
0.000226301205573
0.000232007555882
0.000234657790263
0.000235348741765
0.000235014758168
0.0002343319504
0.000233656626406
0.000233009604147
0.000232099064339
0.000230381360561
0.000227116650545
0.000221373295979
0.000211960344363
0.000197195409497
0.000171524501737
0.000124282739223
0.000124586936013
0.000173086495878
0.000199855601849
0.000215275380371
0.000224518926327
0.000230218929618
0.000233013060158
0.000233895896206
0.000233738519357
0.000233174440329
0.000232539076663
0.00023185507609
0.000230855610441
0.000229029698256
0.000225677084563
0.00021993177869
0.000210890040373
0.000196312976559
0.000170958824253
0.000124085851961
0.000124183203261
0.000171533998315
0.00019759690997
0.000212632142255
0.000221447967527
0.000226751083805
0.000229619483756
0.000230682396914
0.000230708609521
0.000230279976924
0.000229708178295
0.000229015095846
0.000227957491968
0.00022606189854
0.000222699277355
0.000217192382587
0.0002085610868
0.000194264024205
0.00016946472109
0.000123566905462
0.000123131497475
0.000168415542212
0.000193348464983
0.000207776626762
0.000216269128912
0.000220988165549
0.000223562554118
0.000224711529992
0.000224891221139
0.000224603390878
0.000224122983501
0.000223468162692
0.000222427804394
0.000220576536041
0.000217524856937
0.000212511324725
0.000204143793933
0.000190331229447
0.000166464257643
0.000122502803045
0.000121075722236
0.000162890492939
0.000186068328381
0.000199527119125
0.000207494064159
0.00021192998147
0.000214082747482
0.000214849157556
0.000214978843024
0.000214808755332
0.000214449287518
0.000213919144684
0.000213195014335
0.000211789103983
0.000209107211331
0.000204375184298
0.000196472486496
0.000183488653337
0.000161136064956
0.000120520800111
0.000117524201227
0.000153638270515
0.000174054841024
0.000185952506712
0.000192994592349
0.00019691179216
0.000198801999695
0.000199455591029
0.000199483782801
0.000199298618035
0.000199100826597
0.000198862877253
0.000198358581727
0.000197199502955
0.00019486091038
0.000190660456982
0.000183610283541
0.000172030109663
0.000152204346109
0.000117045677615
0.000111774094668
0.000137987879283
0.000153614713239
0.000162790787938
0.00016817804227
0.00017109808288
0.000172450543978
0.00017286187364
0.00017282750172
0.000172686847829
0.000172611922876
0.000172581014495
0.000172369799123
0.000171635011652
0.000169946882099
0.000166763701302
0.000161290851748
0.00015225913797
0.000136995543141
0.000111402157186
0.000104233250175
0.000111775934911
0.000117544333197
0.000121074021112
0.000123070272065
0.000124077679573
0.000124455086768
0.000124554568339
0.000124531116192
0.000124451591418
0.000124414763858
0.00012446606225
0.000124466766013
0.000124290192696
0.000123758062559
0.00012260114421
0.000120519593418
0.000117004893968
0.000111370453206
0.00010405340929
0.000111395896533
0.000135843494059
0.000151221198627
0.000160629825761
0.000166410869839
0.00016980157932
0.000171589839909
0.000172318856901
0.000172447447459
0.000172363287603
0.000172269118748
0.0001721622285
0.000171823487861
0.000170877920557
0.000168951546302
0.000165534935648
0.000159872840387
0.000150721195581
0.000135652902652
0.000111303183738
0.00013584627931
0.00048639290031
0.000643662051131
0.000731972996991
0.000785031974728
0.000816305593415
0.000833274602233
0.000840987720953
0.000843050288026
0.00084194698057
0.000839026118636
0.000834504139785
0.000827471875621
0.000816000162236
0.000796957008762
0.000765774650214
0.000715279098148
0.000632050314931
0.000481848175032
0.000135614985517
0.000151232725694
0.000643261330568
0.00088210663343
0.00101838868962
0.00110080076692
0.00114944864588
0.00117559196159
0.00118700073915
0.00118922076439
0.00118637650326
0.00118091281575
0.00117319505318
0.00116154780368
0.00114311942623
0.00111305050954
0.00106437833494
0.000986281900082
0.00085871669228
0.000632461378403
0.000150670251796
0.000160681379436
0.000731756188666
0.00101875837287
0.00118351264882
0.00128303914757
0.00134120868179
0.00137146103729
0.0013836508898
0.00138451710187
0.00137919585571
0.00137180522081
0.00136264240807
0.001348197511
0.00132638682172
0.00129043807929
0.00123195878539
0.0011379959801
0.0009847468728
0.00071488237343
0.000159769164493
0.000166535304503
0.000785585529307
0.0011024447099
0.00128456547325
0.00139377489307
0.00145588329151
0.00148531224721
0.00149314854885
0.00148991914035
0.00148201346407
0.00147297563761
0.00146336277349
0.00145082379379
0.00143054378249
0.00139294625469
0.00132990223101
0.00122720688938
0.00105898530046
0.00076327075538
0.000165314436767
0.000170024128675
0.000818183298409
0.00115328983752
0.00134548191053
0.00145894205823
0.0015193873451
0.00154406936027
0.00154803699856
0.0015414967479
0.0015311706613
0.00152074137241
0.00151087523907
0.00149935763504
0.00148095305258
0.00144696183017
0.00138430288295
0.00127789932886
0.00110164756552
0.000791219813319
0.000168557623123
0.000171929012114
0.000836975823326
0.0011824898457
0.00137966296722
0.00149323407335
0.00154904521501
0.00156978349328
0.00157008655003
0.00156046249894
0.00154798569351
0.00153650741052
0.00152670097314
0.00151630276552
0.00149986517247
0.00146865958444
0.00141002710192
0.00130376853691
0.00112412279076
0.000806260755978
0.000170278577631
0.00017281187765
0.000846903772148
0.00119763483169
0.00139648278301
0.00150682577713
0.00155928466812
0.00157661338462
0.00157369054783
0.00156150983866
0.00154740936088
0.00153529176032
0.0015257412762
0.00151645136319
0.00150181276427
0.00147290892959
0.00141709943605
0.00131468768587
0.00113419075836
0.000813423890562
0.000170972006667
0.000173082712107
0.000851479295671
0.00120421068309
0.00140337567203
0.00151010713286
0.00155984315814
0.00157454772039
0.00156929444512
0.00155539323352
0.00154033901227
0.00152800718647
0.00151883012521
0.00151035148964
0.0014970017704
0.00146975185611
0.00141598793348
0.00131647250185
0.00113727608404
0.000816212353404
0.000171140325811
0.000173110601989
0.000852977134704
0.00120578681926
0.00140414112754
0.00150879576698
0.00155688070293
0.00157007159883
0.00156361110185
0.00154894513408
0.00153362812611
0.00152137662277
0.00151249349357
0.0015044763502
0.00149175679624
0.00146535419556
0.00141268355339
0.00131463434505
0.00113718458113
0.000816914254768
0.000171111786242
0.000173120533512
0.000852580435022
0.00120452513835
0.00140202464747
0.0015059906011
0.00155354380472
0.00156641954271
0.00155988591041
0.00154535841665
0.00153028926584
0.00151828392221
0.00150955949199
0.00150160213009
0.00148889657042
0.00146254729703
0.00141007585292
0.00131250269989
0.00113593640413
0.000816646599615
0.000171066169178
0.000173108795164
0.000850292687924
0.00120050765454
0.00139709995425
0.00150189474232
0.00155006116013
0.001563786736
0.00155822803022
0.00154462409515
0.00153020067447
0.00151852532092
0.00150979621504
0.0015015294089
0.00148825657289
0.00146122112238
0.00140811229466
0.00131010055309
0.00113348710504
0.00081535443977
0.00017102189196
0.000172829341155
0.000844973809124
0.00119180427422
0.00138672486573
0.0014938600353
0.00154376315425
0.00155938974
0.00155574748904
0.00154372426449
0.00153034556938
0.00151908421704
0.00151020466726
0.00150129293001
0.00148690970905
0.00145852895196
0.00140401608871
0.00130462511516
0.00112800751493
0.000811936036644
0.000170776545984
0.00017191506473
0.000834447445636
0.00117511370181
0.00136737825243
0.00147665757845
0.00152904655775
0.00154735630919
0.00154635977068
0.00153649600789
0.00152452005322
0.00151385419864
0.00150478428958
0.00149494167532
0.00147905327032
0.0014488436205
0.00139232640186
0.0012902916476
0.00111590451853
0.000804210701528
0.000169994694926
0.00016996976466
0.000815321850351
0.00114517097843
0.00133196378339
0.00144039587711
0.00149678778631
0.00151845033068
0.00152052324961
0.00151320479757
0.0015029661181
0.00149311313388
0.00148394583933
0.00147314700717
0.00145565679298
0.00142335449508
0.00136443945389
0.00126240528972
0.0010922420839
0.000788889934107
0.000168226779348
0.000166451555683
0.000782797107441
0.00109461192534
0.00127147525702
0.0013756051053
0.00143323946587
0.00145926766551
0.0014647790962
0.00146031498594
0.00145208034916
0.00144331721168
0.00143428962504
0.0014226215018
0.00140366411205
0.00136895928123
0.00130942999768
0.00121167145458
0.00104970261767
0.000761169540932
0.000164938789441
0.000160599044521
0.000729543724535
0.00101232225271
0.00117257102248
0.00126763039849
0.00132167306791
0.00134849344383
0.00135824037666
0.00135749711453
0.00135159616726
0.00134427487884
0.00133568945379
0.00132266684605
0.00130245326108
0.00126918833078
0.00121428267993
0.00112487753306
0.000977218890863
0.000713677162001
0.000159407931447
0.00015118571333
0.000642127656937
0.000878071669746
0.0010111125966
0.00109022444434
0.0011357367399
0.00115916024901
0.00116848449511
0.00116940601109
0.00116600852259
0.00116064345311
0.00115355875422
0.00114309575325
0.00112637075769
0.00109857182431
0.00105274029922
0.000978091777643
0.000854616366681
0.000632821230291
0.000150388045246
0.000135841618224
0.000486627140895
0.000642637012753
0.000729367202926
0.000780761723384
0.000810426143178
0.000825993056171
0.000832654925227
0.000834109740922
0.000832852769698
0.000830207545805
0.000826300371025
0.000820169437993
0.000809857769563
0.000792196871006
0.000762583558547
0.000713824150009
0.000632480091815
0.000484094340689
0.00013543624849
0.000111344312989
0.000135799269121
0.000151124825469
0.000160478149116
0.000166212081557
0.000169567827143
0.000171337254569
0.000172051698352
0.000172203214252
0.000172144895425
0.000172051388821
0.000171917306746
0.000171538644509
0.00017057129021
0.000168605897832
0.000165165417255
0.000159517153559
0.00015042866054
0.000135453398857
0.000111062046184
0.000117131736018
0.000151468205505
0.000172530044191
0.00018551307509
0.000193599803523
0.000198401202144
0.000200946624969
0.000202008177841
0.000202194703435
0.000201952161197
0.000201529448917
0.000200948820448
0.00020000492876
0.00019832232664
0.000195394880974
0.00019054659639
0.0001828101106
0.000170567896822
0.000150506351997
0.000116911644885
0.00015149477219
0.000644799447161
0.00088437380534
0.00102034541986
0.00110228283764
0.00115060242608
0.00117654344399
0.00118764926422
0.00118942186742
0.00118576822124
0.00117894523399
0.00116951956229
0.00115635841873
0.00113658963053
0.001105633105
0.00105664104628
0.000978829099134
0.000852138756476
0.00062747264138
0.000150451345026
0.000172586699562
0.000883567065305
0.00126963646491
0.00149420705534
0.00163075342191
0.00171155460606
0.00175486721594
0.00177325536824
0.00177597351775
0.0017698968586
0.00175904044904
0.00174427146748
0.00172337464534
0.00169122442853
0.00163999134257
0.00155805702343
0.00142755517992
0.0012164602679
0.00085270935595
0.000170457066409
0.000185658181777
0.00101974820276
0.0014944903889
0.00177367021842
0.00194371709691
0.00204366379447
0.00209597543821
0.00211692380816
0.00211807193284
0.00210897738356
0.00209506896391
0.0020774385172
0.00205285602185
0.00201413888356
0.00195154845257
0.00185002040825
0.00168731362463
0.00142445802151
0.000977396720153
0.000182518138363
0.000193899920396
0.00110295086263
0.00163283300183
0.00194579761118
0.00213553091137
0.00224497974014
0.00229911428652
0.00231727528512
0.00231442535057
0.00230150309591
0.00228470156228
0.00226540219305
0.00224007819125
0.00220062934198
0.00213401431811
0.00202232916086
0.00184108660893
0.00154726909095
0.00105030618736
0.00018990082671
0.000198919698788
0.00115358931852
0.00171707915467
0.00204989538115
0.00224948511788
0.00236086773166
0.00241259321888
0.00242562672108
0.00241725520742
0.00239995517661
0.00238044337761
0.00236027324171
0.00233546153408
0.00229719076144
0.00223169197105
0.0021182164445
0.00192790249506
0.00161704465579
0.00109174701303
0.000194233581715
0.000201740165317
0.00118284691831
0.00176542998618
0.00210844048537
0.00231092567073
0.0024206639116
0.00246738366469
0.00247370699845
0.0024592967158
0.00243779158191
0.00241612277016
0.00239582967035
0.0023724463909
0.00233657142586
0.00227404553512
0.00216299852778
0.00197114257506
0.00165259972184
0.00111317133182
0.00019653650909
0.000203123233309
0.00119811591181
0.00179019983606
0.00213731725965
0.00233859731351
0.00244482340411
0.00248565418687
0.00248562487362
0.00246600530063
0.00244120301615
0.00241814543149
0.00239820825945
0.00237659759142
0.00234352639736
0.00228438621315
0.00217695600024
0.00198741622648
0.00166703899823
0.00112236546558
0.000197555072557
0.000203660226568
0.00120464264215
0.00180022788398
0.00214780227956
0.00234664318417
0.00244906805379
0.00248513321906
0.00248050680058
0.00245738420983
0.00243056150742
0.00240683107596
0.00238735581571
0.00236719441516
0.00233639675686
0.0022800693112
0.00217567856044
0.00198885892729
0.00166998885869
0.00112491926115
0.000197861376115
0.000203782164519
0.00120602095841
0.00180178585254
0.00214823688514
0.00234497511892
0.00244478063669
0.00247808498228
0.00247111210586
0.00244643652235
0.00241887649811
0.00239502814069
0.0023758939066
0.00235648282353
0.00232683643406
0.00227203267668
0.00216946388424
0.0019846696133
0.00166810950227
0.00112456592426
0.000197857695234
0.000203722342402
0.00120417590281
0.00179837787477
0.00214349404971
0.00233905488476
0.00243792746597
0.00247064096789
0.00246349231586
0.00243899018456
0.00241176316152
0.00238821810421
0.00236925065427
0.00234985107986
0.00232016020304
0.00226545451372
0.00216332869256
0.00197947991593
0.00166454247639
0.00112311855138
0.000197762303861
0.000203473269047
0.00119930410965
0.00179037931567
0.00213406984734
0.00232948804945
0.00242913347515
0.00246333715417
0.00245801098904
0.00243520937047
0.00240922984429
0.0023863230432
0.00236732576645
0.0023472367356
0.00231638767006
0.00226045597885
0.0021574797185
0.00197353329246
0.00165951116469
0.00112062787197
0.000197583775134
0.000202793483884
0.00118984547963
0.00177501026853
0.00211603446067
0.00231191488626
0.00241349848076
0.00245093333696
0.00244925785106
0.0024296347047
0.00240578988693
0.00238383574503
0.00236463165869
0.00234328635235
0.00231044973236
0.00225234708968
0.00214755907354
0.00196291493253
0.00165015602141
0.00111546371734
0.000197101030998
0.000201262656243
0.00117254382103
0.00174665720849
0.00208210741901
0.00227756008438
0.00238098236791
0.00242267358133
0.00242603835053
0.00241078173017
0.00238981063032
0.00236913535439
0.002349691354
0.00232691023859
0.00229191137734
0.00223144832889
0.00212447191913
0.00193969721672
0.00163083451828
0.00110429853253
0.000195914848881
0.000198324237222
0.0011424108928
0.00169688277153
0.00202141837816
0.00221305385302
0.00231721065532
0.00236278976308
0.00237158093414
0.00236119992939
0.00234353170671
0.00232447423446
0.00230504909486
0.00228118511226
0.00224459077802
0.00218225884246
0.00207417329984
0.00189208357062
0.00159263272579
0.00108199859937
0.000193490164996
0.00019326170931
0.00109219481997
0.00161352491363
0.00191838768752
0.00210002217719
0.00220195227084
0.00224964322042
0.00226291572049
0.00225705098424
0.00224275092903
0.00222568425648
0.00220686200299
0.00218272483523
0.00214560255106
0.0020831887526
0.00197763280278
0.00180523351275
0.00152331468723
0.00104121747014
0.000189130535653
0.000185088235788
0.0010107051826
0.00147814679542
0.0017501418342
0.00191273276452
0.00200542795545
0.00205134162118
0.00206718856509
0.00206486432245
0.0020538122768
0.00203921819617
0.00202199593902
0.00199899148634
0.00196337536538
0.00190529560112
0.0018102790295
0.00165625301621
0.00140449692328
0.000970728602227
0.000181850365453
0.000172198318141
0.000877380546676
0.00125781768124
0.00147658230831
0.0016069763111
0.00168164917425
0.00171937796136
0.0017331988047
0.0017326877743
0.00172478071506
0.00171341400906
0.00169939127079
0.00168049064647
0.00165167899442
0.00160510304999
0.00152919669132
0.00140613468309
0.00120395079959
0.00085010129169
0.000170012412132
0.000151341890118
0.000642328164799
0.000878313931056
0.00101041556493
0.00108832234115
0.00113268497687
0.00115506063611
0.00116331330956
0.00116318040129
0.00115868097642
0.00115207782371
0.00114387546828
0.00113284001214
0.00111605323679
0.00108880131509
0.00104410596777
0.000971052324785
0.000849444619017
0.000629642638298
0.000150252087936
0.00011704784092
0.000151269932511
0.000172054843741
0.000184748705551
0.000192566222867
0.000197132494064
0.000199490092675
0.000200422322581
0.000200541861772
0.000200285977546
0.000199892259058
0.000199372834777
0.000198522417942
0.000196964316455
0.000194193343982
0.000189542648108
0.000182050771133
0.000170093245054
0.000150292666389
0.00011657630948
0.000121877898858
0.000165069202227
0.000191176676574
0.000207284860507
0.000217287351967
0.000223112751506
0.000226018541543
0.000226981050258
0.000226785823959
0.000226002445413
0.000224949281643
0.000223690873154
0.000222030384245
0.000219544497103
0.000215634254652
0.000209504676455
0.000200035266691
0.000185357356092
0.000161547776685
0.000121137150224
0.000165152200857
0.000771319462516
0.00106715455815
0.00123386571692
0.00133375383575
0.00139200441782
0.00142225977828
0.00143369253481
0.00143316584027
0.00142564590537
0.00141415719552
0.00139966292191
0.00138101820272
0.00135479416165
0.00131536257484
0.00125434243706
0.00115850436752
0.00100322051757
0.000728969918617
0.000161467414027
0.000191341264106
0.00106597622205
0.00154675422296
0.00182593689097
0.00199566168749
0.00209569256331
0.0021483286204
0.00216895990932
0.00216943411923
0.00215859192525
0.00214183900155
0.00212065058899
0.00209255205924
0.00205120276234
0.00198653545933
0.00188388477632
0.00172069133674
0.00145672958143
0.00100371635788
0.000185096973201
0.00020763569138
0.00123304463388
0.00182618135771
0.0021757454606
0.00238914784642
0.00251455458429
0.00257945088016
0.00260269987421
0.00260054114359
0.00258530446684
0.00256413791235
0.00253902208415
0.00250633228011
0.00245738304813
0.00237912503309
0.00225195472048
0.00204713222476
0.00171565721079
0.00115490463432
0.000199265046129
0.000217943159391
0.00133478577638
0.00199817994879
0.00239169469136
0.00263174857986
0.00277087544207
0.00283832457395
0.00285742784888
0.00284865764343
0.00282716250746
0.00280137803475
0.0027736012995
0.00273937215183
0.00268844244347
0.00260533701285
0.0024666720109
0.00223858026066
0.00186656683021
0.00124144730833
0.000207812948707
0.000224192689081
0.0013963447123
0.00210267668205
0.00252248055941
0.00277748361874
0.00292001518945
0.00298217941463
0.00299172953361
0.00297341514015
0.00294471256706
0.0029148543062
0.0028860111236
0.00285288476291
0.00280376047209
0.00272144345693
0.00258078535511
0.00234328311901
0.00194947622844
0.00128829022094
0.00021263669831
0.000227637514473
0.00143126344685
0.00216185677567
0.00259601617813
0.00285652696544
0.00299521219061
0.00304721709784
0.0030446877855
0.00301623018748
0.00298112230163
0.00294868150692
0.0029203532921
0.00289009742069
0.00284508644979
0.00276677385639
0.00262858637232
0.00239066093947
0.00198824728417
0.00130975597302
0.00021496918735
0.000229240504964
0.00144851612265
0.00219085789002
0.00263097748671
0.00289060745185
0.00302217305194
0.00306329958997
0.00304977782073
0.00301324239115
0.00297397413425
0.00294061877914
0.0029135959584
0.00288646141989
0.00284579915986
0.0027722696607
0.00263826134288
0.00240304824435
0.00199995596842
0.00131591049792
0.000215760180588
0.000229763673179
0.00145464770724
0.00220094170267
0.00264150048243
0.00289782880846
0.00302275770928
0.00305568501865
0.0030349788508
0.00299383172681
0.00295277434708
0.00291954740407
0.00289366928262
0.00286867716104
0.00283106758022
0.00276113166174
0.00263074648948
0.00239861562569
0.00199769771888
0.0013143253195
0.000215757302691
0.000229750665638
0.00145427226404
0.00220029618951
0.00263920520047
0.00289242577478
0.00301308392678
0.00304171742738
0.00301803456335
0.00297564667045
0.00293462465631
0.00290195938229
0.00287672467981
0.00285249494331
0.00281593180599
0.00274744055349
0.00261887942517
0.00238882647724
0.00199030138587
0.00131011471446
0.000215481881857
0.000229484892836
0.00144999172896
0.00219359828854
0.00263063733316
0.00288217569474
0.00300150630681
0.00302956653826
0.00300622603221
0.00296477559792
0.00292475919925
0.00289278444325
0.00286776393307
0.00284325691138
0.00280612183099
0.00273715578575
0.00260860358516
0.00237935641362
0.0019827331241
0.00130596468188
0.000215210824683
0.000228965647214
0.00144229243428
0.00218162562593
0.00261676300631
0.0028681030292
0.00298888743034
0.00301969269355
0.00299946977826
0.00296063231788
0.00292232965241
0.00289114573364
0.00286600407597
0.00284036830264
0.00280132453945
0.0027302960256
0.00260023257517
0.0023706948796
0.00197548318778
0.00130212736666
0.000214947241881
0.000227914923038
0.00142946341185
0.00216119414042
0.00259271186877
0.00284416866201
0.00296848852471
0.00300509958823
0.0029909477566
0.00295687790077
0.00292131389297
0.00289106910239
0.00286543999285
0.00283780685744
0.00279569006056
0.00272140764257
0.00258882621626
0.00235841380577
0.0019648224181
0.00129648564763
0.000214425847806
0.000225825428858
0.0014075894556
0.00212531425127
0.00254848638664
0.00279812371399
0.00292650759125
0.00297098808124
0.00296542896521
0.00293812057439
0.00290637232735
0.00287734280319
0.00285103430055
0.00282111381895
0.00277581484547
0.0026983014926
0.00256352029286
0.00233286504308
0.00194296363178
0.00128473706961
0.0002131671564
0.000222012314884
0.00137058024173
0.00206345603915
0.00247134709639
0.00271396493558
0.00284409850529
0.0028960650387
0.00289973742935
0.00288011939421
0.00285307177027
0.00282583652054
0.00279920868971
0.00276755230199
0.00272001604108
0.00264075554555
0.0025058407744
0.00227795842842
0.00189859122461
0.00126027844232
0.000210512103868
0.000215607530239
0.00130958449201
0.00196056478122
0.00234258855606
0.00257038233347
0.0026968418547
0.00275280312018
0.00276387205921
0.00275127001919
0.00272908343733
0.00270431562184
0.00267824994138
0.00264617456249
0.00259846952848
0.00252042848392
0.00238954587903
0.0021721286664
0.00181561224536
0.00121378415034
0.000205610248448
0.000205437324061
0.00121085168039
0.00179369410115
0.00213306492279
0.00233527586954
0.00244926161131
0.00250346258748
0.00251798589073
0.00251029602388
0.00249232654144
0.00247047218615
0.00244619408635
0.00241577972268
0.00237104115507
0.00229894420864
0.00218026722607
0.00198678452261
0.00167059589724
0.00113128564037
0.000197290396369
0.000189600549182
0.00104876215185
0.00152141953642
0.00179207296854
0.0019521715676
0.00204226064069
0.00208558654835
0.00209839719432
0.00209316406391
0.00207884607164
0.00206064844575
0.00203994614672
0.00201434071106
0.00197760876459
0.00191963372158
0.00182580177495
0.00167362320009
0.00142332479344
0.000987726033122
0.000183640279451
0.000164139035705
0.000760781405258
0.00105023885758
0.00121042239996
0.00130333921741
0.00135454957994
0.00137822205828
0.00138407449808
0.00137942557196
0.00136950693231
0.00135742544376
0.00134416494632
0.00132849218001
0.00130692359995
0.00127363537028
0.00122003742594
0.00113271451382
0.000987008883745
0.000723408339325
0.000160673451377
0.00012162494641
0.000164015658909
0.000189270550437
0.000204599246347
0.000213899113746
0.000219103280786
0.000221485195208
0.000222044924354
0.00022158860823
0.000220698683308
0.000219700277056
0.000218641286942
0.000217309542857
0.000215269665772
0.000211910563183
0.000206430661171
0.00019769570456
0.000183808423101
0.000160757919293
0.000120576809427
0.00012753183903
0.00018201515232
0.000213623769486
0.000232920191655
0.000244768797785
0.00025147742295
0.000254552878332
0.000255183499646
0.000254326398234
0.000252675678327
0.000250640442968
0.000248334475095
0.000245577937392
0.000241910539429
0.000236652852963
0.000228912399326
0.000217446626503
0.000200173828998
0.000172567250459
0.000125138211408
0.0001822084057
0.000902736355112
0.00124361644703
0.00143429652719
0.0015483461345
0.00161426644707
0.0016473625088
0.00165811008542
0.00165447739597
0.00164238703186
0.00162566259168
0.00160572614056
0.00158141043385
0.00154882152575
0.00150146354418
0.00142990620873
0.00131928361127
0.00114146273411
0.00082684920926
0.000172425627877
0.000213978279007
0.00124229834429
0.00179708522791
0.00211856981968
0.00231419098612
0.00242907661216
0.00248813521709
0.00250782950406
0.00250254449533
0.00248375799047
0.00245834046407
0.00242882057709
0.00239245238338
0.00234212360007
0.00226675529231
0.00214895516166
0.00196272971333
0.00166179720666
0.00114179924896
0.000199557807977
0.000233592080125
0.00143369896936
0.00211911642877
0.0025233447878
0.00277197963218
0.00291752233273
0.00298856266747
0.00300703751264
0.00299387942039
0.00296552076954
0.0029315399653
0.00289530229033
0.00285294220266
0.00279457923681
0.00270509293509
0.00256210246421
0.00233137544005
0.00195480502624
0.0013123575797
0.000215619694159