/*--------------------------------*- C++ -*----------------------------------*\
| =========                 |                                                 |
| \\      /  F ield         | OpenFOAM: The Open Source CFD Toolbox           |
|  \\    /   O peration     | Version:  3.0.1                                 |
|   \\  /    A nd           | Web:      www.OpenFOAM.org                      |
|    \\/     M anipulation  |                                                 |
\*---------------------------------------------------------------------------*/
FoamFile
{
    version     2.0;
    format      ascii;
    class       surfaceVectorField;
    location    "9";
    object      ddt0(Uf);
}
// * * * * * * * * * * * * * * * * * * * * * * * * * * * * * * * * * * * * * //

dimensions      [0 1 -2 0 0 0 0];

internalField   nonuniform List<vector> 
22672
(
(-9.828185226e-05 -5.21230844477e-05 0.000106190004493)
(-5.54434617861e-05 -9.32244627396e-05 0.000108982071277)
(-5.04953923569e-05 -4.41389458904e-05 0.000191551652465)
(-0.000173974213919 -5.01027722794e-05 8.96923554004e-05)
(-0.000130319617549 -9.10010174337e-05 8.43938878605e-05)
(-0.000132419006052 -4.20958886219e-05 0.000166759288301)
(-0.000239804968638 -4.9206804415e-05 7.92213567234e-05)
(-0.000204216444167 -8.60927672991e-05 8.09622779502e-05)
(-0.000212203684209 -4.3425825594e-05 0.000152008577183)
(-0.000293226529985 -4.96893556337e-05 7.10295447374e-05)
(-0.000273770691659 -8.78930204235e-05 7.98040082778e-05)
(-0.000287074537843 -4.76194185509e-05 0.000141429382244)
(-0.000335309489869 -4.8802617718e-05 6.29710475833e-05)
(-0.000329824249255 -8.45458536086e-05 7.47070059289e-05)
(-0.000345415151919 -5.26205171894e-05 0.000126782848434)
(-0.000359503915537 -4.60120414872e-05 5.43965968667e-05)
(-0.000365630349485 -8.61863359144e-05 6.67296808966e-05)
(-0.00038165807789 -5.32633165491e-05 0.00011057554288)
(-0.000365356310856 -4.41602373647e-05 4.35866140853e-05)
(-0.000383999802049 -8.47938539613e-05 5.57798337091e-05)
(-0.000398688826259 -5.21830813014e-05 9.08729638428e-05)
(-0.00036342443641 -4.10208794613e-05 3.46689831593e-05)
(-0.000379056311323 -8.41368585656e-05 4.2256561394e-05)
(-0.000391054159324 -4.9874301056e-05 8.24451462566e-05)
(-0.000342073675202 -3.65372882807e-05 2.84976143974e-05)
(-0.000358470304576 -7.62661741003e-05 3.32323013539e-05)
(-0.000368082807459 -4.56871315314e-05 5.51434443543e-05)
(-0.000312315560188 -3.30445148212e-05 2.22380452505e-05)
(-0.000323311014349 -6.89390050682e-05 2.52243441937e-05)
(-0.000332256923099 -4.13246919718e-05 3.93680294019e-05)
(-0.000276860901134 -3.01431310388e-05 1.69546382414e-05)
(-0.000281095361336 -6.22863024304e-05 1.92544864061e-05)
(-0.000289152421351 -3.74205200841e-05 2.6950797301e-05)
(-0.000239237533193 -2.81180657287e-05 1.3100668692e-05)
(-0.000234279485784 -5.59410825135e-05 1.57709066139e-05)
(-0.000240823879205 -3.38522101481e-05 1.83489481126e-05)
(-0.000203254786654 -2.67021003294e-05 1.16369127184e-05)
(-0.000189935348736 -5.11294555203e-05 1.46264067069e-05)
(-0.000194014626381 -3.1207600385e-05 1.50826108222e-05)
(-0.000169077400364 -2.56897928944e-05 1.20690272917e-05)
(-0.000154341114452 -4.55666486425e-05 1.59377725635e-05)
(-0.000155460039506 -2.85229709628e-05 1.12384244884e-05)
(-0.00013922194622 -2.51149432983e-05 1.35794650849e-05)
(-0.000124823918907 -4.07193915325e-05 1.76268996584e-05)
(-0.000123824560615 -2.56451419486e-05 1.06501949964e-05)
(-0.000115762227747 -2.52086572547e-05 1.53101073361e-05)
(-0.000105728991222 -3.60423344693e-05 1.96626509472e-05)
(-0.000102406007036 -2.18149068982e-05 1.2338121601e-05)
(-9.3851851624e-05 -2.63536406519e-05 1.61113669817e-05)
(-9.11467347394e-05 -3.47524913782e-05 1.88174326316e-05)
(-8.80227373262e-05 -1.86077488698e-05 1.25953611639e-05)
(-6.90952012158e-05 -2.93391146978e-05 1.79217856651e-05)
(-7.8737957923e-05 -3.6034971563e-05 1.49227532232e-05)
(-7.82393505725e-05 -1.71155394683e-05 1.10386897038e-05)
(-3.80247656441e-05 -3.55001563121e-05 2.4073754247e-05)
(-6.25064640131e-05 -4.36658484103e-05 1.06980261567e-05)
(-6.4790290539e-05 -2.24207012326e-05 1.23414943586e-05)
(-1.79560779523e-05 -6.01469491291e-05 1.79323237292e-05)
(-2.35501019642e-05 -3.59600745407e-05 2.19298113855e-05)
(-8.40241229267e-05 -0.000132111187372 8.71859546446e-05)
(-5.22949439203e-05 -0.000182617614394 9.7937908796e-05)
(-4.03525451874e-05 -0.000128947253194 0.0001734895542)
(-0.000163253304893 -0.000126057025187 7.56638104103e-05)
(-0.000119823216768 -0.000180038871182 7.74912002277e-05)
(-0.000126810313097 -0.000137101922744 0.000168366989447)
(-0.000242647019966 -0.000126932544952 8.15449295046e-05)
(-0.000206560992666 -0.000185877405333 9.33729092732e-05)
(-0.000223469807178 -0.000147750338011 0.000179305842728)
(-0.000316062619466 -0.000131071575258 8.34814694694e-05)
(-0.000290807026505 -0.000195310009083 0.000101594439238)
(-0.000313106757078 -0.000159825826106 0.000180999570238)
(-0.000368333632015 -0.000134886967099 7.84656392423e-05)
(-0.0003585159026 -0.000203772040207 9.8305607476e-05)
(-0.00038206471459 -0.000170729461249 0.000171713314846)
(-0.000397955324409 -0.000135334489467 6.8112917739e-05)
(-0.00040022074297 -0.000209347846416 8.68562727063e-05)
(-0.000423391958746 -0.000176672364148 0.000153048615649)
(-0.000402448971006 -0.000133542160072 5.44497810178e-05)
(-0.000416289204721 -0.000208572850578 7.13859920675e-05)
(-0.000437820096347 -0.000176958461811 0.00012857571257)
(-0.00038434101077 -0.000127633529612 4.08198795885e-05)
(-0.000403416606595 -0.000203391644411 5.41815301764e-05)
(-0.000423123972537 -0.000173033652712 0.000101464992479)
(-0.000346777845574 -0.000117725783771 2.99590311501e-05)
(-0.000368260016062 -0.000192027365885 3.99565150733e-05)
(-0.000385757054666 -0.000163969014857 7.85009918033e-05)
(-0.000297595251811 -0.00010758997433 2.22407853492e-05)
(-0.000317409874363 -0.000178237888521 2.96179435808e-05)
(-0.000332266724621 -0.000153031223667 6.03708460281e-05)
(-0.000243815367152 -9.73530796796e-05 1.80707547785e-05)
(-0.000259277876844 -0.000163676815199 2.37450921334e-05)
(-0.000270633512437 -0.000141608469986 4.7786607731e-05)
(-0.000192308110918 -8.77234954548e-05 1.72966446286e-05)
(-0.000199323376255 -0.000148897281208 2.26172396782e-05)
(-0.0002065428988 -0.00012959716076 4.15255213431e-05)
(-0.000147482863563 -7.83696854916e-05 1.89272665519e-05)
(-0.00014574297045 -0.000135138811716 2.50261998841e-05)
(-0.000148139078355 -0.000118895691626 3.91550841189e-05)
(-0.000113638348333 -6.87978886777e-05 2.14956449302e-05)
(-0.000105935887258 -0.000120879984236 2.98323122117e-05)
(-0.00010267527709 -0.000106934687592 4.13447098501e-05)
(-9.25594655227e-05 -5.93824130122e-05 2.37100855206e-05)
(-7.91566965018e-05 -0.000106534317199 3.49130609216e-05)
(-7.05399185981e-05 -9.43200796311e-05 4.45413823165e-05)
(-8.33853726542e-05 -5.23422900442e-05 2.31699762428e-05)
(-6.8570334621e-05 -9.18665193245e-05 3.86785047481e-05)
(-5.42540089461e-05 -8.05235073941e-05 4.64147125394e-05)
(-7.97898244321e-05 -5.04586144557e-05 1.76288188731e-05)
(-6.75596974995e-05 -8.1725154586e-05 3.65487011722e-05)
(-4.93732475923e-05 -6.88243257065e-05 4.31242867726e-05)
(-7.09805288728e-05 -5.6158423535e-05 7.69899371488e-06)
(-7.05806736759e-05 -7.70909694897e-05 2.5848312097e-05)
(-5.1941929546e-05 -6.12919195707e-05 3.19801446581e-05)
(-4.52131086053e-05 -7.28018074112e-05 4.55659563884e-06)
(-6.85081236993e-05 -8.23970934521e-05 5.51915992219e-06)
(-5.17836080245e-05 -6.46105766724e-05 1.26638741167e-05)
(-2.2034074159e-05 -0.000101841819032 1.06016359807e-06)
(-2.08566500047e-05 -8.13918524223e-05 -3.75055458821e-06)
(-8.07997157075e-05 -0.000226470818989 8.82431543791e-05)
(-5.17043093167e-05 -0.000267518588672 9.1923774236e-05)
(-3.91241798161e-05 -0.000229302197698 0.000165811694811)
(-0.000165505846173 -0.000235024469666 9.52002990906e-05)
(-0.000119476508589 -0.000280038446422 8.62657724352e-05)
(-0.000131968520741 -0.000254196737292 0.000184856764251)
(-0.000258003196752 -0.000250258173084 0.000113422419007)
(-0.00021922005703 -0.00029978761887 0.000114024763524)
(-0.000239062438145 -0.000275448042143 0.000206597585801)
(-0.000340270797181 -0.000265598727497 0.000116418577245)
(-0.000312533371812 -0.000320090657996 0.000121590599432)
(-0.000335504688287 -0.000295751769068 0.000207290431863)
(-0.000398004956501 -0.000276694813303 0.00010669624094)
(-0.000384950215175 -0.000337178210226 0.000111530999343)
(-0.000407669291733 -0.000311937997423 0.000191445371124)
(-0.000426333699776 -0.000280472721409 9.01293470349e-05)
(-0.000426731651342 -0.00034632026004 9.263956152e-05)
(-0.000449066042341 -0.000321223214094 0.000165669039652)
(-0.000424334666513 -0.000276672524025 7.11177412262e-05)
(-0.000436731038411 -0.000345570782503 7.11268151185e-05)
(-0.00045898383712 -0.000322026712538 0.000135416099402)
(-0.000395627257364 -0.000265999558787 5.33181656612e-05)
(-0.000415060107508 -0.000336732179094 5.05102717897e-05)
(-0.000438063236981 -0.000315583060308 0.000105073558563)
(-0.000346486532174 -0.000250218885131 3.96154275039e-05)
(-0.000369253978036 -0.000320107927503 3.40571422407e-05)
(-0.000392457155714 -0.000302771497598 7.93686245302e-05)
(-0.000284904434143 -0.000232228625083 3.1122250365e-05)
(-0.000307450152307 -0.000299954592961 2.33450999413e-05)
(-0.000329670410025 -0.000286011120083 6.05139085428e-05)
(-0.000219396221163 -0.000213163169247 2.82915770331e-05)
(-0.000238803076787 -0.000277932229068 1.86467604393e-05)
(-0.000258625181082 -0.000267453189778 4.90431954914e-05)
(-0.000159808624978 -0.00019437870821 3.03467949337e-05)
(-0.000170748064901 -0.000254556034545 1.99865867831e-05)
(-0.000187157057921 -0.000247644555513 4.62608219239e-05)
(-0.000109203640702 -0.000176102444374 3.59312455439e-05)
(-0.00011157079971 -0.000232787552753 2.61070111857e-05)
(-0.000122569787511 -0.000228147704447 4.71193568446e-05)
(-7.42673818618e-05 -0.000157406601159 4.32497282031e-05)
(-6.83263512991e-05 -0.000210827582852 3.56008548177e-05)
(-7.19111438014e-05 -0.00020752904456 5.49804874671e-05)
(-5.65424935849e-05 -0.000138143237589 4.98814801491e-05)
(-4.21573623308e-05 -0.000188366259025 4.60130960089e-05)
(-3.8062706661e-05 -0.000185727525961 6.3988857302e-05)
(-5.46786465158e-05 -0.000120516557488 5.20572296775e-05)
(-3.62630530943e-05 -0.000164903681835 5.5171157732e-05)
(-2.28701579531e-05 -0.000162840407291 7.0989514299e-05)
(-6.24539184372e-05 -0.000107623900619 4.47681943961e-05)
(-4.38566551068e-05 -0.00014533194989 5.72580071653e-05)
(-2.19909407203e-05 -0.000142014931283 7.11477928721e-05)
(-6.73470525608e-05 -0.000102549115325 2.36684783045e-05)
(-5.86827193252e-05 -0.000131373057717 4.53771139498e-05)
(-3.19234568198e-05 -0.000125200136157 5.88891601159e-05)
(-4.98035666619e-05 -0.000110317129764 2.02272788145e-06)
(-7.09039747277e-05 -0.00012626803536 1.27806953567e-05)
(-4.29919557496e-05 -0.000117744911882 2.59734462748e-05)
(-2.57097427202e-05 -0.000135745874219 -8.52807869423e-06)
(-1.98040325715e-05 -0.000120907209598 -1.61781575869e-05)
(-8.22793154571e-05 -0.000318799701249 8.9946392292e-05)
(-5.18665865304e-05 -0.000345441440788 8.68444159537e-05)
(-4.3167852715e-05 -0.00032752937525 0.000160375959502)
(-0.000174649227873 -0.000343016310844 0.000105090236869)
(-0.000124053016159 -0.000377177310752 8.96656986751e-05)
(-0.000143310613226 -0.000365972262476 0.000189738322773)
(-0.000276695120085 -0.000368385931414 0.00012219294395)
(-0.000234487069928 -0.000407072483813 0.000117615915573)
(-0.000257856896299 -0.000393560293162 0.00020961321411)
(-0.000364108633041 -0.00039056921697 0.000116703021531)
(-0.000333706277328 -0.000433547232492 0.000116663961552)
(-0.000357867699077 -0.000417163293814 0.000201220051413)
(-0.000421919022817 -0.000405519011387 9.74743199233e-05)
(-0.000406827498922 -0.000453335999252 9.63367257035e-05)
(-0.000429401803082 -0.000435147707697 0.000174397697498)
(-0.000445336148946 -0.000410144122004 7.36370296037e-05)
(-0.000444299060464 -0.000461803673767 6.90447991458e-05)
(-0.00046711304113 -0.000444728147437 0.000139409374065)
(-0.000434975803354 -0.00040436589913 5.05193456821e-05)
(-0.000446060185576 -0.000458694769806 4.26523835524e-05)
(-0.000470660327605 -0.000444804102278 0.000103335873009)
(-0.000396596436258 -0.000389229306472 3.12492483691e-05)
(-0.000414643703593 -0.000445053519652 1.98513845798e-05)
(-0.000442651479215 -0.000436121337469 7.05471735398e-05)
(-0.000338209769896 -0.000367296413046 1.7786814678e-05)
(-0.000359590765442 -0.000422171865504 3.54170795906e-06)
(-0.000389743047122 -0.000419385091936 4.42752004635e-05)
(-0.000267327741809 -0.000342391757859 1.08696100156e-05)
(-0.000289975573359 -0.000394164890403 -5.54251568191e-06)
(-0.000319998739407 -0.000397605568387 2.3876016998e-05)
(-0.00019415134651 -0.000316702818101 1.03417701893e-05)
(-0.000214837276659 -0.000365971434452 -7.75042758165e-06)
(-0.000242800679919 -0.000373416707599 1.53230326115e-05)
(-0.000128890838371 -0.000291290531335 1.57468030351e-05)
(-0.000142141301969 -0.000338901844602 -3.40735720744e-06)
(-0.000166344692194 -0.000347930073231 1.94331632363e-05)
(-7.4784133728e-05 -0.000266283162634 2.57766204595e-05)
(-7.97538599769e-05 -0.00031245820448 6.48252538259e-06)
(-9.80862620212e-05 -0.000322041934796 2.57899035147e-05)
(-3.87831647701e-05 -0.00024095632021 3.83642226235e-05)
(-3.4478360571e-05 -0.000286418993411 2.08149436406e-05)
(-4.45630284865e-05 -0.000295439510417 3.96971828191e-05)
(-2.30803701233e-05 -0.000214625501326 5.13027735918e-05)
(-8.69109898888e-06 -0.000259944259154 3.67955851304e-05)
(-9.11031536789e-06 -0.000267851680905 5.58724716223e-05)
(-2.70792521808e-05 -0.000189448869288 6.03719352199e-05)
(-6.0727358351e-06 -0.000231830963057 5.26755712658e-05)
(5.60919219758e-06 -0.000239171496747 7.08238672098e-05)
(-4.45929552147e-05 -0.000168629858048 5.78669267191e-05)
(-2.11204429056e-05 -0.000206667101698 6.16451183731e-05)
(3.18879448173e-06 -0.00021269221879 7.86517897656e-05)
(-6.17731153216e-05 -0.000154035183744 3.4489331002e-05)
(-4.58594728616e-05 -0.000185708375031 5.42778506554e-05)
(-1.34147397511e-05 -0.000189893199112 7.12176727252e-05)
(-5.24862050023e-05 -0.000150057891377 2.22988878104e-06)
(-7.12610969113e-05 -0.000170728983341 1.74960695267e-05)
(-3.44287925083e-05 -0.0001737019834 3.4768765663e-05)
(-2.90990043305e-05 -0.000166316538831 -1.46262606742e-05)
(-1.79022301217e-05 -0.000163485786114 -2.22345807147e-05)
(-8.45820168432e-05 -0.000399536066506 8.65637223367e-05)
(-5.10344365698e-05 -0.000410652741857 8.02363513448e-05)
(-4.73528361181e-05 -0.000410811955292 0.00015005300993)
(-0.000185295574252 -0.000436647166567 0.000102191377379)
(-0.000129786496037 -0.000457227629687 8.50920088669e-05)
(-0.000154398831216 -0.000459337530795 0.000181096110241)
(-0.000294269028548 -0.000467274627907 0.000112086933175)
(-0.000247507139693 -0.000491820064873 0.000107332612641)
(-0.00027480282467 -0.00048880953658 0.000194121815103)
(-0.000383409759703 -0.000491066927289 9.62976657248e-05)
(-0.000350217552741 -0.00051869589395 9.66109006837e-05)
(-0.000376808168326 -0.000511251922558 0.000174775217116)
(-0.000437519531239 -0.000504633350241 6.7907204926e-05)
(-0.000421066351289 -0.000535820237415 6.69202729431e-05)
(-0.000445934820436 -0.000526764251979 0.000137178222583)
(-0.00045389072099 -0.000505344131041 3.80601530946e-05)
(-0.000450994150773 -0.000539666086182 3.32667489884e-05)
(-0.000477904178282 -0.00053291619749 9.49149948081e-05)
(-0.000433424962921 -0.000494180213867 1.19844224501e-05)
(-0.000443471821882 -0.000529787471402 3.67601589595e-06)
(-0.000473968530622 -0.000528912595181 5.13859076183e-05)
(-0.000385689178147 -0.000473143592088 -7.85615583032e-06)
(-0.000402328125081 -0.000510054261171 -1.97532182273e-05)
(-0.0004376590492 -0.000515934586649 1.80653767283e-05)
(-0.000319431113041 -0.000445077919669 -1.97876224009e-05)
(-0.000339475096285 -0.000481511963657 -3.40690629744e-05)
(-0.000377519305526 -0.000494433816596 -6.12268549901e-06)
(-0.000243673982714 -0.000414562402209 -2.41625532792e-05)
(-0.000265057474348 -0.000449101444736 -4.02042150644e-05)
(-0.000302505723807 -0.000468055516924 -2.00786617297e-05)
(-0.000167355334417 -0.000384729387442 -2.14995549784e-05)
(-0.000187651268317 -0.000417110610418 -3.93763025065e-05)
(-0.000221451189593 -0.000439657028162 -2.45310163168e-05)
(-9.86620836031e-05 -0.000356348385015 -1.26716348599e-05)
(-0.000113831263616 -0.000387319513447 -3.21463770161e-05)
(-0.000142579175244 -0.000410824061813 -1.97456814414e-05)
(-4.29688597683e-05 -0.000328955816597 1.52084856365e-06)
(-5.06463101701e-05 -0.000359904952959 -1.95317553844e-05)
(-7.23898181092e-05 -0.000382473781547 -7.84511185415e-06)
(-6.73208352969e-06 -0.000301685022849 1.92463061475e-05)
(-4.98574660728e-06 -0.000333498261986 -1.44770392403e-06)
(-1.72767622355e-05 -0.000353724121449 1.11124769941e-05)
(7.60642854701e-06 -0.000273506251127 3.81683828043e-05)
(2.00010387853e-05 -0.00030727289553 1.88539200368e-05)
(1.85675180064e-05 -0.000324737313126 3.31284193102e-05)
(-1.49320783082e-06 -0.000245761556014 5.3948754419e-05)
(1.9891411673e-05 -0.000279357138078 4.02020491804e-05)
(3.2411308685e-05 -0.000295214952335 5.66282042752e-05)
(-2.7007549002e-05 -0.000220877826082 5.80560423094e-05)
(-1.29911788038e-06 -0.000253653654617 5.55066262624e-05)
(2.61976939206e-05 -0.000267310013276 7.23611904093e-05)
(-5.47903772297e-05 -0.000199735008106 3.728458918e-05)
(-3.42721223033e-05 -0.00022940759875 5.38693795432e-05)
(3.61595101316e-06 -0.000242260021848 7.11908154254e-05)
(-5.40767542235e-05 -0.000184823076905 6.39920071495e-07)
(-7.09178186494e-05 -0.000207827575509 1.76737577421e-05)
(-2.68687956669e-05 -0.000220252111575 3.59489321829e-05)
(-3.28733385541e-05 -0.000193219516528 -1.92206179876e-05)
(-1.62096036456e-05 -0.000198872808973 -2.75138826858e-05)
(-8.63565105302e-05 -0.000462383184434 7.8764637875e-05)
(-4.9942024995e-05 -0.000458645245685 7.22001295087e-05)
(-4.92506434529e-05 -0.000473328225531 0.000134708248261)
(-0.000193677803746 -0.00050641624993 9.02332441287e-05)
(-0.000133774027665 -0.000511790215378 7.41857944591e-05)
(-0.000162466414983 -0.000526704573699 0.000162331635744)
(-0.000306426079166 -0.000536959202208 9.18565801492e-05)
(-0.000254839837301 -0.00054575127249 8.92383220546e-05)
(-0.000286417443466 -0.000554676402851 0.000167212582453)
(-0.000394586066249 -0.000557192644043 6.7233507902e-05)
(-0.000358687394198 -0.000568298415846 7.06740394977e-05)
(-0.000389324321737 -0.000572810133825 0.000138400151475)
(-0.000442987006858 -0.000564338717412 3.22798170055e-05)
(-0.000424624830802 -0.000579732396505 3.47679216318e-05)
(-0.000455023924464 -0.000582648341669 9.30695284078e-05)
(-0.000449621159209 -0.000557489142932 -1.11738821021e-06)
(-0.000445664496763 -0.000574653789757 -2.49951268358e-06)
(-0.000479938621133 -0.00058235621413 4.24934154242e-05)
(-0.00042034087867 -0.000539389768815 -2.80616247815e-05)
(-0.000429528358301 -0.000558482811523 -3.3204544001e-05)
(-0.000468042902334 -0.000572340407854 3.76541586657e-07)
(-0.000364446217365 -0.000512165016952 -4.59661253713e-05)
(-0.000380017426599 -0.000532654885496 -5.48697960074e-05)
(-0.00042356400054 -0.000553673139722 -3.22860933704e-05)
(-0.000292960265381 -0.000479287192958 -5.44856556378e-05)
(-0.000311717367511 -0.000499314375804 -6.55635683602e-05)
(-0.000357004573727 -0.000527550606913 -5.26831163208e-05)
(-0.00021524944865 -0.0004455138388 -5.54179642917e-05)
(-0.000235427221823 -0.000463729073549 -6.79987123967e-05)
(-0.000278139629146 -0.000497462742499 -6.21439837303e-05)
(-0.000138963652044 -0.000413995468128 -5.00231245443e-05)
(-0.000158858629999 -0.000430163813496 -6.44303228413e-05)
(-0.000195461989189 -0.000466594372261 -6.2395968949e-05)
(-7.07199780445e-05 -0.000385608278225 -3.90064975406e-05)
(-8.69932847565e-05 -0.00040078217611 -5.55413085307e-05)
(-0.000116373323168 -0.000436825953157 -5.40701535506e-05)
(-1.56677769449e-05 -0.000359527421807 -2.25003078721e-05)
(-2.54717508889e-05 -0.000375085495274 -4.17610881427e-05)
(-4.63633882556e-05 -0.000408699449479 -3.92952040392e-05)
(1.9732191239e-05 -0.000334557999733 -1.8400900348e-06)
(1.89305742443e-05 -0.000351555476201 -2.21072984923e-05)
(8.43124650362e-06 -0.000381305204041 -1.69066426007e-05)
(3.1996154251e-05 -0.000308957169974 2.08875864129e-05)
(4.21193340667e-05 -0.000329051594571 3.928581737e-07)
(4.31916493165e-05 -0.000354651162352 9.8002548761e-06)
(1.84325904251e-05 -0.000283285761618 4.17599210239e-05)
(3.96674348348e-05 -0.000305181725529 2.56556682218e-05)
(5.52364328836e-05 -0.000327715615211 3.95065334091e-05)
(-1.30138476624e-05 -0.000258542048656 5.13199634962e-05)
(1.35293440282e-05 -0.000282048092675 4.52034225866e-05)
(4.54910393954e-05 -0.0003023724876 5.97752603947e-05)
(-4.79970125646e-05 -0.000234836089145 3.42585481053e-05)
(-2.62457478722e-05 -0.000258557918121 4.79138958698e-05)
(1.71630227912e-05 -0.000277856307945 6.38723255225e-05)
(-5.05326228389e-05 -0.000212487513379 -2.18678031703e-06)
(-7.03952182832e-05 -0.000236756571857 1.47455793122e-05)
(-2.14780067482e-05 -0.00025403886967 3.10302598485e-05)
(-3.55622346918e-05 -0.00021207502586 -2.41311995709e-05)
(-1.62291550598e-05 -0.000224989149961 -3.20124258944e-05)
(-8.71592692269e-05 -0.000501800079722 6.76212860928e-05)
(-4.91466429556e-05 -0.00048697396196 6.31477221999e-05)
(-4.95867175276e-05 -0.000511723295765 0.000115946343937)
(-0.000196862325431 -0.000545181332597 7.3190872385e-05)
(-0.000134633623482 -0.000538195395218 5.93671281223e-05)
(-0.000165501336159 -0.000563084845977 0.000136668912914)
(-0.000310066516819 -0.000570908172785 6.80557814031e-05)
(-0.000255398277994 -0.000566603979642 6.81164502349e-05)
(-0.000290601946845 -0.000586760702614 0.000134720487661)
(-0.00039584129572 -0.000583741627597 3.82084532275e-05)
(-0.000357658970879 -0.000581391647669 4.41885772746e-05)
(-0.000393132365492 -0.00059879904035 9.96572680687e-05)
(-0.000435250700743 -0.000582912375491 -1.14080572849e-08)
(-0.000417525149963 -0.000582973373258 5.08837551741e-06)
(-0.000454515847332 -0.000601632238778 4.35795554895e-05)
(-0.000434512467404 -0.000569199699362 -3.45866684743e-05)
(-0.000430292407852 -0.000571906972641 -3.28642194675e-05)
(-0.000472634063317 -0.00059454659483 -2.42421578282e-06)
(-0.000397456415301 -0.000545258744366 -6.00127152269e-05)
(-0.000406457097638 -0.000550240735577 -6.22318972256e-05)
(-0.000453303879178 -0.000578628901437 -4.41388038847e-05)
(-0.000335921975867 -0.000513291758675 -7.44672389963e-05)
(-0.000350202806922 -0.000519957019656 -8.04220066793e-05)
(-0.000401743154509 -0.000554861517624 -7.3027181503e-05)
(-0.00026207443363 -0.000477250546275 -7.9076625119e-05)
(-0.00027880242763 -0.000484033433478 -8.61694187541e-05)
(-0.000330362018234 -0.000524888618338 -8.79400697443e-05)
(-0.000185122329254 -0.000442146879317 -7.70110709462e-05)
(-0.000203219091551 -0.000447446621633 -8.38890116527e-05)
(-0.000249458901 -0.000492307428366 -9.212128114e-05)
(-0.00011104520376 -0.000411106449776 -6.99485068277e-05)
(-0.000130046898708 -0.000414700927034 -7.82134215227e-05)
(-0.000167132778551 -0.000460662843797 -8.8543001361e-05)
(-4.6024351762e-05 -0.00038476443771 -5.82958991327e-05)
(-6.26060003151e-05 -0.000386920810679 -6.96852833368e-05)
(-8.98254500584e-05 -0.000431769703577 -7.80198276514e-05)
(6.65069580664e-06 -0.000362060590116 -4.1368078763e-05)
(-4.61448633892e-06 -0.000364428328243 -5.6584876252e-05)
(-2.16244529496e-05 -0.000405909398322 -6.26087156893e-05)
(3.98404154018e-05 -0.000341372228321 -1.98743502839e-05)
(3.721349821e-05 -0.000345088558972 -3.73911253963e-05)
(3.1446375575e-05 -0.000382043607218 -3.90786297179e-05)
(4.95286413718e-05 -0.000320638312748 5.16093998258e-06)
(5.782467329e-05 -0.000327226555475 -1.48858232453e-05)
(6.3864737602e-05 -0.000359544120326 -1.10967558738e-05)
(3.2759462969e-05 -0.000299267953239 2.90991697845e-05)
(5.36189931441e-05 -0.000308233499296 1.24222086079e-05)
(7.35355142061e-05 -0.000337081593168 2.00488518435e-05)
(-3.50923295403e-06 -0.000277767019794 4.17973549602e-05)
(2.33962064257e-05 -0.000289282275444 3.3847636743e-05)
(5.97980438285e-05 -0.000315860501128 4.35166375973e-05)
(-4.52702710324e-05 -0.000256252184491 2.84009270768e-05)
(-2.18284583859e-05 -0.000270081550356 3.95275532963e-05)
(2.6217537532e-05 -0.000294703943952 5.30725607847e-05)
(-5.56624885467e-05 -0.000232984518577 -7.19883994167e-06)
(-6.96028090288e-05 -0.000250505198514 9.73894964749e-06)
(-1.73701525084e-05 -0.000272799785462 2.37391229084e-05)
(-3.70984244649e-05 -0.000226871702756 -2.97967051376e-05)
(-1.56386735666e-05 -0.000242913477516 -4.11733054195e-05)
(-8.63661721832e-05 -0.000516691491443 5.48935642294e-05)
(-4.84820124964e-05 -0.000495289424302 5.376915084e-05)
(-4.81807617528e-05 -0.000525419358633 9.52241795379e-05)
(-0.000195318050165 -0.000553367288272 5.42927059723e-05)
(-0.000133075542344 -0.000536729059398 4.35130788421e-05)
(-0.000163875830608 -0.000568922019146 0.000108141277398)
(-0.000305916321429 -0.000571230683193 4.42492461065e-05)
(-0.00025041377506 -0.00055648510069 4.75621935686e-05)
(-0.000288006149525 -0.000586345172145 0.000101255796025)
(-0.000386548190283 -0.000575393445761 1.10684995645e-05)
(-0.000348715261841 -0.000563018682709 2.12670093247e-05)
(-0.000388749763978 -0.000591676930334 6.31827811659e-05)
(-0.000420140710047 -0.000566693720096 -2.77644358928e-05)
(-0.000402513466896 -0.000556993350165 -1.9709536073e-05)
(-0.000445706156646 -0.000587810522737 8.69670522515e-06)
(-0.000411236717117 -0.000547119984705 -6.05094482188e-05)
(-0.000408051016751 -0.000539595341023 -5.58395718076e-05)
(-0.000457382318004 -0.00057449145471 -3.99863583903e-05)
(-0.000367467094857 -0.000518948670013 -8.26411886779e-05)
(-0.000377539384353 -0.000514475585179 -8.23691065919e-05)
(-0.000431457279633 -0.000553683657914 -7.82040353954e-05)
(-0.00030204284017 -0.000484445997538 -9.21241864371e-05)
(-0.00031621608393 -0.000482540015882 -9.58543395861e-05)
(-0.000373988629564 -0.00052616727776 -0.000101472827857)
(-0.000227732726924 -0.00044831179688 -9.09818052878e-05)
(-0.000244677169915 -0.000447430717999 -9.19270292878e-05)
(-0.000299184883903 -0.000494055685823 -0.000109577667712)
(-0.000154269079817 -0.000414711851747 -8.50913622293e-05)
(-0.000170880342319 -0.000412626149416 -8.83395414477e-05)
(-0.00021803018725 -0.000461464790402 -0.000107044339208)
(-8.5390293261e-05 -0.000385343047359 -7.79501980318e-05)
(-0.000103229950653 -0.000382567133906 -8.16799814585e-05)
(-0.000138039902706 -0.000430716767394 -9.99058453336e-05)
(-2.47665148286e-05 -0.00036136740437 -6.79742604559e-05)
(-4.16034695623e-05 -0.000357325519372 -7.44751038156e-05)
(-6.43924614028e-05 -0.00040364599406 -8.92564933147e-05)
(2.40212396387e-05 -0.000342342961237 -5.26079228852e-05)
(1.2205782984e-05 -0.000337452984845 -6.32447046404e-05)
(3.60536590969e-07 -0.000380629828891 -7.49416113918e-05)
(5.42866952905e-05 -0.000326207058758 -3.24025983577e-05)
(5.0499111202e-05 -0.000321707415024 -4.61445256467e-05)
(5.05191303687e-05 -0.000361147196154 -5.29697753707e-05)
(6.15920255456e-05 -0.000310554288731 -7.62455462007e-06)
(6.83228645433e-05 -0.000307858376131 -2.52170291018e-05)
(8.01619134046e-05 -0.000343338711526 -2.61606569241e-05)
(4.23635146854e-05 -0.000294458737271 1.71706755663e-05)
(6.25051552602e-05 -0.000293872194321 1.90048480825e-06)
(8.7247766647e-05 -0.000325927620789 5.18156942484e-06)
(1.88400435438e-06 -0.000277763801125 3.1577835079e-05)
(2.93915557509e-05 -0.000279959273358 2.38087822744e-05)
(6.98121743059e-05 -0.000309428771804 3.12408642813e-05)
(-4.37500876744e-05 -0.000260461124622 2.08655758669e-05)
(-2.01146701249e-05 -0.000265031679698 3.01920701668e-05)
(3.17934206989e-05 -0.000292923342548 4.04277507953e-05)
(-5.69326363745e-05 -0.000240771603699 -1.28589155485e-05)
(-6.96330614259e-05 -0.000251197964163 4.42760980618e-06)
(-1.5003074262e-05 -0.0002744418717 1.3525420395e-05)
(-3.89334283853e-05 -0.000233896795148 -3.47085398302e-05)
(-1.59728917942e-05 -0.00024897386543 -5.01738918366e-05)
(-8.55965072209e-05 -0.000508209867096 4.23886654527e-05)
(-4.9395247968e-05 -0.000482500548511 4.19258933445e-05)
(-4.59033862918e-05 -0.00051739064066 7.34083470584e-05)
(-0.00019023655507 -0.000533689376546 3.67825664384e-05)
(-0.000131574793045 -0.000511539520525 2.88228078224e-05)
(-0.000158925909911 -0.000547308638752 8.01721564512e-05)
(-0.000296280085519 -0.000542073357221 2.45799567868e-05)
(-0.000242089049906 -0.00052039984678 3.04188893826e-05)
(-0.000280225024117 -0.00055699371041 7.08173960846e-05)
(-0.000371058068882 -0.000538417215681 -9.51102631271e-06)
(-0.000335014557737 -0.000518364305586 4.37055450015e-06)
(-0.00037806541676 -0.00055608043949 3.11508112636e-05)
(-0.000398491604334 -0.000523834388257 -4.77846719877e-05)
(-0.000382777890117 -0.000506304262733 -3.72823845427e-05)
(-0.000430526273855 -0.000546783127659 -2.20503781007e-05)
(-0.000383176284025 -0.000500892707655 -7.76992301807e-05)
(-0.000382466864153 -0.000485755017194 -7.09373913618e-05)
(-0.00043663826466 -0.000529330373195 -6.77967891884e-05)
(-0.000334574818922 -0.000471841180403 -9.55822575002e-05)
(-0.0003471197222 -0.000460207973866 -9.43828082311e-05)
(-0.000405378953909 -0.000505955569879 -0.00010141218722)
(-0.0002672328539 -0.000439729841562 -9.5657182437e-05)
(-0.000283112783474 -0.000429986832307 -0.000102718881493)
(-0.000343648801136 -0.000477265695093 -0.000118415263672)
(-0.000196404594031 -0.000405849139575 -8.92847654476e-05)
(-0.00021199293836 -0.0003999542962 -9.24711229361e-05)
(-0.000267968569038 -0.000446680768882 -0.000116879949044)
(-0.000126249868905 -0.000373521532647 -8.49281606768e-05)
(-0.000141776829481 -0.000368833624446 -8.8000205881e-05)
(-0.000187400231946 -0.000414303637096 -0.000112640234438)
(-6.29494179655e-05 -0.000347369309309 -7.82048872423e-05)
(-7.99776909485e-05 -0.000342043837569 -8.01505817184e-05)