/*--------------------------------*- C++ -*----------------------------------*\
| =========                 |                                                 |
| \\      /  F ield         | OpenFOAM: The Open Source CFD Toolbox           |
|  \\    /   O peration     | Version:  3.0.1                                 |
|   \\  /    A nd           | Web:      www.OpenFOAM.org                      |
|    \\/     M anipulation  |                                                 |
\*---------------------------------------------------------------------------*/
FoamFile
{
    version     2.0;
    format      ascii;
    class       volScalarField;
    location    "9";
    object      k;
}
// * * * * * * * * * * * * * * * * * * * * * * * * * * * * * * * * * * * * * //

dimensions      [0 2 -2 0 0 0 0];

internalField   nonuniform List<scalar> 
7968
(
0.000192932978413
0.000229196183632
0.000259619318796
0.000279241358285
0.00029044291377
0.000296304960867
0.000298386782371
0.000298373713076
0.000297681981596
0.000296515251606
0.000295563148966
0.000295297901821
0.000295035999748
0.000294110844551
0.000291315837102
0.0002851573
0.000273932416387
0.000255510217074
0.000227151545613
0.000192492179227
0.00022899713293
0.000373379714602
0.000476281649718
0.000543526876855
0.000585783749724
0.000609168488798
0.000619553624505
0.00062131855308
0.000618437258356
0.000613954796945
0.000609716613808
0.000606108551505
0.000601846296394
0.000594450692783
0.00058064691469
0.000556707895361
0.000517649064133
0.00045678505693
0.00036247053568
0.000227691146242
0.000259003639057
0.000476561119284
0.000627968330069
0.000727327961603
0.000790683917176
0.00082733900675
0.000844704634594
0.000848949632783
0.000845571485398
0.000838814135722
0.000831244224228
0.000823430403651
0.000814041944579
0.000800037090961
0.000777014527078
0.000739722571897
0.000681410496442
0.000592714297266
0.000456153740873
0.000256687399872
0.000278772642869
0.000544466010503
0.000728251062303
0.000849225660998
0.00092674826789
0.000971803167975
0.000993153782098
0.00099826195788
0.000993796195001
0.000985312164817
0.000974266987297
0.000962114424382
0.000948736147645
0.000930238464466
0.000901342383364
0.000855697828837
0.000785210032018
0.000678742925139
0.000515416603336
0.000275151762002
0.000290820177485
0.000587823874459
0.000793594292136
0.000929028095059
0.00101534389346
0.00106501692793
0.00109011614397
0.00109846933058
0.00109389722856
0.00108248426255
0.00106828064421
0.00105264701871
0.00103445135879
0.0010098392762
0.000975683436848
0.000925522280403
0.00084817227978
0.000730927228836
0.000551232169341
0.000285406950085
0.000297237069681
0.000613231971925
0.000833230998792
0.000977667592025
0.00106887578446
0.00112398089417
0.00115235565219
0.00115823632671
0.00114987438814
0.00113472126285
0.00111771435649
0.00110044437609
0.00108150857057
0.00105626656739
0.00101844753414
0.000962166708657
0.000881539252344
0.000758734610438
0.000570118766379
0.000290134579699
0.000299867246483
0.000626079752192
0.000854355802026
0.00100366844147
0.00109787524875
0.00115737183668
0.00118338529463
0.00118493830893
0.00117200553813
0.00115311434333
0.0011338313159
0.00111590887044
0.00109772020949
0.00107398109267
0.0010373309863
0.00097966969712
0.000894637710912
0.000769797637772
0.000577226944917
0.000292067533979
0.000300062722982
0.000630564221901
0.000862929149968
0.0010142352978
0.00111235927516
0.00117032000015
0.00119251342884
0.00118941709747
0.00117213227022
0.0011500377587
0.00112915220609
0.00111128219594
0.0010945429524
0.00107312998288
0.00103904411944
0.000983242427649
0.000896282164407
0.000770582968923
0.000577356708576
0.000292704836855
0.000299343871631
0.000630519306499
0.000864226312451
0.00101570832509
0.00111517665929
0.00117071490934
0.00118930428082
0.00118234409336
0.00116172788206
0.00113737066692
0.00111558139902
0.00109815751778
0.00108292234159
0.00106372460133
0.00103218590105
0.000978850334078
0.000893509021988
0.000766569286747
0.000574277023246
0.000292217019518
0.00029850556512
0.000628874801502
0.00086225011815
0.0010128654147
0.00111184712012
0.00116527224795
0.00118140118119
0.00117211210438
0.00114967124201
0.00112419998268
0.00110209556547
0.00108516877857
0.00107105073018
0.00105334610374
0.00102356287724
0.000972128961931
0.000888565217027
0.000761724948841
0.000570843234331
0.000291282149187
0.00029814402859
0.000627344434902
0.000859207490033
0.00100828609806
0.00110567111247
0.00115788583101
0.00117315739346
0.00116340334181
0.00114085953405
0.00111552463415
0.00109364719017
0.00107700599858
0.00106326306613
0.00104602308673
0.00101687701849
0.00096634753279
0.000883962593634
0.000758112647189
0.000568584261337
0.000290491358778
0.000298642732253
0.000626084178771
0.000855369735807
0.00100243424964
0.00109728751221
0.00114927523031
0.00116530744096
0.00115689616786
0.00113586653642
0.00111183186471
0.00109073735695
0.00107418009076
0.00105996273043
0.0010421030973
0.0010124651798
0.000961830336204
0.000879975958045
0.000755916511902
0.000567811491449
0.000290357825732
0.000299189580173
0.000623541197135
0.000848979400652
0.000993425924677
0.00108445928559
0.00113675802689
0.00115473674193
0.00114906298433
0.00113078107923
0.0011089169803
0.0010890221235
0.00107255167271
0.00105747892438
0.0010383417462
0.00100749557018
0.000956162447032
0.000874628370636
0.000753305725599
0.000567134115692
0.000290338696347
0.000298739346597
0.000617014266359
0.000836549679562
0.00097724404478
0.00106285404313
0.00111496117527
0.00113532891817
0.00113316808784
0.00111845195461
0.00109939549781
0.00108110283664
0.00106495140532
0.0010490641388
0.00102856503035
0.000996436474186
0.000944587441644
0.000864433241154
0.000746938606503
0.000563819893419
0.000289211533136
0.000295891790497
0.000602985741433
0.000813346591338
0.000948314732079
0.00103053104039
0.00107729908482
0.00109911983673
0.00110043421447
0.00108956009191
0.00107372967042
0.0010575056393
0.0010421684589
0.0010259915176
0.00100470971371
0.000972079568391
0.000921068646977
0.000845895381861
0.000732182755291
0.00055443644889
0.000286105123719
0.000289386791159
0.000577520036394
0.000773824233452
0.000899951334373
0.000977409438323
0.00101909393499
0.00103783245052
0.00104138649099
0.00103398221646
0.00102151763733
0.00100782537052
0.000994023640561
0.000978587435965
0.000957898571413
0.000926721753155
0.000881109879137
0.000811211923101
0.00070335841567
0.000534700516567
0.000280811700162
0.000277479678541
0.000535430996301
0.000710972937395
0.00082382729393
0.000893582998828
0.000931596717325
0.000947064336952
0.000947896169943
0.000941621950903
0.000932218323653
0.000921439131548
0.000910103125049
0.000897242977878
0.000880923091127
0.00085563490601
0.00081512200824
0.000751464465482
0.000653422875536
0.00049996809919
0.00027077947715
0.000258064175027
0.000470005686378
0.000615305968931
0.000708628619507
0.00076620934539
0.000797630358456
0.000810591180473
0.000811555292169
0.00080605296583
0.000798243087116
0.00079047472809
0.000783126469286
0.000774719391838
0.000762332064494
0.000741921784378
0.00070836897587
0.000655103054716
0.000572741058726
0.000443670504068
0.000253118620479
0.000228528260497
0.000369996513882
0.000469547609759
0.000533492543273
0.000572700551955
0.000593469120016
0.000601585981042
0.000601757774449
0.000597898684446
0.000592965791603
0.000588559352474
0.000584873117208
0.000580717390861
0.0005737617157
0.00056096184961
0.00053863984696
0.000501862712717
0.000444352300459
0.000354433400888
0.000225425983848
0.000192810457783
0.000228860550932
0.000258922773778
0.000278220028075
0.000289011629517
0.000294434787914
0.000296350931314
0.000296510001293
0.000295902246738
0.000294821679628
0.000293793619338
0.000293059023188
0.000292320378721
0.00029074623999
0.000287449707745
0.000281065441968
0.000270231008817
0.000252365027388
0.000224828641978
0.00019167741685
0.000226702882212
0.000357202073562
0.000456562383155
0.000524748802821
0.000569607133992
0.000596806272603
0.000610913639434
0.000615702829157
0.000614590617747
0.000610901088203
0.000606443484201
0.000601675249704
0.000595516446723
0.000585410870899
0.000568476112384
0.000541539370681
0.000500342226158
0.000438994115363
0.000348424709764
0.000225008123292
0.000357349870973
0.000801529372855
0.00106304032862
0.00124274818312
0.00136356256871
0.00143888505707
0.00147964121433
0.00149549626761
0.00149503280957
0.00148510265502
0.00147009798743
0.00145130112072
0.00142689881203
0.00139254729447
0.0013415857032
0.00126575816901
0.00115480624122
0.000994866794585
0.000761259343081
0.000348049636036
0.000456834996041
0.00106289011536
0.00141704526489
0.00166308811139
0.00183060058475
0.00193611720911
0.00199343509462
0.00201539161367
0.00201374600181
0.00199784138563
0.00197411968741
0.00194469254822
0.00190734723004
0.00185660299443
0.00178348278226
0.00167694908456
0.00152378962846
0.00130665061439
0.000993835534336
0.00043829058605
0.000525577796519
0.00124396667016
0.00166491215624
0.00195851329339
0.00215878177758
0.00228432097811
0.0023510662077
0.0023743173212
0.0023692575143
0.00234627551801
0.00231405468706
0.00227549412408
0.00222806606727
0.00216634473454
0.00207872342569
0.00195196902495
0.00177054644706
0.00151453361255
0.00114745216386
0.000498118974405
0.000571554376867
0.00136771077594
0.00183640307911
0.00216332767443
0.00238510042784
0.00252181111002
0.00259159619681
0.00261026266161
0.00259592956968
0.00256340411881
0.00252292474018
0.00247837110808
0.00242700554747
0.00236058288829
0.00226523627706
0.00212731461569
0.00192902968581
0.00164837195786
0.00124572066838
0.000535999892448
0.000600394582686
0.00144749154109
0.00194810148564
0.00229633878021
0.00253006085681
0.00267041453527
0.00273473077944
0.00274350072046
0.00271743998143
0.00267427905652
0.00262606710512
0.00257742220485
0.0025252419229
0.00245975325652
0.00236573101254
0.00222535019236
0.0020192805668
0.00172568210821
0.00130269810511
0.000557837900097
0.000616609189653
0.00149410178047
0.00201375648727
0.00237355443099
0.0026120934492
0.00274820421361
0.00280270214837
0.00279853030331
0.00275937717204
0.00270558621374
0.00265079925635
0.00260009503144
0.00254990466163
0.00248911473112
0.00240068764374
0.0022648536575
0.00205949355967
0.00176171692108
0.00133003498359
0.000568214009031
0.000624051558576
0.00151704834851
0.00204599003548
0.00240989386026
0.00264710127281
0.00277588439353
0.00281885723062
0.00280139653711
0.00274994137041
0.00268701809793
0.00262740435454
0.00257629387315
0.00252959210401
0.00247509413128
0.0023942864729
0.00226595448136
0.00206712620053
0.00177079094845
0.00133812033366
0.000570750913196
0.000626035301919
0.00152469099524
0.00205624622622
0.00241961208372
0.00265249063422
0.00277330921624
0.00280590183527
0.00277751688985
0.00271669959288
0.00264741240301
0.00258502050268
0.00253453304201
0.0024913060992
0.00244251830446
0.00236875887608
0.00224788788966
0.00205608760287
0.00176547654942
0.00133586338854
0.000569527496526
0.000625321507917
0.00152345076483
0.00205341204261
0.00241382671908
0.00264184131719
0.00275635873106
0.00278193426186
0.00274689492457
0.0026809108476
0.00260852178162
0.00254526037751
0.00249580694111
0.0024550866998
0.00241000224482
0.002340956296
0.00222550644999
0.00203952476115
0.00175515539786
0.0013298856168
0.000567193521312
0.000623783751399
0.001517028126
0.00204263088838
0.00239888319952
0.00262311974577
0.0027343828183
0.00275743847699
0.00272079995237
0.00265418745159
0.00258197171198
0.00251938091261
0.00247081669018
0.00243108633143
0.00238719130749
0.00231985370248
0.00220689413316
0.00202434952365
0.00174444300261
0.00132366256387
0.000565227761652
0.000621571565848
0.00150602402458
0.00202491046799
0.0023761954618
0.00259796553666
0.00270917563195
0.00273423403079
0.00270091006587
0.00263791389297
0.00256878171219
0.00250809455836
0.00246010231675
0.00241981345495
0.00237471950633
0.00230624303137
0.00219293912885
0.00201140149059
0.00173391274843
0.0013175209982
0.000563797588415
0.000616984190829
0.00148783693492
0.0019969771495
0.00234196092205
0.00256156070331
0.00267494565253
0.00270557045767
0.00267959311852
0.00262375577734
0.00256013928578
0.00250252804137
0.00245507993949
0.00241326459118
0.00236522518721
0.00229356551808
0.00217796000987
0.00199591682349
0.00171991939995
0.00130874666889
0.000561813680843
0.000607626161907
0.00145715016132
0.00195170417344
0.00228741262351
0.00250329546852
0.00261942245151
0.00265743597359
0.00264131016548
0.00259519999984
0.00253915211917
0.00248590012704
0.00243952034483
0.00239598515418
0.00234442574857
0.00226897174749
0.00215072203124
0.00196838941026
0.00169547886903
0.00129204210166
0.000556736918295
0.000590452578739
0.00140661462033
0.00187923154383
0.00220045666623
0.00240873688078
0.00252617244175
0.00257123357909
0.00256548391685
0.00253023015489
0.00248314828516
0.00243563458466
0.00239150960586
0.00234727802359
0.00229321540257
0.00221522143428
0.00209593721454
0.00191515678754
0.00165053122442
0.00125992580848
0.000545384659658
0.000561866407776
0.001327413546
0.00176800931416
0.00206761745231
0.00226353357725
0.00237679631288
0.00242659293605
0.00242982247073
0.00240512549237
0.00236757610467
0.00232704943091
0.00228690773569
0.00224409607177
0.00219006406416
0.00211262446454
0.00199568564947
0.00182312739649
0.00157280532117
0.00120326646234
0.000523856903559
0.000517453248167
0.00120890808249
0.00160450742159
0.00187319857512
0.00204977088193
0.00215372735499
0.00220204709624
0.00221136804057
0.00219610386694
0.00216789077953
0.00213532524327
0.00210115860578
0.00206260410019
0.00201181593273
0.00193942128219
0.00183270418094
0.00167580101291
0.00144795480866
0.00111098258524
0.000487763069907
0.000451366425541
0.00103711838448
0.0013712677355
0.0015973242409
0.00174572053234
0.00183380365247
0.00187621226408
0.00188657743215
0.00187694932902
0.00185702324393
0.00183302973951
0.00180685531112
0.00177615663493
0.00173494967759
0.0016748722367
0.00158503989543
0.00145198057084
0.0012575039485
0.000968303771161
0.000431147245633
0.000354969000588
0.000787617488163
0.00103652574079
0.00120329711138
0.00131166404861
0.00137567240822
0.00140684687654
0.0014153707858
0.00141009471377
0.00139793138641
0.00138309255299
0.0013666951212
0.00134683530071
0.00131901248003
0.00127684153894
0.00121205915123
0.00111415643037
0.000968611591628
0.000749418730864
0.00034457117518
0.000226267948625
0.000354500743901
0.000450535092882
0.000515215206178
0.000556699785846
0.000580879474519
0.000592511717819
0.000595387277109
0.000593216122324
0.000589131034109
0.000584726752569
0.000580294669247
0.000574834721838
0.000566202128117
0.000551380923935
0.000527097173648
0.000489218150044
0.00043167672382
0.000344829536156
0.000223130873945
0.000259150381155
0.000466858096222
0.000623876401804
0.000733069473356
0.000806364684483
0.000851835604572
0.000876035697505
0.000884896125027
0.000883762972243
0.000876980726621
0.000867332486428
0.000855649278079
0.000840785325601
0.000819918057609
0.000788971126255
0.000742994896527
0.000675965050529
0.000579733942849
0.000441401771865
0.000253837852314
0.000467327646757
0.0010979780191
0.00147208790636
0.00173525031365
0.00191675599948
0.00203285206549
0.00209722571199
0.00212291047925
0.00212196680945
0.0021044319035
0.00207700909892
0.00204214051821
0.00199779649446
0.00193805739023
0.00185410900255
0.00173486921491
0.00156740901788
0.0013351027439
0.00100765497096
0.000440665845066
0.000624732345477
0.0014719740319
0.00196595500534
0.0023161474273
0.00256027116893
0.00271736199557
0.00280413881098
0.00283750220194
0.00283355608022
0.00280630234735
0.00276539643106
0.00271463971106
0.00265159798461
0.00256831246386
0.00245323145323
0.00229174224895
0.00206753771652
0.00176046522718
0.00133154871722
0.000577576889219
0.000734956692872
0.00173714574659
0.00231873275227
0.00273093358028
0.00301784304545
0.00320050065565
0.00329796129822
0.0033308544889
0.00331836458544
0.00327849068306
0.00322402729007
0.00316024296388
0.00308430413547
0.00298605190728
0.002852355577
0.00266487916337
0.00240446548318
0.00204789953587
0.00154949205541
0.000669327169775
0.000810116469397
0.00192278781872
0.00256841541316
0.00302428941607
0.00333847997834
0.00353345227663
0.00363085602785
0.00365226335853
0.00362318093957
0.00356649470822
0.00349795326069
0.00342431769931
0.003342339436
0.00324023533904
0.0031001759688
0.00290015310996
0.00262002396445
0.0022334155362
0.00168986580274
0.000727723246311
0.000858296446759
0.00204517209759
0.0027343215303
0.00321790727048
0.00354580034013
0.00374221961909
0.00382744889888
0.00382793940124
0.00377575357816
0.00369908764538
0.00361653235144
0.00353609838804
0.00345370649551
0.0033555189459
0.00322088944083
0.00302371601522
0.00273774609507
0.00233756754071
0.00176972408752
0.000760971221503
0.000886025549614
0.00211803373403
0.00283339512245
0.00333134253032
0.0036626792306
0.00385012533593
0.00391471920075
0.00388802310493
0.00380955512149
0.00371239081546
0.00361745659463
0.00353344605828
0.00345518517925
0.00336670928161
0.00324484302962
0.00306020618292
0.00278180950522
0.00238050581099
0.00180472520892
0.00077604905958
0.000899196735263
0.00215436839725
0.0028824459417
0.00338459770928
0.00371132230754
0.00388418407349
0.00392489970124
0.0038709707892
0.00376804103403
0.00365315582646
0.00354890589865
0.00346398359862
0.00339214771399
0.00331566068346
0.00320893964602
0.00304055098015
0.00277576894098
0.00238320237023
0.00181025006226
0.000779349250142
0.000903051918103
0.00216602444717
0.00289737638285
0.00339749445071
0.00371562653512
0.00387305234282
0.00389306527906
0.0038173695912
0.00369596340978
0.00356854959772
0.00345860208073
0.00337429699573
0.00330850268932
0.0032424127144
0.00314896103361
0.00299523215454
0.00274467587756
0.00236447850498
0.00180011950376
0.000776479554731
0.000901714489116
0.00216241269796
0.00289096798532
0.00338614504298
0.00369560433285
0.00384140915011
0.0038478274742
0.00375895991563
0.00362716661646
0.00349336690338
0.00338114041065
0.00329800748066
0.00323619282002
0.00317650380237
0.00309148392652
0.00294773696501
0.00270805285904
0.00233885546977
0.00178479780569
0.000771541760588
0.000897589648475
0.00214917238036
0.00287097173699
0.00335983486936
0.00366348768895
0.00380385933142
0.00380553651439
0.00371316448913
0.00357943264308
0.00344512821244
0.00333340641163
0.00325130434171
0.00319079460559
0.00313285290058
0.00305051179548
0.00291087097711
0.00267703709594
0.00231538452233
0.00177026551957
0.000766863832735
0.000891038580312
0.00212745103913
0.00283906990613
0.00332086530501
0.00362179616831
0.00376317496153
0.00376904177828
0.00368263114678
0.00355491938525
0.00342536743407
0.00331638532342
0.00323487927603
0.00317305719468
0.0031125359684
0.00302752253744
0.00288639150206
0.00265340479839
0.00229556623934
0.00175719602001
0.000762940699545
0.000880296188411
0.00209382627926
0.0027908055518
0.00326406847713
0.00356325695285
0.00371027755452
0.00372789597623
0.00365587968828
0.0035413971264
0.00342141334244
0.0033173269608
0.00323625480835
0.00317114151667
0.00310470580199
0.00301293684005
0.00286602090465
0.0026302303574
0.00227393632495
0.0017417531663
0.000758015102264
0.000861956636424
0.00204101077174
0.00271643977834
0.00317715844862
0.00347275632332
0.00362639788577
0.00366033098618
0.00360881254606
0.00351330022188
0.0034071600752
0.00331047810528
0.00323058663114
0.00316159624778
0.00308790066441
0.00298759237645
0.00283287344627
0.0025934459663
0.0022392562941
0.00171623653015
0.00074862677068
0.000831488012648
0.00195902396589
0.00260278182671
0.00304384100215
0.00333088962691
0.0034885677207
0.0035383824884
0.0035092974132
0.00343564998772
0.00334639566575
0.0032598516369
0.00318321134659
0.00311190002038
0.00303236395516
0.00292461936499
0.00276384742849
0.00252407058302
0.00217664003217
0.00166977560661
0.000730158921688
0.000783541703884
0.00183620506126
0.00243496671524
0.00284666832561
0.00311839821682
0.0032732812803
0.00333406725493
0.00332444799883
0.0032719304922
0.00320065476843
0.00312661968157
0.00305630253792
0.00298623555926
0.00290481991237
0.00279438662057
0.00263389273855
0.00240076684087
0.00206991248865
0.00158961984681
0.000697129635596
0.000711771697286
0.00165923877567
0.00219677304071
0.00256706644898
0.00281368908433
0.00295829610007
0.00302130685348
0.00302516957575
0.00299032025923
0.00293633557621
0.00287639832978
0.00281579686934
0.002751769516
0.00267451238512
0.00256915414946
0.0024184057867
0.00220369996613
0.00190050399771
0.00146118480717
0.000643006851415
0.000607748819769
0.00141111733813
0.00186811360187
0.00218259280077
0.00239236492079
0.00251716624237
0.00257489116686
0.00258388755291
0.00256165031599
0.00252329971635
0.00247840330217
0.00243062026816
0.00237772072322
0.00231224181085
0.00222216846457
0.0020930830439
0.00190836206388
0.00164647143485
0.00126619340274
0.000559064564086
0.000458359071946
0.00106067510395
0.00140895431219
0.00164662592905
0.00180355355876
0.00189673897902
0.00194082671232
0.00194987661478
0.00193684133858
0.0019122653961
0.00188290940351
0.00185116173007
0.00181505375414
0.00176871213555
0.00170320328247
0.00160750680023
0.0014681855087
0.00126735185231
0.000972481232849
0.000431503868536
0.000257462859403
0.000457380698415
0.000605515890691
0.000705931363986
0.000770877892477
0.000808749305089
0.000826453763941
0.000830240769929
0.000825662778106
0.000817073388718
0.000807134176508
0.000796618835951
0.000784406201317
0.000767720947443
0.000742627796455
0.000704226398223
0.000646356713901
0.000560386740184
0.000432137301338
0.000250372326955
0.000294287623472
0.000585503717475
0.000801313464083
0.000952282438072
0.00105502551634
0.00111963887155
0.00115434606157
0.00116694510918
0.00116468143961
0.0011534626809
0.00113713075476
0.00111703540316
0.00109194536457
0.00105827723092
0.00101081081824
0.000943150927342
0.000847896711664
0.000715381789499
0.000529632201589
0.000279849193393
0.000586574329005
0.00142011656643
0.00191829277532
0.00227539800426
0.00252649887225
0.0026899094178
0.0027818055223
0.00281871553281
0.00281677874728
0.00278975886705
0.00274705966766
0.00269247678721
0.0026237638616
0.00253317384583
0.00240897350562
0.0022371145766
0.00200243054427
0.00168645267827
0.00125520203265
0.000528277338586
0.000803076423031
0.00191829111146
0.00257027689283
0.00303993079105
0.0033729197434
0.00359011485563
0.00371084822076
0.00375637012974
0.00374845677126
0.00370655912184
0.00364433975652
0.00356765331845
0.00347372888425
0.0033520125855
0.00318675879997
0.00295944206392
0.00265064746111
0.0022382403991
0.00167750872413
0.000710317731415
0.000955566851602
0.00227824790579
0.00304366139586
0.00359276691946
0.0039798251652
0.00422832542064
0.00435968237271
0.00439848647551
0.00437262963996
0.00430893739081
0.00422551902778
0.00413059038759
0.00402048671674
0.00388196677937
0.00369601670419
0.00343890214684
0.0030863222509
0.00261268519353
0.00196435250028
0.000832563620692
0.00106091148107
0.00253499806146
0.00338458000507
0.00398935924154
0.00441069151721
0.0046729370461
0.00479444747112
0.00480534419811
0.00474588822927
0.00465103857185
0.00454355315961
0.00443398104572
0.00431758686702
0.00417788772317
0.003991389437
0.00372792845775
0.00335731402097
0.0028499465621
0.00214679013481
0.000909230926864
0.00112921692681
0.00270695417498
0.00361462574354
0.00425487354173
0.00469402470718
0.00494871505777
0.00503690649159
0.00500101003678
0.00489474196635
0.00476181627385
0.00462971984524
0.00451056888525
0.0043982465129
0.00427172736401
0.00410167308596
0.00385377644272
0.00348994728935
0.00297303792163
0.00224403898866
0.000950242039358
0.00116874314953
0.00281060222859
0.0037537604799
0.00441313045767
0.00485365210246
0.00508062089935
0.0051193545921
0.00502508251301
0.0048658784824
0.00469401019041
0.00454060861666
0.00441794362071
0.00431804358539
0.00421499962649
0.00407326802065
0.00385325342752
0.00351384366273
0.00300821215518
0.00227645764526
0.000964957028115
0.00118732133844
0.00286256768845
0.0038232158415
0.00448791710148
0.00491583678594
0.00510689789506
0.00509257376509
0.00494064647804
0.00473274267324
0.00452786241442
0.00435898493274
0.00423713049401
0.00415224938328
0.00407471400728
0.00396418973046
0.00377656394571
0.00346753757745
0.00298590836603
0.00226634549547
0.000962844984969
0.00119211689008
0.00287866749826
0.00384404506993
0.00450472108351
0.00491488804556
0.00507313619438
0.00501486488124
0.00481799678235
0.00457403153488
0.00434623441061
0.00416791665993
0.00404799339341
0.0039747267773
0.00391693415363
0.00383168645819
0.00367215344118
0.0033910274271
0.00293450750739
0.00223482360005
0.000952476957684
0.00118881595025
0.00287180075239
0.00383374786069
0.00448649367919
0.00488179055988
0.00501746442224
0.00493146174445
0.00470790948901
0.00444380428484
0.00420413867533
0.00402162976499
0.00390339319533
0.00383634897869
0.00378909051468
0.00371834714505
0.00357656405378
0.00331500696168
0.00287861719626
0.00219905900714
0.000940392278754
0.00118076053372
0.00284983099515
0.00380313195945
0.00444780239788
0.00483480892322
0.00496146362041
0.00486646811522
0.00463554654008
0.00436679551783
0.00412508947189
0.00394236702767
0.00382480918883
0.00375870748156
0.00371302885052
0.00364549150943
0.00350948874272
0.00325675759173
0.00283246738771
0.0021682301442
0.000930198308865
0.00116858046221
0.00281440450122
0.0037543893008
0.00439127987933
0.00477712748955
0.00490875102376
0.00482371624574
0.00460441210809
0.00434552147707
0.00411031597374
0.00393026767223
0.0038118785813
0.00374178118543
0.0036897120594
0.00361520387717
0.00347383687101
0.00321947945059
0.0027989102536
0.00214431032787
0.000922468261012
0.00115012073905
0.00276091736621
0.00368110485658
0.00430800822355
0.00469656146687
0.00484503155593
0.00478760212372
0.00459834168215
0.00436365973102
0.00414333335194
0.00396870274505
0.00384789930199
0.00376905358725
0.00370345885299
0.00361347989988
0.00345784357007
0.00319359612762
0.00277025449354
0.00212185899549
0.000914915338891
0.00112096171398
0.0026796720679
0.00357000558745
0.00417987049441
0.0045688632532
0.00474068581096
0.00472340965502
0.00457900004155
0.0043813270149
0.00418453109233
0.0040193711874
0.00389607025584
0.00380524796303
0.00372147387163
0.00361105290966
0.00343665211321
0.00315832078144
0.00272996561667
0.00208935196687
0.000902834402429
0.00107520630961
0.00255783408253
0.00340401952453
0.00398697361007
0.00436674624776
0.00455884131215
0.00458355104823
0.00448942823972
0.00433613299184
0.00417026683105
0.00402042362872
0.00389826592797
0.00379709725002
0.00369592270341
0.00356608736292
0.00337441961141
0.0030837581794
0.00265571331056
0.00203151438976
0.000879700088315
0.00100604727008
0.00238116572064
0.00316512522634
0.00370900272368
0.00406860294641
0.0042666398465
0.00432328946954
0.0042739751037
0.00416439272609
0.00403281067267
0.00390410372667
0.00378967718016
0.0036850723452
0.00357382775328
0.00343224810903
0.00323086859476
0.00293814953809
0.00252343548773
0.00193050995428
0.000837988252656
0.000905732798582
0.00213458913269
0.0028353759963
0.00332439509309
0.0036517277492
0.00383980073768
0.00391150168752
0.00389403155665
0.00382076928103
0.00372174617261
0.00361741329941
0.00351744596811
0.00341892817694
0.00330895369742
0.00316798981465
0.00297115648303
0.00269393958048
0.00231106399403
0.00176811710039
0.00076926160262
0.000763932363929
0.0017996553961
0.00239372156129
0.00280910679441
0.00308875639842
0.00325307240587
0.00332263656877
0.00332114696484
0.00327410423561
0.00320352289435
0.00312463599288
0.00304477787455
0.00296186280651
0.00286544766759
0.00274012367162
0.0025672977694
0.00232643626983
0.00199397267779
0.0015235759185
0.000662908761266
0.000562955594939
0.00134038555651
0.00179408677783
0.0021088116693
0.00231862623529
0.00244195567875
0.00249607420877
0.00249933911047
0.00247008851005
0.00242383224517
0.00237113914623
0.00231655848808
0.00225823432171
0.0021886316621
0.00209610429544
0.00196641062459
0.00178332437366
0.00152699349337
0.00116093271109
0.000502014391967
0.000288783052126
0.000561088446591
0.000759152554019
0.000893416934205
0.000980180161135
0.00102973807238
0.00105081659756
0.00105187540927
0.00104080210939
0.00102391798325
0.00100525915741
0.000986258639098
0.000965736677908
0.00094022834119
0.000904593788302
0.000852474979765
0.000776323016876
0.000665756643182
0.00050327922483
0.000272414825191
0.000342767614932
0.00073827952506
0.00102502823138
0.0012277932403
0.00136864426886
0.00145935351934
0.00150968300059
0.00152946322764
0.00152804242289
0.0015130430741
0.00148949554682
0.00145929137543
0.00142100614361
0.00137008140847
0.00129969594745
0.00120190761869
0.00106803712613
0.000887149143075
0.000640458785448
0.000310191594879
0.000740298754609
0.00183083079074
0.00248967123579
0.00297212423326
0.0033189726307
0.00355005442799
0.00368414713747
0.00374199719316
0.00374471516786
0.00371050127641
0.00365192913354
0.0035741433901
0.00347419559801
0.00334163821739
0.0031608981464
0.00291435280614
0.00258418996273
0.00215084866232
0.00157733565935
0.000637830928615
0.00102778200867
0.00248994309185
0.00335273542952
0.0039861736309
0.0044440495719
0.00474937757828
0.00492385221085
0.00499169145973
0.00498380543682
0.00492779589483
0.00484189346258
0.00473425948002
0.00460049982724
0.00442662182876
0.00419238720721
0.00387195445107
0.00344143613931
0.0028778839657
0.00213178156415
0.000876623320243
0.00123244454433
0.00297689258341
0.00399224036985
0.00473257185099
0.00526675734478
0.00561542298235
0.00579728006777
0.00584420778044
0.00580060967172
0.00570636220051
0.00558658739156
0.00545302465938
0.00529971481135
0.00510809093321
0.00485171790733
0.00449973397302
0.00401769742151
0.00337427316652
0.00251189786635
0.00103691803215
0.00137668519651
0.00333225604735
0.00446247537208
0.00528277126382
0.00586693925514
0.00622387463123
0.00637100570579
0.00635633129696
0.00624575308814
0.0060936254812
0.00593327909111
0.00577939063124
0.00562409176674
0.0054415887826
0.00519716945042
0.00485098364594