/*--------------------------------*- C++ -*----------------------------------*\
| =========                 |                                                 |
| \\      /  F ield         | OpenFOAM: The Open Source CFD Toolbox           |
|  \\    /   O peration     | Version:  3.0.1                                 |
|   \\  /    A nd           | Web:      www.OpenFOAM.org                      |
|    \\/     M anipulation  |                                                 |
\*---------------------------------------------------------------------------*/
FoamFile
{
    version     2.0;
    format      ascii;
    class       surfaceScalarField;
    location    "4.2";
    object      alphaPhi;
}
// * * * * * * * * * * * * * * * * * * * * * * * * * * * * * * * * * * * * * //

dimensions      [0 3 -1 0 0 0 0];

internalField   nonuniform List<scalar> 
22672
(
2.23983249036e-26
2.2692697886e-26
-8.71393018134e-24
4.3654196178e-25
9.74101459249e-26
-6.04427902458e-23
2.27852285487e-24
2.28605891613e-25
-1.82860020319e-22
2.41605222551e-24
1.9879890997e-25
-1.42938124623e-22
2.67434172884e-24
2.80250738063e-25
-1.24165717202e-22
8.49429548201e-25
1.29245003274e-25
-3.86785466911e-23
2.49458974362e-25
5.61678650661e-26
-1.34524091072e-23
9.92230686301e-27
3.563552689e-27
-8.10140306362e-25
6.73926182235e-29
4.73962292184e-29
5.26648213751e-30
5.7817407457e-32
2.80743299719e-31
4.90551659969e-32
-1.1939818529e-28
8.71655251156e-31
1.42672365813e-31
-1.84508380901e-26
1.153515822e-28
9.03209662506e-30
-1.52102593537e-25
7.56809368807e-27
-1.22457253132e-24
-5.22365754008e-25
3.66432965627e-26
-8.65691570368e-24
-1.8444398111e-24
8.19106005761e-26
-2.63452249791e-23
-2.21522554456e-24
1.96437145673e-25
-9.98713702742e-23
-1.36440068246e-24
1.91124387287e-25
-1.4526022353e-22
-4.31237250125e-25
1.56060191697e-25
-1.25204846999e-22
-2.30699667055e-26
1.18193960141e-25
-6.53968840947e-23
3.23963826185e-26
-1.09031022897e-23
1.13585683093e-25
4.9493505435e-25
-7.13017301005e-23
2.73770718078e-24
2.65610900875e-24
-3.68810098427e-22
8.63283285738e-24
4.70709017811e-24
-5.56919936506e-22
8.79530300407e-24
4.00369873691e-24
-4.29990522029e-22
7.80662220572e-24
3.69863801247e-24
-3.2042474098e-22
5.81622673909e-24
3.25378821972e-24
-2.39112301824e-22
1.32858275834e-24
9.59606970463e-25
-6.15549179156e-23
1.45953755301e-25
1.54084729816e-25
-9.085210113e-24
1.19594682978e-26
2.3839121281e-26
-1.44066275683e-24
3.72602980899e-28
6.40595584642e-27
-4.18398904494e-25
-8.95317567086e-27
6.91541614372e-27
-4.46778201501e-25
-9.12503230337e-26
2.29488093814e-26
-1.46609297315e-24
-5.92014245461e-25
1.08933736215e-25
-7.31909379047e-24
-2.59275367451e-24
4.67575547828e-25
-3.48254719993e-23
-4.94471558918e-24
1.5751825706e-24
-1.34816016434e-22
-3.32099478363e-24
2.57891121961e-24
-2.48723177203e-22
-5.08363094694e-24
1.71908657306e-24
-1.96904243046e-22
-6.42040483512e-25
3.30924814305e-24
-4.24768063277e-22
-7.02359218062e-26
8.03961057392e-25
-1.07795704283e-22
5.85985251756e-25
-7.24693304975e-23
1.79489640347e-25
1.68798219459e-24
-1.36510012818e-22
5.09915697587e-24
8.74039833509e-24
-5.9421706201e-22
2.06037272754e-23
1.99309758714e-23
-1.2520956872e-21
1.53028697216e-23
1.22386048223e-23
-6.58061252712e-22
7.38039970121e-24
5.94898008034e-24
-2.65374614843e-22
1.28663796034e-24
1.18191260177e-24
-4.46268264503e-23
1.3024591471e-25
1.50647621611e-25
-4.91636018535e-24
8.72611370163e-27
1.45485480451e-26
-4.15451857671e-25
4.71532384492e-28
1.49541803639e-27
-4.02684066192e-26
7.86949684847e-30
3.1566845302e-28
-8.66708569729e-27
-4.16393017374e-28
3.59779752344e-28
-1.0234159099e-26
-5.68171581291e-27
1.55541817905e-27
-4.81891069104e-26
-5.31306731597e-26
1.03416399334e-26
-3.64887332302e-25
-4.02396820929e-25
6.62548223383e-26
-2.6617429489e-24
-2.12957857265e-24
4.00873708154e-25
-1.83596278966e-23
-5.76406216468e-24
1.89985119216e-24
-9.79405754987e-23
-4.08828851336e-24
5.27688869892e-24
-3.0874872426e-22
-2.9932480391e-24
4.744551959e-24
-3.20478635993e-22
-5.28741470962e-26
6.69902752775e-24
-4.77954555126e-22
1.36272602246e-24
-9.61618770946e-23
4.01394652024e-25
4.65716334303e-24
-2.62984674642e-22
6.27091217468e-24
1.29747348819e-23
-6.94669050601e-22
8.56805856437e-24
1.01184725909e-23
-4.16154659423e-22
6.91192254152e-24
6.74992564897e-24
-2.46206558175e-22
1.12111844491e-24
1.09488434002e-24
-3.09441624573e-23
9.24354613086e-26
1.01984310636e-25
-1.93940190403e-24
5.25129046534e-27
7.26855089179e-27
-7.55404924368e-26
2.2889434192e-28
4.58145502416e-28
-8.36111481615e-28
9.99537367062e-30
3.89446522419e-29
1.44661755676e-30
5.14335679798e-32
7.31822469587e-30
4.10116658412e-31
-9.00243545146e-30
8.2057775783e-30
4.01222055915e-31
-1.46652733428e-28
3.69733199259e-29
6.18207727386e-31
-1.98956660898e-27
3.05232452517e-28
-2.18959192416e-27
-2.50581884063e-26
2.89585262162e-27
-4.80558905906e-26
-2.55403041423e-25
2.96422305568e-26
-7.50916931035e-25
-1.67609147078e-24
2.75093712489e-25
-9.25046665676e-24
-3.64523534967e-24
1.87460371241e-24
-7.79284635095e-23
-2.09183869264e-24
5.17025719355e-24
-2.48783143403e-22
-8.74114421238e-26
5.64125680581e-24
-3.03535919647e-22
2.77595571797e-24
-1.48643153008e-22
3.06800195609e-25
2.87511265034e-24
-1.34734742345e-22
5.94638371626e-24
1.19966549688e-23
-4.84628365496e-22
8.37933760524e-24
9.95405114297e-24
-3.56658154182e-22
1.44961534761e-24
1.43502240973e-24
-4.00923384891e-23
1.02273679804e-25
1.01268089842e-25
-1.60495065226e-24
4.539397893e-27
5.07304049165e-27
-1.89159029856e-26
1.82669655487e-28
2.56769523229e-28
1.84301701086e-29
6.58762936089e-30
1.35126274568e-29
1.97801168989e-30
2.34433611098e-31
9.65006758275e-31
1.83463368092e-31
-1.48075250593e-33
1.60298212561e-31
3.30879796641e-32
-2.11581816939e-31
1.75043394865e-31
3.46681825669e-32
-3.46015843676e-30
8.14251696346e-31
1.34872033978e-31
-5.38650323841e-29
7.00124385195e-30
7.65518374487e-31
-1.05445788173e-27
7.74393889754e-29
2.19358898102e-30
-2.00138801245e-26
1.24748216592e-27
-1.08543339113e-26
-2.699912025e-25
2.17737170176e-26
-4.5820035418e-25
-1.84266691019e-24
3.06518602321e-25
-9.90553242493e-24
-2.69752358095e-24
2.63468911353e-24
-1.05849802586e-22
-8.54350497664e-26
7.0468676722e-24
-3.08422034652e-22
1.61534636921e-24
-6.94901765449e-23
3.01600908378e-25
1.98493551049e-24
-8.76227329022e-23
2.61710071107e-24
4.54178999864e-24
-1.79512871827e-22
2.20160577583e-24
2.3297182852e-24
-7.70405559898e-23
1.9380501461e-25
1.72460087856e-25
-3.64584073934e-24
7.8613483165e-27
7.01160031403e-27
-3.19504602744e-26
2.56519053353e-28
2.58451222146e-28
2.91927900427e-29
7.53954550648e-30
9.59086040638e-30
2.21331268025e-30
1.98518878177e-31
3.72196478676e-31
1.15486591013e-31
5.24552646131e-33
2.03661643946e-32
7.23565321672e-33
-8.07178514901e-35
2.92269759896e-33
1.08301734064e-33
-4.58694511602e-33
3.09689435602e-33
1.11377501085e-33
-7.95590916783e-32
1.49035009506e-32
4.82300845234e-33
-1.59854721548e-30
1.40251772632e-31
3.67499360935e-32
-4.33594557178e-29
2.03204956019e-30
3.53375457012e-31
-1.29290296312e-27
4.58464067119e-29
2.67723076636e-30
-3.10150475655e-26
1.26742743457e-27
-1.18409859362e-26
-3.92220606514e-25
3.18404792853e-26
-8.20833055383e-25
-1.33198947237e-24
5.03198194589e-25
-1.8790018191e-23
-6.14046663239e-26
2.99055557268e-24
-1.23279280881e-22
6.77762554398e-25
-2.58570062963e-23
1.12929565793e-25
5.09362414352e-25
-2.52548153397e-23
1.20757236349e-24
1.65051302736e-24
-7.53423007324e-23
3.39074591311e-25
2.900633502e-25
-1.02007198893e-23
1.85430582094e-26
1.3409458456e-26
-1.97116334354e-25
6.1735739249e-28
4.47488811619e-28
4.04722821716e-29
1.72834519865e-29
1.41418978406e-29
4.00517284662e-30
3.81147322383e-31
3.94515997865e-31
1.67911859015e-31
6.5295679136e-33
1.00418072445e-32
5.22677974386e-33
1.047870387e-34
3.43495074371e-34
1.96538658208e-34
-2.04956156993e-36
3.93127716833e-35
2.31163104117e-35
-8.24224352209e-35
4.03455363667e-35
2.31029804458e-35
-1.74113759435e-33
2.05295808041e-34
1.08370515365e-34
-5.48242847392e-32
2.42027335155e-33
1.09452838307e-33
-2.15515974766e-30
5.58178431844e-32
1.9257356616e-32
-8.13019320677e-29
1.84779295204e-30
3.8051334688e-31
-2.83922622074e-27
6.52997206537e-29
2.3681477547e-30
-5.74004058129e-26
2.40284971458e-27
-4.63277437668e-26
-3.33367255961e-25
6.05292048058e-26
-2.28508253827e-24
-1.07025276586e-26
5.96450405199e-25
-2.53028539179e-23
7.53044092433e-26
-2.14228376622e-24
1.47781081241e-26
4.24283938858e-26
-3.0711566465e-24
3.70082074183e-25
3.54096890359e-25
-2.07073080423e-23
4.49101664903e-26
2.73706097626e-26
-1.20718335251e-24
1.61316234648e-27
8.31952149763e-28
-5.62313765633e-27
4.86105919399e-29
2.50159689875e-29
6.87970162552e-30
1.21321085206e-30
7.01817996945e-31
3.8197899055e-31
2.21394160874e-32
1.61752413283e-32
1.20417879405e-32
2.62358616492e-34
2.8609344003e-34
2.50790112641e-34
2.03375534773e-36
4.84363773988e-36
4.58938472479e-36
-3.19909466846e-38
3.3909439038e-37
3.27850465604e-37
-1.18302394236e-36
3.33282124295e-37
3.13728026778e-37
-4.37733638098e-35
1.97297576721e-36
1.72468717924e-36
-2.48360110025e-33
4.19032897322e-35
3.20538559646e-35
-1.30832428199e-31
1.77543197457e-33
1.08616153374e-33
-5.7774505008e-30
8.01174056691e-32
3.34630150012e-32
-2.21815420194e-28
3.36775506832e-30
6.24976027422e-31
-6.42833966421e-27
1.37971039416e-28
-1.42070658834e-27
-5.45010387737e-26
5.00082349137e-27
-2.13706463139e-25
-5.31726522814e-28
7.06287996342e-26
-3.54130067704e-24
2.37454930501e-27
5.09768196132e-28
3.98719082978e-28
6.03395256917e-28
2.66221614788e-29
1.13076818331e-25
6.00695062752e-26
-6.03509740539e-24
8.41581229428e-27
2.85683075718e-27
-2.08913232547e-25
2.42557356708e-28
6.89662471677e-29
6.71130788245e-30
6.48846649731e-30
1.81317054856e-30
1.23025235596e-30
1.40347359403e-31
4.34384198893e-32
5.14526216449e-32
2.14444053458e-33
8.28432974919e-34
1.30227438236e-33
1.9346182893e-35
1.10975119464e-35
2.03833974248e-35
7.33901298868e-38
9.32287601766e-38
1.84359907714e-37
-3.0295349853e-40
1.6356742543e-39
3.28847927157e-39
-1.66902869038e-38
1.36482002157e-39
2.65879626112e-39
-1.52731485964e-36
1.40377776779e-38
2.52356733367e-38
-1.23930017447e-34
7.64971007293e-37
1.19583292898e-36
-7.49226494111e-33
4.79873269053e-35
6.01438112963e-35
-3.60221137281e-31
2.57243878761e-33
2.27093931024e-33
-1.48545893974e-29
1.21889125023e-31
5.67618087774e-32
-5.6792260052e-28
5.52213325064e-30
2.66647887865e-31
-6.96452207544e-27
2.6929931638e-28
-1.63804336827e-26
-1.01955025052e-29
5.51183269175e-27
-4.29446549996e-25
2.61321870335e-29
3.99295146437e-30
7.66751410247e-30
2.28900248325e-30
1.11442986238e-30
3.9596791736e-26
4.06252916583e-27
-2.20132484817e-24
2.29817577355e-27
1.3713372136e-28
-5.58285362352e-26
6.08759057925e-29
2.58461262519e-30
3.182963452e-30
1.50328171771e-30
4.92345806663e-32
3.19881855348e-31
2.9942005672e-32
7.92946461488e-34
1.17048628816e-32
4.17306826247e-34
8.98650434613e-36
2.65685749623e-34
3.35370830559e-36
5.56550885614e-38
3.68593874034e-36
1.00919044586e-38
1.12229283026e-40
2.65910798751e-38
-2.30169674586e-42
-4.2558523596e-44
7.76660520314e-41
-7.63106392579e-40
4.67597016397e-44
1.8927744329e-41
-1.24862690807e-37
1.89826709662e-41
1.15929694746e-39
-1.19825291259e-35
4.47156835198e-39
9.97879460751e-38
-8.14242100929e-34
5.81030249133e-37
6.04152365915e-36
-4.38230056575e-32
5.12316579326e-35
2.63641100095e-34
-2.03142141365e-30
3.60183042642e-33
7.91375788151e-33
-8.7662201855e-29
2.22762778533e-31
9.22670880479e-32
-1.43332345984e-27
1.39485210423e-29
-2.42756725672e-27
-7.98027156394e-32
4.1137195277e-28
-9.10926778131e-26
7.65196529076e-32
3.92742321967e-32
1.6680098909e-30
-9.95001707226e-29
2.42416270713e-31
3.12426302952e-26
-2.19917752789e-26
-1.80881370703e-24
1.72978227164e-27
-9.88322512167e-28
-4.38411379376e-26
4.37451752603e-29
-2.29130746392e-29
2.31067270022e-30
1.03152789256e-30
-5.78489189224e-31
2.19452822499e-31
1.9668176357e-32
-1.31667691021e-32
7.67548408547e-33
2.63080613658e-34
-2.36647484965e-34
1.67050142356e-34
2.03225340522e-36
-2.99171755765e-36
2.22546572017e-36
5.90939901525e-39
-2.69084370509e-38
1.54650096475e-38
-2.90231252374e-42
-1.36655639166e-39
4.99405821555e-41
-8.48413079915e-40
-1.9283113191e-39
2.38205414959e-41
-1.35499107412e-37
-1.61555315115e-38
1.27712523861e-39
-1.31088815555e-35
-5.13372010768e-37
1.07305167565e-37
-9.01907989603e-34
-2.81184054854e-35
6.55431612143e-36
-4.92534160621e-32
-1.37656198966e-33
2.89811261085e-34
-2.31844118228e-30
-5.76863748686e-32
8.83250884051e-33
-1.01343732705e-28
-2.25842420208e-30
1.04290874024e-31
-1.64764619856e-27
-9.48539773873e-29
-2.83285248102e-27
-1.03735520004e-32
-1.62802688728e-27
-1.04409449361e-25
-1.29569672669e-30
5.25522615615e-33
1.11272102979e-28
-1.86297390546e-26
7.86660227939e-30
6.71131029825e-26
-2.0112436303e-25
-3.88861326454e-24
4.43794124743e-27
-1.1807333831e-26
-1.21525766967e-25
1.1335840965e-28
-2.89135590438e-28
3.30457006084e-30
2.66688302026e-30
-7.05277374058e-30
5.0500530029e-31
5.06447564032e-32
-1.61075956018e-31
1.84565190604e-32
6.80433578127e-34
-3.17858380978e-33
4.09581537949e-34
5.47201625276e-36
-5.98354956402e-35
5.6945897928e-36
2.14190237602e-38
-1.80272546704e-36
5.25766779969e-38
-4.07862531603e-40
-2.86221201016e-37
2.64402127758e-39
-1.98735702178e-38
-4.31926871035e-37
3.63401631162e-39
-1.16322134058e-36
-2.70467972145e-36
2.94076962326e-38
-9.39504873676e-35
-2.76109428372e-35
8.8973762168e-37
-6.1258988122e-33
-6.91069673873e-34
4.45826488525e-35
-3.20616155622e-31
-2.78862581833e-32
1.81921268405e-33
-1.43561900981e-29
-1.14935346326e-30
4.96372154729e-32
-5.94211302309e-28
-4.64746157962e-29
3.40522317434e-31
-7.48875041607e-27
-1.65150718449e-27
-1.82989869629e-26
-2.24548890859e-30
-2.15317476787e-26
-4.76699487973e-25
-3.66718058816e-28
1.00328233959e-30
8.4447071378e-27
-2.55032036444e-25
-1.82589679812e-24
2.65151371613e-25
-1.26750425651e-24
-1.60037458593e-23
2.36774068727e-26
-1.04826339495e-25
-7.38215250358e-25
6.58842850071e-28
-3.46816661369e-27
-2.53134128718e-27
1.5440790043e-29
-9.02098900105e-29
2.17519300837e-30
3.02107678064e-31
-2.41202082644e-30
9.38769875351e-32
4.57102763117e-33
-7.18709273809e-32
2.44080062424e-33
5.62577609223e-35
-2.84004163728e-33
5.24010363962e-35
7.72084465592e-37
-1.61388419089e-34
1.65982328418e-36
-3.54449279499e-38
-3.1585606229e-35
2.64039919777e-37
-1.60491061218e-36
-4.80597128595e-35
3.86803523427e-37
-3.00177744418e-35
-2.90654367707e-34
2.28997298262e-36
-1.07319879579e-33
-2.20399619706e-33
2.13075650483e-35
-5.48249150631e-32
-2.54533561047e-32
4.55210068085e-34
-2.61944550278e-30
-5.65449362609e-31
1.3643887677e-32
-1.10140477995e-28
-1.81487222357e-29
2.78470423206e-31
-3.44899277442e-27
-6.65937563291e-28
-7.6018437726e-28
-2.91191862416e-26
-1.64867298577e-26
-1.24836966744e-25
-1.51376932434e-28
-1.54252596464e-25
-2.02694310702e-24
-1.11536304366e-26
-1.80993374337e-29
6.78651140099e-26
-7.4140845961e-25
-1.57933934935e-23
1.07848148106e-24
-4.05763657054e-24
-7.22484014452e-23
1.39365366622e-25
-6.29688588737e-25
-5.05345867477e-24
5.317920765e-27
-3.46640422026e-26
-6.79642764016e-26
1.34448930759e-28
-1.26026681746e-27
8.69200370476e-30
3.11419885013e-30
-4.89528722276e-29
7.033270478e-31
7.21103100613e-32
-2.50496015063e-30
3.07398893584e-32
1.90095575215e-33
-1.5065421023e-31
1.45410539255e-33
5.16060958417e-35
-1.05471764909e-32
8.9101406449e-35
-1.5094846761e-36
-2.31458502996e-33
1.76521787576e-35
-1.11575984537e-34
-3.52996731314e-33
2.59924783899e-35
-1.58616053499e-33
-2.105113204e-32
1.45636879782e-34
-2.61512360928e-32
-1.47792369993e-31
9.67596931402e-34
-7.28424981989e-31
-1.26797643331e-30
8.88207187505e-33
-2.66431573242e-29
-1.67401378038e-29
1.24892891339e-31
-9.94751205441e-28
-3.55623014483e-28
8.40706581941e-31
-2.1070917088e-26
-7.6241828334e-27
-1.80632701276e-26
-1.21465161904e-25
-9.6842317552e-26
-9.34177844834e-25
-2.22564089988e-27
-3.46702298631e-25
-1.03018713978e-23
-5.97251634868e-26
-1.329405002e-25
1.30531741984e-25
-1.82040172309e-24
-3.93781217082e-23
2.61677171435e-24
-5.21993925129e-24
-2.00952971334e-22
6.54372383735e-25
-2.79029450162e-24
-2.69869886029e-23
4.20828284066e-26
-3.20032820276e-25
-9.06848742476e-25
1.50093180884e-27
-2.29552348593e-26
-6.89737452591e-27
5.09450805958e-29
-1.33557569772e-27
5.47039271438e-30
2.04973435654e-30
-9.40042557805e-29
5.68671474922e-31
8.38779887309e-32
-6.72590288525e-30
4.53964574627e-32
2.94866766137e-33
-5.29000032702e-31
3.58579089527e-33
-5.73594436364e-37
-1.28890046349e-31
8.09435961734e-34
-5.92772246278e-33
-1.96730995598e-31
1.1849269328e-33
-8.10948387045e-32
-1.15109847163e-30
6.3317298001e-33
-1.00216006739e-30
-7.82260612055e-30
3.6241819707e-32
-1.65886832588e-29
-5.91197947769e-29
2.10443083992e-31
-3.99283283713e-28
-5.80571465063e-28
9.47707113419e-31
-8.61847109313e-27
-7.08529117562e-27
-4.17536454684e-27
-9.18368684901e-26
-7.97461642759e-26
-2.55529441091e-25
-1.92472573917e-25
-6.28302444151e-25
-4.81497577296e-24
-6.13411463968e-27
-1.34797213229e-24
-2.09801959044e-23
-2.643090355e-25
-2.88426610597e-24
2.2277881074e-25
-2.93469119498e-24
-9.77756057555e-23
2.84402836178e-24
-1.07801472503e-23
-2.61387022299e-22
2.5432771721e-24
-4.43508214866e-24
-1.20534048572e-22
3.45571703281e-25
-1.9561976698e-24
-1.05242336884e-23
2.45191681537e-26
-3.37635779711e-25
-4.25653447967e-25
1.25609318233e-27
-3.4128701043e-26
-6.21353279803e-27
7.03202234351e-29
-3.27314568225e-27
6.18167311702e-30
3.49397391968e-30
-2.57325529431e-28
9.28265473627e-31
1.45311264156e-31
-2.22830085766e-29
9.41929085884e-32
3.43796927287e-33
-6.02850494551e-30
2.45524000749e-32
-2.57153212317e-31
-9.1864446324e-30
3.51863093805e-32
-3.60704414905e-30
-5.18090823697e-29
1.67651989136e-31
-3.98892670579e-29
-3.47791870747e-28
7.18113068662e-31
-4.93642435857e-28
-2.46003667098e-27
1.0663258226e-30
-6.82011780337e-27
-1.48752814739e-26
-6.54052829059e-27
-7.67849454601e-26
-9.50751270475e-26
-1.84043422222e-25
-4.9784154752e-25
-4.85221548964e-25
-3.19239548556e-24
-5.86564927602e-25
-7.45844093026e-25
-3.23459324476e-23
-1.07123059921e-26
-9.47127270447e-25
-7.98812943975e-23
-2.50145571374e-25
-1.62057612954e-23
2.92966784119e-25
-1.50580521564e-24
-1.8719928648e-22
5.70714405198e-24
-7.60395069134e-24
-6.25048543199e-22
4.05451291641e-24
-9.94652461095e-24
-2.19420888133e-22
2.14166349703e-24
-4.30145042961e-24
-8.29961131543e-23
3.6739018141e-25
-2.54072633189e-24
-1.09915645146e-23
3.28453884835e-26
-4.36196808239e-25
-7.41471212733e-25
2.52771965727e-27
-7.43985575356e-26
-4.08134507356e-26
1.40545570231e-28
-8.38745770384e-27
-8.55808558044e-28
6.74249489249e-30
-8.6897272046e-28
6.18841710354e-31
3.29878170323e-31
-2.60928998439e-28
2.63803627682e-31
-1.00630034167e-29
-3.94828965279e-28
3.05728186235e-31
-1.50659439948e-28
-2.08458464689e-27
-1.06326257343e-29
-1.59272005179e-27
-1.05221054428e-26
-3.53983211969e-27
-1.22570448074e-26
-5.25001068634e-26
-4.99110772638e-26
-8.90741902906e-26
-1.73072090868e-25
-4.50004784575e-25
-4.53903869649e-25
-6.54139250285e-25
-3.82220099087e-24
-5.64897081962e-25
-7.22537348896e-25
-2.46261339195e-23
-3.69394120629e-25
-1.44463864023e-24
-4.460827358e-23
-5.68790926767e-28
-3.86107150814e-25
-6.58222668627e-23
-8.30087615047e-26
-1.90646704939e-23
1.88573390515e-25
-4.64121796747e-25
-1.25577427787e-22
4.91773571837e-24
-2.43468594929e-24
-6.08378720314e-22
1.12175903982e-23
-1.4953338049e-24
-7.11567318993e-22
5.81492006569e-24
-5.13025291146e-24
-2.66523233957e-22
3.39456541617e-24
-3.51575514895e-24
-1.30047908669e-22
5.1271445827e-25
-8.68369282024e-25
-1.78215715711e-23
7.02619266308e-26
-4.57393287182e-25
-2.70398404403e-24
5.66092649179e-27
-8.2399549524e-26
-2.6037337197e-25
3.36654453529e-28
-1.20000298302e-26
-2.44298356595e-26
2.50020900088e-29
-4.44303404554e-27
-7.49916997506e-27
-4.10023339735e-28
-6.02227257226e-27
-1.16609040214e-26
-5.06462624301e-27
-2.43413394968e-26
-6.89884604539e-26
-3.89228670524e-26
-8.50779158672e-26
-4.00925742941e-25
-1.66420939755e-25
-2.98173250376e-25
-2.37009969277e-24
-7.26569726662e-25
-3.81624704484e-25
-9.06218543104e-24
-8.09841893634e-25
-8.55272554932e-25
-4.06209466124e-23
-1.30634852868e-24
-6.97713394984e-25
-5.36256186881e-23
-1.74087996261e-25
-2.06183906407e-25
-1.23520421626e-22
3.30514390124e-27
-9.98163162597e-26
-3.60606181783e-23
-6.66807864413e-26
-8.24731785974e-24
1.27773094988e-25
-2.65290114965e-26
-6.96591812186e-23
2.89507374039e-24
-8.83721576957e-26
-3.70760546322e-22
3.10922117777e-24
-1.14006442155e-25
-2.19495004565e-22
1.26172702264e-23
-1.81219350004e-25
-6.43183591077e-22
8.24827635142e-24
-1.45177903302e-25
-3.50205174719e-22
1.72843591626e-24
-9.79842066641e-26
-6.77474588481e-23
7.14692044944e-25
-1.84723154447e-26
-3.21194182483e-23
9.11829977951e-26
-9.18131092021e-28
-5.12195802485e-24
7.75176155185e-27
-1.63492959492e-29
-7.27064466506e-25
8.44075928615e-28
-1.02856167675e-31
-2.87831036093e-25
-6.5036212278e-27
-5.52354639596e-31
-3.82108374323e-25
-6.21072418043e-26
-6.52846484951e-29
-1.60483649638e-24
-3.52390892715e-25
-1.81968168023e-27
-6.14402561852e-24
-6.14047282686e-25
-1.38737846052e-26
-2.54286035008e-23
-1.67928614042e-24
-2.40362786659e-26
-4.09782379645e-23
-1.45374110144e-24
-2.64319661382e-26
-1.09297394417e-22
-3.53822522036e-25
-9.87308537674e-27
-1.10646085304e-22
-8.56839313908e-26
-2.33389085004e-27
-3.75484818073e-23
-3.38337420492e-27
-7.35092390261e-27
-1.8281502497e-23
-3.02825667589e-27
-1.13332222899e-23
3.36466400271e-26
-1.17191005696e-23
5.64915532222e-25
-7.22772773778e-23
1.77591663958e-24
-1.2739513005e-22
3.32001289366e-24
-1.84897659148e-22
1.86997211196e-24
-8.52753089726e-23
8.18408439675e-25
-3.51669279997e-23
1.02940904136e-25
-4.08441231595e-24
3.29566590232e-27
1.07021694694e-28
3.32162199749e-29
4.16881707187e-30
6.78410847102e-32
3.39452304089e-32
-4.56667578354e-29
1.78008227525e-31
-4.23499395523e-27
1.08480027256e-29
-6.23839128409e-26
2.77644954079e-27
-1.93700095477e-25
-3.25495192745e-24
-4.24850734269e-25
-1.0824873665e-23
-3.79502681601e-25
-2.72674667134e-23
-8.83932585095e-26
-3.17926385756e-23
-6.06103679287e-26
-9.83921656022e-24
-2.52139824273e-27
-1.15980878883e-23
-1.66326487455e-24
7.67000739873e-24
7.75574460725e-24
-1.51407185732e-21
9.8703930395e-23
5.36878835338e-23
-8.91316171276e-21
4.55147196483e-22
1.9023242397e-22
-2.52702473191e-20
5.21678147673e-22
2.03073018674e-22
-2.18912512351e-20
6.55742642134e-22
2.66307275381e-22
-2.18723872445e-20
3.07446121063e-22
1.41777253169e-22
-1.02038336959e-20
1.8485937384e-22
1.05553437256e-22
-7.26120770912e-21
4.74627876661e-23
3.81955728275e-23
-2.60173801942e-21
7.92446961992e-24
1.17600568866e-23
-8.21110293346e-22
3.54174782828e-25
4.63001300203e-24
-3.72724818902e-22
-4.87969224859e-24
4.06408749358e-24
-2.90763445073e-22
-3.41888620061e-23
9.32191125703e-24
-6.47924674019e-22
-9.65352435514e-23
3.15073664659e-23
-2.16718663304e-21
-1.86960978422e-22
6.14052739072e-23
-4.48582724914e-21
-4.88113568377e-22
9.57290752811e-23
-7.1701850395e-21
-4.98586439078e-22
2.2227414079e-22
-1.96696637344e-20
-2.9538250423e-22
2.21845001079e-22
-2.33717275173e-20
-1.02346526915e-22
1.44167226117e-22
-1.84861636395e-20
-9.45650907713e-24
6.58676838565e-23
-8.94476677553e-21
1.13540717427e-23
-1.89391514972e-21
6.54856188599e-23
1.16948211929e-22
-1.08704734053e-20
3.92187126056e-22
3.82421817899e-22
-2.84591408358e-20
7.54789375668e-22
5.68843247631e-22
-3.30113712601e-20
7.37624698496e-22
5.15862397121e-22
-2.65114906761e-20
6.68507878513e-22
4.86806815756e-22
-2.09814536831e-20
5.80103985289e-22
4.80136568176e-22
-1.90202308853e-20
1.62149508798e-22
1.66933999455e-22
-6.04410026662e-21
2.29693702097e-23
3.34959342862e-23
-1.15777368466e-21
2.55320206744e-24
6.9202192811e-24
-2.49237884732e-22
9.01620919869e-26
2.32264551956e-24
-9.18808165255e-23
-1.90397676857e-24
2.39987152491e-24
-9.20067007895e-23
-1.49824690352e-23
6.51294114737e-24
-2.45126474e-22
-7.75586492488e-23
2.48199131478e-23
-9.58508454935e-22
-2.83977313495e-22
8.85629148355e-23
-3.67589346636e-21
-4.58460123311e-22
2.60467229772e-22
-1.17939811518e-20
-3.01571550339e-22
3.73963429074e-22
-1.78941938959e-20
-5.17766702935e-22
2.40536884425e-22
-1.3501179665e-20
-1.04417945136e-22
4.53567999944e-22
-2.78381585912e-20
-6.44050729901e-23
1.19575125116e-22
-8.45684848787e-21
1.34180841691e-22
-1.02491944488e-20
1.4829044521e-22
3.38564377967e-22
-1.9343105567e-20
6.22261803877e-22
7.82926675369e-22
-3.6515874851e-20
1.61489816132e-21
1.5762568477e-21
-6.5682156438e-20
1.07770459209e-21
9.75029834739e-22
-3.51384292567e-20
5.41613024467e-22
5.10032058363e-22
-1.54615323569e-20
1.10537160635e-22
1.18581930176e-22
-3.04520521966e-21
1.40989303289e-23
1.8914418645e-23
-4.06467284919e-22
1.24682345342e-24
2.38783935795e-24
-4.16165473632e-23
9.32122550647e-26
3.36811720247e-25
-4.77924512087e-24
2.0338092384e-27
8.99723503561e-26
-1.13994640287e-24
-8.10878111626e-26
9.98435249408e-26
-1.3720272114e-24
-8.5909739543e-25
3.50368088195e-25
-6.12111988604e-24
-6.28526352852e-24
1.82618944624e-24
-4.02661894142e-23
-3.87884226462e-23
9.23496147699e-24
-2.43937568128e-22
-1.74823634203e-22
4.58401313248e-23
-1.40942033436e-21
-4.49260112645e-22
1.84060711828e-22
-6.35507525818e-21
-3.71064741167e-22
4.63562054203e-22
-1.80535654151e-20
-4.55617108237e-22
4.21114440574e-22
-1.89685023335e-20
-1.01500465035e-22
6.72814108091e-22
-3.19762103032e-20
2.69031891847e-22
-1.34591565816e-20
3.86458801468e-22
9.464042341e-22
-3.74368043896e-20
8.42706835593e-22
1.14993770396e-21
-4.63015051373e-20
6.22057072631e-22
6.61481490449e-22
-1.98395524822e-20
4.93397372374e-22
4.86651421705e-22
-1.33466819138e-20
8.61563384352e-23
8.85438440521e-23
-1.86638639567e-21
8.01368905256e-24
9.41518250038e-24
-1.25738758476e-22
5.49963926436e-25
8.13091931049e-25
-4.10620052721e-24
3.61995563341e-26
7.71985402263e-26
4.73984211097e-27
2.35001835897e-27
9.6581518396e-27
1.39840160395e-27
2.71141409097e-29
2.3435378375e-27
4.16422642859e-28
-2.03611067597e-27
2.57768866951e-27
4.2046288346e-28
-2.18851814765e-26
9.25881103101e-27
9.56752020905e-28
-2.36128804421e-25
5.00254135369e-26
4.59826088521e-29
-2.46710287807e-24
3.75038566234e-25
-3.80566015477e-24
-2.20205686008e-23
3.16382330396e-24
-5.796896781e-23
-1.38499357411e-22
2.52265363806e-23
-6.31090492789e-22
-3.36315422075e-22
1.55910717125e-22
-4.8596515049e-21
-3.3891344821e-22
4.16947055969e-22
-1.51170609357e-20
-2.17343001996e-22
5.44901562447e-22
-2.20188089772e-20
6.20802857333e-22
-2.39585021124e-20
2.9178515425e-22
6.88706653944e-22
-2.29238688592e-20
7.29086092488e-22
9.64903588007e-22
-2.95820158157e-20
6.76380946109e-22
6.9905496947e-22
-1.95902044155e-20
1.13420260796e-22
1.08694179815e-22
-2.35063445726e-21
8.20408671928e-24
8.19521960348e-24
-9.2965535812e-23
3.96098435533e-25
4.53542814688e-25
5.80451072938e-27
1.97854981805e-26
2.86663303696e-26
6.08965667339e-27
1.06625671316e-27
2.2505086715e-27
7.89253382589e-28
5.93038965295e-29
2.47020056632e-28
1.06528407922e-28
5.80650156751e-32
5.48325007398e-29
2.52345471534e-29
-5.05026537617e-29
5.8901373153e-29
2.60490943201e-29
-5.52019907644e-28
2.13820124303e-28
8.12197093653e-29
-6.67755554003e-27
1.20280932737e-27
3.28619281193e-28
-1.03644605802e-25
1.02097969138e-26
1.24898299889e-27
-1.85566960891e-24
1.2852377595e-25
-5.58183133411e-25
-2.46611037598e-23
2.0646997276e-24
-3.26328888083e-23
-1.83696630098e-22
2.70803925112e-23
-6.76824740484e-22
-4.35181663388e-22
2.22883519063e-22
-6.97119899062e-21
-1.58130316764e-22
6.85017869624e-22
-2.3232480782e-20
4.40941431307e-22
-1.43835219566e-20
3.11483514996e-22
6.53078930794e-22
-2.04891150031e-20
3.48099814282e-22
4.1001338479e-22
-1.25184952213e-20
1.96460645591e-22
1.80507999794e-22
-4.72727505087e-21
1.68072169892e-23
1.42786396426e-23
-2.23639517685e-22
6.82836529827e-25
6.03603104998e-25
4.43434322893e-27
2.43076734979e-26
2.46503837048e-26
7.4464072638e-27
8.07457120857e-28
1.03999180286e-27
5.46288646913e-28
3.01911528325e-29
5.71116790343e-29
3.85429401119e-29
1.35072103337e-30
5.15272948767e-30
3.90609467363e-30
-1.01417541795e-32
1.04490783489e-30
8.19668340979e-31
-1.10937701159e-30
1.08941471624e-30
8.28798358708e-31
-1.27500111684e-29
3.98906664064e-30
2.75310927996e-30
-1.96245208949e-28
2.41237202549e-29
1.37902999131e-29
-4.61852628031e-27
2.63185967447e-28
1.06209212425e-28
-1.30598933572e-25
5.05955679751e-27
9.41271979519e-28
-3.26055530721e-24
1.29264503047e-25
-5.78208391715e-25
-4.46540477405e-23
3.20638400246e-24
-6.1759554527e-23
-2.31031661711e-22
4.88054158226e-23
-1.40681854745e-21
-1.10801131352e-22
3.28866976863e-22
-1.06504338037e-20
2.79955779042e-22
-8.83203708885e-21
1.75237433033e-22
3.00430570334e-22
-1.06386542845e-20
1.91719733445e-22
1.84128878591e-22
-6.72449768589e-21
3.63959754126e-23
2.71486028703e-23
-7.4285462415e-22
1.84794707666e-24
1.26839896134e-24
-1.03501769509e-23
6.5156210169e-26
4.63306469489e-26
1.33794560219e-26
1.87576717462e-27
1.52763573463e-27
9.99824399367e-28
4.26570564494e-29
4.41806224829e-29
4.09070301135e-29
8.99064509712e-31
1.37576225655e-30
1.51737780511e-30
2.62245394359e-32
8.2396784765e-32
9.8595362634e-32
-3.41476699625e-34
1.48816523747e-32
1.81768709507e-32
-1.98013544959e-32
1.48919741675e-32
1.7677808909e-32
-2.70869715953e-31
5.52293718699e-32
6.06574766012e-32
-7.05910933511e-30
4.05725028129e-31
3.86796482488e-31
-2.74018588631e-28
7.58044995594e-30
5.675121535e-30
-1.046167761e-26
2.4272358039e-28
1.17463930087e-28
-3.55408234392e-25
8.45498353359e-27
1.41721064162e-27
-7.83150941239e-24
2.8822541367e-25
-3.30555277851e-24
-6.52188339995e-23
7.11619538371e-24
-1.9831587271e-22
-2.95874327332e-23
7.76940223095e-23
-2.60009718653e-21
6.28838884054e-23
-2.06527031631e-21
7.48126820797e-23
9.28528292842e-23
-4.38806115735e-21
6.95012304164e-23
4.81032389237e-23
-2.24531517281e-21
6.18258384054e-24
3.30102994387e-24
-1.03862678933e-22
2.24417062176e-25
1.09328173824e-25
1.00813543956e-26