/*--------------------------------*- C++ -*----------------------------------*\
| =========                 |                                                 |
| \\      /  F ield         | OpenFOAM: The Open Source CFD Toolbox           |
|  \\    /   O peration     | Version:  3.0.1                                 |
|   \\  /    A nd           | Web:      www.OpenFOAM.org                      |
|    \\/     M anipulation  |                                                 |
\*---------------------------------------------------------------------------*/
FoamFile
{
    version     2.0;
    format      ascii;
    class       volScalarField;
    location    "6.9";
    object      ddt0(k);
}
// * * * * * * * * * * * * * * * * * * * * * * * * * * * * * * * * * * * * * //

dimensions      [0 2 -3 0 0 0 0];

internalField   nonuniform List<scalar> 
7968
(
-8.31548447352e-05
-9.14828319222e-05
-9.74825052336e-05
-0.000101163977204
-0.000103442210512
-0.000104349233086
-0.000104628975054
-0.00010448119933
-0.000104512846592
-0.000104619585609
-0.000105012152536
-0.000105418440748
-0.000105754585493
-0.000106103124316
-0.000105834630713
-0.000104778332796
-0.000102494751265
-9.83703750903e-05
-9.16896540837e-05
-8.31371350023e-05
-9.14849742561e-05
-0.00012578086283
-0.000148107211203
-0.000161125166628
-0.000168385569978
-0.000172579105279
-0.000174860668077
-0.000176224279733
-0.000177370366009
-0.000178697249534
-0.00018037090821
-0.000182111750638
-0.000183412003109
-0.000183647346517
-0.000181984206583
-0.00017737239671
-0.000168437207417
-0.000153148826919
-0.000128298572436
-9.1531600507e-05
-9.77622521865e-05
-0.000147905684731
-0.000180054292683
-0.000199345238103
-0.000210907000767
-0.000217736081546
-0.000221800401683
-0.000224514721452
-0.000226831333516
-0.000229254868066
-0.000231919590277
-0.000234490589754
-0.000236270733477
-0.000236367758537
-0.000233566954851
-0.000226368480483
-0.000212818344648
-0.000190036858707
-0.000153303849178
-9.795781282e-05
-0.000101469468249
-0.000160819364077
-0.000199211858285
-0.000222598137201
-0.000236895004349
-0.00024561444615
-0.00025115228269
-0.000255162319721
-0.000259015383621
-0.000262674851826
-0.000266055066566
-0.000268671811235
-0.000270482349608
-0.000270364344862
-0.000266753498843
-0.00025782058272
-0.000241216268128
-0.000213501381263
-0.000168986112507
-0.000102016088771
-0.000103409166215
-0.000168064281439
-0.000210383254181
-0.000236462471567
-0.000252671399805
-0.000263045599576
-0.000270499321416
-0.000276476765845
-0.000281431814803
-0.000285879186314
-0.000289922574507
-0.000293088674872
-0.000294495392754
-0.000293151430092
-0.000288626282695
-0.000278432072415
-0.00025970059177
-0.000228596175643
-0.000178682477699
-0.000104587052726
-0.000104229799383
-0.00017178621897
-0.000216534079561
-0.000244421087579
-0.000262246510615
-0.00027485737458
-0.000284119506185
-0.000290992253919
-0.000296719194094
-0.000301897928317
-0.000306550095022
-0.00031012595112
-0.000311623569856
-0.00030989532212
-0.000303623699351
-0.000292047558346
-0.000271733235068
-0.000238227430635
-0.000184652700648
-0.000105917033236
-0.000104388240916
-0.000173385502177
-0.000219638856657
-0.00024888771765
-0.000268778101717
-0.000283104512448
-0.000293152600496
-0.000300775777593
-0.000307219416308
-0.000313049984213
-0.00031823117695
-0.000322134305575
-0.000323703028877
-0.000321737128625
-0.000314733900163
-0.000301017758557
-0.000279456852506
-0.000244224793353
-0.000188176261757
-0.000106410758619
-0.000104257600206
-0.000173875305933
-0.00022113050751
-0.000251549218794
-0.000273428933118
-0.000288552988855
-0.00029926406552
-0.000307511340443
-0.000314550745673
-0.000320895555738
-0.000326487979922
-0.000330623286359
-0.000332208217526
-0.000330029624879
-0.000322537423809
-0.000307902972984
-0.00028438698299
-0.000247870311763
-0.000190124810615
-0.000106419947356
-0.000104021813321
-0.000173966750447
-0.000221994749773
-0.000253602397633
-0.000276711444364
-0.000292422195666
-0.000303644827451
-0.000312356065489
-0.000319793536547
-0.000326487283538
-0.00033233777135
-0.000336587696136
-0.000338138411384
-0.000335762775298
-0.000327891093239
-0.000312608778555
-0.000287554893131
-0.000250131964596
-0.000191218493486
-0.000106463721137
-0.000103895531813
-0.000174129487335
-0.000222853284789
-0.000256148878125
-0.00027934150463
-0.000295454864646
-0.000307041131397
-0.000316023304959
-0.000323672033198
-0.000330502100411
-0.000336445436473
-0.000340690960817
-0.000342143949848
-0.00033958600377
-0.000331426549299
-0.000315721125923
-0.00029003109986
-0.000251618187051
-0.000191894451996
-0.000106475484113
-0.000103890412638
-0.000174643358138
-0.000223993386897
-0.000257792838863
-0.000281525100985
-0.000297964206389
-0.000309766234251
-0.000318863353183
-0.000326534760009
-0.000333309454406
-0.000339141075947
-0.00034325696105
-0.00034455850858
-0.000341826838724
-0.000333449970988
-0.000317462619682
-0.000291420360161
-0.000252596458055
-0.000192404702756
-0.000106539058004
-0.000104075653077
-0.000175464946867
-0.000225267356977
-0.000258352341185
-0.000282989603973
-0.000299649965437
-0.000311513967516
-0.00032058008679
-0.000328111362831
-0.000334673627486
-0.000340221744866
-0.000344099676887
-0.000345213868862
-0.000342323055419
-0.000333801834402
-0.000317680652832
-0.000291589015231
-0.000252959272469
-0.000192678476594
-0.00010667437308
-0.000104280661907
-0.000176195088946
-0.000226144472563
-0.000258981534786
-0.000283158189796
-0.000299795266507
-0.000311566383798
-0.000320441451719
-0.000327705664625
-0.000333922023327
-0.000339092272514
-0.000342657258738
-0.00034353885881
-0.000340495254463
-0.000331907816953
-0.000315886217392
-0.000290719664414
-0.000252212251534
-0.000192317883886
-0.000106692199407
-0.000104447377067
-0.000176226346177
-0.000225794394078
-0.000258134489239
-0.000280952486378
-0.000297238289978
-0.000308717573896
-0.000317248177789
-0.000324097161627
-0.000329874897693
-0.000334608757564
-0.000337816077465
-0.000338455208968
-0.000335299033561
-0.000326781916344
-0.000311210646955
-0.000287363387483
-0.000249523172362
-0.000190751695756
-0.000106549304885
-0.000104284148736
-0.000174760466509
-0.000223057189259
-0.000254355921468
-0.000275149276552
-0.000290451085847
-0.000301393296547
-0.000309404566577
-0.000315722663963
-0.000320975908599
-0.000325227646352
-0.000328049739453
-0.000328469022493
-0.000325305625867
-0.000317238587841
-0.000303314113484
-0.000280348571036
-0.000243813072421
-0.000187258248741
-0.000106126807914
-0.000103440976902
-0.000170771927602
-0.000216466479774
-0.000245906157538
-0.000265182296053
-0.000278080348643
-0.000287747096155
-0.000294983544603
-0.000300638210585
-0.000305286692755
-0.00030901284105
-0.000311454374141
-0.0003117615548
-0.000308896737863
-0.000302379054877
-0.000289665622039
-0.000267956665986
-0.000233763033193
-0.000180977917599
-0.000104679153154
-0.000101458959146
-0.000162900711995
-0.000204127450716
-0.000230463049037
-0.000247558226509
-0.000258726679027
-0.000266226048255
-0.000271625708806
-0.00027642218737
-0.000280352778228
-0.000283519396467
-0.00028576095131
-0.00028644926398
-0.000284783551838
-0.000279013521178
-0.000267484860946
-0.000248066991181
-0.000217588764153
-0.000170585869221
-0.000102119672517
-9.76941944616e-05
-0.000149117240227
-0.000183264528123
-0.000204772924879
-0.000218522708129
-0.000227349265314
-0.000233090247339
-0.000237076017094
-0.000240253713991
-0.000243105684293
-0.000245729503965
-0.000247809654715
-0.000248642448747
-0.000247297363766
-0.000242613071271
-0.000233248735841
-0.000217460070003
-0.000192597918748
-0.000154147965437
-9.79524994907e-05
-9.13753573375e-05
-0.000126101791555
-0.000149251944161
-0.0001634419849
-0.000172070599502
-0.000177475604898
-0.000180822791038
-0.000183031820025
-0.000184771211326
-0.000186401385451
-0.00018806729266
-0.000189532823563
-0.000190225373018
-0.000189505028475
-0.000186623806145
-0.000180667618956
-0.000170448240638
-0.000154084260554
-0.000128497659816
-9.13796351688e-05
-8.3088337996e-05
-9.12930062227e-05
-9.73885118444e-05
-0.00010114641547
-0.000103472178739
-0.000104541347487
-0.000104981763105
-0.000105174849549
-0.000105317221856
-0.000105485595649
-0.000105821661236
-0.000106303753837
-0.00010653436322
-0.000106571537338
-0.000106094910116
-0.000104852387875
-0.000102369861856
-9.81621442722e-05
-9.15528073098e-05
-8.30471518079e-05
-9.10747602267e-05
-0.00012403524809
-0.000145417106232
-0.000158181518167
-0.000165835645214
-0.000170421577268
-0.000173213041231
-0.000175203515039
-0.000176592793931
-0.00017804527914
-0.000179742189245
-0.000181405017211
-0.000182482662026
-0.000182148762297
-0.000180063228465
-0.000175143554176
-0.000166103829481
-0.000151027116215
-0.000126735224558
-9.13161326074e-05
-0.000123961514871
-0.000243230659786
-0.000299611196636
-0.000333669245668
-0.000355027742385
-0.000368552041716
-0.000377362001919
-0.000383655287662
-0.000388840580289
-0.000393767715698
-0.000398563665158
-0.000402707768391
-0.000405090017452
-0.000404279289926
-0.000398472403162
-0.000385275593995
-0.0003614275773
-0.000321969282805
-0.000257288789403
-0.000126694384942
-0.000145289048027
-0.000299508920292
-0.000374283041538
-0.000421376070988
-0.000451974358889
-0.000471764632304
-0.00048467514643
-0.000493664062669
-0.000500695892676
-0.000507099233361
-0.000513140601515
-0.000518176966826
-0.000520733393747
-0.000518941082859
-0.00051038836536
-0.000491986135967
-0.00045959258618
-0.000407028714505
-0.000322312034545
-0.000151011370842
-0.000157898524998
-0.00033315352083
-0.000420946387002
-0.00047771570553
-0.000515361950091
-0.000540050363246
-0.0005561820215
-0.000566872234115
-0.000575747248734
-0.00058322252219
-0.000590128600317
-0.000595715704161
-0.000598056782237
-0.000595280177706
-0.000584469322793
-0.000562154326963
-0.000523616151411
-0.000461883927968
-0.000363479196352
-0.000166500838731
-0.000165241234711
-0.000353765844068
-0.000450850870537
-0.000514800283084
-0.000557846136925
-0.000586294201393
-0.000604889661168
-0.000617506247186
-0.00062716462537
-0.000635711351501
-0.000643554759463
-0.000649741046687
-0.00065227941333
-0.000648715102695
-0.000635914992216
-0.000610505907509
-0.000567326404496
-0.000498869410105
-0.000390672450927
-0.00017646615838
-0.000169325762825
-0.000366187751832
-0.000469722631358
-0.000538887772087
-0.000585893764975
-0.000617159698708
-0.000637452600033
-0.000651342020395
-0.000662278201385
-0.000672127304051
-0.000681141070041
-0.000688122064059
-0.000690880593276
-0.000686756271065
-0.000672602461908
-0.000644488714052
-0.000597623597532
-0.000524130502906
-0.000408851380061
-0.000182827063693
-0.000171428526939
-0.000373552782497
-0.000481478192611
-0.00055437535015
-0.000604266280386
-0.000637314193767
-0.000658914995906
-0.000674054333384
-0.000686376677039
-0.000697675009713
-0.000707993805197
-0.000715872130302
-0.000718909684907
-0.00071433647768
-0.000698966907629
-0.000668899372946
-0.000618795527773
-0.000541459970373
-0.000421023780505
-0.000186783601059
-0.000172402852917
-0.000378073062066
-0.000489056425836
-0.000564686531083
-0.000616392642194
-0.00065066313172
-0.000673358002249
-0.000689675404258
-0.000703367185807
-0.000716045774
-0.000727581476734
-0.000736265774813
-0.000739539567549
-0.000734568717552
-0.000718136755104
-0.000686338618281
-0.000633976189859
-0.000553397295297
-0.000429166430605
-0.000189167042063
-0.000172917859122
-0.000381227778538
-0.000494381037876
-0.000571917558064
-0.000624945755679
-0.000660174931176
-0.000683785300282
-0.000701116565475
-0.000715866354372
-0.000729636500998
-0.000742055489869
-0.000751284119007
-0.000754667405887
-0.000749328785197
-0.000732039580506
-0.000698938898812
-0.00064477398785
-0.000561714208216
-0.000434617578355
-0.000190457594518
-0.000173244114429
-0.000383922493386
-0.000498591215645
-0.000577590420888
-0.000631570191488
-0.000667676706509
-0.000692025386111
-0.000710047508067
-0.000725486473666
-0.000739851087361
-0.000752652513032
-0.000762028551905
-0.000765325501201
-0.000759637855248
-0.000741696867529
-0.000707623655845
-0.000652167295435
-0.000567372839893
-0.000438194600104
-0.000191208884716
-0.000173818473559
-0.000386583659065
-0.000502495129544
-0.000582471867391
-0.000637149406041
-0.000673871413107
-0.00069871827483
-0.000717095194685
-0.000732723100405
-0.000747099565561
-0.000759762694366
-0.000768912605178
-0.000771923510388
-0.000765895462095
-0.000747500405081
-0.000712798150306
-0.000656494445607
-0.000570804953072
-0.000440251081475
-0.000191686303054
-0.000174606467675
-0.000388853452924
-0.000505556805448
-0.000585958312386
-0.000640983635431
-0.000678031816231
-0.000703121256324
-0.000721524673431
-0.00073688710496
-0.000750762918925
-0.000762842595234
-0.000771458012785
-0.000774038490669
-0.000767680514351
-0.000749025031837
-0.000714046862874
-0.000657407354584
-0.000571227919956
-0.000440611833485
-0.000191849548769
-0.000175117345836
-0.000389756303296
-0.000506190707767
-0.000585998175409
-0.000641184708095
-0.000678373383954
-0.000703462168623
-0.000721577061598
-0.000736358235387
-0.00074938583912
-0.000760542815275
-0.000768413501291
-0.000770435723658
-0.000763790318704
-0.000745070553314
-0.000710166680674
-0.000653752266745
-0.000568325346581
-0.000438495419484
-0.00019129442034
-0.000174758599758
-0.00038794377386
-0.000502746299049
-0.000581008399249
-0.000635389203772
-0.000672187703246
-0.000696944515289
-0.000714534646946
-0.000728471698123
-0.000740461704168
-0.000750543170825
-0.000757553473683
-0.000759002949527
-0.000752171218703
-0.000733628489344
-0.000699287739442
-0.00064416763548
-0.000560306010685
-0.000432712042317
-0.00018946331297
-0.000172864028278
-0.000381660731532
-0.000492872202341
-0.000568203430267
-0.000620349970584
-0.00065600391086
-0.000679988324308
-0.000696809957947
-0.000709798115517
-0.000720694604079
-0.000729697632173
-0.000735810334398
-0.00073677661971
-0.000729928576758
-0.0007118484107
-0.000678884004582
-0.000625681187757
-0.000545023657736
-0.000421604331248
-0.000185588050077
-0.00016853576638
-0.000368644120997
-0.000473561527424
-0.000544026651024
-0.000592559464824
-0.000625692067307
-0.00064835568408
-0.000664139552405
-0.000676093899512
-0.000685928990523
-0.000693925753228
-0.000699221563531
-0.000699829938914
-0.000693265229962
-0.000676423930254
-0.000645327739191
-0.000595666312858
-0.000519582925477
-0.00040301569157
-0.000178986761236
-0.000160534101014
-0.000345896141213
-0.000441055959247
-0.000504213579671
-0.000547409586898
-0.000576821586594
-0.000596910809051
-0.000611359833063
-0.00062205631266
-0.000630825834161
-0.000637888781475
-0.000642473327957
-0.000643110556674
-0.00063698201735
-0.000621931822588
-0.00059422408387
-0.000549170688417
-0.0004800676495
-0.000373922264861
-0.000168456946522
-0.000146965513446
-0.000308846897552
-0.00038988505354
-0.000442704941083
-0.000478431166547
-0.000502662422164
-0.000519245324432
-0.000531092410688
-0.000540179399169
-0.00054768408858
-0.000553802765595
-0.000557873378223
-0.000558458439683
-0.000553741417388
-0.000541165281384
-0.000517727072866
-0.000479485683004
-0.000420623841996
-0.000329663730055
-0.000152187622547
-0.000124589810619
-0.000248346414776
-0.000309123001588
-0.000347544836312
-0.000372960709095
-0.00039005359424
-0.000401806131141
-0.000410325043462
-0.000417029050149
-0.000422678094892
-0.000427374201458
-0.000430606101118
-0.000431277341893
-0.000427957459252
-0.000418840114962
-0.000401689007022
-0.000373496162291
-0.000329650667533
-0.000261002686601
-0.000127085099228
-9.10141754383e-05
-0.00012457988027
-0.000147013596489
-0.000161020577222
-0.000169948731088
-0.000175710105018
-0.000179497677655
-0.000182021060525
-0.000183940848808
-0.000185625333194
-0.000187236204826
-0.000188569042691
-0.000189020674879
-0.000187973902523
-0.000184770316841
-0.000178594309376
-0.00016830298493
-0.000152126889677
-0.000127034088913
-9.13014442526e-05
-9.60970782264e-05
-0.000140515891123
-0.000170054949535
-0.000188754402516
-0.000200718647692
-0.000208318155635
-0.000213185442513
-0.000216560054044
-0.000219348395247
-0.000222098437784
-0.000224971652465
-0.000227657560243
-0.000229390644782
-0.000229303453975
-0.000226336151014
-0.000219144109478
-0.000205949847971
-0.000184105819525
-0.000149097837293
-9.73846554243e-05
-0.000140379797369
-0.000287758238398
-0.000363812680538
-0.000413361815997
-0.000445796267179
-0.000466183026847
-0.000478507703468
-0.00048613434593
-0.000491665101959
-0.000496633957702
-0.000501503135011
-0.000505771491843
-0.000508091834361
-0.000506488639135
-0.000498513823261
-0.000481027539713
-0.000449839444613
-0.000398753154357
-0.000315936431337
-0.000149068952445
-0.000169788882003
-0.000363729067028
-0.000466378638327
-0.000534772494922
-0.000579995810199
-0.000608142636874
-0.00062439613914
-0.000633369576831
-0.000638833639031
-0.000643163932568
-0.000647270688526
-0.000650601125746
-0.000651514603734
-0.000647542455509
-0.000635586987261
-0.000611740749973
-0.000570819053923
-0.000505164255508
-0.000399706512796
-0.000184393339233
-0.000188232123925
-0.000413111448113
-0.000534956789212
-0.000616970152933
-0.000671411368926
-0.000705027086159
-0.000723869469529
-0.000733509864172
-0.000738736651685
-0.000742438943479
-0.000745813293275
-0.000748343681398
-0.000747801685843
-0.000741597184043
-0.000726342399914
-0.000697734608522
-0.00065002493995
-0.000574578341079
-0.000453972105126
-0.000207431190277
-0.000199773257582
-0.000445513469085
-0.000581133750177
-0.000673049625726
-0.000734122388904
-0.000770793963167
-0.000792079778471
-0.000802700461878
-0.000808239527629
-0.000811941137996
-0.000815465090602
-0.000818007687038
-0.000816974359863
-0.000808940048124
-0.000790381113966
-0.000757842518929
-0.00070492686456
-0.000622268200318
-0.000490795312614
-0.000222851081138
-0.000206770658855
-0.000466103622218
-0.000611192477064
-0.000710038578477
-0.000774926472749
-0.000815411292096
-0.000837500365934
-0.000849977266442
-0.000856860498226
-0.000861505979447
-0.000866274744521
-0.000869648384085
-0.000869460644275
-0.00086074344294
-0.000838546298768
-0.000801402702347
-0.000743998848952
-0.000655757232248
-0.00051627703601
-0.000233267034193
-0.000210858156814
-0.000478832191449
-0.000630157548028
-0.00073366008629
-0.000802246940424
-0.000841998469225
-0.000864695989557
-0.000878827449349
-0.000887460852365
-0.000893764175336
-0.000900524056397
-0.000905577121145
-0.000907021393692
-0.000899593490419
-0.00087607351355
-0.000834251007654
-0.000772716707569
-0.000679772831462
-0.000534207674665
-0.000240280233293
-0.00021327607863
-0.000486868197545
-0.000642129126712
-0.000748243283518
-0.000818496751464
-0.000857387279247
-0.000880324511405
-0.000895498804172
-0.000905759282099
-0.000914064613703
-0.000923073760892
-0.000930085184202
-0.00093316421265
-0.00092692598935
-0.000903667157556
-0.000859322054455
-0.000794317519748
-0.00069742597254
-0.00054705606902
-0.00024497097785
-0.000214929930788
-0.000492552220588
-0.000650270731739
-0.000758805324453
-0.00082925309608
-0.000868070108933
-0.000891192598729
-0.000907090384298
-0.000918679629946
-0.000928752671104
-0.000939655505171
-0.00094831314264
-0.000952588119616
-0.000946962856255
-0.000923587859362
-0.000877966643024
-0.000810558013872
-0.000710641624459
-0.000556310792466
-0.000248070070206
-0.000216435909503
-0.000497371923504
-0.000656659629919
-0.000766414749927
-0.000837617045569
-0.000877014556519
-0.000900713091256
-0.000917318011701
-0.000929849977189
-0.000941014759761
-0.000952982121426
-0.000962531005772
-0.000967360993846
-0.000961832398582
-0.000938021780728
-0.000891387641212
-0.000822339740149
-0.000720131435259
-0.000562945824836
-0.000250121107712
-0.000218085637741
-0.000501817958759
-0.000662130419214
-0.000772580284744
-0.000844396441507
-0.000884478337236
-0.000908880566946
-0.000926101221295
-0.000939092770757
-0.000950528476243
-0.000962589462284
-0.000972123598956
-0.000976862523558
-0.000971163079037
-0.000947047963864
-0.000899868062374
-0.000829885976399
-0.000726143140324
-0.000567219728007
-0.000251404390392
-0.000219672067685
-0.000505266287312
-0.00066590055333
-0.000776448336514
-0.000848661610268
-0.000889486736789
-0.000914699695495
-0.000932457180391
-0.000945473051624
-0.000956448456663
-0.00096774133418
-0.000976446804682
-0.000980502952384
-0.000974372023334
-0.000950062749714
-0.000902800102019
-0.000832628778406
-0.000728686694599
-0.000568759335743
-0.000251809044812
-0.000220581034946
-0.000506298089907
-0.000666032752825
-0.000775551603026
-0.000848017943573
-0.000889204635408
-0.000914590984167
-0.000932336568343
-0.000944945472253
-0.00095498641217
-0.000964944114752
-0.000972301638139
-0.000975291696387
-0.000968710601796
-0.000944712866851
-0.000898388904233
-0.000829132371042
-0.000725639983645
-0.000566579766926
-0.000250839554878
-0.000219885581122
-0.000502730247386
-0.000659575275867
-0.00076697059975
-0.000838969444853
-0.000880829687591
-0.000905331873993
-0.000922166339963
-0.000933918018301
-0.000942881691502
-0.000951330388695
-0.00095723313501
-0.000958976944135
-0.000951867619723
-0.000928561134683
-0.000884656072795
-0.000817353657305
-0.000715773456424
-0.000559052418139
-0.000247697817246
-0.000216518963315
-0.00049202242
-0.000643298210517
-0.000746628372454
-0.000816549695336
-0.000859963714409
-0.000884221647644
-0.000899463819326
-0.000910065777974
-0.000918129799324
-0.000925223519955
-0.000930008238731
-0.000930461954266
-0.000922564849665
-0.000900174623983
-0.000859265673114
-0.000794466935749
-0.000696252446895
-0.000544025598204
-0.000241420967779
-0.000209215200881
-0.0004711504135
-0.000613282964274
-0.000710086578126
-0.000775919724027
-0.000818394165485
-0.000843762797099
-0.00085867613563
-0.00086850803305
-0.000876018202069
-0.000882287936527
-0.000886341755571
-0.000885859737249
-0.000877221146154
-0.000855917898903
-0.00081775260852
-0.000756752544137
-0.000663443830986
-0.000518633992004
-0.000230810733082
-0.000196411304563
-0.000436507284907
-0.000564995348148
-0.000652216510174
-0.000711625142046
-0.000750363647597
-0.000774432634323
-0.000789311698473
-0.000799006190582
-0.000806412806511
-0.000812458113808
-0.000816385145594
-0.000815916634184
-0.000808291094465
-0.000789037016776
-0.000754513366533
-0.000698513932479
-0.00061240585942
-0.000478961311915
-0.000214221262155
-0.000175850393198
-0.000383119560917
-0.000492418961545
-0.000566213516845
-0.000616518188065
-0.000649643593824
-0.000670735984087
-0.000684240571588
-0.000693683524251
-0.00070115489269
-0.000707374816387
-0.000711681499476
-0.000712077282477
-0.000705975886335
-0.000690044918113
-0.000660210230455
-0.000611269828266
-0.000535809161292
-0.000419140058079
-0.000189167301538
-0.000143594521768
-0.000301168429276
-0.00038345491333
-0.00043826348739
-0.000475478145819
-0.000500294344833
-0.000516655187147
-0.000527816081797
-0.000536204875983
-0.000543232222107
-0.000549242453139
-0.000553617412204
-0.000554815888045
-0.000550713315045
-0.000538773851886
-0.000515830421889
-0.000477835538069
-0.000418922140436
-0.000327740293479
-0.000151330602978
-9.63616648607e-05
-0.000143613134555
-0.000176112529348
-0.000197568789008
-0.000212029385783
-0.000221810000629
-0.000228491469596
-0.000233274856585
-0.000237023163374
-0.000240257661008
-0.000243120820234
-0.000245307568381
-0.000246061132334
-0.000244435140297
-0.000239410233966
-0.000229715662599
-0.000213711942375
-0.000188957965369
-0.000151218745623
-9.75887863561e-05
-9.63593493556e-05
-0.000144315035521
-0.000182035201559
-0.000208450017265
-0.000225878646293
-0.000236327804185
-0.000241886525183
-0.00024464664796
-0.000246387013146
-0.000248219726469
-0.000250535965529
-0.000253103984157
-0.00025499631089
-0.000255018179488
-0.000251736956913
-0.000243426724142
-0.000227879652917
-0.000201967715786
-0.000160691595746
-0.000100477618832
-0.000144118018705
-0.000319646238874
-0.000424189259521
-0.000495425836346
-0.000540821641412
-0.000565920246513
-0.000576562821656
-0.00057852686584
-0.000576684343912
-0.000574155760966
-0.000572393292204
-0.000571493999808
-0.000569894423742
-0.000565431241013
-0.000554949269005
-0.000534548080064
-0.000499084327915
-0.000441126019101
-0.000347183771315
-0.000160749152173
-0.000181764714636
-0.000424624862117
-0.000565653404219
-0.000660674033835
-0.000720265570535
-0.000751944688363
-0.000763470521814
-0.000762879673671
-0.000756448653012
-0.000748473111969
-0.000742255758414
-0.00073676772992
-0.000730520779613
-0.000721028955485
-0.000704704997206
-0.000676908663916
-0.000631546811737
-0.000559428366321
-0.000442638005474
-0.000202821384648
-0.000208210576161
-0.000497452451335
-0.000663541232103
-0.000774151748668
-0.000842561974488
-0.000877470616482
-0.000888077593195
-0.000888327265405
-0.000879846367181
-0.000868743899163
-0.000858809034344
-0.000850028471824
-0.000840332915964
-0.000825894515585
-0.000802871685801
-0.000768561513977
-0.000716573282142
-0.000635670856474
-0.000504624436172
-0.0002308955059
-0.000225861276974
-0.000546309399083
-0.000729479456092
-0.000850487967174
-0.000923896308515
-0.000960711116147
-0.000974660791975
-0.000975572575097
-0.000967065651661
-0.000954390412327
-0.000943573487346
-0.000933636058292
-0.000923994160915
-0.000908200183049
-0.000878436321017
-0.000834462460214
-0.000774994408381
-0.00068765682681
-0.000546617773928
-0.000250069762459
-0.000236793253602
-0.000576989206619
-0.000771269225695
-0.000898740464286
-0.000972632318317
-0.0010097972676
-0.00102474211443
-0.0010285942543
-0.00102214819334
-0.00101023406883
-0.00100068391469
-0.000992327360287
-0.000985456819007
-0.000971968402623
-0.000939820487259
-0.000887841160494
-0.000818160578803
-0.000724512099291
-0.000575943716187
-0.000263381471258
-0.000243070967821
-0.000595089531795
-0.000796158777608
-0.000925101377584
-0.00099847723233
-0.00103297402565
-0.00104726064108
-0.00105338557668
-0.00104976935329
-0.00103991479229
-0.001033970754
-0.00102894222459
-0.00102626366134
-0.00101760102246
-0.000986582205715
-0.000930684978398
-0.000853008772779
-0.00075211448101
-0.000597386746607
-0.000272783531453
-0.000246637959316
-0.000605544023156
-0.000810528855155
-0.000940419157897
-0.00101063316062
-0.00104135183819
-0.00105413748843
-0.00106125279777
-0.00105948921285
-0.00105301910929
-0.00105133944953
-0.00105048123955
-0.0010518657782
-0.00104716685575
-0.00101903405767
-0.00096213687539
-0.000880661804511
-0.000774091131526
-0.000613886858789
-0.000279561888524
-0.000249105017569
-0.000612323197652
-0.000819364741615
-0.000949693907107
-0.0010185378595
-0.00104751620961
-0.00105930816766
-0.00106672433096
-0.00106648373877
-0.00106291648573
-0.00106494792036
-0.00106784467036
-0.0010723601651
-0.00106990509253
-0.00104308123357
-0.000985906334689
-0.000902380331236
-0.000791868816807
-0.000627188861381
-0.000284575392665
-0.000251486477951
-0.000617822732488
-0.000825938062496
-0.000957019218265
-0.00102621729707
-0.00105552219581
-0.00106773176202
-0.00107579321029
-0.00107667689673
-0.00107494316062
-0.00107921414266
-0.00108438948756
-0.00109069932838
-0.00108920630281
-0.00106249954849
-0.00100455944628
-0.000919388434956
-0.000806278240782
-0.000637864236266
-0.000288337252156
-0.000254162719285
-0.000622792339537
-0.000831358513687
-0.000962864559618
-0.00103280523657
-0.001063171807
-0.00107651082704
-0.00108555314256
-0.00108724802248
-0.00108616827811
-0.00109094422453
-0.00109653607947
-0.00110318653835
-0.00110195686051
-0.0010753946928
-0.00101731598959
-0.000931502736615
-0.000816879801562
-0.000645788618025
-0.000291054197087
-0.000256708775262
-0.000626338545324
-0.000834562452402
-0.000966081143935
-0.00103706434256
-0.00106915327177
-0.00108430829537
-0.00109471499429
-0.00109699814954
-0.0010955240468
-0.00109920862897
-0.00110346172133
-0.00110904756215
-0.00110737470958
-0.00108094250124
-0.00102328818917
-0.000937777596006
-0.000822767749529
-0.000650277483447
-0.000292517411802
-0.000258156296624
-0.000626447717464
-0.000833003016556
-0.000963900520677
-0.00103513948799
-0.00106793646908
-0.00108376538811
-0.00109462278781
-0.00109703622575
-0.00109458037799
-0.00109620757877
-0.00109803881248
-0.00110160301229
-0.00109920394069
-0.00107378361787
-0.00101858351302
-0.000935705473146
-0.00082260924743
-0.000649980737932
-0.000292034869896
-0.000257061695776
-0.00061988692343
-0.000822503175554
-0.000952663526159
-0.00102404337562
-0.00105717572139
-0.00107164436484
-0.00108085136164
-0.00108269628148
-0.00107894786835
-0.00107823207425
-0.00107754175235
-0.00107868314368
-0.00107507163018
-0.00105112177907
-0.00100077963826
-0.000922933137971
-0.000813685495078
-0.000643217457647
-0.000288672735116
-0.000251781582305
-0.000602865290002
-0.000798274241201
-0.000926617269483
-0.00100015123382
-0.00103475938348
-0.0010485016619
-0.00105482661601
-0.00105486847626
-0.00105065679694
-0.00104797804152
-0.00104544281178
-0.00104410543595
-0.00103831678204
-0.00101547439527
-0.00096997533139
-0.000898816393518
-0.000793824087675
-0.000627280073262
-0.000281141033119
-0.000240624360609
-0.000571314789091
-0.000755169868
-0.000877602806025
-0.000953197475745
-0.000991064791838
-0.00100571710775
-0.00101052058613
-0.00100938016196
-0.00100521758044
-0.00100206514338
-0.000999010840744
-0.00099566754188
-0.000987375783985
-0.000965220144441
-0.000924289707702
-0.000858680527972
-0.000758655139315
-0.000598715741753
-0.000267893144971
-0.000221818327076
-0.000520825891125
-0.000687459804098
-0.000799492716783
-0.000871641014683
-0.000912066225731
-0.000929669489703
-0.000934963183092
-0.000934278121661
-0.000931603183887
-0.000929412854419
-0.000927248347937
-0.000923622765813
-0.00091458620841
-0.00089382685788
-0.000856319456955
-0.0007962255746
-0.000702313921665
-0.000552738939057
-0.000246871542402
-0.00019327246892
-0.000446254175404
-0.00058845475854
-0.000685178181778
-0.000748436811389
-0.00078567413853
-0.00080429528148