/*--------------------------------*- C++ -*----------------------------------*\
| =========                 |                                                 |
| \\      /  F ield         | OpenFOAM: The Open Source CFD Toolbox           |
|  \\    /   O peration     | Version:  3.0.1                                 |
|   \\  /    A nd           | Web:      www.OpenFOAM.org                      |
|    \\/     M anipulation  |                                                 |
\*---------------------------------------------------------------------------*/
FoamFile
{
    version     2.0;
    format      ascii;
    class       surfaceScalarField;
    location    "6.9";
    object      phi;
}
// * * * * * * * * * * * * * * * * * * * * * * * * * * * * * * * * * * * * * //

dimensions      [0 3 -1 0 0 0 0];

internalField   nonuniform List<scalar> 
22672
(
5.72484677541e-07
4.39367947093e-07
-1.01185106081e-06
2.04619920947e-06
1.32144465361e-08
-1.486927237e-06
3.74081494467e-06
-1.53322419923e-07
-1.54129154817e-06
5.12716588068e-06
-1.26096818192e-07
-1.26025238781e-06
5.90045811299e-06
9.39208796933e-08
-8.67211456864e-07
5.94266791906e-06
4.16569183399e-07
-4.58777441891e-07
5.33310614535e-06
7.28404563147e-07
-1.18841377139e-07
4.16050110776e-06
1.00536425417e-06
1.67242041387e-07
2.60860005325e-06
1.19893782359e-06
3.52964326161e-07
8.87210978759e-07
1.29208376098e-06
4.29306247409e-07
-8.03173737736e-07
1.28324951398e-06
4.07135983227e-07
-2.27890709369e-06
1.17664020489e-06
2.99093790679e-07
-3.37753694723e-06
9.86112392276e-07
1.12517975471e-07
-3.97829607004e-06
7.33220251345e-07
-1.32460717847e-07
-4.03079164085e-06
4.62018700376e-07
-4.0952279062e-07
-3.50065936078e-06
2.00843798947e-07
-7.30975769533e-07
-2.50642472599e-06
4.61585443611e-08
-1.04039285253e-06
-1.29277188977e-06
5.14690664987e-08
-1.26512151337e-06
-2.71664187388e-07
1.94875298115e-07
-1.21598251046e-06
5.44345926532e-07
-8.16009738782e-07
1.75612473952e-07
1.70934192229e-06
-1.44558471686e-06
2.02116330119e-06
1.61337470832e-06
-3.44570921057e-06
4.14961655925e-06
1.70575236028e-06
-3.98752614768e-06
5.78768612296e-06
2.01006844032e-06
-3.77423297846e-06
6.65172977746e-06
2.51061811247e-06
-3.28073912882e-06
6.66987238738e-06
3.10081769308e-06
-2.70238948029e-06
5.9299891936e-06
3.63202803963e-06
-2.16373879054e-06
4.58059939749e-06
4.06663004783e-06
-1.71187467088e-06
2.82531446908e-06
4.35575419126e-06
-1.40153028542e-06
8.91594478793e-07
4.48766947374e-06
-1.2618647394e-06
-9.99060130151e-07
4.46542224739e-06
-1.2915173037e-06
-2.64665889818e-06
4.29613865311e-06
-1.47189900893e-06
-3.87930470368e-06
3.9943021096e-06
-1.77554337225e-06
-4.56496334092e-06
3.58405278877e-06
-2.16517346626e-06
-4.61713512852e-06
3.11003264742e-06
-2.59584179364e-06
-4.00039472133e-06
2.61348490293e-06
-3.02938116565e-06
-2.78594433585e-06
2.20771918537e-06
-3.37601065208e-06
-1.20786217473e-06
1.96749302984e-06
-3.49410567991e-06
1.00736551806e-07
1.88405348556e-06
-2.9977763791e-06
1.9119127287e-06
-1.26682985764e-06
3.54100028892e-08
3.18564315489e-06
-1.51170950085e-06
2.14386371099e-06
3.51659247468e-06
-4.01166960893e-06
4.52924262209e-06
3.85757208397e-06
-4.5371967619e-06
6.29273691155e-06
4.38779041351e-06
-4.14121443736e-06
7.16833819741e-06
5.08033393321e-06
-3.44531536602e-06
7.13006428026e-06
5.83095044124e-06
-2.69185720795e-06
6.29030018845e-06
6.49061561792e-06
-2.01882200778e-06
4.82427498767e-06
7.01686184284e-06
-1.48420527704e-06
2.94624299111e-06
7.36640851713e-06
-1.13262118046e-06
8.92870547237e-07
7.52244168921e-06
-9.81398789446e-07
-1.11049342536e-06
7.49321472733e-06
-1.02442768438e-06
-2.86237227565e-06
7.28977222243e-06
-1.24175404318e-06
-4.1860102169e-06
6.92504554244e-06
-1.60710494493e-06
-4.94203659548e-06
6.42926628541e-06
-2.08918667365e-06
-5.02651000813e-06
5.84025138529e-06
-2.64574494452e-06
-4.38491562015e-06
5.20054823775e-06
-3.22865735772e-06
-3.0607384175e-06
4.62063673837e-06
-3.73709435853e-06
-1.27428322081e-06
4.17178630792e-06
-3.99074800812e-06
2.47187204026e-07
3.8541240299e-06
-3.49154041826e-06
3.48832840274e-06
-1.32922807152e-06
5.67192619076e-08
4.40050260648e-06
-1.27157704531e-06
2.45356390411e-06
4.98705999511e-06
-3.86731037503e-06
5.0736531887e-06
5.45271525692e-06
-4.21523066514e-06
6.94218173606e-06
6.08332095712e-06
-3.56405734536e-06
7.80438295343e-06
6.8476169034e-06
-2.62948252379e-06
7.67429024161e-06
7.64702458271e-06
-1.68597987801e-06
6.70139503698e-06
8.3436486398e-06
-8.80136401323e-07
5.09446103685e-06
8.89719396278e-06
-2.73396853799e-07
3.07801040929e-06
9.26044072442e-06
1.22419531231e-07
8.98284993133e-07
9.42477089997e-06
2.77397163047e-07
-1.22524541616e-06
9.39792390842e-06
2.18822039099e-07
-3.0969957365e-06
9.19289714552e-06
-3.1373927524e-08
-4.53276414478e-06
8.8262138265e-06
-4.6539931907e-07
-5.38982456015e-06
8.32003545165e-06
-1.0337082866e-06
-5.53936538807e-06
7.71217766466e-06
-1.72238504292e-06
-4.90004226739e-06
7.03924450469e-06
-2.47801899023e-06
-3.48689261524e-06
6.40070781253e-06
-3.1932202976e-06
-1.51258142272e-06
5.85861261118e-06
-3.66113700385e-06
2.36480642925e-07
5.4155866261e-06
-3.31052409464e-06
4.80771331379e-06
-1.08290386228e-06
2.56765743373e-07
5.07799931349e-06
-9.34260883413e-07
2.94696039399e-06
5.75854208744e-06
-3.46167506875e-06
5.76836026371e-06
6.24245176165e-06
-3.61113469979e-06
7.71355147498e-06
6.85899074922e-06
-2.72085937726e-06
8.53832405443e-06
7.58416091398e-06
-1.5613150447e-06
8.29579286637e-06
8.33211025476e-06
-4.42553045023e-07
7.16929612112e-06
8.97906843884e-06
4.91078261415e-07
5.39564572143e-06
9.49521791529e-06
1.1756276304e-06
3.22758903039e-06
9.83655294749e-06
1.59194551806e-06
9.07866051132e-07
9.99353930319e-06
1.75095549582e-06
-1.347431061e-06
9.97579952825e-06
1.67742228739e-06
-3.34843859447e-06
9.79801980807e-06
1.39588555061e-06
-4.9188237344e-06
9.47583486803e-06
9.20764678055e-07
-5.89396442968e-06
9.02952042434e-06
2.65656225799e-07
-6.1295150209e-06
8.49017125462e-06
-5.42442539304e-07
-5.51702128007e-06
7.88353377009e-06
-1.45678255219e-06
-4.04369476618e-06
7.2930517093e-06
-2.36566992771e-06
-1.91360026346e-06
6.76590901256e-06
-3.03739036792e-06
5.65968163371e-08
6.30431627244e-06
-2.85892612681e-06
5.58708582078e-06
-7.22775267776e-07
5.67673569559e-07
5.0915129751e-06
-5.81185787552e-07
3.52819166839e-06
5.76387242655e-06
-2.96584690114e-06
6.51860572905e-06
6.19672069676e-06
-2.94468146648e-06
8.51869684875e-06
6.72230329916e-06
-1.86340219502e-06
9.2943424744e-06
7.33417142276e-06
-5.25654742883e-07
8.92847561888e-06
7.95769873211e-06
7.40279668489e-07
7.64716778359e-06
8.50128067962e-06
1.7590967761e-06
5.70858190392e-06
8.93855011992e-06
2.49525474939e-06
3.38613340149e-06
9.22903716218e-06
2.92996526003e-06
9.26719938113e-07
9.36648473756e-06
3.08646890378e-06
-1.45911795384e-06
9.36129037092e-06
3.00034783032e-06
-3.58952585688e-06
9.2288141813e-06
2.69961422299e-06
-5.29013120197e-06
8.98419181137e-06
2.1922490189e-06
-6.38714342299e-06
8.64212952791e-06
1.48440367821e-06
-6.72003333809e-06
8.22633408667e-06
5.96727614749e-07
-6.15079029003e-06
7.75255188053e-06
-4.38260625367e-07
-4.642747989e-06
7.28088577598e-06
-1.49587580863e-06
-2.39069150911e-06
6.84206955309e-06
-2.32821641965e-06
-2.11396448588e-07
6.42781474143e-06
-2.30279287944e-06
5.7049101705e-06
-3.29220347594e-07
8.70831977399e-07
4.50387261633e-06
-2.83190311247e-07
4.05646458954e-06
5.06981913147e-06
-2.49157793231e-06
7.18361393517e-06
5.40869761147e-06
-2.33912489519e-06
9.22604795705e-06
5.80267141993e-06
-1.12280084313e-06
9.95482426955e-06
6.26156973913e-06
3.43826581625e-07
9.48490856199e-06
6.72959169733e-06
1.69802385585e-06
8.07003360806e-06
7.14017811327e-06
2.77597854296e-06
5.98905900733e-06
7.47406667142e-06
3.54545899535e-06
3.53332997706e-06
7.6963011112e-06
3.98846596396e-06
9.55181592048e-07
7.80643712443e-06
4.13819682365e-06
-1.53855252556e-06
7.81575336615e-06
4.03927189102e-06
-3.77397101246e-06
7.73907306656e-06
3.72516031395e-06
-5.58071821902e-06
7.58961872685e-06
3.20132095367e-06
-6.77944794917e-06
7.37468548605e-06
2.46617439989e-06
-7.19647376282e-06
7.10877395492e-06
1.53458656008e-06
-6.67412213206e-06
6.7987595461e-06
4.31441327274e-07
-5.15211073009e-06
6.48182666962e-06
-7.22951648835e-07
-2.81606275275e-06
6.16991514424e-06
-1.66389289159e-06
-4.72076612325e-07
5.84421658465e-06
-1.76038727141e-06
5.22137906974e-06
1.14549725939e-08
1.14394237152e-06
3.39838089467e-06
-3.84494817288e-08
4.49263510651e-06
3.80379774987e-06
-2.08267012462e-06
7.718210805e-06
4.03096319009e-06
-1.84784008373e-06
9.7927405763e-06
4.28528984064e-06
-5.57147079761e-07
1.04855925694e-05
4.57642166288e-06
9.92297096772e-07
9.93555426646e-06
4.87891958021e-06
2.40071133945e-06
8.41533721877e-06
5.14718327312e-06
3.51321273515e-06
6.21881216511e-06
5.36746261581e-06
4.30312991339e-06
3.65491042549e-06
5.51715279258e-06
4.74305084101e-06
9.8733473985e-07
5.60010101812e-06
4.87391256063e-06
-1.58132761341e-06
5.62263058438e-06
4.76178588528e-06
-3.89225515764e-06
5.60350460929e-06
4.44649672722e-06
-5.77629985187e-06
5.55540996069e-06
3.91825416256e-06
-7.05083334914e-06
5.47323747055e-06
3.1759822016e-06
-7.53381576446e-06
5.3616538392e-06
2.23010322259e-06
-7.05387505927e-06
5.22206541121e-06
1.09675413807e-06
-5.53420228257e-06
5.06789207966e-06
-1.05737457326e-07
-3.15150555403e-06
4.89463183803e-06
-1.10741267315e-06
-7.00802585997e-07
4.6782097452e-06
-1.28469535733e-06
4.20313299864e-06
3.17443998747e-07
1.33868361042e-06
1.92479912165e-06
1.34899198412e-07
4.79062167295e-06
2.1408446983e-06
-1.78898393131e-06
8.08178344292e-06
2.25061676113e-06
-1.51081431539e-06
1.01750948988e-05
2.37002762527e-06
-1.78048315361e-07
1.08451475342e-05
2.50255877929e-06
1.40381106157e-06
1.02420599993e-05
2.64610478765e-06
2.83590304635e-06
8.65053841603e-06
2.77738622433e-06
3.96131929519e-06
6.37629395683e-06
2.88825893145e-06
4.75344879472e-06
3.74602960206e-06
2.9735616692e-06
5.17385614767e-06
1.02294342308e-06
3.03223206164e-06
5.29095583123e-06
-1.58718991297e-06
3.07491766468e-06
5.15784696872e-06
-3.92787795121e-06
3.11468939696e-06
4.82950396844e-06
-5.85140807051e-06
3.15806641721e-06
4.32087438139e-06
-7.17132946698e-06
3.2013962457e-06
3.59176334686e-06
-7.70002583947e-06
3.23277442453e-06
2.65757653073e-06
-7.25723274081e-06
3.25183147143e-06
1.52744160946e-06
-5.75527099474e-06
3.24839977584e-06
3.17531345999e-07
-3.36106984277e-06
3.20796030921e-06
-7.0752882361e-07
-8.62307173972e-07
3.10833840792e-06
-9.28890521708e-07
2.81665846334e-06
5.24167889737e-07
1.43950261656e-06
2.70651238452e-07
2.14646184987e-07
4.9368481568e-06
2.84312363917e-07
-1.64081226025e-06
8.25721490061e-06
2.76987849339e-07
-1.3467369609e-06
1.0354506692e-05
2.65138564101e-07
7.59801851838e-09
1.10161984854e-05
2.53917087363e-07
1.58695051888e-06
1.03901590606e-05
2.49390679232e-07
3.02275405499e-06
8.76715796841e-06
2.53682054125e-07
4.14670573979e-06
6.46280538789e-06
2.663038677e-07
4.92630813435e-06
3.80751271976e-06
2.90791250552e-07
5.33806362743e-06
1.07123927466e-06
3.35018465769e-07
5.43348764085e-06
-1.54120896074e-06
4.04597341705e-07
5.2827692049e-06
-3.87947650843e-06
5.04774805772e-07
4.94818281524e-06
-5.80703437801e-06
6.36683180943e-07
4.44894180416e-06
-7.13956283561e-06
7.89576829843e-07
3.7443485967e-06
-7.69049738204e-06
9.50354741608e-07
2.83335498441e-06
-7.27626747473e-06
1.1124712975e-06
1.72513105388e-06
-5.80445112173e-06
1.24660997692e-06
5.29974253139e-07
-3.43305589303e-06
1.32966793226e-06
-4.93102039061e-07
-9.39625261904e-07
1.34463370821e-06
-7.29725117771e-07
1.24999926612e-06
6.27034455774e-07
1.44218734783e-06
-1.37282066945e-06
2.01285379247e-07
4.92908168475e-06
-1.55677551378e-06
-1.64580562915e-06
8.24107078128e-06
-1.67755680771e-06
-1.35744370479e-06
1.03365228391e-05
-1.81702759144e-06
-1.32853125599e-08
1.10009089952e-05
-1.96908132955e-06
1.55861270446e-06
1.03816304193e-05
-2.11780909769e-06
2.98647869076e-06
8.76921809083e-06
-2.23570306631e-06
4.10179774827e-06
6.47873648922e-06
-2.31455361379e-06
4.87133941154e-06
3.84352590125e-06
-2.34367650777e-06
5.26967874729e-06
1.13476908174e-06
-2.30801755641e-06
5.35179332452e-06
-1.44526011511e-06
-2.20767334113e-06
5.19230042973e-06
-3.75091365965e-06
-2.04693999655e-06
4.85736894489e-06
-5.65033550591e-06
-1.83101931497e-06
4.36712497817e-06
-6.96572778828e-06
-1.57422485504e-06
3.67919464205e-06
-7.51558755528e-06
-1.29076635054e-06
2.7909815765e-06
-7.11965049429e-06
-9.94111738031e-07
1.7106467305e-06
-5.68696151585e-06
-7.29603265378e-07
5.43525041407e-07
-3.37077229175e-06
-5.28857846959e-07
-4.57662663922e-07
-9.30014435513e-07
-4.03791314987e-07
-6.92332056528e-07
-3.09300586733e-07
6.29285905043e-07
1.3474941055e-06
-2.82044432809e-06
1.00130289711e-07
4.76900054815e-06
-3.18110462091e-06
-1.79717660397e-06
8.03693558119e-06
-3.4100081269e-06
-1.53548309682e-06
1.01250994059e-05
-3.67487267449e-06
-2.30318289317e-07
1.08043031008e-05
-3.97580959802e-06
1.32752486472e-06
1.0222082838e-05
-4.27268804629e-06
2.73709939013e-06
8.66220466725e-06
-4.51465808221e-06
3.83883332904e-06
6.43075924873e-06
-4.68731360998e-06
4.60420559475e-06
3.85954553768e-06
-4.76224837753e-06
4.98978584433e-06
1.21564308779e-06
-4.73556010918e-06
5.07144535855e-06
-1.30125147305e-06
-4.60629666885e-06
4.91551832113e-06
-3.54756861232e-06
-4.38752382034e-06
4.58690145242e-06
-5.38905327603e-06
-4.09039792208e-06
4.1008638065e-06
-6.65937814623e-06
-3.72565972642e-06
3.42176032372e-06
-7.18503049071e-06
-3.31885933608e-06
2.55374596131e-06
-6.79566057309e-06
-2.88844547932e-06
1.50496449885e-06
-5.40820556722e-06
-2.4939219965e-06
3.76864426207e-07
-3.17485883494e-06
-2.17684706702e-06
-5.85356804692e-07
-8.32702644751e-07
-1.94754171012e-06
-7.98405091554e-07
-1.68837610833e-06
5.46373312755e-07
1.16165428286e-06
-3.90341869802e-06
-7.86792473663e-08
4.4644369687e-06
-4.40623590521e-06
-2.07765075516e-06
7.65610170106e-06
-4.73395206025e-06
-1.8677202814e-06
9.72377526408e-06
-5.12496787959e-06
-6.17578017529e-07
1.04343802318e-05
-5.57764903133e-06
8.91234636563e-07
9.92055257499e-06
-6.02446726989e-06
2.26560693642e-06
8.45326303578e-06
-6.39177062115e-06
3.34440209894e-06
6.32833026198e-06
-6.65915684612e-06
4.09677607011e-06
3.8596549637e-06
-6.7873991611e-06
4.49382622521e-06
1.31578867689e-06
-6.77298273346e-06
4.58128914462e-06
-1.10985726722e-06
-6.62172476185e-06
4.44107434464e-06
-3.27294177055e-06
-6.34744932195e-06
4.12301036741e-06
-5.03011335137e-06
-5.96670203349e-06
3.63347610042e-06
-6.22826115457e-06
-5.495457136e-06
2.96794566827e-06
-6.70781433795e-06
-4.96453354286e-06
2.12522789754e-06
-6.31408895261e-06
-4.40156404352e-06
1.1193937355e-06
-4.97932539996e-06
-3.87970933696e-06
5.10243786361e-08
-2.8550143139e-06
-3.44740549552e-06
-8.53752050022e-07
-6.5772326101e-07
-3.12421079472e-06
-1.02062135662e-06
-2.73816441369e-06
3.92065422918e-07
9.02332584464e-07
-4.48717092846e-06
-3.18579752085e-07
4.0328202332e-06
-5.08205766775e-06
-2.45466531318e-06
7.11887007787e-06
-5.48977792277e-06
-2.3302235439e-06
9.1564608459e-06
-5.99612373436e-06
-1.16643465401e-06
9.91269068226e-06
-6.58414453544e-06
2.50265759403e-07
9.4950883048e-06
-7.16937843571e-06
1.56251352287e-06
8.15407019885e-06
-7.65287031126e-06
2.60211774072e-06
6.17002595678e-06
-8.00672175885e-06
3.33160913329e-06
3.84087946812e-06
-8.18810712604e-06
3.7298545039e-06
1.42158417426e-06
-8.19071997664e-06
3.83703266294e-06
-8.87651058167e-07
-8.02497735202e-06
3.71248800856e-06
-2.9347747306e-06
-7.70656907444e-06
3.40624365454e-06
-4.58124188545e-06
-7.25539488742e-06
2.93516027623e-06
-5.68384584536e-06
-6.69169963672e-06
2.29884677155e-06
-6.099151114e-06
-6.05051704164e-06
1.50128913161e-06
-5.69395889944e-06
-5.37024605162e-06
5.63490214959e-07
-4.41615763284e-06
-4.7328235385e-06
-4.24686594863e-07
-2.42606954988e-06
-4.20448742548e-06
-1.23300564757e-06
-4.18934851003e-07
-3.80797079319e-06
-1.32337417368e-06
-3.33823023434e-06
1.81131303497e-07
6.16661133687e-07
-4.5038318343e-06
-5.99999681556e-07
3.52090887704e-06
-5.10450601098e-06
-2.88179888477e-06
6.46761866789e-06
-5.55258143486e-06
-2.88390589342e-06
8.46617909792e-06
-6.13502222656e-06
-1.85966172135e-06
9.27910261112e-06
-6.81988929377e-06
-5.77178694825e-07
8.98044242485e-06
-7.51373595154e-06
6.43017656362e-07
7.79192156459e-06
-8.08746614439e-06
1.6231166093e-06
5.97251167603e-06
-8.50933658787e-06
2.32202465292e-06
3.80182281687e-06
-8.73566509737e-06
2.71824681504e-06
1.52946873961e-06
-8.7588586137e-06
2.84049274975e-06
-6.42027089597e-07
-8.59153920272e-06
2.73805775343e-06
-2.55531928766e-06
-8.24900940866e-06
2.45573263276e-06
-4.07191722087e-06
-7.75427296696e-06
2.01547614036e-06
-5.06022451757e-06
-7.12955446254e-06
1.42616228963e-06
-5.39643907803e-06
-6.41341272349e-06
6.99110466778e-07
-4.97239181633e-06
-5.65117240181e-06
-1.43120616451e-07
-3.76284624696e-06
-4.93992745712e-06
-1.00244128468e-06
-1.9311717693e-06
-4.35238406515e-06
-1.68377740965e-06
-1.56711293517e-07
-3.91740026205e-06
-1.6650305309e-06
-3.43198904522e-06
-6.29521636274e-08
3.30457973659e-07
-3.90758987166e-06
-9.2669943095e-07
2.97113553591e-06
-4.42419122954e-06
-3.32099186097e-06
5.75028147785e-06
-4.85081315232e-06
-3.48091385604e-06
7.6979883518e-06
-5.43881828361e-06
-2.64391059776e-06
8.56802694012e-06
-6.15167702335e-06
-1.53825078019e-06
8.40354069925e-06
-6.88719099765e-06
-4.62058735771e-07
7.38492637657e-06
-7.5046631227e-06
4.35811228844e-07
5.74858636263e-06
-7.96216079094e-06
1.08916413941e-06
3.75254008742e-06
-8.21625273475e-06
1.47663385212e-06
1.64064496988e-06
-8.26088164725e-06
1.61391811015e-06
-3.81222562551e-07
-8.10830851555e-06
1.53863681732e-06
-2.14864677236e-06
-7.77231010834e-06
1.29072489191e-06
-3.52480111206e-06
-7.27751912519e-06
8.9940049951e-07
-4.39082474153e-06
-6.6445074295e-06
3.80976638243e-07
-4.6397486211e-06
-5.91350353322e-06
-2.50985201285e-07
-4.20031917772e-06
-5.14102015601e-06
-9.49581488829e-07
-3.06755333065e-06
-4.42461932061e-06
-1.64807368278e-06
-1.41275041e-06
-3.84549798117e-06
-2.16168860721e-06
1.08158653855e-07
-3.42831467216e-06
-2.00999417526e-06
-3.00041558912e-06
-3.23414458804e-07
1.49427380632e-07
-2.81591952481e-06
-1.24109723825e-06
2.51062698913e-06
-3.10724654849e-06
-3.67814380497e-06
5.09351871534e-06
-3.41818853657e-06
-4.01551594837e-06
6.96919151488e-06
-3.90937075905e-06
-3.40512005685e-06
7.88289601888e-06
-4.55035486804e-06
-2.5150265191e-06
7.83960277197e-06
-5.23714060076e-06
-1.60675711397e-06
6.98503667318e-06
-5.82316436146e-06
-8.26932696577e-07
5.5267646294e-06
-6.26467477783e-06
-2.39214042637e-07
3.69534738903e-06
-6.52347264325e-06
1.38637055112e-07
1.73547236398e-06
-6.58727305475e-06
2.86266325602e-07
-1.44833655661e-07
-6.46839583277e-06
2.40393220259e-07
-1.7740753978e-06
-6.18101848663e-06
3.79500026921e-08
-3.01179217907e-06
-5.73884079345e-06
-3.00961650384e-07
-3.76031803559e-06
-5.17212450082e-06
-7.23857123932e-07
-3.93373164469e-06
-4.51625284204e-06
-1.22383704924e-06
-3.48544473166e-06
-3.82667093072e-06
-1.76263598824e-06
-2.44043765198e-06
-3.20326424769e-06
-2.26636186787e-06
-9.75853910122e-07
-2.72670628732e-06
-2.58337501667e-06
2.92856819805e-07
-2.41159760216e-06
-2.28542726373e-06
-2.14008838044e-06
-5.67469985973e-07
1.38680513758e-07
-1.48686845232e-06
-1.46773107274e-06
2.22780408782e-06
-1.39591699072e-06
-3.80045260293e-06
4.58426378613e-06
-1.48149937616e-06
-4.29314839799e-06
6.35884464138e-06
-1.76450053011e-06
-3.9194507323e-06
7.28804527137e-06
-2.22559282432e-06
-3.253962445e-06
7.33961142153e-06
-2.76453101901e-06
-2.52417562131e-06
6.62241471845e-06
-3.23956623552e-06
-1.86640141205e-06
5.31175731499e-06
-3.61155244111e-06
-1.3424649997e-06
3.62472393535e-06
-3.83981346124e-06
-9.96625926253e-07
1.79665680639e-06
-3.91634156656e-06
-8.42864524546e-07
4.05434960333e-08
-3.8483566218e-06
-8.63926091547e-07
-1.46799065075e-06
-3.64503243653e-06
-1.02745209941e-06
-2.59510364889e-06
-3.31878320978e-06
-1.29294475771e-06
-3.24671487146e-06
-2.89269894678e-06
-1.62781444105e-06
-3.36167266422e-06
-2.40308531893e-06
-1.99820973298e-06
-2.92019148452e-06
-1.89873932263e-06
-2.36941264328e-06
-1.97317481289e-06
-1.47317216166e-06
-2.67710844286e-06
-7.02851506944e-07
-1.20023219431e-06
-2.79679691218e-06
3.33900248895e-07
-1.07870659355e-06
-2.36964212692e-06
-1.08320942738e-06
-7.22978208728e-07
2.78256012552e-07
-3.53850277188e-07
-1.4112735957e-06
2.12066567725e-06
3.86426375521e-08
-3.27696868513e-06
4.23100980765e-06
1.87687181056e-07
-3.77953013924e-06
5.88019401651e-06
1.59621298061e-07
-3.57330559638e-06
6.79770314011e-06
-4.72773148887e-08
-3.09582432712e-06
6.90380258256e-06
-3.40940910123e-07
-2.52968938691e-06
6.2845578344e-06
-6.22753762387e-07
-1.99756769111e-06
5.09039088693e-06
-8.6640028211e-07
-1.55098528645e-06
3.52486633535e-06
-1.03148004765e-06
-1.24280902013e-06
1.81289275562e-06
-1.10451672621e-06
-1.09985147603e-06
1.63954083448e-07
-1.08753100324e-06
-1.11188719244e-06
-1.24744349806e-06
-9.86014831344e-07
-1.24762027024e-06
-2.29024210645e-06
-8.10770479542e-07
-1.46521433205e-06
-2.87801750592e-06
-5.79514947611e-07
-1.72540872813e-06
-2.96288987e-06
-3.25892407756e-07
-1.99232054335e-06
-2.54138031027e-06
-8.30883886459e-08
-2.23716031263e-06
-1.69215454068e-06
8.38895150681e-08
-2.40628706261e-06
-6.04302707159e-07
1.17079458989e-07
-2.40516290089e-06
2.45978663681e-07
3.358014349e-08
-1.96256733317e-06
-2.03269010539e-07
-6.3396119665e-07
6.4739610809e-07
-1.00124594564e-06
2.14702361271e-06
-1.46098443239e-06
3.84945355264e-06
-1.51474237535e-06
5.25604703648e-06
-1.24697188658e-06
6.0741085812e-06
-8.6533866265e-07
6.1931705723e-06
-4.60002808454e-07
5.68914216998e-06
-1.18725360259e-07
4.65678498046e-06
1.65956832908e-07
3.27743924425e-06
3.47865560652e-07
1.75509183683e-06
4.17830520562e-07
2.78191899895e-07
3.89368760962e-07
-9.94946857603e-07
2.87123763812e-07
-1.93711975939e-06
1.31402297188e-07
-2.46289160904e-06
-5.37431536314e-08
-2.54957486113e-06
-2.39209107866e-07
-2.19618612849e-06
-4.36476942029e-07
-1.50190918172e-06
-6.10387109572e-07
-6.72605430402e-07
-7.1222382437e-07
-3.44479465303e-08
-6.04576787575e-07
-2.37716679144e-07
1.54648616455e-06
1.42059058284e-06
-3.97892629578e-06
3.30326807082e-06
1.73506921874e-06
-4.97877681272e-06
4.8655743857e-06
2.02937436889e-06
-5.13297069592e-06
5.95892605155e-06
2.32164658135e-06
-4.67524914196e-06
6.43585542411e-06
2.59266905661e-06
-3.93680846476e-06
6.25899501551e-06
2.82857177104e-06
-3.11048748299e-06
5.4669525361e-06
3.00923737222e-06
-2.33603507188e-06
4.19070103915e-06
3.1360672365e-06
-1.69257263798e-06
2.59536174629e-06
3.20899257506e-06
-1.26068803862e-06
8.58989303095e-07
3.24055480557e-06
-1.07487533735e-06
-8.42690658792e-07
3.23685170932e-06
-1.12803511863e-06
-2.35045564896e-06
3.19675304876e-06
-1.3898937435e-06
-3.52940900327e-06
3.11600380554e-06
-1.82453205732e-06
-4.2708894905e-06
2.98647421411e-06
-2.37745410893e-06
-4.50410322866e-06
2.811067027e-06
-2.98737579143e-06
-4.22655202519e-06
2.59160962948e-06
-3.60013631698e-06
-3.48980672843e-06
2.34486543409e-06
-4.12200325419e-06
-2.40992045067e-06
2.07583344413e-06
-4.42084082494e-06
-1.16021559685e-06
1.77487973824e-06
-4.24056659705e-06
1.39627096647e-06
-3.37249593496e-06
1.96158544234e-06
2.94945446279e-06
-4.93603250211e-06
3.68813971635e-06
3.22789240967e-06
-6.66508510815e-06
5.05163728203e-06
3.5217768476e-06
-6.84342464109e-06
5.95317635655e-06
3.88231129591e-06
-6.2364352625e-06
6.29916560083e-06
4.27476435769e-06
-5.30882224414e-06
6.06736565277e-06
4.66010326419e-06
-4.30211969842e-06
5.29132529498e-06
4.99513034077e-06
-3.37359019997e-06
4.07910337442e-06
5.258553672e-06
-2.62213812353e-06
2.5725477059e-06
5.43491023271e-06
-2.12089135539e-06
9.31026194346e-07
5.52490115323e-06
-1.90468879638e-06
-6.84610298571e-07
5.53104560709e-06
-1.97007406193e-06
-2.12695389741e-06
5.45442539212e-06
-2.28722722811e-06
-3.27049864599e-06
5.29684005122e-06
-2.81283444836e-06
-4.01928445979e-06
5.05934912888e-06
-3.48926222414e-06
-4.31190703439e-06
4.75795374205e-06
-4.25010563031e-06
-4.14342965416e-06
4.41194353075e-06
-5.01819213487e-06
-3.55028582599e-06
4.05500047942e-06
-5.67928915929e-06
-2.61969948803e-06
3.71159935811e-06
-6.06045748127e-06
-1.42186076764e-06
3.38861643679e-06
-5.8093512641e-06
3.0149711914e-06
-4.30739047695e-06
2.29915375569e-06
4.28781181025e-06
-5.14921910048e-06
4.02679053474e-06
4.39475099033e-06
-6.90616343721e-06
5.28457586578e-06
4.5919879449e-06
-6.8651916766e-06
6.07107749668e-06
4.92838767669e-06
-5.97379098252e-06
6.326662984e-06
5.35414603919e-06
-4.78028114391e-06
6.04054433042e-06
5.8118502739e-06
-3.55748427545e-06
5.2504806558e-06
6.23993170765e-06
-2.47355853408e-06
4.05559492539e-06
6.59674864693e-06
-1.62751348952e-06
2.58764193959e-06
6.84856906991e-06
-1.07832613634e-06
9.90938776416e-07
6.98847088096e-06
-8.48264591533e-07
-5.85997733193e-07
7.01140022904e-06
-9.27845159688e-07
-2.00638356552e-06
6.92012773391e-06
-1.28707002948e-06
-3.1549507931e-06
6.72594102544e-06
-1.88763826476e-06
-3.93678112721e-06
6.43192296857e-06
-2.6799298222e-06
-4.29188962967e-06
6.07205476556e-06
-3.60473714095e-06
-4.20653816297e-06
5.67853027941e-06
-4.58059523631e-06
-3.7062478471e-06
5.29804859884e-06
-5.48043240446e-06
-2.85690996537e-06
4.97136138675e-06
-6.09984745231e-06
-1.66725960962e-06
4.72414180776e-06
-6.01671560733e-06
4.48929056194e-06
-4.47080668434e-06
2.61012548844e-06
5.21743571471e-06
-4.8113249984e-06
4.40582686742e-06
5.15222256626e-06
-6.42048186456e-06
5.63766178142e-06
5.2394865396e-06
-6.09456272914e-06
6.36574111706e-06
5.51592891499e-06
-4.87967652532e-06
6.55654623806e-06
5.92379294829e-06
-3.38993323807e-06
6.21274634122e-06
6.39754730903e-06
-1.92787580218e-06
5.38023618689e-06
6.86159760757e-06
-6.69291050397e-07
4.1539381846e-06
7.26615328533e-06
2.83497482452e-07
2.67141549079e-06
7.57060655255e-06
8.82905591401e-07
1.06155788321e-06
7.74606986904e-06
1.12965651336e-06
-5.32657642111e-07
7.78624324981e-06
1.03819516459e-06
-1.97969054821e-06
7.69494638206e-06
6.40840853545e-07
-3.17931362415e-06
7.48316625113e-06
-2.30010262159e-08
-4.01990541561e-06
7.18238388608e-06
-9.4357702608e-07
-4.44566134912e-06
6.82053295168e-06
-2.04510693257e-06
-4.42947298488e-06
6.43620239365e-06
-3.25187909218e-06
-3.98336089247e-06
6.08573158714e-06
-4.42701495661e-06
-3.15436715066e-06
5.81731870309e-06
-5.33608757826e-06
-1.90909904336e-06
5.66619761312e-06
-5.4978474683e-06
5.56875379394e-06
-4.07146577766e-06
2.89451857825e-06
5.60332324275e-06
-4.21466563596e-06
4.80881165412e-06
5.41240164298e-06
-5.63614584613e-06
6.07247653935e-06
5.40758449132e-06
-5.0428961888e-06
6.78528984403e-06
5.61362643507e-06
-3.531368913e-06
6.93645660911e-06
5.97475439818e-06
-1.763442055e-06
6.53751027345e-06
6.42300469691e-06
-6.90629951478e-08
5.64907174304e-06
6.88818747533e-06
1.35292791561e-06
4.36619405035e-06
7.30453946572e-06
2.42012002563e-06
2.81928673265e-06
7.62402288938e-06
3.08543727994e-06
1.14608274557e-06
7.81656720659e-06
3.3536628322e-06
-5.14454507602e-07
7.87102112965e-06
3.25318226238e-06
-2.03388062957e-06
7.79256686741e-06
2.81769171536e-06
-3.30027470157e-06
7.59878721777e-06
2.07153825385e-06
-4.21480519293e-06
7.31787876244e-06
1.04469227404e-06
-4.71226508332e-06
6.98482561409e-06
-2.09274889858e-07
-4.75073267873e-06
6.64990562702e-06
-1.63201775369e-06
-4.32820420936e-06
6.35997013889e-06
-3.062436477e-06
-3.47346208102e-06
6.16583664082e-06
-4.24064991832e-06
-2.12728906047e-06
6.10098933883e-06
-4.63989032163e-06
6.10275854985e-06
-3.38406872502e-06
3.14128623953e-06
5.40191731563e-06
-3.52106484923e-06
5.20186104143e-06
5.15129399651e-06
-4.76531279128e-06
6.53547283465e-06
5.08542207145e-06
-3.95612961321e-06
7.26575162068e-06
5.22577039603e-06
-2.20582378773e-06
7.39770556094e-06
5.5244954429e-06
-2.07348668256e-07
6.95976210584e-06
5.92528883419e-06
1.67593994111e-06
6.00569258322e-06
6.35116670693e-06
3.25018792179e-06
4.64460093099e-06
6.74343995044e-06
4.4174466857e-06
3.00931713786e-06
7.05097522832e-06
5.13829741153e-06
1.24336375179e-06
7.24250166013e-06
5.4264884725e-06
-5.10776317248e-07
7.30676852004e-06
5.31874109233e-06
-2.12234424866e-06
7.24992767448e-06
4.85382188722e-06
-3.47527508611e-06
7.09117257886e-06
4.05279500427e-06
-4.47018894793e-06
6.85894373085e-06
2.93825306537e-06
-5.02567179522e-06
6.58834319181e-06
1.54869337978e-06
-5.10545361169e-06
6.31917517429e-06
-2.77478433281e-08
-4.68287681884e-06
6.10846884856e-06
-1.66695077263e-06
-3.77486889459e-06
5.98921852801e-06
-3.05960566766e-06
-2.30920168762e-06
5.98747737775e-06
-3.65494754601e-06
6.03561798781e-06
-2.57128110572e-06
3.33054550695e-06
4.64094406444e-06
-2.85276142977e-06
5.54309606867e-06
4.39379359454e-06
-3.94662695011e-06
6.96681059182e-06
4.30549727216e-06
-2.98291353171e-06
7.73413081801e-06
4.39594526508e-06
-1.06029494155e-06
7.8707043357e-06
4.62801385364e-06
1.10373554171e-06
7.40110298538e-06
4.95471452438e-06
3.13820029768e-06
6.38748221018e-06
5.31250949641e-06
4.82825722483e-06
4.94563527987e-06
5.65071659945e-06
6.08002991609e-06
3.21535001212e-06
5.92225980744e-06
6.8474672582e-06
1.34763456895e-06
6.0981615434e-06
7.15025296767e-06
-5.07195214437e-07
6.16746223792e-06
7.03340852461e-06
-2.21276827232e-06
6.13746700568e-06
6.54319459737e-06
-3.6505103386e-06
6.02925871827e-06
5.7009774341e-06
-4.71714087516e-06
5.86678896801e-06
4.52496025955e-06
-5.32552195689e-06
5.67934958556e-06
3.05196182402e-06
-5.42360379234e-06
5.49975444429e-06
1.34894448917e-06
-4.98946612389e-06
5.36548788862e-06
-4.14107744014e-07
-4.01739479919e-06
5.31192689286e-06
-1.95867196013e-06
-2.43578278091e-06
5.34367905832e-06
-2.69820035244e-06
5.38508202589e-06
-1.77379146443e-06
3.46288401919e-06
3.42004233411e-06
-2.28043074908e-06
5.81077142202e-06
3.23127312379e-06
-3.26803604249e-06
7.32563728531e-06
3.15344341553e-06
-2.21065115031e-06
8.13713904732e-06
3.20490706263e-06
-1.7760981149e-07
8.28920477329e-06