/*--------------------------------*- C++ -*----------------------------------*\
| =========                 |                                                 |
| \\      /  F ield         | OpenFOAM: The Open Source CFD Toolbox           |
|  \\    /   O peration     | Version:  3.0.1                                 |
|   \\  /    A nd           | Web:      www.OpenFOAM.org                      |
|    \\/     M anipulation  |                                                 |
\*---------------------------------------------------------------------------*/
FoamFile
{
    version     2.0;
    format      ascii;
    class       volScalarField;
    location    "2.9";
    object      k;
}
// * * * * * * * * * * * * * * * * * * * * * * * * * * * * * * * * * * * * * //

dimensions      [0 2 -2 0 0 0 0];

internalField   nonuniform List<scalar> 
7968
(
0.00147013900705
0.00162073465286
0.00173216893194
0.00179428689905
0.00182268018036
0.00183051575152
0.00182751977427
0.00181952534722
0.00181095866794
0.00180448684932
0.00180448788361
0.00181096047099
0.00181953534707
0.00182754552018
0.00183055905927
0.00182274060523
0.0017943529868
0.00173223201998
0.00162079702961
0.00147017131564
0.00162071083507
0.00224833316761
0.00265144987698
0.00287348438145
0.00297953490005
0.00301432519453
0.00301098936699
0.00299213560134
0.00297378767458
0.00296326824439
0.0029632433929
0.00297372527711
0.0029920544129
0.00301091474871
0.00301429016917
0.002979567526
0.00287357322492
0.00265156407886
0.00224845281864
0.00162076960877
0.00173210755154
0.00265138292286
0.00323846869819
0.00356792208962
0.00373231840291
0.00379286144678
0.00379563922494
0.00377463879152
0.00375306307998
0.00374099475355
0.00374094409134
0.00375292853821
0.003774443265
0.0037954222642
0.00379268639838
0.00373223838397
0.00356793844875
0.00323854691729
0.00265148887738
0.00173217226051
0.00179416329865
0.00287331662866
0.00356784294282
0.00395901191439
0.00415249349198
0.00421958640798
0.00421765615497
0.00418877543192
0.00416139023147
0.00414709880924
0.0041470288362
0.00416118789834
0.00418846267053
0.00421728686013
0.00421924400354
0.0041522615713
0.00395890524594
0.00356783294151
0.00287336840965
0.00179422387562
0.00182248675538
0.00297930458293
0.00373224782682
0.00415256160992
0.00434990663855
0.00440661633615
0.00442265107155
0.00441980328859
0.00440570573522
0.00439528444151
0.00439523463666
0.00440556515239
0.0044195866064
0.00442237519879
0.00440615833018
0.00434952842579
0.00415231108189
0.00373211746838
0.00297926798213
0.00182252488955
0.00183027332453
0.00301413771449
0.00379297823214
0.00422001240081
0.0044070901753
0.00450885501384
0.00455122377443
0.00455083973002
0.00453486359818
0.00452242062336
0.0045223779802
0.00453473852687
0.00455063791064
0.00455096732217
0.0045085382611
0.00440662145655
0.00421963864372
0.0037927322553
0.00301400607588
0.00183027521562
0.00182724712223
0.00301092236623
0.00379609024162
0.00421866163751
0.00442321039247
0.00455151949072
0.00459496455299
0.00458755863936
0.00456411791437
0.00454708592798
0.00454705002263
0.00456401251736
0.00458738356762
0.00459473491485
0.00455125508119
0.00442290433875
0.00421826307214
0.00379578909404
0.00301072459325
0.0018272117979
0.00181922585515
0.00299217698244
0.00377537841518
0.00419029909504
0.00442066496096
0.00455138933118
0.00458773399522
0.00456954649032
0.00453601768093
0.00451280738814
0.00451277430844
0.00453592875988
0.00456940794592
0.00458756485831
0.00455119961883
0.00442044825795
0.00419001412495
0.00377512020715
0.00299196930061
0.00181916328958
0.0018106214207
0.00297383100624
0.00375385900887
0.00416307098816
0.00440674111711
0.00453556810457
0.00456434329538
0.00453599899203
0.00449250149909
0.00446281724781
0.00446279003153
0.00449245056693
0.00453594745431
0.00456429062992
0.00453551025538
0.00440667176724
0.00416301824013
0.00375373870095
0.0029736771816
0.00181054730497
0.00180412002535
0.00296322462151
0.00374162348687
0.00414847709492
0.004396298194
0.00452319361027
0.00454739126842
0.0045128393361
0.00446281703187
0.00442799937801
0.00442802065676
0.00446287694952
0.00451293264681
0.00454749947138
0.00452330964671
0.004396416547
0.00414869149895
0.0037417001616
0.00296317485081
0.00180405661384
0.00180418056891
0.0029631564618
0.00374142122174
0.00414818352035
0.00439616150207
0.00452311645071
0.00454737551742
0.00451288184051
0.00446289576828
0.00442813015261
0.00442820772008
0.00446309145591
0.00451313869363
0.00454765912986
0.00452341859084
0.0043964791581
0.00414867664581
0.00374170419643
0.00296322459537
0.00180414549059
0.00181073380504
0.00297365708527
0.00375332526101
0.00416222546313
0.00440639710904
0.00453541180195
0.00456437153218
0.00453620669005
0.00449285846721
0.00446332679621
0.00446341270193
0.00449308967227
0.00453653221552
0.00456475830998
0.00453583897393
0.00440686501315
0.00416298499515
0.00375376251255
0.00297381295781
0.0018107188417
0.00181936918036
0.00299199545984
0.00377471361254
0.00418921487516
0.00442027591829
0.00455128375977
0.00458790612854
0.00456997712694
0.00453669146037
0.00451370188669
0.00451378092624
0.00453690445929
0.00457029521281
0.00458831370872
0.00455175161583
0.00442079280209
0.00419003965896
0.00377519145334
0.00299217603453
0.0018193597909
0.0018274239722
0.00301084486032
0.00379552403792
0.00421766504168
0.00442287338104
0.0045515413931
0.00459532464102
0.00458822894948
0.00456505529797
0.00454824607889
0.00454831234628
0.00456523433773
0.00458850716646
0.00459569339203
0.00455197905031
0.00442336770127
0.00421837388911
0.00379591527636
0.00301097754693
0.00182740257763
0.00183047977289
0.00301423904522
0.00379268029291
0.00421932256445
0.00440639006223
0.00450894410814
0.00455173832003
0.00455170409449
0.00453601961147
0.00452379002321
0.00452384481085
0.00453616812004
0.00455193597606
0.00455205076198
0.00450935067219
0.00440705916235
0.0042197768797
0.00379289105724
0.00301427841459
0.00183044214904
0.00182270743974
0.00297958997212
0.00373224692989
0.00415224465053
0.00434952397567
0.00440660637197
0.00442322409742
0.00442076430027
0.00440696769455
0.00439673288292
0.00439677964488
0.00440709557825
0.00442096149423
0.00442348934569
0.00440704756824
0.00434986810919
0.00415241507895
0.00373227603905
0.00297953910149
0.00182265831628
0.00179435058409
0.00287370049107
0.00356806326146
0.00395900574615
0.00415238832266
0.00421967046803
0.00421820241478
0.00418983143864
0.00416281874017
0.00414867805113
0.0041487313582
0.00416296252714
0.00419004558488
0.00421845731979
0.00421989987212
0.00415250811515
0.00395901040585
0.00356799111039
0.00287360546081
0.00179430355444
0.00173224150971
0.00265176777985
0.00323879147818
0.00356811102924
0.00373241971374
0.00379302309868
0.0037960316138
0.00377532543933
0.00375397860174
0.0037420455932
0.00374210534822
0.00375412562516
0.0037755194521
0.00379622598701
0.00379316622737
0.00373246879653
0.00356807263247
0.00323870117001
0.0026516761037
0.00173220212088
0.00162079358525
0.00224862695562
0.00265174374847
0.00287372170596
0.00297971381566
0.00301450507889
0.0030112613036
0.00299255216298
0.00297433338578
0.00296390937028
0.00296396772676
0.00297447836839
0.00299273857743
0.00301143920091
0.00301463214466
0.00297976461424
0.00287369766678
0.0026516763593
0.00224856015758
0.00162076460132
0.00147016080062
0.0016208168621
0.00173226739394
0.00179438010207
0.00182275895745
0.00183057605244
0.00182757874661
0.00181960218165
0.00181106071621
0.00180462200821
0.00180465978222
0.00181114091842
0.00181969490859
0.00182765966769
0.00183062837541
0.00182277922513
0.00179437023281
0.00173224234301
0.00162079638602
0.00147014738447
0.00160009973344
0.00213245761142
0.00250480448382
0.0027271117794
0.00284778722349
0.0029027043744
0.00291833313716
0.00291404465693
0.00290410416467
0.00289693693796
0.00289692461682
0.00290407426261
0.00291400966757
0.00291830726797
0.0029027006844
0.00284781420435
0.00272715856681
0.00250485712069
0.00213251469527
0.00160013470108
0.00213237997138
0.00412778550489
0.00513529769649
0.00571315684096
0.00602596680475
0.00617022362551
0.00621441465895
0.00620822637114
0.00618750840579
0.00617267410954
0.00617262968282
0.0061873936142
0.00620807191182
0.00621426385453
0.00617013230356
0.00602597537805
0.00571325047229
0.00513542598467
0.004127897907
0.00213241705005
0.00250466715761
0.00513514177436
0.00646673548661
0.00725372885475
0.00769979981741
0.00792215757884
0.00800625757747
0.00801706058428
0.00800196515295
0.00798849617423
0.00798842790994
0.00800177649762
0.00801678484203
0.00800594852632
0.00792189760285
0.00769965285984
0.00725369909605
0.00646678416476
0.00513521890262
0.00250469139272
0.00272689485725
0.00571281677778
0.00725356264379
0.00818061200183
0.00871669443275
0.00899085041676
0.00910044117206
0.00912015460132
0.00910762084937
0.00909536433572
0.00909528939067
0.009107371376
0.00911976864156
0.00909997242283
0.00899040753204
0.008716353872
0.00818040077938
0.0072534618057
0.00571278879042
0.00272689190085
0.00284750725273
0.00602554206339
0.00769960637889
0.00871671501965
0.00930755673985
0.00960997347371
0.00973662940398
0.00975551572033
0.0097385310308
0.00972262343011
0.0097225271476
0.00973824699956
0.00975506576708
0.00973607917423
0.00960946203103
0.00930705037689
0.00871631286018
0.00769932548584
0.00602536709991
0.00284745508343
0.00290241489427
0.00616990408947
0.007922181316
0.0089912137284
0.00961035137982
0.00992388611783
0.010033184516
0.0100383854189
0.010010423833
0.00998823648582
0.00998814953367
0.0100101608365
0.0100379475421
0.0100326232624
0.00992327853004
0.00960978194155
0.00899066699722
0.00792174514704
0.00616958991845
0.00290230266304
0.00291808946896
0.00621433467128
0.00800668123382
0.00910139533167
0.00973779228265
0.0100339026997
0.0101234055287
0.0101092851331
0.0100664136002
0.0100362310591
0.0100361598504
0.0100661995936
0.0101089210869
0.0101229151961
0.0100333487639
0.00973721209322
0.00910082233451
0.0080061870849
0.00621394647916
0.00291792951814
0.0029138543697
0.0062083578846
0.00801781181875
0.00912155763712
0.00975729465328
0.0100396419701
0.0101096468899
0.0100757467895
0.0100184635567
0.00998049449484
0.00998042512647
0.0100182739342
0.0100754491137
0.0101092990355
0.0100392720842
0.00975690298683
0.00912113764095
0.00801740521753
0.00620800233781
0.00291368005525
0.00290392146397
0.00618768504956
0.00800279405838
0.0091091649664
0.00974058078957
0.0100118912199
0.0100667123621
0.0100182747266
0.0099488707835
0.00990474273519
0.00990468077
0.00994874451061
0.0100181458037
0.0100666152592
0.0100118284828
0.009740514903
0.00910902440742
0.00800260356055
0.00618746528675
0.00290377270997
0.00289672235266
0.00617275633236
0.00798915084034
0.00909642518085
0.00972457268355
0.00998973824052
0.0100365508876
0.00998027127628
0.00990461901474
0.00985725490728
0.00985727305032
0.00990469786689
0.00998042773476
0.0100367917358
0.00999006291455
0.00972490012676
0.00909654569889
0.00798924756594
0.006172742002
0.00289663510623
0.00289671344503
0.00617264841788
0.00798893966925
0.00909622596796
0.00972430671055
0.0099895681689
0.0100365267574
0.00998036406558
0.00990477101356
0.00985748806581
0.00985760405631
0.00990510541032
0.00998085047554
0.0100371434065
0.00999030541393
0.00972504807073
0.00909666803014
0.0079893405982
0.00617285596984
0.00289670095628
0.0029039083521
0.00618742939492
0.00800223685779
0.00910843392272
0.00973987898294
0.0100115194872
0.0100667933137
0.0100187384933
0.00994960888143
0.00990574707039
0.00990589918318
0.00995005392451
0.0100194109564
0.0100676787674
0.0100125743224
0.00974096603082
0.00910932166454
0.00800288578927
0.0061878061962
0.00290394977315
0.00291388449602
0.00620812643458
0.00801715487273
0.00912064491561
0.00975645812062
0.0100393271696
0.0101100273304
0.0100767075072
0.01001992131
0.00998237615473
0.00998253528439
0.010020378526
0.0100774225894
0.0101110192023
0.0100405270924
0.00975769229052
0.00912166506147
0.0080178948251
0.00620856783661
0.00291394106737
0.00291821411636
0.00621432730176
0.00800620730514
0.00910059166498
0.00973712869169
0.0100338517467
0.0101241873549
0.0101108053668
0.0100685071741
0.0100387756735
0.0100389267797
0.010068938121
0.0101114970197
0.0101251395463
0.0100350050548
0.00973829140774
0.00910155601218
0.00800687604938
0.00621471586784
0.00291824518576
0.00290266378927
0.00617027598487
0.00792213499118
0.00899083810401
0.00961021740343
0.00992418870682
0.0100343252035
0.0100403329445
0.0100130137341
0.00999127916403
0.00999141416274
0.010013397737
0.010040947804
0.010035154534
0.00992513819762
0.00961103273093
0.00899154209298
0.00792259868718
0.00617052534037
0.00290264929612
0.00284786267642
0.00602632181885
0.00770005069144
0.00871683565704
0.00930768039831
0.00961061618921
0.00973795278918
0.00975760778255
0.00974124258061
0.00972571856463
0.00972583609116
0.00974157759917
0.00975813283433
0.00973862175264
0.00961127581718
0.00930828427869
0.00871725900795
0.00770029384524
0.00602642361587
0.00284780957341
0.00272729036659
0.00571389739553
0.007254418145
0.0081811862523
0.00871717311902
0.00899157607293
0.00910170716374
0.00912202058309
0.00910995965199
0.00909783905333
0.00909794922238
0.0091102757592
0.00912249145537
0.00910226644851
0.00899211164878
0.00871758350095
0.00818143716709
0.00725453154436
0.00571391557858
0.00272722551259
0.0025050334378
0.00513633840033
0.00646783038285
0.0072546231807
0.0077005782138
0.00792303454195
0.00800745540799
0.00801866646502
0.00800391872835
0.00799068386459
0.00799080674002
0.00800424594812
0.00801912984309
0.00800797096679
0.00792350806645
0.00770093058211
0.0072548320088
0.00646791564952
0.00513634206785
0.00250497508263
0.00213264313729
0.00412883151986
0.00513636644559
0.00571412527101
0.00602684601378
0.00617113070651
0.00621549928026
0.00620956868475
0.00618908676563
0.00617444003514
0.00617455841967
0.00618939936539
0.00621000762398
0.00621598473466
0.00617158133587
0.00602719811607
0.00571434744103
0.00513646751488
0.00412884613962
0.00213259801183
0.00160014228352
0.00213278235771
0.00250519070625
0.00272747033545
0.00284810243894
0.00290300193717
0.00291866995865
0.00291446277149
0.0029046067181
0.00289751337371
0.00289756539052
0.00290473557219
0.00291462887337
0.00291883424524
0.00290313413938
0.00284818580992
0.00272750321826
0.00250519049907
0.00213277091939
0.00160012225795
0.00169590193279
0.00244356624733
0.00297593604498
0.00330538914769
0.00349480137013
0.00359093805736
0.00362879952536
0.00363538326416
0.00363056163062
0.00362571739745
0.00362569868744
0.00363051739209
0.00363533014301
0.00362875497206
0.00359092331166
0.00349483173673
0.00330545221956
0.00297601198037
0.00244364611394
0.00169594302807
0.00244345454495
0.00495473575948
0.00625176228667
0.00702408729226
0.00746661573133
0.00769296079616
0.00778461718356
0.00780322907382
0.0077937805324
0.00778296173571
0.00778291704624
0.00779366988707
0.00780308478522
0.00778448260426
0.00769290324195
0.00746668863096
0.00702426979673
0.00625198887581
0.00495493572203
0.00244350901484
0.00297574333501
0.00625151964793
0.00793303180469
0.00896139874465
0.00957703045355
0.00991341340408
0.0100685314619
0.0101198304326
0.010125009253
0.010118922251
0.0101188587303
0.0101248431716
0.0101195889096
0.010068251894
0.00991318734461
0.00957692894029
0.00896142332119
0.00793314034726
0.0062516573754
0.00297577298119
0.00330509979714
0.00702360279113
0.00896116504252
0.0101668017033
0.0109058865398
0.0113229621112
0.0115245324567
0.0116004668217
0.0116206263081
0.0116196392353
0.01161956958
0.0116204522402
0.0116001902584
0.011524118663
0.0113225665654
0.0109055837393
0.0101666170484
0.00896108448925
0.00702359604952
0.0033050814668
0.00349445639699
0.00746602826423
0.00957672047579
0.0109058279367
0.0117313472302
0.0122071986858
0.0124372364846
0.0125227020035
0.0125390738983
0.0125346388561
0.0125345556228
0.0125388323563
0.0125223185074
0.0124367605725
0.0122067347583
0.0117308890665
0.0109054353335
0.00957642561178
0.00746583231319
0.00349436681499
0.00359061326747
0.00769251148644
0.00991328816454
0.0113231292625
0.0122074052927
0.0127062564146
0.0129480564537
0.0130352381753
0.0130450060111
0.0130347574179
0.0130346714835
0.0130447469446
0.0130348223018
0.012947537138
0.0127057111393
0.012206884438
0.0113225824646
0.00991281327305
0.00769214147294
0.00359044432312
0.0036285783229
0.00778448116297
0.0100687771263
0.0115251328469
0.0124379918095
0.0129485703576
0.0131955009822
0.0132776104235
0.0132758930859
0.0132572756135
0.0132571940578
0.0132756495037
0.0132772242905
0.0131950035729
0.0129480253461
0.012437437993
0.0115245489042
0.0100682415212
0.00778403332514
0.0036283562065
0.00363527036222
0.00780334884598
0.0101203214296
0.0116010718432
0.0125238439298
0.0130361604515
0.0132779965502
0.0133466768953
0.0133297429318
0.013301390938
0.0133013162795
0.013329532099
0.0133463595998
0.0132775992616
0.0130357458044
0.0125234427585
0.0116006654679
0.0101198986649
0.00780296863978
0.00363504883292
0.00363046981475
0.00779392316033
0.0101255250277
0.0116212910657
0.0125403694437
0.0130460371361
0.0132762182915
0.013329615618
0.0132988260491
0.0132627838114
0.013262742234
0.0132987091257
0.0133294255814
0.0132760191815
0.0130458887128
0.0125402576088
0.0116211311753
0.0101253537833
0.00779374190103
0.00363030635962
0.00362556421625
0.00778293987841
0.0101192955894
0.0116204531706
0.0125359153284
0.0130357643007
0.0132574604963
0.0133010736634
0.0132626056597
0.0132227547049
0.0132227560362
0.0132626359063
0.0133011192188
0.0132575595103
0.0130359714469
0.0125361820848
0.0116206662234
0.010119472628
0.0077830416997
0.00362550091818
0.00362550385232
0.00778274921934
0.010119031224
0.0116202085207
0.0125356749887
0.0130356220282
0.0132574512708
0.0133011874662
0.013262836514
0.0132230612437
0.0132231488774
0.013263064316
0.013301516874
0.0132578917098
0.0130362032527
0.0125363214789
0.011620765638
0.0101195531015
0.00778314126367
0.00362554950394
0.00363032799827
0.00779345504237
0.0101248659602
0.0116207856163
0.0125397684388
0.0130457140908
0.0132762979796
0.0133300603105
0.0132995905114
0.0132637903364
0.0132639327055
0.0132999635405
0.013330607223
0.0132770055883
0.0130465875135
0.0125406920429
0.0116214871181
0.0101256199653
0.00779405478889
0.00363044984248
0.00363514078967
0.00780283673707
0.0101195119311
0.0116004094182
0.0125230910296
0.0130358369294
0.0132783083785
0.0133476016956
0.0133311282758
0.0133031329457
0.0133032869732
0.013331557456
0.0133482580876
0.0132791607128
0.0130368695748
0.0125241663963
0.0116012447131
0.010120364883
0.0078035106843
0.00363528256197
0.00362856646756
0.00778420683429
0.0100681019862
0.0115242680634
0.0124373433236
0.0129484437204
0.0131961242058
0.0132789857011
0.0132778376057
0.0132596185758
0.0132597692463
0.0132782697082
0.0132796571421
0.0131969975676
0.0129494789024
0.0124384037075
0.0115252354214
0.010068905487
0.00778480945839
0.0036286705265
0.00359079878757
0.00769273202981
0.0099131021627
0.0113226835268
0.0122072029237
0.0127064704278
0.0129489814285
0.0130369162017
0.0130472921582
0.0130374758313
0.0130376214322
0.0130477099705
0.0130375619117
0.0129497955387
0.0127073630647
0.0122080267792
0.0113234285072
0.00991369063575
0.00769314941524
0.00359083247478
0.00349483814708
0.00746681843733
0.00957713896666
0.0109059208823
0.011731450849
0.0122077149982
0.0124383481299
0.0125244767728
0.0125414068239
0.0125373814532
0.0125375222073
0.0125418029945
0.0125250765106
0.0124390722523
0.0122084334396
0.011732089914
0.0109064163947
0.00957749227966
0.00746703906775
0.00349481127703
0.00330560600003
0.00702486300589
0.00896213470459
0.0101674439856
0.0109063951977
0.0113236704153
0.0115257136375
0.0116021454349
0.0116227221422
0.0116221601959
0.0116223067873
0.0116231160144
0.0116027219826
0.011526401462
0.0113243237753
0.010906914556
0.0101678086156
0.00896236254031
0.00702497686652
0.00330555759181
0.00297627268209
0.0062530416498
0.0079343886901
0.00896249194543
0.00957795879053
0.00991441190139
0.0100698426819
0.0101215589063
0.0101271078807
0.0101213293229
0.0101214998993
0.0101275596058
0.0101221969641
0.0100705548095
0.00991508068822
0.00957849022594
0.00896286128637
0.00793460928523
0.00625314240745
0.00297623287795
0.00244387048579
0.00495619167875
0.00625321731086
0.00702538658683
0.00746777931639
0.00769414436178
0.00778602213182
0.00780496049608
0.00779580526401
0.00778522438431
0.0077853951828
0.0077962573699
0.00780560085566
0.00778674308897
0.00769483989709
0.00746835921285
0.00702580771417
0.00625347812638
0.00495631372762
0.00244384308661
0.00169595134134
0.00244407248847
0.00297653578782
0.00330594149114
0.00349528393191
0.00359139543048
0.0036293216094
0.00363602986388
0.00363132598199
0.00362657467091
0.00362664251617
0.00363149800079
0.00363626185864
0.00362956577384
0.00359161150341
0.00349544167502
0.00330603518409
0.00297658129684
0.00244408746573
0.00169593005485
0.001757942939
0.0026344603905
0.00327066713853
0.00367452025786
0.00391501101176
0.00404462304888
0.00410363438997
0.00412379822913
0.00412777007645
0.00412758211528
0.00412755586414
0.00412770814605
0.00412372117686
0.00410356305055
0.00404458927561
0.00391504282253
0.0036746067616
0.00327078266478
0.00263458335301
0.00175799072391
0.0026343294691
0.00546815979645
0.00696959036142
0.00788666428827
0.00842919763837
0.00872176228707
0.00885510388513
0.00889912517026
0.00890417395576
0.00890012626344
0.00890007205726
0.00890404261526
0.00889895206134
0.00885493197378
0.00872167408195
0.00842927858587
0.00788690440116
0.00696990787303
0.00546846091231
0.00263442057177
0.00327043752279
0.00696928958703
0.00890769209179
0.0101206379661
0.010869779892
0.0112990030573
0.0115152121297
0.0116039329345
0.011628178855
0.0116299787939
0.0116299120537
0.0116280062697
0.0116036828049
0.0115149194442
0.0112987599443
0.010869685249
0.0101206950124
0.00890785203819
0.00696948878098
0.00327049188473
0.00367418505397
0.00788610625748
0.0101203725971
0.0115394538741
0.0124367126179
0.0129685313387
0.013250999187
0.0133801353477
0.0134195548008
0.013424689747
0.0134246183816
0.0134193514398
0.0133798127416
0.0132505721027
0.0129681128104
0.0124364039053
0.0115392714597
0.0101202979193
0.00788610669017
0.00367416600388
0.00391465211433
0.00842857357091
0.0108694305355
0.0124366075677
0.0134445366651
0.0140617786902
0.0143975514024
0.0145480076039
0.0145909421678
0.0145936820772
0.0145936051441
0.014590701304
0.0145476135104
0.0143970553716
0.0140612603984
0.0134440509048
0.0124361914249
0.01086909957
0.0084283285263
0.00391453688728
0.00404433672277
0.00872135943119
0.0112988481571
0.012968587087
0.0140619084608
0.0147361988783
0.0151084652742
0.0152697964881
0.015306870715
0.0153023421144
0.0153022521374
0.0153065901787
0.0152693392451
0.0151078862238
0.0147355743452
0.0140613058998
0.0129679871489
0.011298307133
0.00872090130669
0.00404412177627
0.00410351991573
0.00885512996331
0.0115154397612
0.0132514281965
0.0143980268622
0.0151088340142
0.0154984884698
0.0156554503658
0.0156775274428
0.0156617622192
0.0156616693499
0.0156772421693
0.0156549887895
0.0154978846507
0.0151081719511
0.0143973893822
0.0132507900072
0.0115148483433
0.00885460160831
0.00410324831412
0.00412384190954
0.00889947798936
0.0116044212331
0.0133807502952
0.0145487824145
0.015270511983
0.0156557488863
0.0157951150939
0.0157974774669
0.0157694401992
0.015769360923
0.0157972297026
0.0157947075458
0.0156552171085
0.0152699479612
0.014548272561
0.0133802903202
0.011603981539
0.00889907122965
0.00412358765833
0.00412782537678
0.00890449513378
0.0116286101487
0.0134201583264
0.014591747452
0.015307556619
0.0156775974532
0.0157971430004
0.0157823012451
0.0157450846853
0.0157450419948
0.0157821439719
0.0157968339441
0.0156772156972
0.0153072181396
0.0145915031225
0.0134199957977
0.0116284832987
0.00890437403973
0.00412766092793
0.00412751247121
0.00890012279806
0.0116301012309
0.0134250980872
0.0145943269258
0.0153028004767
0.0156614202524
0.0157686586488
0.015744674846
0.0157031251227
0.0157031087212
0.0157446285344
0.0157685371266
0.0156612808583
0.0153027661383
0.0145944218453
0.0134253191683
0.0116303893427
0.00890038324614
0.00412748455016
0.00412737442776
0.00889975839605
0.0116296773843
0.0134247178445
0.0145940242671
0.0153025958974
0.015661317947
0.0157686561359
0.0157447818721
0.0157032953997
0.0157033579746
0.0157449086907
0.015768791293
0.0156614862613
0.0153028903273
0.0145944630711
0.01342531092
0.0116303641891
0.00890038727733
0.0041274837228
0.00412746924563
0.00890354791756
0.0116274998177
0.0134191469966
0.0145909247262
0.015307031092
0.0156774131999
0.0157972641185
0.015782701629
0.0157456928251
0.0157458204813
0.0157829984684
0.0157976498993
0.0156778769599
0.0153076232492
0.0145916453469
0.0134200053338
0.0116284493061
0.0089044236922
0.00412767086704
0.0041234027681
0.00889827325096
0.0116029568078
0.0133793615571
0.0145476548475
0.0152698525896
0.0156556806556
0.0157955806275
0.0157983285306
0.0157705917285
0.0157707414738
0.0157987186591
0.0157961315475
0.015656344347
0.0152706371486
0.0145485430423
0.013380352741
0.011603990347
0.00889921352232
0.00412362331075
0.00410316532032
0.00885407762511
0.011514029657
0.0132498847092
0.01439688648
0.0151082445254
0.0154986330349
0.0156562981473
0.0156788685235
0.0156634270269
0.0156635810257
0.0156792944535
0.0156569212266
0.0154993789522
0.0151090847385
0.0143977926877
0.0132508892092
0.0115149605888
0.00885489610463
0.00410333050666
0.00404422325293
0.00872086775545
0.0112979573946
0.0129674418683
0.0140610353209
0.0147358268769
0.0151087895428
0.0152708456384
0.0153084637519
0.0153042882319
0.0153044450532
0.0153089071508
0.015271495457
0.015109540993
0.0147366149446
0.0140618153104
0.0129682038332
0.0112986238673
0.00872142282564
0.00404428552956
0.00391481873902
0.00842880998764
0.0108692606976
0.0124360797069
0.0134439538913
0.0140615876016
0.0143979142087
0.0145490061462
0.0145924472161
0.0145955297078
0.0145956924807
0.0145929045618
0.0145496651783
0.0143986483214
0.0140622939457
0.0134445645188
0.0124365540455
0.0108696347588
0.00842908376553
0.00391478903661
0.00367456791964
0.00788700347298
0.0101208991832
0.011539593849
0.0124366322541
0.0129685465453
0.0132514270892
0.0133811211865
0.0134209679587
0.0134264323788
0.0134266102063
0.0134214467752
0.0133817956015
0.0132521690058
0.0129692207512
0.0124371345687
0.0115399445549
0.0101211318377
0.00788712829645
0.00367450289145
0.00327092388035
0.00697063277108
0.00890876950543
0.0101213714904
0.0108702669033
0.0112994792266
0.0115159415108
0.0116050782367
0.011629692963
0.0116317973557
0.0116320093755
0.0116302416265
0.0116058302487
0.0115167452178
0.011300212781
0.0108708323699
0.0101217659686
0.00890901202568
0.00697074642721
0.00327087367999
0.00263476101845
0.00546961322184
0.00697095168373
0.00788777773206
0.00843008979424
0.00872262370382
0.00885620066027
0.00890060285886
0.00890597953676
0.00890218812071
0.00890240024023
0.00890652848308
0.00890136381916
0.00885703899431
0.00872342475727
0.0084307480954
0.00788826318294
0.00697126537772
0.00546977101964
0.00263473013418
0.00175794766298
0.00263498724882
0.00327126096693
0.0036750236373
0.00391540061839
0.00404495503453
0.00410402854511
0.00412433452796
0.00412842838082
0.0041283269207
0.00412840183706
0.00412861518521
0.00412458432263
0.00410429104137
0.00404519086649
0.00391557125972
0.00367512708766
0.00327131529637
0.00263500656412
0.00175792100789
0.0018083019037
0.00279349042961
0.00351907211354
0.00398728771226
0.00427266043687
0.00443291146309
0.00451409915967
0.00455250534728
0.00457153546326
0.00458038365753
0.00458034809523
0.00457144936167
0.00455239529911
0.00451399130164
0.00443284752892
0.00427268083374
0.00398738692336
0.0035192229382
0.00279364905865
0.00180835511864
0.00279338179644
0.00590324879298
0.00758387665346
0.00862667173964
0.00925402411134
0.00960128316204
0.00977027796108
0.00983932361038
0.00986225507924
0.00986813995902
0.00986806718965
0.00986207967509
0.00983908732755
0.00977002626978
0.00960111784977
0.00925406189166
0.00862690698155
0.00758422896484
0.00590360959099
0.00279351141622
0.00351885642756
0.00758356079893
0.00975482814416
0.0111307470347
0.0119917844149
0.0124959824479
0.0127631772653
0.0128841901243
0.012925226971
0.0129338247879
0.0129337378528
0.0129250122315
0.01288387335
0.0127627885412
0.0124956238772
0.0119916002421
0.0111307525371
0.00975497395491
0.00758377172484
0.00351893825506
0.00398696565748
0.00862613016871
0.0111305098753
0.0127362296089
0.0137686577711
0.0144012792103
0.0147540824855
0.0149200663809
0.0149719692768
0.0149788464023
0.0149787513194
0.0149716953332
0.0149196307268
0.0147535092939
0.0144006616219
0.0137682078026
0.0127359510774
0.0111303651229
0.00862608642074
0.00398694298904
0.00427236189243
0.00925349800863
0.0119915147622
0.0137685598789
0.0149395387606
0.0156852414058
0.0161085401629
0.016298595219
0.0163462430071
0.0163437601532
0.0163436629075
0.0163459294958
0.0162980638422
0.0161078308273
0.0156844600591
0.0149388552436
0.0137679952733
0.0119910637262
0.00925315708593
0.00427221574901
0.00443274387464
0.00960109022791
0.012495955227
0.0144013159079
0.0156853674201
0.0165100730473
0.0169694451798
0.0171545853305
0.0171806482742
0.0171613470871
0.0171612414502
0.0171803135905
0.0171539860711
0.016968608428
0.0165091266666
0.0156844772393
0.0144005021525
0.0124952591251
0.00960049286157
0.00443247406625
0.00451414910461
0.00977061307265
0.0127635412529
0.0147544347771
0.0161089933835
0.0169698097624
0.0174230581618
0.0175764144886
0.0175676886458
0.0175273507099
0.0175272623576
0.0175673962765
0.0175758362121
0.0174222006031
0.0169688173951
0.0161080439458
0.0147535820565
0.0127628093717
0.00976994340692
0.00451380657298
0.00455273151175
0.00984000891869
0.0128847717825
0.0149207044789
0.0162993961385
0.0171553754733
0.0175763080253
0.0176869489353
0.0176430018864
0.0175852674714
0.0175852072728
0.0176427636178
0.0176864394751
0.0175755943329
0.0171545572045
0.0162985849468
0.0149200263768
0.0128842234042
0.00983949796
0.00455239756866
0.00457174093111
0.00986279781025
0.0129255892969