/*--------------------------------*- C++ -*----------------------------------*\
| =========                 |                                                 |
| \\      /  F ield         | OpenFOAM: The Open Source CFD Toolbox           |
|  \\    /   O peration     | Version:  3.0.1                                 |
|   \\  /    A nd           | Web:      www.OpenFOAM.org                      |
|    \\/     M anipulation  |                                                 |
\*---------------------------------------------------------------------------*/
FoamFile
{
    version     2.0;
    format      ascii;
    class       volScalarField;
    location    "2.9";
    object      p;
}
// * * * * * * * * * * * * * * * * * * * * * * * * * * * * * * * * * * * * * //

dimensions      [1 -1 -2 0 0 0 0];

internalField   nonuniform List<scalar> 
7968
(
5116.68081116
5116.69888745
5116.6672865
5116.61310367
5116.54795189
5116.48477276
5116.43727501
5116.40809214
5116.39275969
5116.38656636
5116.38650463
5116.39258202
5116.40781394
5116.43692788
5116.48440068
5116.54759139
5116.61277121
5116.66697396
5116.69855523
5116.68042329
5116.69887005
5116.76843359
5116.76291982
5116.7232268
5116.66213605
5116.59857835
5116.54699018
5116.51462064
5116.49761604
5116.49060936
5116.49053142
5116.49739363
5116.51427283
5116.54655523
5116.59811102
5116.66169034
5116.72283292
5116.76256561
5116.76806064
5116.69841645
5116.66714952
5116.76283276
5116.76482046
5116.71956454
5116.64041552
5116.55269537
5116.47685529
5116.42375096
5116.39211258
5116.37750638
5116.37739259
5116.39180038
5116.42325645
5116.47622414
5116.55199396
5116.6397155
5116.71892082
5116.76423239
5116.76224377
5116.66647464
5116.61288426
5116.72309895
5116.71954528
5116.65201603
5116.53890343
5116.41436309
5116.30640632
5116.22859032
5116.18055526
5116.15752714
5116.1573864
5116.18013953
5116.2279153
5116.30551372
5116.41332679
5116.53780913
5116.65096999
5116.71857061
5116.72214738
5116.61186262
5116.54771522
5116.6620548
5116.64048382
5116.5390199
5116.38613079
5116.22603399
5116.09297236
5115.99960166
5115.94312026
5115.9163993
5115.91621681
5115.94258113
5115.99871436
5116.0917701
5116.22458773
5116.38449954
5116.53743715
5116.63899172
5116.66061477
5116.54623092
5116.48464037
5116.59862422
5116.55294463
5116.41472758
5116.22642482
5116.04110361
5115.89508792
5115.79872875
5115.74388141
5115.71878086
5115.71853491
5115.74316415
5115.79756195
5115.89350338
5116.03914537
5116.22411589
5116.41253216
5116.55085742
5116.59660754
5116.48261754
5116.43730553
5116.54723237
5116.47730896
5116.30691619
5116.093387
5115.89521886
5115.74858578
5115.66199511
5115.61894327
5115.60079004
5115.60045624
5115.61798623
5115.66047336
5115.74658097
5115.89282835
5116.09072607
5116.30421187
5116.47463693
5116.54460556
5116.43467025
5116.40836947
5116.51510711
5116.42443192
5116.22923144
5116.00002298
5115.79885239
5115.66199805
5115.59817288
5115.58157599
5115.57822456
5115.57778959
5115.58032525
5115.59621919
5115.65950739
5115.79596554
5115.99689579
5116.22599868
5116.42116755
5116.51185277
5116.40509678
5116.39338599
5116.49842904
5116.39309761
5116.18142275
5115.94368076
5115.74412294
5115.61914942
5115.58188359
5115.5885458
5115.59600424
5115.59547635
5115.58699229
5115.57942266
5115.61604731
5115.74060691
5115.93996573
5116.17762175
5116.38922762
5116.49452191
5116.38945301
5116.38766501
5116.49186485
5116.37891481
5116.15876214
5115.9173229
5115.71937182
5115.60137742
5115.57897696
5115.59652395
5115.6087136
5115.60805224
5115.59459538
5115.57594719
5115.59760671
5115.71516173
5115.91296356
5116.15440093
5116.37442312
5116.48728082
5116.38304503
5116.38818662
5116.49233206
5116.37931762
5116.15913859
5115.91767911
5115.71969939
5115.60161049
5115.57904797
5115.59648032
5115.60849118
5115.60766877
5115.59410753
5115.57544626
5115.59719193
5115.71478977
5115.91260939
5116.15405496
5116.37411796
5116.48703478
5116.38286389
5116.39493429
5116.49981632
5116.39429791
5116.18251373
5115.94468068
5115.74499999
5115.61974302
5115.58197335
5115.58814453
5115.59512991
5115.59423074
5115.58554544
5115.57798704
5115.61482298
5115.73948171
5115.93890823
5116.17663406
5116.38833456
5116.49378758
5116.38890629
5116.41086365
5116.5173446
5116.42635254
5116.23089874
5116.00144795
5115.80001631
5115.66269897
5115.59811321
5115.5806808
5115.57658733
5115.57566046
5115.57799633
5115.59395375
5115.65747988
5115.79406442
5115.99510721
5116.22434439
5116.4196804
5116.51061904
5116.40416434
5116.44065167
5116.55024104
5116.47986957
5116.30900036
5116.09498025
5115.89637409
5115.7491217
5115.66166129
5115.61765298
5115.59864588
5115.59772888
5115.61498729
5115.65747764
5115.74374136
5115.89013357
5116.08819912
5116.30188028
5116.47256259
5116.54287892
5116.43333768
5116.4887366
5116.60234306
5116.5561005
5116.41717111
5116.22804573
5116.04215087
5115.89536249
5115.79802568
5115.74215485
5115.71615144
5115.71523533
5115.73948239
5115.79379696
5115.88986389
5116.03567913
5116.22087923
5116.40955026
5116.54823204
5116.5944213
5116.48088868
5116.55242566
5116.66637035
5116.64419645
5116.54190963
5116.38806674
5116.2270814
5116.09301626
5115.99854714
5115.94099226
5115.91333382
5115.91242424
5115.93832371
5115.99429443
5116.08742582
5116.2204169
5116.3805857
5116.53387115
5116.63587736
5116.65800964
5116.54417286
5116.61800221
5116.7278581
5116.72368502
5116.65525224
5116.54104554
5116.41534541
5116.30618322
5116.22714298
5116.177954
5116.15392984
5116.15302828
5116.17530226
5116.22288915
5116.30054078
5116.40855463
5116.53335602
5116.64696337
5116.71510286
5116.71923756
5116.60950173
5116.67248538
5116.76783375
5116.76919689
5116.72298523
5116.64262805
5116.55356959
5116.47635285
5116.42189829
5116.38903204
5116.37340207
5116.37252065
5116.38642971
5116.41770215
5116.47075093
5116.54678646
5116.63492094
5116.71466632
5116.76056902
5116.75914758
5116.66389701
5116.70422827
5116.77345626
5116.76731535
5116.72663964
5116.66428386
5116.59929427
5116.54621809
5116.51239994
5116.49408814
5116.48600959
5116.48515332
5116.49155915
5116.5083153
5116.54075247
5116.59266777
5116.65675096
5116.71849855
5116.75884343
5116.76487979
5116.69569444
5116.68608496
5116.7038073
5116.67157034
5116.61639803
5116.54997213
5116.4853592
5116.43634029
5116.40568507
5116.38904028
5116.38177903
5116.38095779
5116.38661459
5116.40176431
5116.43108361
5116.47896427
5116.54271871
5116.60852605
5116.66332502
5116.69538664
5116.67761918
4627.00697105
4627.00083324
4626.95000394
4626.88120086
4626.81078739
4626.75014253
4626.70756115
4626.68502546
4626.67560855
4626.672691
4626.67263373
4626.67544287
4626.68476236
4626.70723151
4626.74979066
4626.81044612
4626.88087725
4626.94967468
4627.00044023
4627.00648548
4627.0008023
4627.04064274
4627.00887701
4626.95449486
4626.90089254
4626.8570497
4626.82823879
4626.81629545
4626.81373944
4626.81389569
4626.81383895
4626.81357673
4626.81603259
4626.82789848
4626.85667534
4626.90052394
4626.95415187
4627.00853863
4627.04023373
4627.00027212
4626.94983157
4627.00880424
4626.97262166
4626.90814266
4626.84385774
4626.7895914
4626.75109724
4626.72964072
4626.7192752
4626.71471174
4626.71464612
4626.71908725
4626.72933289
4626.75068849
4626.78911874
4626.84336542
4626.90766087
4626.97213244
4627.00823345
4626.94911689
4626.88090867
4626.95437977
4626.90811392
4626.82349196
4626.7382623
4626.66587981
4626.61370143
4626.58104197
4626.56173691
4626.550942
4626.55086682
4626.56149079
4626.5806356
4626.61314639
4626.66521339
4626.73749205
4626.82270437
4626.907307
4626.95349127
4626.87987633
4626.81044106
4626.90078111
4626.84383014
4626.73824582
4626.63560105
4626.55430421
4626.50301053
4626.47461922
4626.46007987
4626.45248879
4626.45237912
4626.45975144
4626.47405097
4626.50221687
4626.55344232
4626.63434007
4626.73697657
4626.84254847
4626.89943778
4626.80896428
4626.74982167
4626.85695975
4626.7895603
4626.66584614
4626.55474041
4626.48081371
4626.44414459
4626.43537725
4626.43697227
4626.43746358
4626.43727196
4626.43642391
4626.43447971
4626.44290259
4626.47922179
4626.55227427
4626.66392139
4626.78768724
4626.85504986
4626.74780544
4626.70735458
4626.82822412
4626.75103671
4626.6134089
4626.50257349
4626.4437361
4626.43224398
4626.45297887
4626.47722437
4626.48896091
4626.48864854
4626.47635342
4626.45161368
4626.4304622
4626.44160845
4626.50014743
4626.61094175
4626.74853784
4626.82569418
4626.70473218
4626.68503366
4626.81643133
4626.7296196
4626.58056932
4626.47366012
4626.43443411
4626.45251353
4626.50178936
4626.54116635
4626.56039181
4626.55995769
4626.53998948
4626.49996021
4626.45008951
4626.43162557
4626.47062136
4626.57743214
4626.72643867
4626.81323192
4626.68176925
4626.67597364
4626.81419334
4626.71952129
4626.56140622
4626.45901312
4626.43590722
4626.47685846
4626.54141232
4626.59600686
4626.62295768
4626.62243039
4626.59445204
4626.53892376
4626.4735936
4626.43220341
4626.45512965
4626.55753661
4626.71559997
4626.81027801
4626.67203669
4626.67358365
4626.81488204
4626.71548215
4626.55092161
4626.45181993
4626.43675454
4626.48894087
4626.5610925
4626.62358277
4626.65432677
4626.65361516
4626.62150885
4626.55783817
4626.48475051
4626.43206496
4626.44703043
4626.54658265
4626.71081395
4626.81021604
4626.66894536
4626.67419855
4626.81551139
4626.71612512
4626.55158811
4626.45250942
4626.43736914
4626.48938453
4626.56132226
4626.62365287
4626.65421726
4626.65331817
4626.62105897
4626.55734061
4626.48431377
4626.4317115
4626.44673025
4626.54623736
4626.71059913
4626.81006003
4626.66884255
4626.67778586
4626.81603019
4626.721383
4626.56327754
4626.46090791
4626.43755123
4626.47798955
4626.54191812
4626.59592047
4626.62230182
4626.62131484
4626.59305833
4626.53747727
4626.47225285
4626.43108165
4626.45422427
4626.55677152
4626.71497666
4626.80979625
4626.67171499
4626.68792454
4626.81931605
4626.73250017
4626.58340984
4626.47632154
4626.43658433
4626.45384339
4626.50215088
4626.54048086
4626.55875377
4626.55773235
4626.53752538
4626.49751917
4626.44776172
4626.42961806
4626.46900342
4626.57611894
4626.7253385
4626.81236582
4626.68117681
4626.71117812
4626.83196994
4626.75468237
4626.61682547
4626.50549046
4626.44587474
4626.43326277
4626.45264026
4626.47558161
4626.48617582
4626.48513721
4626.47256228
4626.44787599
4626.42708752
4626.43869892
4626.49777677
4626.60898037
4626.74690308
4626.8243946
4626.70382005
4626.75443347
4626.86141155
4626.79379484
4626.66959396
4626.55735395
4626.48275037
4626.44475482
4626.43443352
4626.4345876
4626.433877
4626.43285687
4626.43160171
4626.42969559
4626.43858091
4626.47546683
4626.54927095
4626.66132327
4626.78551184
4626.85330663
4626.74655053
4626.81563815
4626.90576516
4626.84851808
4626.74231595
4626.63867269
4626.5562723
4626.5033665
4626.47331349
4626.45727785
4626.44846829
4626.44747071
4626.4543467
4626.46863823
4626.49722069
4626.54895341
4626.63054988
4626.73377197
4626.83986428
4626.89726016
4626.80735957
4626.88646535
4626.95969797
4626.91306062
4626.82768798
4626.741317
4626.66752497
4626.6137363
4626.57944905
4626.55867069
4626.54660699
4626.54563171
4626.55580894
4626.57486252
4626.60766532
4626.66024735
4626.73316126
4626.81902115
4626.90422432
4626.95097795
4626.87795971
4626.95550173
4627.01422634
4626.97759105
4626.91224009
4626.84669564
4626.79090644
4626.75076227
4626.72767097
4626.7158431
4626.71009495
4626.70915338
4626.71306731
4626.72320825
4626.74482581
4626.7837624
4626.83864768
4626.90364655
4626.96878787
4627.00549232
4626.94694895
4627.00637065
4627.04592689
4627.01361014
4626.9582574
4626.90332055
4626.85790402
4626.82742945
4626.81385298
4626.8098359
4626.80881555
4626.80791912
4626.80718883
4626.80958654
4626.82174255
4626.85104867
4626.89557814
4626.94996594
4627.00506915
4627.03738309
4626.99793021
4627.01235709
4627.00589081
4626.95444773
4626.88463282
4626.81286461
4626.75065561
4626.70642867
4626.68230274
4626.67147482
4626.66742891
4626.66659355
4626.66900543
4626.67831485
4626.70109234
4626.74419902
4626.80555812
4626.87674827
4626.94624824
4626.99757618
4627.00402887
4137.3721889
4137.35751234
4137.29709509
4137.22159653
4137.15203755
4137.09896695
4137.06771664
4137.05718624
4137.05771277
4137.06028206
4137.06021892
4137.05752998
4137.05689079
4137.06733226
4137.09853959
4137.15160956
4137.22117465
4137.29664599
4137.35695542
4137.37149729
4137.35744149
4137.40795324
4137.37875473
4137.3264627
4137.28749434
4137.26586184
4137.26187292
4137.27182898
4137.28519572
4137.29355345
4137.29350671
4137.28506362
4137.27160372
4137.26156204
4137.26549955
4137.28712464
4137.32609579
4137.37835224
4137.40742782
4137.3567473
4137.29680471
4137.37863508
4137.34505229
4137.27328567
4137.21633396
4137.18152301
4137.16726922
4137.16821198
4137.17534017
4137.18034997
4137.18030337
4137.1752315
4137.16800559
4137.16694918
4137.18113116
4137.21594052
4137.27289015
4137.34460428
4137.37802003
4137.29598145
4137.22106726
4137.32620601
4137.27319346
4137.16387508
4137.07163786
4137.0091957
4136.97487645
4136.96220499
4136.96370308
4136.96697569
4136.96691032
4136.96358805
4136.9619341
4136.97440026
4137.00856909
4137.0710353
4137.16325497
4137.27249767
4137.32533032
4137.21996602
4137.15131211
4137.28710747
4137.21610376
4137.07144449
4136.94661441
4136.86043459
4136.61179167
4136.23706211
4136.08142101
4136.08506169
4136.08504447
4136.0813318
4136.2368122
4136.61123641
4136.8593192
4136.94568688
4137.07041598
4137.21497407
4137.28581101
4137.14979739
4137.09810333
4137.2653041
4137.18107503
4137.00865896
4136.85967095
4136.19535444
4134.46817048
4132.77894997
4132.22660405
4132.23769812
4132.23768672
4132.22661716
4132.77923513
4134.46844119
4136.19471175
4136.8588561
4137.00712157
4137.17937455
4137.26345847
4137.09607063
4137.06681717
4137.2611694
4137.16659234
4136.97405158
4136.61122885
4134.46725893
4130.27179594
4126.99115975
4126.0441034
4126.0689863
4126.06880467
4126.04364114
4126.99117362
4130.27256206
4134.46715742
4136.60941032
4136.97174958
4137.16421887
4137.25870026
4137.06420713
4137.05639415
4137.27109567
4137.1673381
4136.96086245
4136.23602266
4132.77661429
4126.98939043
4122.87698997
4121.73909955
4121.78198529
4121.78150405
4121.73775785
4122.87605752
4126.98967343
4132.77661231
4136.23377717
4136.95782286
4137.16423322
4137.26793604
4137.05316996
4137.05726251
4137.28473525
4137.17464229
4136.96252397
4136.08009637
4132.22402033
4126.04281988
4121.74005245
4120.57226983
4120.6305337
4120.62977782
4120.57011865
4121.7381272
4126.04219603
4132.2232489
4136.07701331
4136.95856902
4137.17070195
4137.28081536
4137.05338863
4137.06045726
4137.29373505
4137.18030855
4136.96670727
4136.08383976
4132.23595242
4126.07008043
4121.78663077
4120.63464281
4120.70029193
4120.69936359
4120.63196338
4121.78400489
4126.06867994
4132.23431336
4136.07973016
4136.96150626
4137.1754472
4137.28900901
4137.05590352
4137.06123782
4137.29457186
4137.18112813
4136.9674445
4136.08468221
4132.23752464
4126.0728563
4121.79014799
4120.63810563
4120.70350384
4120.7024027
4120.63495944
4121.7869012
4126.07083202
4132.2351451
4136.07963588
4136.96140827
4137.17538713
4137.28903399
4137.05598902
4137.05954322
4137.28715249
4137.17703717
4136.96478772
4136.08240148
4132.2285709
4126.05110235
4121.75070858
4120.58310123
4120.64075497
4120.63953098
4120.57963189
4121.74707204
4126.04875864
4132.2257467
4136.07661298
4136.95800234
4137.1704733
4137.28084212
4137.0536058
4137.05997387
4137.27482644
4137.17100314
4136.96435483
4136.2390177
4132.78228589
4127.0002197
4122.89106667
4121.75334521
4121.79520162
4121.7939087
4121.7496108
4122.88701063
4126.99740791
4132.77881038
4136.23244434
4136.9568406
4137.16370515
4137.26781703
4137.05338925
4137.07144234
4137.26588068
4137.17111694
4136.97802161
4136.6144043
4134.47104524
4130.27956148
4127.00162733
4126.05430396
4126.07761755
4126.07629685
4126.05042801
4126.99709973
4130.27577137
4134.46615103
4136.60702876
4136.97012623
4137.1632424
4137.25828029
4137.06427561
4137.10354247
4137.27074099
4137.1862744
4137.01318798
4136.86336975
4136.19768141
4134.47057289
4132.78181789
4132.22858955
4132.23800956
4132.2367587
4132.22490344
4132.77700703
4134.46543974
4136.19110013
4136.85565989
4137.00485251
4137.17790179
4137.26264928
4137.09587115
4137.15730155
4137.29301419
4137.22172425
4137.07628795
4136.95018043
4136.86229266
4136.61243763
4136.23629915
4136.07947362
4136.08177608
4136.08067589
4136.07625552
4136.23156619
4136.60645119
4136.85494957
4136.94191758
4137.06752461
4137.21296097
4137.28455337
4137.14924404
4137.22730556
4137.33229404
4137.27895079
4137.16877526
4137.07511874
4137.01090858
4136.97481345
4136.96034714
4136.96022717
4136.96240516
4136.96137552
4136.95719426
4136.9555286
4136.96852821
4137.00340393
4137.0666732
4137.15988535
4137.2700315
4137.32365896
4137.21903969
4137.3029851
4137.38460925
4137.35061389
4137.27789547
4137.21946195
4137.18282147
4137.16660766
4137.16564669
4137.17109975
4137.17484671
4137.17387958
4137.16822347
4137.16103002
4137.16048129
4137.17546554
4137.21119629
4137.26915641
4137.34179381
4137.37602104
4137.29470995
4137.36332139
4137.41356329
4137.38379524
4137.33042748
4137.28991714
4137.26643014
4137.26047857
4137.26854824
4137.28027085
4137.28735883
4137.28644421
4137.27756593
4137.26419541
4137.25468507
4137.259471
4137.28209606
4137.32212518
4137.375351
4137.40524771
4137.35520966
4137.37773772
4137.36275123
4137.30167033
4137.2250245
4137.15389973
4137.09900659
4137.06587077
4137.05355419
4137.05253432
4137.0539181
4137.05309162
4137.05008833
4137.04960363
4137.06059421
4137.09264071
4137.14670671
4137.21730961
4137.29371081
4137.3547564
4137.36978305
3647.74165109
3647.71886758
3647.65500422
3647.58241623
3647.52389256
3647.48840151
3647.47865154
3647.48900121
3647.50597433
3647.51737723
3647.51729723
3647.5057416
3647.48861437
3647.47812326
3647.48777735
3647.52322639
3647.58171913
3647.65423858
3647.71793316
3647.74054007
3647.71870694
3647.78277689
3647.76612607
3647.73205154
3647.72162951
3647.73294763
3647.76243486
3647.800601
3647.8334703
3647.85132871
3647.85127562
3647.83332355
3647.80033688
3647.76204136
3647.73246106
3647.72110477
3647.73149692
3647.76547751
3647.78193965
3647.71764964
3647.65445216
3647.76584703
3647.74414625
3647.67545093
3647.62500799
3647.60216105
3647.6033501
3647.6195001
3647.63913676
3647.65106074
3647.65099517
3647.63901566
3647.61925947
3647.60292548
3647.60161386
3647.62448547
3647.67492109
3647.74355085
3647.76501593
3647.65334749
3647.58138009
3647.73138631
3647.6751694
3647.54329807
3647.42524743
3646.98451693
3645.81145723
3644.66791432
3644.31484993
3644.32352417
3644.32348555
3644.31498566
3644.66816701
3645.81149851
3646.98387991
3647.42441143
3647.54254559
3647.67437689
3647.73037764
3647.5800696
3647.52234369
3647.72055835
3647.62429464
3647.4247508
3646.40721983
3642.98298895
3637.5506021
3633.34388728
3632.06910979
3632.07912612
3632.07933528
3632.06980675
3633.34549964
3637.55295473
3642.98434237
3646.40679444
3647.42354346
3647.62310332
3647.71918803
3647.52068273
3647.48640134
3647.73137752
3647.60092826
3646.98367737
3642.98300639
3633.24230514
3621.08633859
3612.75867098
3610.37546635
3610.39017057
3610.39019201
3610.37597263
3612.76018859
3621.08930394
3633.24604609
3642.98469125
3646.98229751
3647.59916749
3647.72951469
3647.48428835
3647.47634012
3647.7603478
3647.6016277
3645.81054018
3637.55068134
3621.08872327
3602.55768332
3590.58993493
3587.29389288
3587.32069146
3587.32043184
3587.29348019
3590.58978754
3602.55927548
3621.09256408
3637.55418788
3645.80962347
3647.5992574
3647.75792495
3647.4737308
3647.48662215
3647.79818133
3647.61728036
3644.66625029
3633.34593084
3612.76763128
3590.59240713
3576.73116308
3572.96939473
3573.03153981
3573.03095604
3572.96753929
3576.72859988
3590.59253723
3612.77090661
3633.34961685
3644.66559455
3647.61429068
3647.79512503
3647.48348291
3647.50392669
3647.83125884
3647.63683594
3644.3124567
3632.07293905
3610.39205096
3587.30702973
3572.97858409
3569.16377221
3569.2711967
3569.26939385
3569.15933632
3572.97509131
3587.30581128
3610.3937469
3632.07629976
3644.3116401
3647.6331314
3647.82747598
3647.50021735
3647.51611967
3647.84995462
3647.64941687
3644.32211835
3632.08469745
3610.4122111
3587.34796001
3573.05951217
3569.28881513
3569.40949843
3569.40842432
3569.28459846
3573.05515772
3587.34538071
3610.41282897
3632.08798132
3644.32103542
3647.64497025
3647.84541102
3647.5118175
3647.5171647
3647.85106377
3647.65036971
3644.32329927
3632.08840029
3610.42064691
3587.36162484
3573.0759374
3569.30364867
3569.42443663
3569.42287241
3569.2998162
3573.07133038
3587.35819404
3610.42072129
3632.09167136
3644.32183773
3647.64514091
3647.84574617
3647.51224477
3647.50695315
3647.83446561
3647.63964506
3644.31602334
3632.08368024
3610.41719853
3587.34810004
3573.02951593
3569.21467987
3569.32180894
3569.31982768
3569.21015055
3573.02436447
3587.34490779
3610.41741676
3632.08728146
3644.31413692
3647.63364793
3647.82840262
3647.50141899
3647.49129751
3647.80307194
3647.62154206
3644.67082492
3633.36100925
3612.8061516
3590.6560705
3576.80743537
3573.04942932
3573.11150348
3573.10984478
3573.04465111
3576.8017322
3590.65310812
3612.80659512
3633.36423335
3644.66807031
3647.61483122
3647.79635937
3647.48519299
3647.48222689
3647.76636518
3647.60682952
3645.81492401
3637.56338819
3621.1263479
3602.62433289
3590.67094324
3587.37746557
3587.4030082
3587.40152018
3587.37264446
3590.66523108
3602.62156145
3621.12657804
3637.56446856
3645.80984675
3647.59955082
3647.75914256
3647.47561649
3647.49310717
3647.7381215
3647.60693311
3646.98811877
3642.98972615
3633.26431293
3621.13078644
3612.81741923
3610.43678936
3610.44854074
3610.44703173
3610.4320944
3612.81209073
3621.12811371
3633.26349002
3642.98699297
3646.9808355
3647.59910472
3647.73048985
3647.48604974
3647.52950082
3647.72765928
3647.63077364
3647.42969137
3646.41075661
3642.98954663
3637.56558246
3633.36692421
3632.09303837
3632.10044016
3632.09900087
3632.08876305
3633.36187971
3637.56178993
3642.9854777
3646.40398117
3647.42131863
3647.62245768
3647.7197091
3647.52209209
3647.58857908
3647.73844524
3647.68165822
3647.54847038
3647.42836677
3646.98580023
3645.81270928
3644.66948241
3644.31507832
3644.32266065
3644.32152348
3644.31163817
3644.66482856
3645.807687
3646.97920148
3647.420168
3647.53987036
3647.67319209
3647.73036228
3647.58098785
3647.66134025
3647.77248411
3647.75023164
3647.68028425
3647.62795081
3647.60280348
3647.60168395
3647.61568683
3647.63347203
3647.64414896
3647.64326583
3647.63077729
3647.61134737
3647.59588277
3647.5957775
3647.61997987
3647.67191676
3647.74189711
3647.76449119
3647.65375811
3647.72502214
3647.78874941
3647.77139716
3647.73599646
3647.72367985
3647.73272565
3647.75981285
3647.79573948
3647.82674956
3647.8432843
3647.84240043
3647.82413178
3647.79155059
3647.75424403
3647.72605514
3647.71621642
3647.7281391
3647.76349116
3647.78107283
3647.717624
3647.74742985
3647.72430486
3647.65961531
3647.58559786
3647.52515983
3647.48745925
3647.47547925
3647.48377663
3647.49904038
3647.50921837
3647.5084493
3647.49676319
3647.48010911
3647.47058347
3647.48155189
3647.51848678
3647.57846512
3647.65229614
3647.71700281
3647.74020506
3158.11736908
3158.08770225
3158.03718187
3157.98825908
3157.96209694
3157.96373483
3157.99246117
3158.03754605
3158.08029544
3158.10503341
3158.1048962
3158.07989515
3158.03687748
3157.99154532
3157.96263438
3157.96088956
3157.98698688
3158.03579316
3158.0860971
3158.11555118
3158.08738091
3158.15153664
3158.14931715
3158.14318393
3158.16695913
3158.21553997
3158.27972916
3158.34469405
3158.39433078
3158.41939015
3158.41929098
3158.39406553
3158.34420919
3158.27899277
3158.21459821
3158.16591247
3158.14206942
3158.14810443
3158.15008506
3158.0856667
3158.03614739
3158.14875041
3158.12392682
3158.05842194
3158.01607071
3157.6473706
3156.53617131
3155.43672886
3155.11014445
3155.13019683
3155.13019038
3155.11037236
3155.43709874
3156.5360947
3157.64648914
3158.01500615
3158.05741854
3158.12287158
3158.14740845
3158.0344664
3157.98624871
3158.1418414
3158.05772145
3157.86573283
3156.21814866
3151.26841666
3144.00270429
3138.54226697
3136.95042402
3136.96714235
3136.96720326
3136.95087188
3138.54349853
3144.00444935
3151.26948942
3156.21800626
3157.86444848
3158.05650282
3158.14038371
3157.98446164
3157.95907976
3158.16471026
3158.01447174
3156.21711668
3147.99060684
3131.50994089
3112.87954833
3100.78369275
3097.43104689
3097.46127975
3097.46059042
3097.43025751
3100.78312616
3112.87959925
3131.51235728
3147.99353762
3156.21703858
3158.01285735
3158.16297744
3157.95704621
3157.95983945
3158.21231335
3157.64492101
3151.26680281
3131.5143692
3100.66921005
3070.62983456
3052.62402363
3047.77857467
3047.8227284
3047.82215347
3047.77723456
3052.62266772
3070.62959434
3100.67090082
3131.51766245
3151.26875986
3157.64323778
3158.21021125
3157.9574827
3157.98792891
3158.27554604
3156.53312049
3144.00444956
3112.90354037
3070.65038224
3032.50381107
3010.37833624
3004.51659602
3004.58697721
3004.58629782
3004.5145847
3010.37617174
3032.50289787
3070.65095821
3112.90503493
3144.00772031
3156.53219014
3158.2730719
3157.98524118
3158.03280194
3158.3398762
3155.43266387
3138.54981899
3100.8239651
3052.66789942
3010.40873043
2986.22615717
2979.8809191
2979.97360529
2979.97262744
2979.87807472
2986.22293919
3010.40656224
3052.66760667
3100.82559175
3138.55355551
3155.43226824
3158.33697518
3158.02977785
3158.07596932
3158.38971011
3155.10584685
3136.96221182
3097.48445752
3047.84675314
3004.5816292
2979.92129381
2973.48047334
2973.5864495
2973.58532211
2973.47708398
2979.91719175
3004.5790626
3047.8468109
3097.48748624
3136.9664714
3155.10534323
3158.38628166
3158.07258841
3158.10178372
3158.41589448
3155.12710535
3136.98204594
3097.5243966
3047.91532719
3004.68786505
2980.05511815
2973.62949741
2973.74248038
2973.74106364
2973.62548657
2980.05052157
3004.68546886
3047.9164198
3097.52974311
3136.98749788
3155.12664369
3158.41193847
3158.09802794
3158.10317448
3158.41732078
3155.12855261
3136.98680198
3097.53677599
3047.93963467
3004.72240267
2980.09527868
2973.67128225
2973.78407798
2973.78242291
2973.66652206
2980.09004261
3004.72003622
3047.94160201
3097.5437108
3136.99321824
3155.12801404
3158.412794
3158.09900047
3158.07998234
3158.39388068
3155.11052927
3136.97654227
3097.52252109
3047.92041094
3004.68563391
2980.04170872
2973.60488761
2973.71007597
2973.70826161
2973.59959247
2980.03564897
3004.68262929
3047.92280223
3097.53072778
3136.98371364
3155.10948327
3158.3887285
3158.07535637
3158.03894259
3158.34619109
3155.43934669
3138.57055139
3100.88374953
3052.78311831
3010.57184703
2986.41652201
2980.07772415
2980.16899659
2980.16699418
2980.07202236
2986.40984927
3010.56816975
3052.78536872
3100.89199453
3138.57725773
3155.4371955
3158.34048536
3158.03385374
3157.99552597
3158.28318086
3156.53987582
3144.02256392
3112.96678181
3070.78058264
3032.69368735
3010.60261468
3004.74951937
3004.81887224
3004.81689819
3004.74387533
3010.59616668
3032.69072601
3070.78367147
3112.97536091
3144.02734582
3156.53555382
3158.27704577
3157.99000641
3157.96822957
3158.22061036
3157.6519599
3151.27856411
3131.55975761
3100.77562311
3070.79814148
3052.82741033
3047.99068861
3048.03417518
3048.03247024
3047.98544814
3052.82169767
3070.79618176
3100.77828153
3131.56380659
3151.27844609
3157.6457345
3158.21413306
3157.96231422
3157.96774155
3158.17315857
3158.02175401
3156.22350476
3148.00871564
3131.56482404
3112.98481541
3100.91702413
3097.57097333
3097.60013357
3097.59881022
3097.56622286
3100.91191607
3112.98286591
3131.56490889
3148.00684737
3156.21718039
3158.01452007
3158.16637755
3157.96149484
3157.99465344
3158.1498914
3158.06481154
3157.87081479
3156.22208653
3151.27923758
3144.02969737
3138.58415587
3136.99557605
3137.01026155
3137.00910927
3136.99184216
3138.57982684
3144.02622815
3151.27556245
3156.21604848
3157.86304036
3158.05744797
3158.14298977
3157.98823636
3158.0438204
3158.15597491
3158.1302521
3158.06300976
3158.01815093
3157.64703312
3156.53496674
3155.43566888
3155.10787799
3155.12665188
3155.12596451
3155.10540026
3155.43238782
3156.53115565
3157.64154033
3158.01108816
3158.05567307
3158.12303477
3158.14915401
3158.03742451
3158.0941317
3158.15773739
3158.15447844
3158.14659028
3158.1679902
3158.21378812
3158.27516028
3158.33759174
3158.38526424
3158.40907876
3158.40833936
3158.3830361
3158.33405792
3158.27039869
3158.20801972
3158.16149632
3158.13977103
3158.14767516
3158.15122552
3158.0879252
3158.12333858
3158.09321118
3158.04151906
3157.99068435
3157.96202724
3157.96093144
3157.98705793
3158.02983285
3158.07078519
3158.09435527
3158.09371023
3158.06887631
3158.02677119
3157.98295133
3157.95594104
3157.95636903
3157.98462974
3158.03533053
3158.0870765
3158.11730383
2668.52100425
2668.49286749
2668.47799967
2668.46996981
2668.49189693
2668.54638878
2668.62742982
2668.71761072
2668.79138337
2668.83105982
2668.8308052
2668.79064503
2668.71639063
2668.62577652
2668.54440425
2668.48971953
2668.46769254
2668.47558968
2668.49021111
2668.51809005
2668.49231514
2668.51930134
2668.53028991
2668.55101161
2668.61220019
2668.69999178
2668.59711546
2668.32640013
2668.22780023
2668.25556629
2668.2553828
2668.22731886
2668.32553942
2668.59574822
2668.69815463
2668.61020958
2668.54895328
2668.52813132
2668.51686728
2668.48953167
2668.47628532
2668.52909973
2668.48754707
2668.41428521
2667.55576125
2664.2900449
2658.96599413
2654.81664557
2653.57893645
2653.60827314
2653.60829665
2653.57958861
2654.81768163
2658.96692408
2664.28988464
2667.55443412
2668.41235831
2668.48563203
2668.52689366
2668.47359098
2668.46640009
2668.54834006
2668.41286417
2666.66931099
2658.53251177
2642.13486261
2623.61228498
2611.61600942
2608.29594102
2608.32750745
2608.32721945
2608.29512301
2611.6155051
2623.61155718
2642.13489617
2658.53387298
2666.66867062
2668.4108039
2668.54607712
2668.4637517
2668.48654101
2668.60790391
2667.55301302
2658.53154375
2633.56465387
2597.2992691
2563.28057774
2543.15950175
2537.8060269
2537.89472822
2537.8931823
2537.80132329
2543.15294114
2563.27492757
2597.29786226
2633.56682722