/*--------------------------------*- C++ -*----------------------------------*\
| =========                 |                                                 |
| \\      /  F ield         | OpenFOAM: The Open Source CFD Toolbox           |
|  \\    /   O peration     | Version:  3.0.1                                 |
|   \\  /    A nd           | Web:      www.OpenFOAM.org                      |
|    \\/     M anipulation  |                                                 |
\*---------------------------------------------------------------------------*/
FoamFile
{
    version     2.0;
    format      ascii;
    class       volScalarField;
    location    "9.7";
    object      k_0;
}
// * * * * * * * * * * * * * * * * * * * * * * * * * * * * * * * * * * * * * //

dimensions      [0 2 -2 0 0 0 0];

internalField   nonuniform List<scalar> 
7968
(
0.000168440643048
0.000201942602153
0.000230236873233
0.000248542801675
0.000258929209043
0.000264397797021
0.000266361289607
0.000266300563342
0.000265564628613
0.0002643221863
0.000263193076549
0.000262624051718
0.00026215846808
0.000261094010829
0.00025837117354
0.000252604196199
0.000242251399306
0.000225383819118
0.00019949260837
0.000167957134974
0.0002016699798
0.00033470910942
0.00042980580404
0.000492314075321
0.000531938908444
0.000554023335405
0.000563864804751
0.000565454017911
0.000562433383512
0.0005576573997
0.000552895802118
0.000548600716481
0.000543732516865
0.000536084991898
0.000522663460727
0.000500093502841
0.000463900650685
0.000408121114869
0.000322249173643
0.000200142631529
0.000229482347066
0.000430071952024
0.00056997191694
0.000662426707595
0.000721896329407
0.000756599282655
0.000773130193729
0.00077705114327
0.000773422107517
0.000766244711451
0.000758025999941
0.000749441188339
0.000739394287059
0.000725208508691
0.000702870587939
0.000667613985071
0.000613391902605
0.000531892404249
0.00040744990051
0.000226718862039
0.000247888858226
0.000493156017934
0.000663236320657
0.000776081393181
0.000849053034563
0.000891790393846
0.000912048036245
0.000916580570103
0.000911556445746
0.000902427709557
0.000890648635058
0.000877745154249
0.000863741203775
0.000845178050141
0.000817211610656
0.000774047680216
0.000708408234745
0.000610411044963
0.000461426008929
0.000243618038087
0.000259181689962
0.000533752224834
0.000724571975618
0.000851217738
0.000932622311994
0.000979668021135
0.00100313755321
0.00101018034607
0.00100456524575
0.000992176494818
0.000977064122538
0.000960727894245
0.000942253159763
0.000918157851603
0.000885107010048
0.00083774266981
0.000765769747468
0.000657850977192
0.000493931989479
0.000252916597726
0.00026525783335
0.000557769459502
0.00076218104365
0.00089749926585
0.00098352494209
0.00103527432463
0.00106123817037
0.0010654032785
0.00105562218594
0.00103915935716
0.00102098364695
0.00100285828316
0.000983656083819
0.000959149409649
0.000923361259904
0.000870282596221
0.000795439981853
0.000682601189044
0.00051077020316
0.000257044796103
0.000267803180498
0.000570065718598
0.000782471363713
0.000922481057492
0.0010109678867
0.00106640791756
0.00108964213586
0.00108907813649
0.00107430574773
0.00105371406389
0.00103295177347
0.00101397892306
0.000995479604197
0.000972599579821
0.000938327609751
0.000884927895025
0.000806026335023
0.000691624114451
0.000516585157373
0.000258700610115
0.000268038270058
0.000574426204528
0.000790804831225
0.000932683124358
0.00102438702215
0.00107799653709
0.00109708048295
0.0010914695209
0.00107192113141
0.0010477311221
0.00102505221437
0.00100593485885
0.000988832609554
0.000968375394818
0.000936901691226
0.000885796239175
0.000806176672352
0.0006909979549
0.000515880152353
0.000259183157976
0.000267320887656
0.000574370467272
0.000792013828518
0.000933937929389
0.00102650487436
0.00107748041038
0.00109267876924
0.00108285376092
0.00105960373245
0.00103282371692
0.00100897412323
0.000990128596672
0.000974489202407
0.000956328855892
0.000927587948079
0.000879239565673
0.000801716097365
0.000685953108446
0.000512224460151
0.000258604283354
0.000266495691401
0.000572636032627
0.000789836786041
0.0009307505042
0.00102256754834
0.00107129139518
0.00108382289776
0.00107140951512
0.00104607865559
0.00101795758143
0.000993618488257
0.00097515003882
0.000960604615085
0.000944001858129
0.000917148507862
0.000870897635091
0.000795434752627
0.000680232701367
0.000508308890328
0.000257612384719
0.000266108552684
0.000570817111844
0.000786364346191
0.000925672618447
0.00101576852401
0.00106320502501
0.00107477290812
0.00106176311304
0.00103620009931
0.00100811767132
0.000983947934231
0.000965734065917
0.000951561941614
0.000935462174316
0.000909313207598
0.000864065901794
0.000789925195214
0.000675936250191
0.000505631322705
0.00025676270199
0.000266546696262
0.000569105567245
0.000781938073586
0.000919226845598
0.00100683556277
0.00105404395783
0.001066384278
0.00105473465038
0.00103069834537
0.00100394410313
0.000980597327731
0.000962541500182
0.000947916928581
0.000931187592423
0.000904531224286
0.00085916763489
0.000785552469736
0.00067327805886
0.000504530294647
0.000256533357515
0.000266997877567
0.000566118049368
0.000774980635766
0.000909646024729
0.000993704415098
0.00104131377482
0.00105573396021
0.0010469868892
0.0010258705636
0.00100143789255
0.000979426577021
0.000961579802453
0.000946140219771
0.000928092530958
0.000900138674189
0.000853955614504
0.00078047878104
0.000670651750999
0.000503779939407
0.000256498201588
0.000266453474141
0.000559411916539
0.000762334542369
0.00089325076168
0.000972685857803
0.00101999362067
0.00103702205027
0.0010320722791
0.00101481891758
0.000993462021858
0.000973260372169
0.000955874407775
0.000939661987764
0.000920185687336
0.000890795803205
0.000843839713459
0.000771123992127
0.00066486983171
0.000500843633171
0.000255480362261
0.000263671910481
0.000545810522885
0.000739738770279
0.000865009711468
0.000941488193128
0.000983955177674
0.00100272364355
0.00100160257357
0.00098856609229
0.0009707738563
0.000952899887451
0.000936488221798
0.000920027067655
0.000899674873184
0.000869545847268
0.000822985219428
0.000754197890693
0.000651751538028
0.000492570809115
0.000252653503271
0.000257521820713
0.00052178626051
0.000702245623758
0.00081891823599
0.000890821613545
0.000929148186937
0.000945173057578
0.000946672841947
0.000937501519212
0.000923436366168
0.000908374329706
0.000893657803633
0.000877965141593
0.000858049167045
0.000828959293205
0.000786585595658
0.000723127745573
0.000626051129848
0.000475006903945
0.000247939714889
0.000246413989796
0.000482672080403
0.00064362583532
0.000747628563814
0.000812129021757
0.00084706715
0.000860622693014
0.000860048999028
0.000852377430541
0.00084171569471
0.000829827900174
0.000817696544625
0.000804337732519
0.00078819866045
0.000764382384406
0.000727208783783
0.000669544397455
0.00058139309323
0.000443970132285
0.000238940357318
0.000228434783761
0.000422430444872
0.000555437756307
0.000641148266903
0.000694143035748
0.000722892363729
0.000734277349938
0.000734204129566
0.000727811769395
0.000719086785036
0.000710363804842
0.000702159449761
0.0006932622448
0.000681061113407
0.000661930869962
0.000631250940883
0.000583119840343
0.000509172657584
0.000393566606725
0.000222968349389
0.000201181557143
0.000330790104367
0.000422004383585
0.000480676302421
0.000516660783172
0.00053556417138
0.000542600996779
0.000542113852297
0.000537707584574
0.000532188644909
0.000527124179551
0.000522778038497
0.000518178081867
0.000511271830432
0.00049933620578
0.000479023169264
0.000445916680918
0.000394277165387
0.000313563872212
0.000197835133412
0.000168339800819
0.000201578360659
0.000229403911217
0.000247269067522
0.000257189145533
0.000262095796269
0.000263763710973
0.000263680918551
0.000262950294586
0.000261750970898
0.000260566878817
0.000259616940945
0.000258664662275
0.000257048811358
0.000253974383153
0.000248131410363
0.000238258043278
0.000222105453627
0.000197151203323
0.000167205582548
0.000199589370203
0.000319561360354
0.000411536472774
0.000475080153714
0.000517164319634
0.000542835796085
0.00055618087911
0.000560612367712
0.000559266001452
0.000555255063158
0.000550314717308
0.000544960916866
0.000538327802576
0.000528190637311
0.000511848313779
0.000486436214678
0.000448137977506
0.000391727999106
0.000309193339416
0.000197533312454
0.000319719885051
0.00072494276344
0.000966466508895
0.00113409984571
0.00124784976274
0.00131933694897
0.0013581923137
0.00137313527715
0.00137210270611
0.0013615802333
0.00134586255243
0.00132638830915
0.00130161094536
0.00126767669983
0.00121848557462
0.00114651378195
0.00104261185711
0.000894654587579
0.000681196289292
0.000308851780486
0.000411777580244
0.000966138366316
0.00129424664867
0.00152447198574
0.00168258878794
0.00178285309282
0.00183741772829
0.00185793722526
0.00185540649233
0.00183874067855
0.00181426181508
0.00178427846021
0.00174690062969
0.00169718665854
0.00162687800686
0.00152581446219
0.00138211835916
0.00118056212449
0.000893534894576
0.000391024688912
0.000475809588797
0.00113492549566
0.00152609073628
0.0018015112426
0.00199079230712
0.0021099357565
0.00217304466962
0.00219418499594
0.00218764630846
0.00216341483456
0.00213022792606
0.00209122438426
0.00204409743719
0.00198393926397
0.00190009853929
0.00178014328124
0.00161001704986
0.0013721232464
0.00103457494805
0.000445693442457
0.000518938609226
0.00125139468399
0.00168806889727
0.00199532680681
0.00220497302979
0.00233431100994
0.00239949967284
0.00241516966322
0.00239859435778
0.0023642197978
0.00232228742626
0.00227698215242
0.00222598007809
0.00216166536723
0.00207116684816
0.00194108504243
0.00175557716796
0.00149499843845
0.00112459517337
0.000480217628022
0.000546188072283
0.00132719130291
0.0017945891553
0.002122285854
0.00234305592889
0.00247517290943
0.0025340401753
0.00253881451805
0.00250947356481
0.00246351782744
0.00241312765002
0.00236331185674
0.00231143300152
0.00224836426798
0.00215969469497
0.00202859961037
0.0018365260162
0.00156457454847
0.00117590828324
0.000499825228189
0.000561602552876
0.001371842369
0.00185778657353
0.00219659184629
0.00242158440715
0.00254880786498
0.00259694185095
0.00258763613483
0.00254399398864
0.00248629844157
0.00242846554765
0.00237605780746
0.00232600867247
0.00226787021699
0.00218533857834
0.00205951178196
0.00186977201139
0.00159487358183
0.00119913501034
0.000508706209266
0.000568680323814
0.00139390068433
0.00188903380842
0.00223176687327
0.00245511628446
0.00257444903775
0.002610152608
0.00258640817917
0.00252923353446
0.00246127256308
0.00239772165341
0.00234435116018
0.00229758815129
0.00224591141087
0.0021714791804
0.00205384693232
0.00187137955198
0.00159945849632
0.00120408600589
0.000510245296448
0.000570512860511
0.00140105135417
0.0018988708006
0.0022410170386
0.0024599481965
0.00257089458468
0.00259543941928
0.00255974856308
0.00249209829835
0.00241677724942
0.00234965472735
0.00229640348374
0.00225293140058
0.00220707984311
0.00214006851015
0.00203047598471
0.00185579996295
0.00159078727002
0.00119939489476
0.000508312368114
0.000569615583275
0.00139930281737
0.00189564990363
0.00223487714735
0.00244899877727
0.00255339389691
0.00257036601258
0.00252725184148
0.00245360456008
0.00237439945614
0.00230579985356
0.00225320877226
0.00221212006441
0.00217003265822
0.00210796691722
0.00200417085509
0.00183582288812
0.00157769572014
0.00119150738059
0.00050544079768
0.000567773359536
0.00139217685115
0.00188429408324
0.00221954433164
0.00242995052676
0.00253102067863
0.00254522454552
0.00250010989429
0.00242536043605
0.00234587963475
0.00227760502207
0.00222568930296
0.00218551472744
0.00214461425252
0.00208432098185
0.00198314263554
0.00181843836834
0.00156507696607
0.00118391981949
0.000503054141828
0.000565098381912
0.00138037605602
0.00186589756147
0.00219649136471
0.0024045139425
0.00250567632999
0.002522001071
0.00248024768531
0.00240907844241
0.00233262855399
0.00226619627858
0.00221478735798
0.00217398935143
0.00213177170556
0.00207019683432
0.00196852143474
0.00180470193669
0.00155375623361
0.00117706013483
0.000501339050242
0.000560161749873
0.00136157517513
0.00183742424973
0.00216201164979
0.00236805405606
0.00247179805477
0.00249419164014
0.00246030461875
0.00239677055358
0.00232617711656
0.00226304637341
0.00221225057008
0.00216986308973
0.00212447233274
0.00205935370717
0.00195494164079
0.00179016368719
0.00154026723562
0.0011684576629
0.000499362353034
0.000550814526589
0.00133094613358
0.00179230901171
0.00210787831911
0.0023104329771
0.0024176317706
0.00244823061139
0.0024251083936
0.00237218670327
0.00230988867741
0.00225159293541
0.00220206404347
0.00215789640588
0.00210865745799
0.00203919683782
0.00193147478174
0.00176568456667
0.0015178289658
0.00115316078092
0.000494783488541
0.000534278354447
0.00128184434383
0.00172159894783
0.0020230795935
0.00221882875423
0.00232767252002
0.00236618988934
0.00235456249524
0.00231364346961
0.00226129268486
0.00220941531625
0.0021624610863
0.00211756283031
0.00206546541405
0.00199280812488
0.00188324826677
0.0017182049733
0.00147721661312
0.00112418752365
0.000484664155363
0.000507315135142
0.00120641857168
0.00161498376856
0.00189540472913
0.00207942001697
0.00218484383416
0.00222885658509
0.00222729200669
0.00219812412395
0.00215638076829
0.00211228205552
0.00206973230936
0.00202629297436
0.00197394693572
0.00190117746263
0.00179322751698
0.00163482060079
0.00140682674364
0.00107309017969
0.000465415312236
0.000465964265794
0.00109532979325
0.0014606431151
0.00171111671289
0.00187653243184
0.00197345648495
0.00201691720865
0.00202220352858
0.00200354248911
0.00197214381843
0.00193679750529
0.00190069886507
0.00186167096299
0.00181248015577
0.00174400208275
0.00164497237984
0.00150094428665
0.00129369562494
0.000989865501705
0.000433036751455
0.000404980446612
0.000936395981481
0.00124352021204
0.00145314372357
0.00159149455514
0.00167341700472
0.00171182562515
0.00171921124338
0.0017070419987
0.00168475548378
0.00165867247104
0.00163097665015
0.00159982078601
0.00155976553407
0.00150299631768
0.0014197428681
0.00129792508614
0.00112154662718
0.000861459512256
0.000382208824758
0.000316588596234
0.000708152559239
0.000935891864196
0.00108959458634
0.00118991654872
0.0012490341685
0.00127715084573
0.0012835596952
0.00127654792111
0.00126278374223
0.00124648378121
0.00122897133535
0.00120872735495
0.00118169935869
0.00114203260901
0.00108231447015
0.000993150065701
0.000861739529204
0.000665253699433
0.00030452043606
0.000199102179182
0.000316144461045
0.000404181721921
0.000463660050588
0.000501833308346
0.000523959905907
0.000534331972109
0.000536496294306
0.000533712539708
0.000529043178746
0.000524041899047
0.000519056628441
0.000513283208365
0.000504836491657
0.000491000404895
0.0004688250879
0.000434558122929
0.00038276544497
0.00030480332007
0.000195568265149
0.0002304498746
0.000422455728964
0.000568250617122
0.000670489380825
0.000739791167536
0.000783224709059
0.00080657426336
0.000815189344181
0.000813998137224
0.000807089711366
0.000797161849697
0.000785137780939
0.000770031442492
0.000749350170492
0.0007193443431
0.000675469321341
0.000612311791836
0.000522690000759
0.000395302549948
0.000224246618303
0.000422934348231
0.00100161864241
0.00134986455384
0.00159777116276
0.00177063900121
0.00188229268435
0.00194471243981
0.00196974126602
0.00196867322231
0.00195110922118
0.00192363417266
0.00188883216424
0.00184498571105
0.00178655912103
0.00170539925912
0.00159122617672
0.0014324381904
0.00121453009683
0.000911286627876
0.00039458589574
0.000569016467654
0.00134949030391
0.00181131809157
0.00214237575917
0.00237533512764
0.0025263259826
0.00261004478434
0.0026420051681
0.0026374365635
0.00260989920023
0.00256894066938
0.00251855425639
0.00245668344373
0.00237582229872
0.00226509647746
0.00211085612139
0.00189823634382
0.00160956691869
0.00121084719457
0.000520453852868
0.000672143801558
0.00159926293433
0.00214499175966
0.00253574560436
0.00280984017093
0.00298508505767
0.00307831305691
0.00310873913834
0.00309451593387
0.00305354323369
0.00299855999887
0.00293511811309
0.00286083515903
0.00276591422961
0.00263793265514
0.00245952719311
0.00221297665677
0.00187771849311
0.00141361885194
0.000605203657706
0.000743170938495
0.00177637528964
0.00238407562504
0.00281713397216
0.00311735668976
0.00330390714275
0.00339552316356
0.00341283230865
0.0033805445294
0.00332141060494
0.00325137424484
0.00317761763414
0.00309738474234
0.00299937012004
0.00286632950073
0.00267707706801
0.00241281534889
0.00204990203305
0.00154383032331
0.000658992634246
0.000789212736148
0.00189477272206
0.00254513175108
0.00300518914852
0.0033182665818
0.00350488433753
0.00358282217517
0.00357725563395
0.00351983273971
0.00343890250232
0.00335350142159
0.00327220852277
0.00319149815247
0.00309799305866
0.0029715152113
0.00278672450966
0.0025185914748
0.00214421597816
0.0016164094722
0.000689050311778
0.000816049784839
0.00196646703712
0.0026430139021
0.00311717315012
0.00343303962018
0.00360943998127
0.00366493056069
0.00362993681531
0.00354393471417
0.00344048265098
0.00334118283942
0.00325542119441
0.00317865316116
0.00309529562478
0.00298258235807
0.00281173549045
0.00255296322106
0.00217945910465
0.00164581019154
0.000701787422581
0.000828987425361
0.00200312469316
0.00269286613081
0.00317126148541
0.00348207130716
0.00364279879123
0.00367262849076
0.0036082117711
0.00349553785261
0.00337242013544
0.00326229493433
0.00317466490129
0.00310396955039
0.00303285927423
0.00293604941153
0.00278259324316
0.00253889462461
0.00217598044882
0.00164678695189
0.00070328551592
0.000832831450726
0.00201561168269
0.00270938374824
0.00318600384308
0.00348803058517
0.00363249873476
0.0036401610111
0.00355215507867
0.00341914863283
0.00328182276337
0.00316463193954
0.00307667775414
0.0030115547689
0.00295087164991
0.00286779224315
0.00272979088501
0.0025013430646
0.00215187013992
0.00163282554027
0.000698968703006
0.000831408890863
0.00201268359407
0.00270454447113
0.0031766081748
0.00347012147705
0.00360252682229
0.00359563991272
0.00349318525914
0.00334840144878
0.00320334581545
0.00308274336593
0.00299515618431
0.00293356825747
0.00287917912037
0.00280470663666
0.00267707750785
0.00246005346338
0.00212226568367
0.00161462125261
0.000692907277126
0.000826966189553
0.00199960879386
0.00268558722352
0.00315196928913
0.00344007328906
0.00356708693829
0.0035551523185
0.00344858096851
0.00330103239659
0.003154581571
0.00303369080321
0.00294654718066
0.00288591153949
0.00283307559351
0.00276117796108
0.00263759588422
0.00242641873889
0.00209629288195
0.00159801755999
0.000687396522207
0.000819911171117
0.00197752610195
0.00265413920305
0.00311444230528
0.00340032774847
0.00352889639693
0.00352157698234
0.00342115616047
0.00327953840766
0.00313755506926
0.00301904660864
0.00293215242121
0.00286990055824
0.00281413223462
0.00273910296902
0.00261345709128
0.00240251369766
0.00207567923331
0.00158386136308
0.000682950469765
0.000808673567177
0.00194323708716
0.00260588788273
0.00305865909154
0.0033436013171
0.00347887056443
0.00348450193046
0.00339957326874
0.00327199864429
0.00314006420011
0.00302663741087
0.00294008204295
0.00287419795451
0.00281190282852
0.00272919545804
0.00259663328983
0.00238166611748
0.00205523949911
0.00156858070801
0.000678002266784
0.000790174172893
0.00188996871524
0.00253154049204
0.0029726440986
0.00325504054528
0.00339838347947
0.00342217522832
0.00335965964689
0.00325273219046
0.00313588532018
0.00303057644862
0.00294535929828
0.00287517651598
0.00280471635135
0.00271212210854
0.00257018292748
0.00234991551002
0.00202404306448
0.00154494257171
0.000669342104287
0.000760318420537
0.00180860678351
0.00241886195905
0.00284105197624
0.00311614518991
0.00326486890834
0.00330658585852
0.00326885562438
0.00318603117761
0.00308788415255
0.00299387830653
0.0029123157576
0.00283943481066
0.00276208452673
0.00266058891789
0.00251081507543
0.00228825689956
0.00196704670389
0.00150233892207
0.000652583712539
0.00071434793256
0.0016888124636
0.00225451382938
0.0026479444163
0.0029087351017
0.00305595596198
0.0031104262667
0.00309439071048
0.00303500987538
0.00295686109596
0.00287678759521
0.00280219080374
0.00273037344428
0.00265028126968
0.00254480043321
0.00239362185632
0.00217580651095
0.00186902420085
0.00142879340536
0.000622649649172
0.000646696261642
0.0015191705906
0.00202451760736
0.00237709378812
0.00261356510402
0.00275178464796
0.00280986631511
0.00280896374339
0.00276920844814
0.0027101913111
0.00264564083113
0.00258154636282
0.00251585042406
0.00243940162126
0.00233804548627
0.0021950707916
0.00199386051901
0.00171290320253
0.00131104355061
0.000573617068812
0.000549984474769
0.00128541398549
0.00171215301579
0.00200976435817
0.00221004840335
0.00232932944533
0.0023832890959
0.00238897681753
0.00236328189328
0.00232126496819
0.00227303106793
0.0022226089656
0.00216833720026
0.00210337059024
0.00201646012241
0.00189405669687
0.00172134568629
0.00147957591993
0.00113313715338
0.000497764258781
0.000412513450731
0.000960892875482
0.00128332673917
0.00150618912802
0.00165475956757
0.00174325141527
0.0017844389533
0.00179122967606
0.00177598614623
0.00174911827061
0.00171754219368
0.00168397350455
0.00164690190003
0.00160103157817
0.00153806794086
0.00144784213201
0.00131845792941
0.00113433223313
0.00086730444816
0.00038294859161
0.00022846323255
0.000411545503833
0.000547775061637
0.000640728100036
0.000701174630166
0.000736417064969
0.000752572451886
0.000755343188909
0.000749931621582
0.000740530754774
0.000729779445548
0.000718557311357
0.000705991287162
0.00068960946704
0.000665809381075
0.000630167374932
0.000577165683195
0.000499171665525
0.000383635698149
0.000220395968237
0.000264903262065
0.000535255628716
0.000737056649596
0.00087991534371
0.000978439527166
0.00104129669894
0.00107568794695
0.00108868945665
0.00108705178174
0.00107639550288
0.0010604595668
0.00104064849982
0.0010159101827
0.000982887092836
0.000936689024872
0.000871379975069
0.000780252028447
0.000654738678815
0.000480811812119
0.000249287833785
0.000536282876368
0.00130882252941
0.00177844649762
0.00211966050034
0.0023625717274
0.00252252725226
0.00261366507628
0.00265115717694
0.00265030703122
0.00262445731568
0.0025829095791
0.0025295658973
0.00246243912381
0.002374162561
0.00225353757516
0.002087224715
0.0018614748323
0.00156021857537
0.00115382252994
0.000479429660928
0.000738619337271
0.00177838578528
0.00239618380986
0.00284702324465
0.00317033284224
0.00338331004424
0.00350279425586
0.00354831419123
0.00354083869047
0.00349950616265
0.00343804126983
0.00336257718889
0.0032707186531
0.00315233268
0.00299213364785
0.00277247555498
0.00247527002015
0.00208125403756
0.00155114315752
0.000649510270498
0.000882945366669
0.00212302749444
0.00285161265637
0.00338100650133
0.00375813410746
0.00400212162783
0.00413158141621
0.00416873014047
0.00414137711661
0.0040763868015
0.00399227023032
0.00389780587408
0.00378984010782
0.00365558228682
0.003475919735
0.00322821457672
0.00288926234454
0.00243653687269
0.00182257874233
0.00076429469038
0.000984211993151
0.0023729145202
0.00318490478331
0.00377000729983
0.00418145847927
0.00443868846578
0.00455620990726
0.00456272758472
0.00449856673111
0.00439941776268
0.00428897176487
0.00417866731081
0.00406432566608
0.00392966125749
0.00375128491563
0.00349957474487
0.00314464426177
0.002660467895
0.0019947004938
0.000836069368574
0.00105113430702
0.00254371992609
0.00341416037924
0.00403510600519
0.00446448792577
0.00471228472477
0.00479341926873
0.00474897484895
0.00463356228901
0.00449253577137
0.00435489208984
0.00423384750358
0.00412381682516
0.00400360538548
0.00384358528684
0.00360966522721
0.00326465554003
0.00277329591062
0.00208439847961
0.000873607106851
0.00109093573089
0.00264972547733
0.00355660500516
0.00419696004184
0.00462683459601
0.00484467653068
0.00487226158835
0.00476429626733
0.00459102851674
0.00440724832957
0.00424595591684
0.00412048653462
0.00402335245936
0.00392815471343
0.00379857980704
0.00359492368571
0.00327693066254
0.00279997540244
0.00211072241897
0.000885619072396
0.00111061509289
0.00270582877457
0.00363142605828
0.00427734520391
0.00469348580108
0.00487270068447
0.00484290570043
0.00467235662785
0.00444612942933
0.00422626069515
0.00404753791485
0.0039219774903
0.00384003984218
0.00377150563621
0.00367494216166
0.00350583127005
0.00322054989861
0.00276989569777
0.0020952748177
0.000881235164915
0.00111669645358
0.00272654390277
0.0036582623839
0.00430037177095
0.00469773687009
0.00484183804203
0.00476468516683
0.00454560028254
0.00428039047314
0.00403540295148
0.00384552897739
0.00372075672474
0.0036499435052
0.00360148293689
0.00353123534461
0.00339171984683
0.00313603305274
0.00271220779834
0.00205935324576
0.00086893215643
0.00111439373271
0.00272378754167
0.00365358963358
0.00428815890917
0.0046701796672
0.00479039319719
0.0046836181147
0.00443589404177
0.0041487749307
0.00389024488825
0.00369463016851
0.00357030810505
0.00350494489814
0.00346681476605
0.0034113649431
0.0032902091809
0.00305482900489
0.00265191107793
0.00202012265037
0.000855267580225
0.00110680095
0.00270480387358
0.00362754127756
0.00425480833516
0.00462880729176
0.00473990034435
0.00462385657207
0.00436828613961
0.00407566970228
0.00381389996467
0.0036168149419
0.00349211215464
0.00342699221034
0.00339003023672
0.00333749065964
0.00322178785529
0.00299483305929
0.00260360828566
0.00198695620912
0.000843820327338
0.001094481572
0.00267091227436
0.00358193399353
0.0042027297244
0.00457653824046
0.00469373900185
0.00458898823845
0.00434611207428
0.00406368077945
0.00380803298081
0.00361294866156
0.0034866732611
0.00341692380614
0.0033728488739
0.00331231658001
0.003189859584
0.00295964921607
0.00257050647605
0.00196219521845
0.000835309628715
0.00107541233635
0.00261748952292
0.00351026674152
0.004122800128
0.00450086436823
0.00463719185365
0.00456296461858
0.00435295399226
0.00409668978556
0.00385685486082
0.00366736856975
0.00353828960805
0.00345894699602
0.00339991072991
0.00332184729367
0.00318255531144
0.00293964970589
0.00254498462744
0.0019405693366
0.000827596127373
0.00104549685347
0.00253515086463
0.00339929742795
0.00399640142683
0.00437695725319
0.00453980268771
0.00450989990006
0.00434912193008
0.00413348160527
0.00391958604506
0.0037406887338
0.00360912239144
0.00351652284743
0.00343696106036
0.00333538376049
0.00317386748821
0.00291328820389
0.00251016367638
0.00191038116695
0.00081614328017
0.000999351233068
0.0024118241087
0.00323259371577
0.00380402313183
0.00417741907103
0.00436367163941
0.00438022542527
0.0042747629851
0.00410808910501
0.00392863504658
0.00376707813751
0.00363699632545
0.00353271647482
0.0034330446257
0.00330862366631
0.00312619673122
0.00284950360296
0.00244321545505
0.00185664806061
0.000794690493792
0.000930954907646
0.00223469468555
0.0029935851873
0.00352673615695
0.00388151803457
0.0040759012209
0.00412809875071
0.00407194387634
0.00395343915747
0.00381203049022
0.00367410346261
0.00355259934435
0.00344398912948
0.00333200025707
0.00319292695627
0.00299764127073
0.00271563958505
0.0023196017962
0.00176179284652
0.000756022135236
0.000833717399067
0.00199098584804
0.00266675238102
0.00314525073787
0.00346857731384
0.00365475567816
0.00372388093637
0.00370284805272
0.00362409966413
0.00351841057596
0.00340720008981
0.00330127860636
0.0031985592638
0.00308659018299
0.00294625931263
0.00275338694085
0.00248474882025
0.00211868310885
0.00160888151426
0.0006924320998
0.000699033477592
0.00166590557857
0.00223511737731
0.00263975212256
0.00291548413733
0.00307867401996
0.00314735696219
0.00314401734446
0.00309329892285
0.00301827807503
0.00293435186617
0.00284970758325
0.0027629762608
0.00266427859235
0.00253878253043
0.00236890992139
0.00213586311257
0.00181931268166
0.00138014204604
0.000594666345883
0.000511662782769
0.00122991249694
0.00166016457546
0.00196421308137
0.00216994716177
0.00229219382586
0.00234592806084
0.00234826580585
0.00231697139159
0.00226772321385
0.00221145589949
0.00215331630041
0.00209204819147
0.00202066059698
0.00192818630081
0.00180138124355
0.00162562754667
0.00138385457415
0.00104531118099
0.000448133659818
0.000258832507569
0.000509772758306
0.000694226918312
0.000821072159643
0.000904150621189
0.00095205430935
0.000972373795776
0.000972874958532
0.000961080959085
0.000943223346807
0.00092341545723
0.000903288069191
0.000881935817669
0.000856226773244
0.000821409495063
0.000771554787037
0.000699993095343
0.000597708241693
0.000449483456917
0.000240793291861
0.000312043403104
0.000681081512824
0.000952754860857
0.00114778093672
0.00128534205279
0.00137539164675
0.00142649003546
0.00144768817818
0.00144786177954
0.00143438285027
0.00141218643418
0.00138316396283
0.00134598393795
0.0012962829543
0.00122753740042
0.00113223623178
0.00100243871314
0.000827981543269
0.000592460709174
0.000279726898827
0.000682897529975
0.00170864218147
0.00234012741811
0.00281019001335
0.0031534899563
0.00338597835515
0.0035237091511
0.00358562734608
0.0035919141548
0.00356044615655
0.00350384672733
0.00342755533662
0.00332897707274
0.00319803418271
0.00301957425508
0.00277666504321
0.00245301269394
0.00203174207933
0.00148041446311
0.000589819320101
0.00095518744362
0.00234126208341
0.00317500374035
0.00379818172762
0.00425625032192
0.00456676565124
0.00474759995808
0.00482021743798
0.00481486627148
0.00475941954862
0.00467281433699
0.00456416793301
0.00442987218966
0.0042565071974
0.00402417962135
0.0037073773386
0.00328371557596
0.00273323637255
0.0020126897476
0.000817347836148
0.00115271865278
0.00281769215033
0.00380586541289
0.00454060554512
0.00508028147654
0.00543799303612
0.00562747048657
0.00567694388686
0.00563162419542
0.00553292302474
0.00540777325947
0.00526968534592
0.00511381179584
0.00492203942529
0.00466799176463
0.00432007817306
0.00384546888646
0.00321560410228
0.00238019195217
0.000970830693799
0.00129489510264
0.00317204652263
0.00427908914022
0.00509864898786
0.00569269253328
0.00606074171245
0.00621277890282
0.00619459370346
0.00607449226289
0.00591048769728
0.00573916427205
0.00557768527171
0.00541922236272