/*--------------------------------*- C++ -*----------------------------------*\
| =========                 |                                                 |
| \\      /  F ield         | OpenFOAM: The Open Source CFD Toolbox           |
|  \\    /   O peration     | Version:  3.0.1                                 |
|   \\  /    A nd           | Web:      www.OpenFOAM.org                      |
|    \\/     M anipulation  |                                                 |
\*---------------------------------------------------------------------------*/
FoamFile
{
    version     2.0;
    format      ascii;
    class       surfaceScalarField;
    location    "9.7";
    object      phi;
}
// * * * * * * * * * * * * * * * * * * * * * * * * * * * * * * * * * * * * * //

dimensions      [0 3 -1 0 0 0 0];

internalField   nonuniform List<scalar> 
22672
(
4.93507146316e-07
2.58676809358e-07
-7.52180882181e-07
2.01996612361e-06
-1.16913551844e-07
-1.4095420432e-06
3.81612032233e-06
-2.53600249614e-07
-1.54255052947e-06
5.32966123807e-06
-2.29297211648e-07
-1.28424035649e-06
6.25584372573e-06
-1.22134525028e-08
-9.13965824685e-07
6.47671441064e-06
3.09140604591e-07
-5.30008287862e-07
6.07520155713e-06
6.25048711285e-07
-2.23533157847e-07
5.13414331079e-06
9.17991273478e-07
2.30692692002e-08
3.80113578977e-06
1.13724227303e-06
1.95767061614e-07
2.27144679935e-06
1.25581416885e-06
2.73876134588e-07
7.29020477108e-07
1.26953338397e-06
2.72893820278e-07
-6.57460396473e-07
1.18194378416e-06
2.04537698104e-07
-1.74350950522e-06
1.00573702561e-06
8.03126348034e-08
-2.41561806788e-06
7.63980804999e-07
-9.18715253749e-08
-2.62471208656e-06
5.03951614723e-07
-2.94856543949e-07
-2.33115900153e-06
2.50773499233e-07
-5.44325124381e-07
-1.62043885312e-06
9.09634747295e-08
-8.01681792918e-07
-7.05519229615e-07
7.89677353823e-08
-9.93885238183e-07
1.85764173161e-08
1.72193258118e-07
-8.96286517872e-07
4.14663792645e-07
-3.96085720124e-07
1.84954638712e-07
1.40039291368e-06
-1.32666740782e-06
2.09627831313e-06
1.36297582873e-06
-3.39120948608e-06
4.23654012225e-06
1.43106438203e-06
-3.82492285699e-06
5.86920807486e-06
1.67104981597e-06
-3.5330114755e-06
6.78573702107e-06
2.09883499645e-06
-3.02757404046e-06
6.94264767402e-06
2.64011502988e-06
-2.4878819633e-06
6.4282744529e-06
3.15855849554e-06
-2.01913380102e-06
5.37920891699e-06
3.61170690666e-06
-1.644647801e-06
3.95705644462e-06
3.95122162911e-06
-1.39182512554e-06
2.34500087129e-06
4.14455949737e-06
-1.27668852677e-06
7.23592318963e-07
4.1836362126e-06
-1.29269346841e-06
-7.42839866228e-07
4.07229866493e-06
-1.42392210935e-06
-1.91469005366e-06
3.82505086675e-06
-1.64746304362e-06
-2.6768810023e-06
3.47030123348e-06
-1.94412861541e-06
-2.94309453828e-06
3.05718146445e-06
-2.28701503759e-06
-2.65997839168e-06
2.62457566798e-06
-2.65691658e-06
-1.84520321498e-06
2.26269904326e-06
-2.98650861463e-06
-6.55726276943e-07
2.03559384011e-06
-3.14610062638e-06
3.49260628985e-07
1.90505388543e-06
-2.73784490136e-06
1.79270605821e-06
-1.02877984569e-06
7.3665680733e-08
2.76854355865e-06
-1.44181308638e-06
2.21210251338e-06
3.05567268899e-06
-3.83113026154e-06
4.51535724597e-06
3.26828202934e-06
-4.14046893123e-06
6.1954162815e-06
3.64829972987e-06
-3.65730556269e-06
7.08054710791e-06
4.20332983652e-06
-2.98962241779e-06
7.18400975461e-06
4.86784348814e-06
-2.33118809875e-06
6.61406623412e-06
5.50690517921e-06
-1.7784005263e-06
5.51488459849e-06
6.0686395325e-06
-1.35774883896e-06
4.05213305527e-06
6.50029368338e-06
-1.08631890649e-06
2.40585721454e-06
6.75819230545e-06
-9.67355878262e-07
7.49064969032e-07
6.83131815702e-06
-9.90888989643e-07
-7.59994284784e-07
6.72247046176e-06
-1.14111199486e-06
-1.98533700013e-06
6.44937185981e-06
-1.39897763994e-06
-2.80874481369e-06
6.04686662269e-06
-1.75315662794e-06
-3.12891235759e-06
5.56109718582e-06
-2.18374677818e-06
-2.87178738276e-06
5.03629097812e-06
-2.66883839751e-06
-2.02461661718e-06
4.55752479735e-06
-3.14199420703e-06
-7.13162709569e-07
4.18165536506e-06
-3.45751279388e-06
4.60778365485e-07
3.88100509233e-06
-3.14988938853e-06
3.42946705872e-06
-1.17598066362e-06
9.19481287407e-08
3.88952143391e-06
-1.21292302276e-06
2.46086478437e-06
4.29358180536e-06
-3.60682262353e-06
4.91953608231e-06
4.54479123145e-06
-3.73517731952e-06
6.65662502961e-06
4.97134828113e-06
-3.06013435672e-06
7.52405691951e-06
5.5703074419e-06
-2.23440647886e-06
7.56795799613e-06
6.28155054113e-06
-1.45760535951e-06
6.92222035593e-06
6.972528951e-06
-8.19883744045e-07
5.7490600059e-06
7.58941250991e-06
-3.47610733599e-07
4.21233388551e-06
8.07118140458e-06
-3.41602432046e-08
2.49703535067e-06
8.37339337742e-06
1.00098339563e-07
7.67891710714e-07
8.47991963828e-06
8.0542709329e-08
-8.21814702624e-07
8.39424451313e-06
-8.20671894276e-08
-2.13392735997e-06
8.13509900116e-06
-3.73613898193e-07
-3.04787853633e-06
7.73680060314e-06
-7.75981882151e-07
-3.44332591145e-06
7.24695297023e-06
-1.29040702286e-06
-3.22375118652e-06
6.71068204413e-06
-1.89396389573e-06
-2.34894701517e-06
6.20510507005e-06
-2.52238207556e-06
-9.2607016998e-07
5.78023727322e-06
-3.02145597586e-06
4.288493362e-07
5.42074947726e-06
-2.89466076767e-06
4.81985209146e-06
-9.61533552855e-07
2.78761954512e-07
4.51189151441e-06
-9.01129378658e-07
2.87642675621e-06
4.89571352528e-06
-3.19979371373e-06
5.47527581482e-06
5.12005257481e-06
-3.17410754605e-06
7.26706050258e-06
5.52191443961e-06
-2.342348013e-06
8.11869200608e-06
6.09555848561e-06
-1.37687983959e-06
8.10120238489e-06
6.78529096177e-06
-4.8624835382e-07
7.36658542476e-06
7.46351221169e-06
2.43635745039e-07
6.08690163506e-06
8.08289934215e-06
7.86198507072e-07
4.44527797522e-06
8.5784434505e-06
1.1343626494e-06
2.62197426577e-06
8.90143697029e-06
1.29526071456e-06
7.8310208367e-07
9.03361110762e-06
1.2851810366e-06
-9.21948653543e-07
8.97938541398e-06
1.11991010085e-06
-2.35539245437e-06
8.75919848378e-06
8.09344738051e-07
-3.3814158355e-06
8.40903268391e-06
3.53792049473e-07
-3.86665440522e-06
7.9738178287e-06
-2.41625084462e-07
-3.69956893489e-06
7.49327765163e-06
-9.49679345836e-07
-2.81229427927e-06
7.03444821997e-06
-1.71661552676e-06
-1.29767621466e-06
6.64055009468e-06
-2.37492807441e-06
2.35712318898e-07
6.30047894314e-06
-2.41311471399e-06
5.68057778821e-06
-6.25011098915e-07
5.77078569139e-07
4.5269274201e-06
-5.92112155395e-07
3.39070703563e-06
4.84779515102e-06
-2.76570763333e-06
6.12127096855e-06
5.01881425263e-06
-2.62932309536e-06
7.96888629686e-06
5.35568665716e-06
-1.68138505225e-06
8.80866587027e-06
5.85938500228e-06
-6.03603738234e-07
8.72841762529e-06
6.47444145889e-06
3.91099813221e-07
7.90104564193e-06
7.09217804793e-06
1.19870779809e-06
6.50541009534e-06
7.67044666991e-06
1.80808938379e-06
4.73425791692e-06
8.14318400268e-06
2.20641231156e-06
2.77510503629e-06
8.46240191578e-06
2.39818822931e-06
7.98165334705e-07
8.60959345569e-06
2.40095741446e-06
-1.04498628615e-06
8.5909039413e-06
2.23163311221e-06
-2.61211911373e-06
8.42662396202e-06
1.89970750874e-06
-3.75984603736e-06
8.15142875604e-06
1.4053313041e-06
-4.34706790401e-06
7.80649042322e-06
7.54550153805e-07
-4.23946211481e-06
7.42674649983e-06
-4.10732039841e-08
-3.34969292312e-06
7.0614231582e-06
-9.16742057211e-07
-1.75946366534e-06
6.74672630672e-06
-1.69640271373e-06
-6.19981441797e-08
6.46628139157e-06
-1.86326459738e-06
5.87620175503e-06
-2.57619744733e-07
8.70184826305e-07
4.00538925415e-06
-3.48644652219e-07
3.88248054004e-06
4.22627673018e-06
-2.39077515745e-06
6.73988347593e-06
4.34031887529e-06
-2.17890537019e-06
8.64821603397e-06
4.59687611426e-06
-1.14951986354e-06
9.48469361462e-06
5.00165233706e-06
2.12570678084e-08
9.35540609517e-06
5.51244571841e-06
1.09128493411e-06
8.44392506396e-06
6.03313729302e-06
1.97052304585e-06
6.93577042953e-06
6.53291872639e-06
2.64568338048e-06
5.03466625376e-06
6.95015890914e-06
3.09412963909e-06
2.93873304537e-06
7.24323246894e-06
3.31510268005e-06
8.2633302708e-07
7.3954911768e-06
3.32650211474e-06
-1.14703841436e-06
7.41568785388e-06
3.14858729808e-06
-2.83576847866e-06
7.32052020905e-06
2.79483368658e-06
-4.09226961416e-06
7.14047430539e-06
2.26745569313e-06
-4.7680473635e-06
6.90916804094e-06
1.57310063402e-06
-4.71713537805e-06
6.65353522908e-06
7.2230036226e-07
-3.83253856773e-06
6.4082343172e-06
-2.31406155932e-07
-2.18527194518e-06
6.18923744754e-06
-1.08977511936e-06
-3.39748798168e-07
5.97706702959e-06
-1.35630539579e-06
5.48556659104e-06
5.08887649989e-08
1.1436693509e-06
3.01686577168e-06
-1.55144117847e-07
4.31301137771e-06
3.14885447371e-06
-2.09191790509e-06
7.27920561921e-06
3.21547330456e-06
-1.84134676699e-06
9.24562088772e-06
3.39074955172e-06
-7.60286864047e-07
1.00927751831e-05
3.6847983103e-06
4.69701377857e-07
9.93140715455e-06
4.06684055855e-06
1.60697451555e-06
8.95311438845e-06
4.46265089653e-06
2.54878009506e-06
7.34618563958e-06
4.85161978527e-06
3.2882282111e-06
5.32670427093e-06
5.18301656155e-06
3.78662385827e-06
3.10612374838e-06
5.42896863842e-06
4.03484418983e-06
8.7324410043e-07
5.57744459801e-06
4.05092586799e-06
-1.2142029782e-06
5.64381303737e-06
3.85932146282e-06
-3.00587344015e-06
5.63117760066e-06
3.48101268239e-06
-4.350689736e-06
5.56126998271e-06
2.92402040369e-06
-5.09668361403e-06
5.45754332602e-06
2.19761873363e-06
-5.09166770389e-06
5.3374409786e-06
1.31107907173e-06
-4.21925003702e-06
5.21703636889e-06
3.18781829265e-07
-2.53555434711e-06
5.10119326504e-06
-5.95649011367e-07
-5.91763049709e-07
4.95998496818e-06
-9.26705902821e-07
4.57853341179e-06
3.15272497696e-07
1.34772625249e-06
1.70238990601e-06
-3.32488173893e-08
4.63106400136e-06
1.75843962065e-06
-1.8929212218e-06
7.68288142401e-06
1.79144742737e-06
-1.62778985272e-06
9.70357766419e-06
1.89428055709e-06
-5.24225641552e-07
1.05659764917e-05
2.07208275474e-06
7.50318117225e-07
1.03884836359e-05
2.31120595674e-06
1.93312853207e-06
9.36450440727e-06
2.56465824605e-06
2.92197259262e-06
7.68167934492e-06
2.82183185776e-06
3.71261334235e-06
5.56741140119e-06
3.05115662877e-06
4.24612789573e-06
3.25160349882e-06
3.24482122476e-06
4.49995505413e-06
9.2822143523e-07
3.38883598089e-06
4.51199021561e-06
-1.22788469353e-06
3.49243809672e-06
4.30748049049e-06
-3.08547757416e-06
3.56655928036e-06
3.92221060222e-06
-4.49050661677e-06
3.61856611838e-06
3.34773241528e-06
-5.28676339083e-06
3.64695362841e-06
2.60684629447e-06
-5.31930565087e-06
3.66250304658e-06
1.70748061116e-06
-4.46504560384e-06
3.66495041576e-06
6.97827194249e-07
-2.77286140306e-06
3.646662345e-06
-2.37650970412e-07
-7.77402255652e-07
3.57200448136e-06
-6.07475466029e-07
3.30424965702e-06
4.96883768536e-07
1.45847326882e-06
2.27479808374e-07
1.64383111555e-08
4.80690553215e-06
2.18353853947e-07
-1.80834491348e-06
7.91414597213e-06
2.25737415082e-07
-1.54152884473e-06
9.97428921681e-06
2.60253096924e-07
-4.26114312742e-07
1.08544391289e-05
3.22531814249e-07
8.69402275037e-07
1.06754966231e-05
4.11140515639e-07
2.07900889114e-06
9.63156424561e-06
5.14370494128e-07
3.09422074404e-06
7.90904361267e-06
6.31379995927e-07
3.91297278284e-06
5.75155423104e-06
7.53667850523e-07
4.45497813448e-06
3.38785029368e-06
8.83367765719e-07
4.725157085e-06
1.02260871811e-06
1.02287529747e-06
4.73120171276e-06
-1.16868786584e-06
1.17369704274e-06
4.51003692442e-06
-3.05329774734e-06
1.3380668302e-06
4.11310153454e-06
-4.48387354936e-06
1.50658684112e-06
3.54255433274e-06
-5.30824394244e-06
1.66661388786e-06
2.80470966939e-06
-5.36962812536e-06
1.81242214928e-06
1.91146521339e-06
-4.54077096024e-06
1.93004346997e-06
9.06050810858e-07
-2.87187156206e-06
1.9948745103e-06
-1.71094767904e-08
-8.74454546823e-07
1.98593049943e-06
-4.11340050137e-07
1.83797169285e-06
5.91825539324e-07
1.4695466818e-06
-1.23352247385e-06
-8.5429021796e-09
4.83165990303e-06
-1.30492599733e-06
-1.838831767e-06
7.95820048786e-06
-1.32318375887e-06
-1.57761782206e-06
1.00384264013e-05
-1.35888599424e-06
-4.61085360834e-07
1.09356622395e-05
-1.41521347711e-06
8.40510683242e-07
1.07691338338e-05
-1.48030524567e-06
2.05797510112e-06
9.73344919484e-06
-1.52844521094e-06
3.07850095821e-06
8.01660101296e-06
-1.55163422379e-06
3.8998626886e-06
5.86497194833e-06
-1.53403880834e-06
4.43933567684e-06
3.51006172327e-06
-1.46609794671e-06
4.70437556533e-06
1.1571379435e-06
-1.32958315468e-06
4.70538157219e-06
-1.02217473891e-06
-1.13054703664e-06
4.48355587786e-06
-2.89569322516e-06
-8.79176052247e-07
4.09076035133e-06
-4.3228944877e-06
-6.00602775085e-07
3.53438987983e-06
-5.15534713757e-06
-3.14334037681e-07
2.81339984861e-06
-5.23820511204e-06
-4.44902659002e-08
1.93977026807e-06
-4.44607859663e-06
1.83600194158e-07
9.54317550815e-07
-2.8264073813e-06
3.29376499878e-07
4.58286510857e-08
-8.76017949692e-07
3.83177254442e-07
-3.47633438242e-07
3.54362165944e-07
6.07593549366e-07
1.38024235417e-06
-2.51977464488e-06
-9.39885743259e-08
4.70461118369e-06
-2.65243423725e-06
-1.97685886196e-06
7.81423625169e-06
-2.7041963776e-06
-1.72861074298e-06
9.89416654363e-06
-2.81849514017e-06
-6.20319577939e-07
1.0808368702e-05
-2.99868036517e-06
6.69266057915e-07
1.06687178375e-05
-3.21623837124e-06
1.87558501164e-06
9.67040156241e-06
-3.41178116155e-06
2.88165290468e-06
8.00575926667e-06
-3.56905710535e-06
3.68206548686e-06
5.90908362238e-06
-3.64875927331e-06
4.21139602641e-06
3.61724276467e-06
-3.62802040857e-06
4.45376284631e-06
1.32864930946e-06
-3.49557520401e-06
4.45458468414e-06
-7.92577619082e-07
-3.25697690694e-06
4.24765571015e-06
-2.61942511581e-06
-2.93227227623e-06
3.87994247762e-06
-4.01527727233e-06
-2.54873107014e-06
3.34397923061e-06
-4.83568300922e-06
-2.14473884539e-06
2.65080961602e-06
-4.9324790698e-06
-1.75503493882e-06
1.80734043251e-06
-4.18469438635e-06
-1.41939118418e-06
8.55207317835e-07
-2.63980685285e-06
-1.1891164573e-06
-2.63928911703e-08
-7.81544691849e-07
-1.06845576798e-06
-4.06626568304e-07
-9.8528500285e-07
5.58104354504e-07
1.20090375498e-06
-3.47698434596e-06
-2.43692255173e-07
4.43666699003e-06
-3.67830223202e-06
-2.20989330146e-06
7.49637360848e-06
-3.77613058396e-06
-1.98777049385e-06
9.56019526261e-06
-3.97925622692e-06
-9.03058792837e-07
1.04932665035e-05
-4.28377104955e-06
3.52020966022e-07
1.0395779757e-05
-4.64549516626e-06
1.52674473003e-06
9.4620261853e-06
-4.97793522831e-06
2.49990843376e-06
7.88710408041e-06
-5.25502628522e-06
3.26089163915e-06
5.89756504249e-06
-5.42437435405e-06
3.76515400148e-06
3.71440686625e-06
-5.45066450851e-06
4.00580169873e-06
1.53408542798e-06
-5.32479499631e-06
4.00954025852e-06
-4.98096403347e-07
-5.05228754155e-06
3.82749120827e-06
-2.24830802e-06
-4.66095890255e-06
3.47889684577e-06
-3.58502728211e-06
-4.18878787809e-06
2.97677473513e-06
-4.37219250097e-06
-3.67975342553e-06
2.32217880418e-06
-4.47054991391e-06
-3.1782323757e-06
1.52155451698e-06
-3.77161971033e-06
-2.73727479561e-06
6.18954007984e-07
-2.32048299086e-06
-2.41361838067e-06
-2.26633147812e-07
-5.99604336419e-07
-2.22375700634e-06
-5.6557489425e-07
-2.03842582687e-06
4.53538364218e-07
9.5305094894e-07
-3.98362569171e-06
-4.46407557116e-07
4.05507711189e-06
-4.26187537854e-06
-2.51845080015e-06
7.03726257852e-06
-4.41326836784e-06
-2.34504547598e-06
9.07605033754e-06
-4.70346779979e-06
-1.31457411993e-06
1.00328387277e-05
-5.11954538277e-06
-1.21012252016e-07
9.99295610187e-06
-5.60946700606e-06
1.00385590473e-06
9.14631129766e-06
-6.05945948861e-06
1.92817005229e-06
7.68575237895e-06
-6.43328463034e-06
2.63881773503e-06
5.82823770732e-06
-6.67418332534e-06
3.1073235681e-06
3.78476655964e-06
-6.74152875628e-06
3.33433480558e-06
1.73521300155e-06
-6.62483893364e-06
3.34959648682e-06
-1.7193734825e-07
-6.3355982685e-06
3.19045979345e-06
-1.81237494361e-06
-5.90002922306e-06
2.87950653651e-06
-3.06278938985e-06
-5.36194834761e-06
2.42357366197e-06
-3.79550538024e-06
-4.76847753722e-06
1.82143924832e-06
-3.88246418412e-06
-4.17213688626e-06
1.08086315569e-06
-3.23106534368e-06
-3.63857216474e-06
2.49899298119e-07
-1.89380866798e-06
-3.22974316705e-06
-5.21130106932e-07
-3.49352594391e-07
-2.96951705608e-06
-7.98693399259e-07
-2.68462479418e-06
2.96848336921e-07
6.85404976216e-07
-3.98623718027e-06
-6.82791151511e-07
3.61037828958e-06
-4.30911074676e-06
-2.87773539849e-06
6.49084009492e-06
-4.50769861626e-06
-2.78602899603e-06
8.49739615037e-06
-4.86762485429e-06
-1.84239656365e-06
9.48301581136e-06
-5.37006896825e-06
-7.35093895155e-07
9.51797155088e-06
-5.95646712759e-06
3.1204617923e-07
8.77645802443e-06
-6.4936358229e-06
1.17569116536e-06
7.44543530677e-06
-6.9359881732e-06
1.83372699391e-06
5.73157888932e-06
-7.22828693435e-06
2.26796016328e-06
3.83621767886e-06
-7.32918113554e-06
2.48301318002e-06
1.93292539582e-06
-7.22872409076e-06
2.50717660751e-06
1.63102530693e-07
-6.93920042157e-06
2.3734239372e-06
-1.35035493784e-06
-6.48694066791e-06
2.10036778856e-06
-2.49526897762e-06
-5.91256871189e-06
1.69553346908e-06
-3.1552681256e-06
-5.26594784768e-06
1.15746897423e-06
-3.21903900447e-06
-4.60463133597e-06
4.96265552957e-07
-2.61289519099e-06
-4.00220690444e-06
-2.42507955786e-07
-1.40550715046e-06
-3.5306921868e-06
-9.06436963364e-07
-7.21344386363e-08
-3.2119313775e-06
-1.09095555998e-06
-2.86184070983e-06
1.05083566254e-07
4.17802580944e-07
-3.43485332051e-06
-9.69183780249e-07
3.14295115223e-06
-3.76303787355e-06
-3.27121852521e-06
5.90739419499e-06
-3.9803456262e-06
-3.29179306338e-06
7.87753626385e-06
-4.3674758466e-06
-2.47028819727e-06
8.89659830868e-06
-4.90912837132e-06
-1.47999999333e-06
9.01682245382e-06
-5.53983437276e-06
-5.36854623892e-07
8.38999258843e-06
-6.12144610089e-06
2.54641919076e-07
7.19480247209e-06
-6.59747548373e-06
8.56678610863e-07
5.62642360827e-06
-6.91740657293e-06
1.25749906793e-06
3.87820140863e-06
-7.04323638719e-06
1.46227745683e-06
2.11985025256e-06
-6.96614994226e-06
1.49577659249e-06
4.9064390257e-07
-6.69723372873e-06
1.38723901553e-06
-8.91822348369e-07
-6.25950311582e-06
1.15502805365e-06
-1.92234201798e-06
-5.69053539742e-06
8.08485944006e-07
-2.4992969858e-06
-5.03795739224e-06
3.4896457657e-07
-2.52972827164e-06
-4.36082398879e-06
-2.13375308483e-07
-1.96977738816e-06
-3.742216598e-06
-8.19939622333e-07
-8.97315210006e-07
-3.25158195889e-06
-1.35157002051e-06
2.14689099475e-07
-2.90868502874e-06
-1.41524761808e-06
-2.53169396317e-06
-1.15455466885e-07
2.54383307184e-07
-2.43217654197e-06
-1.25705708317e-06
2.76332058058e-06
-2.64614832946e-06
-3.62582350859e-06
5.39376578772e-06
-2.81942799335e-06
-3.79135943913e-06
7.31917765814e-06
-3.16393849061e-06
-3.12894586925e-06
8.36756006666e-06
-3.67403708209e-06
-2.28347052393e-06
8.56635257078e-06
-4.27945260387e-06
-1.4591714312e-06
8.04663300983e-06
-4.84269524861e-06
-7.59028923349e-07
6.97558507278e-06
-5.30444197977e-06
-2.21983779342e-07
5.53008089156e-06
-5.62416837215e-06
1.52267149151e-07
3.90522555213e-06
-5.76348248759e-06
3.45102042624e-07
2.26992278886e-06
-5.71690069361e-06
3.86053692864e-07
7.6430078501e-07
-5.49304089269e-06
3.01429125856e-07
-4.97652968053e-07
-5.1110554039e-06
1.13506012599e-07
-1.41538166238e-06
-4.59879622584e-06
-1.74010255265e-07
-1.90997769314e-06
-4.00752631981e-06
-5.35834353621e-07
-1.91008064406e-06
-3.39056853495e-06
-9.70151187216e-07
-1.39587296885e-06
-2.82978106919e-06
-1.42664119675e-06
-4.61104479607e-07
-2.39462743062e-06
-1.79172036004e-06
4.27601068113e-07
-2.09034983907e-06
-1.70703758412e-06
-1.77819570623e-06
-3.25895008059e-07
2.52880743013e-07
-1.21177991726e-06
-1.47327397432e-06
2.53885001469e-06
-1.12873767657e-06
-3.80337621879e-06
5.01146864507e-06
-1.16385804157e-06
-4.12818475071e-06
6.87881198291e-06
-1.37899029471e-06
-3.65228769709e-06
7.9476972054e-06
-1.77508058897e-06
-2.96783800413e-06
8.21398692747e-06
-2.27802575691e-06
-2.26771313257e-06
7.78202959404e-06
-2.75409162624e-06
-1.65664328173e-06
6.8011608297e-06
-3.14907290546e-06
-1.17449785813e-06
5.44546094475e-06
-3.42959197872e-06
-8.38874670808e-07
3.90528808964e-06
-3.56488015958e-06
-6.58428211258e-07
2.35623787221e-06
-3.55241414714e-06
-6.15435506417e-07
9.41805860998e-07
-3.39849893583e-06
-6.80109352081e-07
-2.22268615222e-07
-3.11515179798e-06
-8.31828523437e-07
-1.04889100482e-06
-2.72304773069e-06
-1.04912525495e-06
-1.47015689355e-06
-2.26768720138e-06
-1.31857194898e-06
-1.44272670906e-06
-1.79605965234e-06
-1.62193724836e-06
-9.74242320154e-07
-1.38379045521e-06
-1.9144726431e-06
-1.74447400643e-07
-1.09822374095e-06
-2.09619578525e-06
5.09553551953e-07
-9.24951827307e-07
-1.84939581516e-06
-8.21503933843e-07
-4.47136080524e-07
3.70490988874e-07
-2.01097042815e-07
-1.38116999528e-06
2.4308390601e-06
1.78297485495e-07
-3.36737916191e-06
4.73100837249e-06
3.22877383853e-07
-3.78690054146e-06
6.53964823467e-06
3.03503447669e-07
-3.49112936734e-06
7.62974120988e-06
1.03685786529e-07
-2.96885519066e-06
7.94862889119e-06
-2.0340957754e-07
-2.39349993105e-06
7.57669185692e-06
-5.05537401097e-07
-1.87661366087e-06
6.65553623262e-06
-7.7166498418e-07
-1.45624931192e-06
5.35488730837e-06
-9.74819287767e-07
-1.1541214008e-06
3.86513443756e-06
-1.08494633554e-06
-9.90179174579e-07
2.36653105879e-06
-1.09983549883e-06
-9.53973936475e-07
1.00875011621e-06
-1.02481298672e-06
-1.01590389862e-06
-9.16860057461e-08
-8.682670189e-07
-1.14644752723e-06
-8.51510180488e-07
-6.4575892821e-07
-1.31746325557e-06
-1.21680544596e-06
-3.93676911534e-07
-1.50871325922e-06
-1.16417683938e-06
-1.4572511895e-07
-1.702960926e-06
-7.27873651607e-07
3.79529812922e-08
-1.85804400846e-06
-4.42760579724e-08
1.08949355124e-07
-1.89076777456e-06
4.74251696499e-07
9.16017083068e-08
-1.53507813629e-06
-4.82802934401e-08
-2.98969935562e-07
6.62973364245e-07
-8.6406775822e-07
2.34793578895e-06
-1.5066622308e-06
4.29552853934e-06
-1.62471259213e-06
5.95810358004e-06
-1.3590687914e-06
7.0339071912e-06
-9.7211507382e-07
7.39344385774e-06
-5.6294365178e-07
7.11224661962e-06
-2.24337844993e-07
6.2985760404e-06
4.20075477152e-08
5.09416652375e-06
2.29591782941e-07
3.69624393749e-06
3.1297744929e-07
2.28377149037e-06
3.12637904889e-07
1.00610878381e-06
2.52850589094e-07
-1.65599788001e-08
1.54402681319e-07
-6.98693095456e-07
3.63753154646e-08
-1.0062178408e-06
-8.61507864323e-08
-9.3460108352e-07
-2.17340246049e-07
-5.5946680654e-07
-3.37179477419e-07
-5.63682297388e-08
-3.94147256933e-07
2.69728521739e-07
-2.34493077663e-07
2.21449080554e-07
1.59614655164e-06
1.38751302198e-06
-3.73583758936e-06
3.35039315794e-06
1.66364767453e-06
-4.82743344788e-06
4.85359038884e-06
1.88740019575e-06
-4.93314512958e-06
5.91400642143e-06
2.08701001949e-06
-4.43166366394e-06
6.44640657702e-06
2.27551396853e-06
-3.72187733343e-06
6.43676136104e-06
2.46266560308e-06
-2.98302626953e-06
5.91264340498e-06
2.63101263745e-06
-2.3304257551e-06
4.96635648795e-06
2.77545261366e-06
-1.80609477949e-06
3.72861321887e-06
2.88807524871e-06
-1.45456378055e-06
2.33340559063e-06
2.96424716034e-06
-1.29516276156e-06
9.17776546221e-07
3.00155870791e-06
-1.31303559678e-06
-3.91243115462e-07
2.9967980462e-06
-1.48324062895e-06
-1.48806396735e-06
2.94892088445e-06
-1.77178728723e-06
-2.28422721996e-06
2.85554994153e-06
-2.15125783131e-06
-2.71832938237e-06
2.72726347e-06
-2.58801705779e-06
-2.77735500051e-06
2.56933936503e-06
-3.054637643e-06
-2.47674298847e-06
2.38810268201e-06
-3.49039491027e-06
-1.85776840833e-06
2.16621044081e-06
-3.77906845733e-06
-9.80671775112e-07
1.84554676847e-06
-3.61892800359e-06
1.34461749641e-06
-2.72137384527e-06
2.07491414773e-06
2.72100570129e-06
-4.73507142965e-06
3.62906744217e-06
2.7784251377e-06
-6.0601374484e-06
4.79510943701e-06
2.8881560978e-06
-5.99171800424e-06
5.58502195515e-06
3.07652712144e-06
-5.31243841964e-06
5.95442203405e-06
3.32972175368e-06
-4.45117936133e-06
5.89779545377e-06
3.62842536004e-06
-3.59701283064e-06
5.43527181801e-06
3.93433622198e-06
-2.8599318041e-06
4.63791376491e-06
4.21916749881e-06
-2.29100317128e-06
3.59911807554e-06
4.45298569362e-06
-1.91793896331e-06
2.42266049608e-06
4.61647658425e-06
-1.75245995695e-06
1.21492429144e-06
4.69956082255e-06
-1.78295931665e-06
7.31398575657e-08
4.69956653961e-06
-1.9849062265e-06
-9.11817549255e-07
4.61927930675e-06
-2.33286397953e-06
-1.67276136231e-06
4.46914427247e-06
-2.79677870531e-06
-2.1540231936e-06
4.27150917423e-06
-3.34999801913e-06
-2.33541425494e-06
4.04743177524e-06
-3.95361657729e-06
-2.21791297092e-06
3.82039866336e-06
-4.53630417316e-06
-1.8270182649e-06
3.59329527958e-06
-4.96407824815e-06
-1.14201669872e-06
3.33170215e-06
-4.90899984266e-06
2.94494600351e-06
-3.77112385471e-06
2.37920755537e-06
3.77014967709e-06
-4.87016201606e-06
3.83033063754e-06
3.52977362146e-06
-6.03359924492e-06
4.83727720772e-06
3.49566234053e-06
-5.75491919365e-06
5.49557293151e-06
3.63548967002e-06
-4.87456134344e-06
5.7812011096e-06
3.90793767918e-06
-3.85346415959e-06
5.69293181327e-06
4.26894296362e-06
-2.88343429083e-06
5.25128951259e-06
4.662444705e-06
-2.06486497871e-06
4.51383676788e-06
5.04289556069e-06
-1.44402292562e-06
3.56136400382e-06
5.36039632136e-06
-1.04125607773e-06
2.47977502453e-06
5.59094197486e-06
-8.60232065179e-07
1.35970476122e-06
5.71464181011e-06
-8.85899780517e-07
2.86243591528e-07
5.72855296658e-06
-1.09663736509e-06
-6.6276956486e-07
5.64237573741e-06
-1.47306082529e-06
-1.42226743742e-06
5.47007121232e-06
-1.9945852173e-06
-1.94106310086e-06
5.24838390273e-06
-2.64182488387e-06
-2.19312344078e-06
5.0098716619e-06
-3.37921651379e-06
-2.17436855306e-06
4.79255805924e-06
-4.13290668227e-06
-1.90288702992e-06
4.62216447839e-06
-4.75786144858e-06
-1.31629483073e-06
4.49874873966e-06
-4.90352598424e-06
4.37250453046e-06
-3.91983269824e-06
2.60625063001e-06
4.43098587422e-06
-4.48000752492e-06
4.05012624171e-06
3.95508567915e-06
-5.47600798722e-06
5.00320281786e-06
3.8071415777e-06
-4.99973084343e-06
5.60786914148e-06
3.90007796436e-06
-3.92938673403e-06
5.85491551464e-06
4.17112040281e-06
-2.74463347141e-06
5.7473615845e-06
4.56216686473e-06
-1.64327349381e-06
5.30597024537e-06
5.00514602439e-06
-7.21192293839e-07
4.57391054397e-06
5.44277599182e-06
-1.54305343453e-08
3.64005875869e-06
5.82620464502e-06
4.33883638986e-07
2.5728130201e-06
6.10657545806e-06
6.51710607942e-07
1.46048988457e-06
6.26222438687e-06
6.45283066828e-07
3.83354503845e-07
6.28887587522e-06
4.34745105377e-07
-5.87935982868e-07
6.19928090191e-06
4.07714906122e-08
-1.37916479532e-06
6.02871820615e-06
-5.43399602584e-07
-1.94352374396e-06
5.81120650006e-06
-1.28886974166e-06
-2.24945905988e-06
5.58586676106e-06
-2.16402227857e-06
-2.28753439446e-06
5.40274268456e-06
-3.09448954531e-06
-2.06528341804e-06
5.30128972176e-06
-3.92283003162e-06
-1.48788145403e-06
5.30765388147e-06
-4.2809654948e-06
5.40626414146e-06
-3.48317315841e-06
2.8072540372e-06
4.65027947416e-06
-3.92767499517e-06
4.3122284921e-06
4.02974003521e-06
-4.77942052143e-06
5.27902829708e-06
3.81013218417e-06
-4.14389596041e-06
5.87890417651e-06
3.86769904662e-06
-2.90984302942e-06
6.11710225553e-06
4.12787166109e-06
-1.57182739088e-06
5.9987699024e-06
4.52684381152e-06
-3.32591461503e-07
5.54359649787e-06
4.99464302183e-06
7.09313211954e-07
4.79574605218e-06
5.46543869181e-06
1.51138682542e-06
3.82612912899e-06
5.87987808924e-06
2.05030624673e-06
2.71459417404e-06
6.18981255709e-06
2.3235583619e-06
1.54876559749e-06
6.36780286259e-06
2.3454307973e-06
4.13277497984e-07
6.40981767799e-06
2.1344561377e-06
-6.1326844112e-07
6.3328933643e-06
1.70227821077e-06
-1.46135654979e-06
6.17170953526e-06
1.05888918862e-06
-2.08127249878e-06
5.96730128066e-06
2.22196871293e-07
-2.43149732216e-06
5.76972717525e-06
-7.83313680592e-07
-2.4982325061e-06
5.62936896753e-06
-1.87650489137e-06
-2.27578670113e-06
5.58991000808e-06
-2.88599197014e-06
-1.64679958504e-06
5.6902946828e-06
-3.42474010706e-06
5.93446822981e-06
-2.80001319433e-06
2.9987795063e-06
4.41980259224e-06
-3.36041306038e-06
4.60853175188e-06
3.75746460937e-06
-4.10318275403e-06
5.63056051415e-06
3.51070020591e-06
-3.35191818866e-06
6.25809191727e-06
3.5465607411e-06
-1.98777653054e-06
6.50904728137e-06
3.78745961772e-06
-5.14145635591e-07
6.39164488905e-06
4.17572125168e-06
8.596258531e-07
5.91611912321e-06
4.63702024456e-06
2.03185699738e-06
5.12748167817e-06
5.1090270241e-06
2.95313870773e-06
4.09415218711e-06
5.52997226813e-06
3.58964746209e-06
2.9014319254e-06
5.85018086569e-06
3.93053978912e-06
1.64451618704e-06
6.04064666896e-06
3.98502889991e-06
4.16907759183e-07
6.09740303136e-06
3.77165585765e-06
-6.9438376765e-07
6.03922668189e-06
3.30466562587e-06
-1.61710027446e-06
5.9024902292e-06
2.59726733026e-06
-2.29147953565e-06
5.73069029632e-06
1.66554098752e-06
-2.67726884919e-06
5.56953234638e-06
5.44911986721e-07
-2.75509151072e-06
5.47096334349e-06
-6.80512174328e-07
-2.50343011141e-06
5.47830529282e-06
-1.83645721502e-06
-1.79105374077e-06
5.62953476912e-06
-2.51487842819e-06
5.92554603253e-06
-2.0397496217e-06
3.16876564929e-06
3.76446876647e-06
-2.86207503354e-06
4.90600990262e-06
3.16092289583e-06
-3.53147628802e-06
6.00686138399e-06
2.93357361062e-06
-2.70262887158e-06
6.68149121447e-06
2.96197844467e-06
-1.23956611661e-06
6.96340977528e-06
3.1781189414e-06
3.48680228333e-07
6.85331744933e-06
3.52836690168e-06
1.84873229703e-06
6.35818202733e-06
3.95086417258e-06
3.15181481925e-06
5.52041656056e-06
4.389489781e-06
4.20298599897e-06
4.40961605777e-06
4.7864243093e-06
4.94847773881e-06
3.11802196009e-06
5.09461778615e-06
5.36225936098e-06
1.75245408586e-06
5.28644197446e-06
5.44627420208e-06
4.18753861466e-07
5.35848940097e-06
5.22120080328e-06
-7.86265459993e-07
5.32988837529e-06
4.70919116378e-06
-1.78498304031e-06
5.23460618714e-06
3.93405740092e-06
-2.51360974556e-06
5.11227817564e-06
2.92013985893e-06
-2.92650745299e-06
5.00210324665e-06
1.70262801971e-06
-3.00216258839e-06
4.94399297608e-06
3.71220804371e-07
-2.70752995217e-06
4.98378920703e-06
-8.89889521808e-07
-1.9023821028e-06
5.14123316343e-06
-1.67314896226e-06
5.40325649467e-06
-1.32920209023e-06
3.31327905495e-06
2.76383904248e-06
-2.4677922434e-06
5.17719177375e-06
2.30387600077e-06
-3.09878257773e-06
6.36265410172e-06
2.13372161222e-06
-2.22695599584e-06
7.0933617709e-06
2.16446200383e-06
-6.93477130302e-07
7.41088835164e-06
2.34356194696e-06
9.86732488985e-07
7.31557312181e-06