/*--------------------------------*- C++ -*----------------------------------*\
| =========                 |                                                 |
| \\      /  F ield         | OpenFOAM: The Open Source CFD Toolbox           |
|  \\    /   O peration     | Version:  3.0.1                                 |
|   \\  /    A nd           | Web:      www.OpenFOAM.org                      |
|    \\/     M anipulation  |                                                 |
\*---------------------------------------------------------------------------*/
FoamFile
{
    version     2.0;
    format      ascii;
    class       volScalarField;
    location    "2.6";
    object      p_rgh;
}
// * * * * * * * * * * * * * * * * * * * * * * * * * * * * * * * * * * * * * //

dimensions      [1 -1 -2 0 0 0 0];

internalField   nonuniform List<scalar> 
7968
(
4941.02057747
4941.04168262
4941.07169088
4941.11855905
4941.18534708
4941.2784163
4941.40346127
4941.56362956
4941.75952821
4941.98783506
4942.24305487
4942.51722838
4942.80008182
4943.08103209
4943.34799235
4943.58933754
4943.79395977
4943.95256956
4944.06013577
4944.10859729
4941.0009984
4941.03136067
4941.06589203
4941.11612549
4941.1843308
4941.27773275
4941.40252374
4941.56244945
4941.75817929
4941.98695426
4942.24314467
4942.51867661
4942.80345711
4943.08612268
4943.35447303
4943.59629466
4943.80007055
4943.95589985
4944.05954787
4944.09971297
4940.95374928
4940.98880069
4941.0247867
4941.07547127
4941.14269608
4941.23465359
4941.3582566
4941.51780383
4941.71413363
4941.94450588
4942.20308007
4942.4816213
4942.76995916
4943.05638224
4943.32835486
4943.57312006
4943.7785903
4943.93435941
4944.03682481
4944.07296773
4940.88979247
4940.92829501
4940.96457941
4941.01447039
4941.07977531
4941.16968411
4941.29192641
4941.45123716
4941.64863606
4941.88114343
4942.14280317
4942.42513785
4942.71780721
4943.00873257
4943.28519857
4943.53390492
4943.74213033
4943.89899262
4944.00124
4944.03456602
4940.81832669
4940.85815913
4940.89301936
4940.94062498
4941.00311926
4941.09063487
4941.21137167
4941.3707003
4941.56939265
4941.80426506
4942.06908033
4942.35511258
4942.65185513
4942.94729964
4943.22834463
4943.48131993
4943.69302268
4943.85217188
4943.95559915
4943.9880497
4940.7530952
4940.79291384
4940.82540621
4940.86994101
4940.92928323
4941.01402388
4941.13336669
4941.29259547
4941.49240691
4941.72925516
4941.99661743
4942.28552846
4942.58543199
4942.88437378
4943.16912046
4943.42577805
4943.64076391
4943.80251308
4943.90772225
4943.94042908
4940.70830744
4940.7472128
4940.77702577
4940.81838089
4940.87450966
4940.95678212
4941.07461005
4941.23338183
4941.43360768
4941.67138423
4941.93998033
4942.23023807
4942.53161064
4942.83224299
4943.11903129
4943.37791884
4943.59513506
4943.75892791
4943.86579165
4943.89932186
4940.69617218
4940.73389708
4940.76125601
4940.79978683
4940.85309239
4940.93297424
4941.04905708
4941.20652183
4941.40584638
4941.64287998
4941.91082638
4942.20041275
4942.50113939
4942.80126084
4943.08787121
4943.34699022
4943.56480399
4943.72937589
4943.83713981
4943.87144637
4940.72588179
4940.7623813
4940.78774802
4940.82388487
4940.8747327
4940.95216928
4941.06587667
4941.22081863
4941.41759446
4941.65188932
4941.91696959
4942.20354426
4942.50122147
4942.79842956
4943.08248332
4943.33959448
4943.55597408
4943.7198374
4943.82743383
4943.86183871
4940.80186973
4940.83741631
4940.86133488
4940.89557579
4940.9441146
4941.01878933
4941.12918794
4941.28015509
4941.47244678
4941.7017791
4941.96159903
4942.24273327
4942.53497171
4942.82695334
4943.10621319
4943.35918691
4943.57225668
4943.73379184
4943.84004129
4943.87421999
4940.92400489
4940.9588495
4940.98187365
4941.01463564
4941.06094419
4941.13243432
4941.23856118
4941.38409055
4941.57002514
4941.79227827
4942.04454487
4942.3179106
4942.60244157
4942.88704316
4943.15947068
4943.40639598
4943.61441826
4943.77212102
4943.87585123
4943.90916082
4941.087522
4941.12184693
4941.14448643
4941.17615966
4941.22032539
4941.28823999
4941.38917496
4941.52805934
4941.70604109
4941.91941519
4942.16218869
4942.42583677
4942.70077365
4942.97619962
4943.24007642
4943.47930746
4943.68077585
4943.83332684
4943.9334952
4943.96538143
4941.28304722
4941.31721483
4941.33996801
4941.37099989
4941.41327585
4941.47751781
4941.57277763
4941.70421266
4941.87312407
4942.07633391
4942.30822489
4942.56075462
4942.82471575
4943.0895963
4943.34353563
4943.57367092
4943.76726335
4943.91358106
4944.00935071
4944.03970557
4941.49859197
4941.53257304
4941.55582632
4941.58669492
4941.62747324
4941.68832327
4941.77794113
4941.90170384
4942.06111685
4942.25357468
4942.47388807
4942.71452693
4942.96666099
4943.22004135
4943.46296823
4943.68294101
4943.86767052
4944.00691071
4944.09768963
4944.1259208
4941.71956495
4941.753218
4941.77715014
4941.80817385
4941.84802421
4941.90604165
4941.9905909
4942.10706974
4942.25721932
4942.43900903
4942.64772127
4942.87632971
4943.11633955
4943.35772146
4943.58904244
4943.79827494
4943.97373853
4944.10565461
4944.19136648
4944.21767958
4941.93086062
4941.96346703
4941.98780777
4942.01899935
4942.05819101
4942.1141334
4942.1944573
4942.30456281
4942.44631679
4942.61821357
4942.81600599
4943.03312132
4943.26133819
4943.4909551
4943.71080781
4943.90953233
4944.07606749
4944.20117358
4944.28240149
4944.30755147
4942.11743747
4942.14791419
4942.17192023
4942.20279718
4942.24142199
4942.29572079
4942.37281849
4942.4777464
4942.61244824
4942.77582237
4942.9640329
4943.17090574
4943.38843813
4943.60728099
4943.81682685
4944.0062024
4944.16507774
4944.28474377
4944.3627261
4944.38789152
4942.26624389
4942.29285241
4942.31522981
4942.34485041
4942.38268828
4942.43580701
4942.51063207
4942.61177496
4942.74117031
4942.89790265
4943.07843725
4943.27694206
4943.48574769
4943.69575455
4943.8968874
4944.07890119
4944.23215806
4944.34843815
4944.4249751
4944.45186936
4942.36914594
4942.39104944
4942.41121172
4942.43904435
4942.4760116
4942.52835048
4942.60187111
4942.70071728
4942.82669202
4942.97897077
4943.15417732
4943.3467262
4943.54928328
4943.75299425
4943.94822773
4944.12528424
4944.27510223
4944.38987563
4944.46630395
4944.49591892
4942.4158439
4942.42876787
4942.44417641
4942.46816212
4942.5029987
4942.55409445
4942.6267756
4942.72464347
4942.8489721
4942.99940566
4943.17230989
4943.36226504
4943.56237847
4943.76350198
4943.95651677
4944.13229943
4944.28215933
4944.3987241
4944.4779664
4944.51400251
4941.01652801
4941.03165778
4941.05520565
4941.09577597
4941.15823394
4941.24924417
4941.3743306
4941.53683791
4941.73658915
4941.97062124
4942.23259859
4942.51392803
4942.80479744
4943.09333682
4943.36787636
4943.61658876
4943.82868185
4943.99498608
4944.10945667
4944.16390334
4940.9884964
4941.0132871
4941.04062715
4941.08525128
4941.15255964
4941.24882521
4941.37901171
4941.5459427
4941.74915385
4941.98517377
4942.24782817
4942.52871397
4942.81779188
4943.10383244
4943.3752106
4943.62039364
4943.82900106
4943.99219194
4944.10361794
4944.14944657
4940.93041722
4940.95906617
4940.98602631
4941.03118775
4941.1003807
4941.19963443
4941.33349248
4941.5043253
4941.71120596
4941.95025608
4942.21534092
4942.49798669
4942.78800046
4943.07441452
4943.3456781
4943.59046582
4943.79872235
4943.96203866
4944.0741213
4944.11670119
4940.85394359
4940.88641447
4940.91359341
4940.95954308
4941.03065789
4941.13267999
4941.26990031
4941.44460162
4941.65521863
4941.8978276
4942.16596387
4942.45108229
4942.74305401
4943.03112625
4943.30349218
4943.54880997
4943.75716604
4943.92055962
4944.03265841
4944.07204897
4940.77048768
4940.80722313
4940.83542688
4940.88267069
4940.95582
4941.06028435
4941.20057597
4941.37804075
4941.59172284
4941.83743541
4942.10859806
4942.39656077
4942.69124405
4942.98148873
4943.25536016
4943.50156886
4943.71003633
4943.87312614
4943.98446481
4944.02031293
4940.6946829
4940.73584101
4940.76559958
4940.81418145
4940.88872497
4940.99524445
4941.13670331
4941.31554699
4941.53094717
4941.7786746
4942.05216573
4942.34261668
4942.63981899
4942.9323561
4943.20817921
4943.45525639
4943.66383205
4943.82633477
4943.9363142
4943.9684921
4940.64144614
4940.68669006
4940.71815496
4940.76789203
4940.84368209
4940.94998462
4941.09121873
4941.26977142
4941.48521551
4941.73333792
4942.0077506
4942.29951061
4942.59826373
4942.89237724
4943.16950665
4943.41729044
4943.62554611
4943.78709874
4943.8952882
4943.92400742
4940.62410198
4940.67264643
4940.70559481
4940.75609118
4940.83179973
4940.93702428
4941.07659089
4941.25295405
4941.46625901
4941.71251023
4941.9857766
4942.27703661
4942.57576074
4942.87004878
4943.14726056
4943.39468743
4943.60190705
4943.76198343
4943.86808386
4943.89379389
4940.65215797
4940.70289873
4940.73683737
4940.78758763
4940.86224952
4940.96536901
4941.10196775
4941.27436058
4941.4834752
4941.72554395
4941.99525837
4942.28360387
4942.57993607
4942.87217782
4943.1475032
4943.3930094
4943.59829317
4943.75593664
4943.85974615
4943.88338507
4940.73041348
4940.78191438
4940.81608362
4940.86626489
4940.9392073
4941.03933229
4941.17174292
4941.33864598
4941.5416105
4941.7772245
4942.04079471
4942.32347193
4942.6146773
4942.90229682
4943.17343483
4943.41514927
4943.61703878
4943.77165292
4943.87310067
4943.89531167
4940.85818022
4940.90910443
4940.9426483
4940.99144755
4941.06193835
4941.15831558
4941.28558447
4941.44596894
4941.64138228
4941.86875917
4942.12378312
4942.39794489
4942.68101808
4942.9611633
4943.22562499
4943.46162499
4943.65879988
4943.80980879
4943.90889422
4943.93051946
4941.02995414
4941.07901961
4941.11104171
4941.15764118
4941.22496233
4941.31693599
4941.43830068
4941.59145343
4941.77829832
4941.99609355
4942.24064382
4942.50394522
4942.77637961
4943.04664703
4943.30233823
4943.53092388
4943.72218567
4943.86907762
4943.96582092
4943.98764721
4941.23622751
4941.28197174
4941.31159325
4941.35526633
4941.41880301
4941.50586369
4941.62081186
4941.76627807
4941.94386823
4942.15119695
4942.38405494
4942.63504406
4942.8952662
4943.15405865
4943.39947227
4943.61941339
4943.80376744
4943.94620207
4944.04056993
4944.06296774
4941.46367125
4941.50507278
4941.53161281
4941.57161774
4941.63092401
4941.71270718
4941.82099272
4941.95855454
4942.12668756
4942.32325084
4942.54403541
4942.78223108
4943.02961523
4943.27618331
4943.51059095
4943.72121939
4943.89850155
4944.03591733
4944.12792056
4944.15174467
4941.69731252
4941.73357464
4941.75660912
4941.79263641
4941.84689412
4941.92311655
4942.02468142
4942.15436244
4942.31316396
4942.49914653
4942.70819752
4942.93401132
4943.16889438
4943.4034874
4943.62696873
4943.82835749
4943.99863357
4944.13125684
4944.22107581
4944.24673259
4941.92115383
4941.95190861
4941.97140953
4942.00323881
4942.05222262
4942.12223392
4942.21708735
4942.33910128
4942.48911377
4942.66528147
4942.86362621
4943.07823643
4943.30183041
4943.52548081
4943.73902409
4943.93219107
4944.0961987
4944.22463611
4944.3125524
4944.34039729
4942.11995552
4942.14544687
4942.16193741
4942.18982574
4942.23361204
4942.29757016
4942.38551054
4942.50029073
4942.64230023
4942.80979577
4942.99897853
4943.20417312
4943.41829842
4943.63299046
4943.83839463
4944.02482286
4944.18384441
4944.30891379
4944.3951463
4944.42528042
4942.28044021
4942.3013754
4942.31594261
4942.34080095
4942.38015907
4942.43868053
4942.52047549
4942.62849878
4942.7634772
4942.92375462
4943.10572812
4943.3038683
4943.5111298
4943.71915206
4943.91858941
4944.10012413
4944.2554721
4944.37785303
4944.46236355
4944.49457123
4942.39307335
4942.40989987
4942.42373393
4942.44651498
4942.4823103
4942.53614312
4942.61257891
4942.71497651
4942.8443889
4942.99940583
4943.17651447
4943.37022438
4943.57342851
4943.7777958
4943.97407419
4944.1530173
4944.30627224
4944.42677313
4944.50948036
4944.54368304
4942.44737586
4942.45475696
4942.46435309
4942.48249454
4942.51287986
4942.56095714
4942.63184359
4942.72933246
4942.85511072
4943.0074857
4943.18309744
4943.3762606
4943.57950384
4943.7847246
4943.98239201
4944.16312881
4944.31837295
4944.44080023
4944.52547062
4944.56628867
4941.04020825
4941.05132803
4941.06721175
4941.09810358
4941.15125632
4941.23496306
4941.35615744
4941.51904298
4941.72404218
4941.96771652
4942.24327888
4942.54115443
4942.8500269
4943.15722953
4943.44980967
4943.7152094
4943.94197113
4944.12034756
4944.24332594
4944.30199259
4941.00343335
4941.03005234
4941.05344689
4941.0911226
4941.15255703
4941.24508078
4941.3745383
4941.54432485
4941.75435164
4942.00088545
4942.27716926
4942.57385867
4942.87979907
4943.18267067
4943.46981268
4943.72908361
4943.94975483
4944.12279584
4944.23939916
4944.28397083
4940.92947506
4940.96379653
4940.98780569
4941.02506723
4941.0882024
4941.18448558
4941.31904876
4941.49448889
4941.70987744
4941.96095092
4942.24056064
4942.53947856
4942.84649297
4943.1495581
4943.43636997
4943.6952846
4943.91614956
4944.09024723
4944.20662055
4944.24447783
4940.83153586
4940.87251259
4940.89585288
4940.93064031
4940.99325825
4941.09128669
4941.22936158
4941.41008609
4941.63122508
4941.88772289
4942.17206678
4942.47466925
4942.78464438
4943.09016083
4943.3792024
4943.64043581
4943.8638737
4944.04089213
4944.15809865
4944.19046569
4940.72405564
4940.77264799
4940.79659178
4940.82992756
4940.89246613
4940.99216103
4941.13360369
4941.31856905
4941.54483912
4941.8064945
4942.09571078
4942.40264221
4942.71641103
4943.02509043
4943.31633205
4943.58041091
4943.80611876
4943.98506315
4944.10185929
4944.12805696
4940.6243556
4940.68076059
4940.70651059
4940.73951804
4940.80250878
4940.90320693
4941.04725355
4941.23555989
4941.46581981
4941.73146459
4942.02465308
4942.3352842
4942.65243909
4942.96409269
4943.2581603
4943.52331176
4943.75039086
4943.92992666
4944.04506681
4944.0650389
4940.55029313
4940.61373672
4940.64193364
4940.67529336
4940.73849951
4940.84022734
4940.98596772
4941.17598984
4941.40835082
4941.67587437
4941.97107814
4942.28362808
4942.60263429
4942.91585714
4943.211212
4943.47722871
4943.70409048
4943.8828817
4943.99552243
4944.00993596
4940.51792768
4940.58693199
4940.61761376
4940.65198472
4940.71534165
4940.81707863
4940.96288873
4941.15185833
4941.38349422
4941.64980941
4941.94422375
4942.2562366
4942.575031
4942.88810925
4943.18316395
4943.44861425
4943.67434247
4943.85112116
4943.9608301
4943.97083806
4940.53893747
4940.61163277
4940.64425337
4940.67946234
4940.74266411
4940.84332698
4940.98735793
4941.1728906
4941.40181634
4941.66433994
4941.95499352
4942.2631793
4942.57826865
4942.88816095
4943.1804468
4943.44334462
4943.66639347
4943.84026363
4943.94697097
4943.95397516
4940.61911735
4940.69343818
4940.72698827
4940.76242626
4940.82457206
4940.92278137
4941.06297369
4941.24262873
4941.46540489
4941.72071458
4942.00424834
4942.30556531
4942.61427519
4942.91849249
4943.20576503
4943.46422283
4943.68326444
4943.85348786
4943.95737725
4943.96270047
4940.75788792
4940.83169728
4940.8649633
4940.89957733
4940.95961751
4941.05407096
4941.18864254
4941.36072799
4941.57465348
4941.82021571
4942.09371025
4942.38513434
4942.68447255
4942.9801341
4943.25984574
4943.51185184
4943.72557655
4943.89171436
4943.99303303
4943.99800481
4940.94860767
4941.0197103
4941.05142116
4941.08401648
4941.14088748
4941.23038399
4941.35777686
4941.52101043
4941.72386096
4941.9577045
4942.21886036
4942.49804721
4942.78571431
4943.07055284
4943.34064544
4943.58450998
4943.79178133
4943.95338732
4944.05247198
4944.05838237
4941.17940185
4941.24574237
4941.274677
4941.30437102
4941.35723549
4941.44083769
4941.55997858
4941.71359904
4941.90379558
4942.12453493
4942.37185914
4942.63737572
4942.91199129
4943.18460861
4943.44373372
4943.6782806
4943.87836698
4944.03501592
4944.13199207
4944.13978561
4941.43472507
4941.49448658
4941.51973031
4941.54597636
4941.59442431
4941.67146922
4941.78168632
4941.9252545
4942.10301726
4942.31060244
4942.54377735
4942.79496455
4943.05557139
4943.31506279
4943.56242734
4943.78689814
4943.9789927
4944.13043303
4944.22549732
4944.23624187
4941.69699132
4941.7487544
4941.76989611
4941.79299155
4941.83667871
4941.90702085
4942.00810873
4942.14136997
4942.30707814
4942.50181573
4942.72125561
4942.95849204
4943.20540692
4943.45205413
4943.68779697
4943.90211178
4944.08622885
4944.23206115
4944.32531332
4944.33997135
4941.94813111
4941.99112196
4942.00839894
4942.02875871
4942.06809399
4942.13216779
4942.22477008
4942.34816482
4942.50265591
4942.68546265
4942.89230147
4943.11677735
4943.35110984
4943.58586292
4943.81069453
4944.01560074
4944.19181622
4944.33194325
4944.42335679
4944.44265488
4942.17125578
4942.20570071
4942.22016861
4942.23887953
4942.27471508
4942.33310121
4942.41805477
4942.53258987
4942.67703953
4942.8492468
4943.04519678
4943.25887266
4943.48262074
4943.7073031
4943.92279508
4944.11926226
4944.2883066
4944.42281147
4944.51211399
4944.53615592
4942.3517557
4942.37885974
4942.39202615
4942.41042687
4942.44379022
4942.49740149
4942.57576047
4942.68223575
4942.81803147
4942.98130762
4943.16868218
4943.37431
4943.59030498
4943.80751722
4944.01592884
4944.205837
4944.36888818
4944.49811425
4944.58490446
4944.61309164
4942.47847786
4942.49771313
4942.50891726
4942.5258026
4942.55555347
4942.60364588
4942.67530857
4942.77465167
4942.90345701
4943.06059214
4943.24254869
4943.44343805
4943.65541021
4943.86920764
4944.07467199
4944.2619504
4944.42244101
4944.54902979
4944.63472871
4944.66776101
4942.54003731
4942.54401335
4942.54714383
4942.55658414
4942.57760731
4942.61667324
4942.68009428
4942.77274706
4942.89676423
4943.05101371
4943.23186091
4943.43307349
4943.64650795
4943.86282381
4944.07172727
4944.26318286
4944.42805991
4944.55866807
4944.64919527
4944.69320395
4941.09664248
4941.10189928
4941.10696499
4941.1239617
4941.16327059
4941.23550927
4941.34995284
4941.51264019
4941.7249544
4941.98315115
4942.27938641
4942.60238601
4942.93899781
4943.2744943
4943.59408316
4943.8837272
4944.13095632
4944.32550805
4944.45948991
4944.52379156
4941.04686784
4941.07266468
4941.0898349
4941.11785661
4941.1702168
4941.25602447
4941.38277837
4941.55525994
4941.77433538
4942.03633476
4942.33369067
4942.65540518
4942.98835443
4943.31790053
4943.62942348
4943.90951554
4944.14684609
4944.33226712
4944.45552249
4944.50087453
4940.94949372
4940.9878446
4941.00746455
4941.03331666
4941.08477226
4941.1719913
4941.30253782
4941.48052527
4941.70602099
4941.97462647
4942.27755378
4942.6035311
4942.94016303
4943.27267954
4943.58677403
4943.8693808
4944.10934916
4944.29710951
4944.41827235
4944.45255115
4940.81948258
4940.86891623
4940.8861642
4940.90298414
4940.94667878
4941.02983954
4941.16122173
4941.34375987
4941.57663447
4941.8531865
4942.16419551
4942.49791805
4942.84156637
4943.18095007
4943.50272703
4943.79341608
4944.04195709
4944.23764756
4944.36074901
4944.38585518
4940.6751252
4940.73678655
4940.75157986
4940.75915614
4940.79499232
4940.87457194
4941.00732277
4941.19557256
4941.43650329
4941.7217468
4942.04147464
4942.38333326
4942.73453559
4943.08119949
4943.41063834
4943.70855048
4943.96505793
4944.16810401
4944.29280069
4944.30821008
4940.53770242
4940.61158033
4940.62480755
4940.62484161
4940.65482451
4940.73290171
4940.8687726
4941.06267908
4941.31145356
4941.60461969
4941.93198782
4942.28053561
4942.63768634
4942.98931905
4943.32295489
4943.62697574
4943.8890358
4944.09707044
4944.22213239
4944.22832186
4940.42992747
4940.51446941
4940.52734376
4940.52261646
4940.54939154
4940.62792734
4940.76720982
4940.96551712
4941.22103469
4941.51984415
4941.85212325
4942.20414997
4942.56404118
4942.9175685
4943.25264723
4943.55853104
4943.82344719
4944.03389729
4944.15800866
4944.15651773
4940.37275996
4940.46544524
4940.47903746
4940.47243221
4940.49816207
4940.57739174
4940.71897578
4940.91807162
4941.17706238
4941.47677562
4941.80965685
4942.1612816
4942.52067852
4942.87346452
4943.20760317
4943.51290518
4943.77803635
4943.98799151
4944.11011086
4944.10298733
4940.38176076
4940.47973788
4940.49459088
4940.48802402
4940.5137009
4940.59316346
4940.73570324
4940.93264619
4941.19521174
4941.49320158
4941.82260427
4942.168255
4942.52021442
4942.86660792
4943.19568487
4943.49719777
4943.75948284
4943.96689143
4944.08639691
4944.07573234
4940.46476088
4940.56518001
4940.58140896
4940.57526325
4940.60068258
4940.67889126
4940.81919773
4941.00989394
4941.26820482
4941.55810575
4941.87892998
4942.21543649
4942.55828645
4942.896513
4943.21852474
4943.51413502
4943.77158937
4943.97531235
4944.09147661
4944.07907183
4940.62109936
4940.72123788
4940.73807259
4940.73225478
4940.75670535
4940.8317854
4940.96632029
4941.1480334
4941.39555322
4941.67340122
4941.98176511
4942.30602973
4942.63721296
4942.96467485
4943.27711989
4943.56452323
4943.815197
4944.01359562
4944.12679021
4944.11424588
4940.84191709
4940.93901602
4940.95527667
4940.94953413
4940.97209398
4941.04213449
4941.16743539
4941.33775856
4941.56868102
4941.83097003
4942.12378715
4942.43382182
4942.75205481
4943.06727392
4943.36847947
4943.64596947
4943.88828865
4944.07994757
4944.19056616
4944.17948992
4941.11189003
4941.20306873
4941.21845453
4941.21228609
4941.23227168
4941.29598787
4941.41004931
4941.56789674
4941.77758337
4942.02142607
4942.29642248
4942.59099832
4942.89570753
4943.19798944
4943.48703761
4943.75355173
4943.98659651
4944.17144174
4944.27842113
4944.27002374
4941.41117366
4941.49351784
4941.50764113
4941.50186671
4941.51900036
4941.5754842
4941.67757315
4941.82221539
4942.01261948
4942.23852189
4942.49535425
4942.77304958
4943.06190187
4943.34948963
4943.62529649
4943.87981847
4944.10211951
4944.27894314
4944.38244271
4944.37841267
4941.71798123
4941.78885417
4941.80166759
4941.79753147
4941.81310188
4941.86258952
4941.9528695
4942.08389422
4942.25666586
4942.46501811
4942.7040087
4942.96475462
4943.23757766
4943.51060596
4943.77317534
4944.01516796
4944.22560996
4944.39313281
4944.49307591
4944.49522083
4942.01065348
4942.06834287
4942.08023316
4942.07973013
4942.09581449
4942.14031038
4942.22053687
4942.33898955
4942.49642656
4942.6888158
4942.91128555
4943.15592812
4943.41331352
4943.67207459
4943.92116372
4944.14965761
4944.34753702
4944.5048073
4944.6009759
4944.61085607
4942.26967562
4942.31407627
4942.3256764
4942.33019551
4942.34914141
4942.391547
4942.46473863
4942.57263642
4942.71719677
4942.89570481
4943.10361887
4943.33403407
4943.5775277
4943.82277474
4944.05855776
4944.27386817
4944.45917538
4944.60585259
4944.69818303
4944.7162994
4942.47884128
4942.51138119
4942.52294652
4942.53265426
4942.55505661
4942.59716887
4942.66551959
4942.76539364
4942.89985898
4943.06689356
4943.2623193
4943.4819807
4943.71428285
4943.94866707
4944.17337233
4944.37741603
4944.55174357
4944.68897007
4944.77792515
4944.80349403
4942.62531223
4942.64510636
4942.65257655
4942.6619077
4942.68265664
4942.72103009
4942.78362055
4942.87637718
4943.00269791
4943.16219126
4943.351393
4943.56376895
4943.78991411
4944.01891685
4944.23869372
4944.43811923
4944.60820686
4944.74203171
4944.83158456
4944.86548452
4942.69717243
4942.6964285
4942.69096582
4942.68848713
4942.69597821
4942.7212036
4942.77244256
4942.85662727
4942.97727949
4943.13379623
4943.3222067
4943.53546221
4943.76413416
4943.9972473
4944.22274319
4944.42937567
4944.60732576
4944.74861249
4944.84659719
4944.89493083
4941.20707423
4941.20281923
4941.19360823
4941.19236951
4941.21326981
4941.26995627
4941.37488117
4941.53676105
4941.75854758
4942.03624476
4942.36065336
4942.71784584
4943.09185265
4943.46463606
4943.81878934
4944.13843053
4944.41014056
4944.62340077
4944.76968902
4944.84176797
4941.13864718
4941.15447211
4941.1594743
4941.17301267
4941.21223479
4941.2881128
4941.41035487
4941.58593205
4941.81722761
4942.10037838
4942.42682963
4942.78308129
4943.15299271
4943.51831479
4943.86159219
4944.16785059
4944.42544255
4944.62591232
4944.75909487
4944.81181173
4941.00980419
4941.0405995
4941.04672195
4941.05270737
4941.08428232
4941.15497649
4941.27648599
4941.45582746
4941.69507894
4941.98739884
4942.32321698
4942.6882257
4943.06727081
4943.44179675
4943.79429896
4944.10968505
4944.3755587
4944.58227754
4944.71401226
4944.75321924
4940.83624668
4940.88199546
4940.88016279
4940.86495746
4940.87538342
4940.93143141
4941.04836782
4941.23163747
4941.48037733
4941.78553121
4942.13553611
4942.5150894
4942.90828189
4943.29738568
4943.66591286
4943.99945527
4944.28430972
4944.50749849
4944.64481238
4944.67132646
4940.64094087
4940.70358265
4940.69134888
4940.65232714
4940.64154408
4940.68605728
4940.80118422
4940.99153252
4941.2537824
4941.57458949
4941.94067119
4942.33536338
4942.74287499
4943.14525181
4943.52730427
4943.87584859
4944.17801327
4944.41793132
4944.56164188
4944.57455967
4940.45048245
4940.52997527
4940.50723684
4940.4470942
4940.42074248
4940.45745183
4940.57545449
4940.77570325
4941.05405944
4941.39085549
4941.77186087
4942.17889381
4942.59730817
4943.00877348
4943.39905156
4943.75686635
4944.07045734
4944.32310496
4944.4720795
4944.47231633
4940.29433494
4940.38842505
4940.35783685
4940.28359182
4940.24677688
4940.28126039
4940.40645572
4940.61658423
4940.91179168
4941.26145823
4941.65263835
4942.06536684
4942.48795594
4942.9024461
4943.29543541
4943.65660337
4943.97565611
4944.2352326
4944.38737401
4944.37743603
4940.20088609
4940.30616875
4940.27125404
4940.18971005
4940.14875148
4940.18466029
4940.31744695
4940.53030535
4940.83788808
4941.19071547
4941.58446387
4941.99681506
4942.41928541
4942.83312882
4943.22514323
4943.58585393
4943.90577512
4944.16755381
4944.32056305
4944.30341881
4940.1919196
4940.30476796
4940.26917056
4940.18569818
4940.14499664
4940.18397104
4940.32444533
4940.534774
4940.86704948
4941.22197628
4941.61285726
4942.01294916
4942.41768503
4942.8178634
4943.20035793
4943.5548931
4943.87130687
4944.13175954
4944.28278336
4944.26124115
4940.27869675
4940.39550134
4940.36167839
4940.2792846
4940.24056073
4940.28122412
4940.42379908
4940.62492935
4940.95895004
4941.30231073
4941.68174514
4942.06864134
4942.45991803
4942.84810617
4943.22021589
4943.56631216
4943.87636008
4944.13231257
4944.2800773
4944.25656604
4940.46066698
4940.57804747
4940.54676519
4940.46747416
4940.43074492
4940.47020285
4940.607173
4940.79681833
4941.11623309
4941.44387242
4941.80690758
4942.17773067
4942.55351705
4942.92733594
4943.28666548
4943.6217101
4943.92250783
4944.17089047
4944.31486632
4944.29138709
4940.72525624
4940.83974339
4940.81127735
4940.73621783
4940.70075827
4940.7357356
4940.85887363
4941.03387568
4941.32398277
4941.63020433
4941.97261263
4942.32695459
4942.68896586
4943.04896402
4943.39491401
4943.71741314
4944.00667138
4944.24268697
4944.38482999
4944.36338384
4941.05136185
4941.15900584
4941.13395243
4941.06448697
4941.03030166
4941.05910088
4941.16464806
4941.32526954
4941.57201292
4941.85132866
4942.16938815
4942.5073673
4942.85771806
4943.20493913
4943.53729053
4943.84633707
4944.12345842
4944.35185662
4944.48475613
4944.46638972
4941.41229239
4941.50888266
4941.48889579
4941.42651915
4941.39403185
4941.41584996
4941.50380044
4941.64823474
4941.86110802
4942.11594447
4942.40979509
4942.72770084
4943.05944692
4943.3889189
4943.70467005
4943.9984842
4944.26155856
4944.47807167
4944.60349265
4944.59082813
4941.78003607
4941.86145123
4941.84758388
4941.79556987
4941.76670905
4941.78265329
4941.85461328
4941.98076339
4942.16514422
4942.39495382
4942.66446794
4942.96127083
4943.27335599
4943.58467599
4943.88364758
4944.161833
4944.40935527
4944.61083205
4944.72853102
4944.72455239
4942.12794281
4942.19134364
4942.18429341
4942.14718167
4942.12495844
4942.13884636
4942.19872084
4942.30815928
4942.46947648
4942.67624926
4942.92266695
4943.1980896
4943.49002599
4943.78312449
4944.06523507
4944.32633177
4944.55559916
4944.73922291
4944.84873275
4944.8561689
4942.43349808
4942.47843323
4942.47765399
4942.45773427
4942.44846492
4942.46418178
4942.51735775
4942.61400846
4942.75749091
4942.94481022
4943.17082743
4943.42600468
4943.69861504
4943.97394216
4944.23874917
4944.48097166
4944.68961992
4944.85447034
4944.95618314
4944.97585759
4942.67893129
4942.70767608
4942.71130797
4942.70659256
4942.7115001
4942.73461246
4942.78591401
4942.87415087
4943.00506622
4943.1776382
4943.38779729
4943.6248462
4943.88057573
4944.13981456
4944.38758198
4944.61108097
4944.80063779
4944.94929671
4945.04488626
4945.0751258
4942.84999384
4942.86315026
4942.86325522
4942.86230876
4942.87094381
4942.89558829
4942.94461418
4943.02704225
4943.1487115
4943.31089694
4943.50997273
4943.73763517
4943.98300131
4944.23256527
4944.47105593
4944.68550607
4944.86692318
4945.0095197
4945.1055554
4945.14594956
4942.93618537
4942.9282278
4942.9125028
4942.89547113
4942.88572705
4942.89232671
4942.92622458
4942.99779744
4943.11279448
4943.27146469
4943.46958756
4943.69872817
4943.94754032
4944.20271312
4944.44928417
4944.67433341
4944.86746594
4945.02071539
4945.12716338
4945.18159843
4941.39858871
4941.37831368
4941.34917492
4941.32409707
4941.32103446
4941.35676987
4941.44828866
4941.60831363
4941.8421303
4942.14497253
4942.50563189
4942.90626844
4943.32701654
4943.74523248
4944.14029843
4944.49398256
4944.79262492
4945.0261894
4945.18562388
4945.26979493
4941.30242228
4941.29350595
4941.27641979
4941.26676995
4941.28503007
4941.34419893
4941.45743925
4941.63469849
4941.88102726
4942.19182005
4942.55664367
4942.95841808
4943.37665231
4943.78781583
4944.17061551
4944.50864007
4944.79051253
4945.00963101
4945.15745463
4945.22769362
4941.13217233
4941.1356409
4941.11428438
4941.08743632
4941.08594659
4941.12740856
4941.23042434
4941.40681378
4941.6622661
4941.98653928
4942.36750446
4942.78667547
4943.22308493
4943.6548986
4944.05888082
4944.41776141
4944.7175164
4944.94926146
4945.09879567
4945.15726707
4940.90153512
4940.91987075
4940.880424
4940.81261672
4940.76790735
4940.7759251
4940.86567741
4941.04592037
4941.3163743
4941.66251821
4942.06842191
4942.51300661
4942.97591897
4943.43396913
4943.86666051
4944.25779515
4944.59146839
4944.85229048
4945.01323556
4945.05737684
4940.63850282
4940.67514425
4940.61047662
4940.49407915
4940.4064912
4940.38889582
4940.47312575
4940.66605778
4940.96196715
4941.33680049
4941.77155454
4942.24252418
4942.73047628
4943.21133006
4943.66643032
4944.08161045
4944.44347746
4944.73414902