/*--------------------------------*- C++ -*----------------------------------*\
| =========                 |                                                 |
| \\      /  F ield         | OpenFOAM: The Open Source CFD Toolbox           |
|  \\    /   O peration     | Version:  3.0.1                                 |
|   \\  /    A nd           | Web:      www.OpenFOAM.org                      |
|    \\/     M anipulation  |                                                 |
\*---------------------------------------------------------------------------*/
FoamFile
{
    version     2.0;
    format      ascii;
    class       surfaceVectorField;
    location    "2.6";
    object      Uf;
}
// * * * * * * * * * * * * * * * * * * * * * * * * * * * * * * * * * * * * * //

dimensions      [0 1 -1 0 0 0 0];

internalField   nonuniform List<vector> 
22672
(
(0.000292073353182 7.62972960388e-05 -0.000271617352371)
(7.596932282e-05 0.000291604886405 -0.000268875239481)
(0.000167419815437 0.000170536956751 -0.000583679044929)
(0.000751694318348 1.6550017669e-05 -0.000281366756993)
(0.000446782854996 0.000206406957187 -0.000437610940067)
(0.000588728302986 0.000155711553158 -0.00066602883415)
(0.00122686101122 -6.45999100911e-06 -0.000242478204101)
(0.00102301237615 0.000182452579967 -0.000481349031782)
(0.00112258728739 0.000162481409888 -0.000657620211949)
(0.00159619710905 1.05642716704e-06 -0.000174113757262)
(0.00150375262469 0.000202446748844 -0.000441603608385)
(0.00156438173651 0.000188519034934 -0.000571783759672)
(0.00178197784657 3.36252947446e-05 -9.6793863429e-05)
(0.00182448297607 0.000262627646725 -0.000367072244522)
(0.00184953985112 0.000229834135794 -0.000448409226688)
(0.00174846296289 7.69922562784e-05 -2.18818306234e-05)
(0.0019157084953 0.000342214794824 -0.00027632868055)
(0.0019170793139 0.000275796209305 -0.000308700651511)
(0.00150280228357 0.000119463460448 4.34523635216e-05)
(0.00176784670847 0.000418440331127 -0.000186177126371)
(0.0017559703193 0.000315359837194 -0.000172780279883)
(0.00107871891296 0.000152976527095 9.25998008335e-05)
(0.00140314760811 0.000480264876062 -0.000106165958738)
(0.00138634323931 0.000344670555792 -5.61820375683e-05)
(0.000533902774206 0.000171807457355 0.000119731445763)
(0.000874407540993 0.00051825372643 -5.00271015792e-05)
(0.000859378341526 0.000360958161551 2.65619352822e-05)
(-6.351574228e-05 0.000174437238857 0.000125443269444)
(0.000251735171663 0.000530100588702 -2.36938220783e-05)
(0.000243432850392 0.00036442866755 6.73174499209e-05)
(-0.000640685957037 0.00016147818762 0.000112358334347)
(-0.000386552909911 0.000517530075074 -2.68852085265e-05)
(-0.000385788127843 0.000356065794334 5.96396045935e-05)
(-0.00113107261161 0.000134188713672 8.06548638981e-05)
(-0.00096480374135 0.000482729931936 -5.6916915454e-05)
(-0.00095666443974 0.000337017355507 7.65608869986e-06)
(-0.00148516468887 9.59522721257e-05 3.21607323091e-05)
(-0.00142194017623 0.000427528028307 -0.000111511500863)
(-0.00141023063599 0.000308741088453 -7.343669898e-05)
(-0.0016643638957 5.3537746969e-05 -2.71139317495e-05)
(-0.00170838847171 0.000358631059397 -0.000182899231328)
(-0.00169852694901 0.000273294825104 -0.000179432697934)
(-0.00165206966876 1.42722636963e-05 -9.30678381911e-05)
(-0.00179481889914 0.000285220577209 -0.000261388878626)
(-0.00179459132955 0.000234305897674 -0.000297515700579)
(-0.00145146468109 -1.20787988911e-05 -0.0001605836907)
(-0.00167163279515 0.000216668278782 -0.000340349124295)
(-0.00169166860534 0.000195019786833 -0.000417274145329)
(-0.00109886110268 -1.45254248749e-05 -0.000220068219868)
(-0.00135620410571 0.000170207970475 -0.000405979376372)
(-0.00140848623132 0.0001632894181 -0.000522812332781)
(-0.000663589278731 9.44423867416e-06 -0.000252896556208)
(-0.000909061543165 0.000160008543982 -0.00044053029659)
(-0.000998582099645 0.00014521594063 -0.000595281000401)
(-0.000251630421226 6.44650164116e-05 -0.000240416362731)
(-0.000387567541409 0.00018569370779 -0.000398163020672)
(-0.00051827293986 0.000140933420932 -0.000597653066714)
(-5.83705637474e-05 0.000262670079344 -0.000237210604905)
(-0.000143415446068 0.000152662637964 -0.000514300816845)
(0.000213607168469 0.000437256157564 -0.000434868827177)
(1.66596631343e-05 0.000737137336658 -0.00027603112856)
(0.000162316559467 0.000584628318749 -0.000659140554377)
(0.000736449974843 0.000390554720638 -0.000637593214856)
(0.00040674955397 0.00070696385904 -0.000640382862192)
(0.000602714338671 0.000578291834736 -0.00102340074497)
(0.00130826598223 0.000411817478756 -0.000680474436066)
(0.00108934714564 0.000745971660786 -0.000765127633883)
(0.00120239997274 0.000625021524018 -0.00113533613707)
(0.00175293116451 0.000488156180478 -0.000634562095646)
(0.00164755095443 0.000848763156209 -0.000740356290518)
(0.00169283763698 0.000719780296527 -0.00109098258952)
(0.00198113803656 0.000599788287415 -0.000546607061644)
(0.00201535374564 0.000998908336397 -0.000649891392335)
(0.00200839826327 0.000844370426949 -0.000964488464529)
(0.00195553188959 0.000716222077293 -0.000440623976298)
(0.00211838972366 0.00115998042023 -0.000526630572544)
(0.00208555801347 0.000970666033465 -0.000792160253435)
(0.00168440147374 0.000814714617309 -0.000335795448631)
(0.00194989189975 0.00129746103241 -0.000397911583005)
(0.00191153132653 0.00107408448709 -0.000607890927093)
(0.00120898706053 0.000882662209317 -0.000248792861151)
(0.0015405933103 0.00139671718909 -0.00028273004201)
(0.00150948971684 0.00114494748964 -0.00044103843182)
(0.000596785985084 0.000914165977715 -0.00019345236942)
(0.000952110314823 0.00144940414428 -0.000199308764037)
(0.000935121577984 0.00117992454175 -0.000318949813869)
(-7.24454992516e-05 0.000910464615078 -0.000176022300049)
(0.000264723784939 0.00145743120529 -0.000158070618532)
(0.000263983600716 0.00118260228233 -0.000258099606327)
(-0.000718156360071 0.00087494645841 -0.000196160458328)
(-0.000436071415333 0.00142647268607 -0.000161883804321)
(-0.000421264266305 0.0011582078718 -0.000263232287952)
(-0.00126765415625 0.000810469432088 -0.000249083280215)
(-0.00107071499637 0.00136115726909 -0.000206934492723)
(-0.00104271395333 0.0011100573495 -0.000328930185614)
(-0.00166151221354 0.000722079581422 -0.000326571464499)
(-0.00157249323304 0.00126510688066 -0.000285246208958)
(-0.00153513045567 0.00104006545232 -0.000443721560675)
(-0.00185717846807 0.000618876379523 -0.000417174178204)
(-0.00188662480439 0.00114454142507 -0.00038604827642)
(-0.0018469514351 0.000950901727119 -0.000590244978904)
(-0.00183324416435 0.000512310345527 -0.00050867016473)
(-0.00198018012257 0.00100868181254 -0.000496040702393)
(-0.00194911074324 0.000847678174197 -0.000747396459704)
(-0.00159227630493 0.000419788439613 -0.000585744809967)
(-0.00183880097345 0.000869238435216 -0.000601333124789)
(-0.00183415540163 0.000738048028409 -0.000893538917011)
(-0.00117086192057 0.000362652919935 -0.000626441453094)
(-0.00147814518864 0.000749977429371 -0.000679838734945)
(-0.00152220767606 0.000638450647131 -0.00100118464376)
(-0.000647716947326 0.000352515805568 -0.000585796761054)
(-0.00096213677502 0.000673705087535 -0.000700632022764)
(-0.00106871865672 0.000566204253321 -0.00103684215886)
(-0.000178718828638 0.000397713634072 -0.000394957262846)
(-0.000346756201609 0.000647172917494 -0.000584852019678)
(-0.000529222635588 0.000530951248613 -0.00093047783587)
(-3.91444562276e-06 0.000671887364283 -0.000244299956822)
(-0.000139885444185 0.000534895796392 -0.000587936422382)
(0.000190144085238 0.000990196578201 -0.000481545163575)
(-9.10749085463e-06 0.0012022044077 -0.00023945529471)
(0.000171920853373 0.00109570619667 -0.000655212190398)
(0.00078128778061 0.0010425960048 -0.000767917281219)
(0.000428175948447 0.00126193265669 -0.000693326446296)
(0.000657768174417 0.00115210307812 -0.00114611362643)
(0.00143455741706 0.0011604533607 -0.000825009488334)
(0.00121306757299 0.0013781371873 -0.000834168886651)
(0.00132860928617 0.00126730839831 -0.00128543629832)
(0.00193213584491 0.00133398665396 -0.000755685587207)
(0.00183803062274 0.00156131724297 -0.000776763303394)
(0.00186011964199 0.00144228127763 -0.00121013358749)
(0.00217612383722 0.00153046868023 -0.000629914903235)
(0.00223200354124 0.0017828272625 -0.000636668212297)
(0.00218699504623 0.00164606709431 -0.00102790787994)
(0.00213371196593 0.00170995117423 -0.000483918179251)
(0.00232144961915 0.00199698459415 -0.00046355222641)
(0.00224868172226 0.00183859853448 -0.00079459312242)
(0.00182219244148 0.0018463274076 -0.000344846176384)
(0.00211132108264 0.00216555688465 -0.000294167040791)
(0.00204003800965 0.00198823880108 -0.000556577000748)
(0.00129358172085 0.00192932677937 -0.000233245944896)
(0.00164562963636 0.00227592318745 -0.000152060253627)
(0.00159387766904 0.00208373062836 -0.000350595827494)
(0.000624049088779 0.00195837095734 -0.000163927013149)
(0.000997114428814 0.002324441869 -5.38319797011e-05)
(0.000973004998989 0.00212476780267 -0.000205505567829)
(-0.000100139812607 0.00193960555249 -0.000143932122804)
(0.000253268853165 0.00231967791771 -8.88598816344e-06)
(0.000257606919197 0.00211930550725 -0.000138058273855)
(-0.000795519872065 0.00187978730992 -0.000172657838716)
(-0.000498009668591 0.00227072848283 -1.85324079562e-05)
(-0.000467821342706 0.00207631739867 -0.000148876247934)
(-0.00138772205979 0.00178422438713 -0.000243097421465)
(-0.00117674023431 0.00218466601687 -7.74935923284e-05)
(-0.00112476768954 0.00200186087659 -0.0002313071618)
(-0.0018138650747 0.0016578152601 -0.000344723020878)
(-0.00171536488787 0.00206600450894 -0.000176520790861)
(-0.00164712994723 0.00189891054136 -0.000374755323329)
(-0.0020284395525 0.00150686649569 -0.000464914800608)
(-0.00205748264105 0.00191834585681 -0.000304504923996)
(-0.00198244334255 0.0017691762331 -0.000559230759833)
(-0.00200500426198 0.00134066141621 -0.000588703662451)
(-0.00216624127502 0.00174709650631 -0.000448697207113)
(-0.0020991108411 0.00161618089141 -0.000761850845125)
(-0.00174135689652 0.0011771105518 -0.000695427049767)
(-0.00202050772316 0.00156160587884 -0.000592771842904)
(-0.00198549085946 0.00144807397432 -0.000956015658422)
(-0.00127105073171 0.00104114551815 -0.000754029304616)
(-0.00162934021167 0.00138599096704 -0.000709091439676)
(-0.00165748492991 0.00128445639535 -0.00110632045944)
(-0.000678996017824 0.000950629150155 -0.000699687281388)
(-0.00105580745036 0.00124636013735 -0.000754590054962)
(-0.00116831869362 0.00114868982403 -0.00116471036715)
(-0.000154519272699 0.000906370941935 -0.000434194713655)
(-0.000356876980498 0.00115560630507 -0.000624205641815)
(-0.000570535395168 0.00105724676742 -0.00103291059895)
(2.06574364324e-05 0.00109627029303 -0.000207198992474)
(-0.000147312265202 0.00100228954851 -0.000578902475273)
(0.000207061877233 0.00146530807401 -0.000451236577432)
(-5.82478648329e-06 0.0015770052562 -0.000176147743697)
(0.000197470161215 0.00153302917194 -0.000581863853306)
(0.000884530114633 0.00159147536559 -0.000759578051728)
(0.000501321732328 0.00170982854995 -0.00066325700191)
(0.000754867260201 0.00163773321264 -0.00112536535595)
(0.00162180445868 0.0017738039132 -0.000785922701711)
(0.00138851452452 0.001878305972 -0.00078476842486)
(0.00150875150515 0.00179462761006 -0.00123744434927)
(0.00216229580716 0.00200413580293 -0.000657745928485)
(0.00207214556344 0.00210416310615 -0.000668914851035)
(0.00208218073059 0.00201204675186 -0.00108333836358)
(0.00240263095676 0.00224143525806 -0.000470305535472)
(0.00247467697963 0.00235157364414 -0.000462313736651)
(0.00240825015794 0.00225084053398 -0.000809082568489)
(0.00232109387922 0.0024427958859 -0.00027380108795)
(0.00252962884728 0.00257305869599 -0.000233091385745)
(0.00243469876892 0.00246570263007 -0.000494537918807)
(0.00195133535831 0.0025835474534 -0.000101381118034)
(0.00226061846809 0.00273439097196 -2.69826112934e-05)
(0.00217191935444 0.00262424172689 -0.000199076313008)
(0.00135860417622 0.00265799659482 2.73537115675e-05)
(0.00172779585919 0.00282614642522 0.000134782629369)
(0.00166691218753 0.00271722603634 4.25073250754e-05)
(0.000629935968844 0.00267203825457 0.000101209045285)
(0.00101733668643 0.00285297170842 0.000238167383495)
(0.00099247119497 0.00274775501686 0.000200137833237)
(-0.000146196575335 0.00263703405925 0.000116513726685)
(0.000221737712624 0.00282888188697 0.000278915727471)
(0.000232457130398 0.00272842555511 0.000266928069792)
(-0.000886153067148 0.0025627204486 7.66318384315e-05)
(-0.000571964504001 0.00276729868898 0.00025976662558)
(-0.000529805587965 0.00267150373449 0.000243385756893)
(-0.0015169013031 0.00245513993536 -1.09169617235e-05)
(-0.00128668743809 0.00267667371773 0.000187557075733)
(-0.00121869766904 0.00258476734116 0.000138739942929)
(-0.00197578840825 0.00231712256376 -0.000136302693979)
(-0.00185757394099 0.0025597891759 7.06951711083e-05)
(-0.00177058190677 0.00247073712238 -3.48982371265e-05)
(-0.00221524497582 0.00215112729153 -0.000288287330501)
(-0.00222874349755 0.00241596797241 -8.12215656305e-05)
(-0.00213345412092 0.00232929490882 -0.000258166303461)
(-0.00220245775368 0.00196259748714 -0.000452765387566)
(-0.00235929804513 0.00224596587397 -0.000257199358698)
(-0.00227248405267 0.00216163492776 -0.000511657396398)
(-0.00192653637554 0.00176665653008 -0.000606436232812)
(-0.00222000556082 0.00205465579554 -0.000443447856402)
(-0.00216920521956 0.00197373681952 -0.000768972094878)
(-0.00141415460508 0.00158776734632 -0.000709652190022)
(-0.00180947009287 0.0018617053707 -0.000608038616052)
(-0.00183071838392 0.00178448353771 -0.000988096887853)
(-0.000753702982892 0.00144668341986 -0.000679108415389)
(-0.00118566688769 0.00169133268315 -0.00069665909517)
(-0.00130420882364 0.00161855261662 -0.00110542472802)
(-0.000162830384412 0.0013380954916 -0.000397209920634)
(-0.000408057091295 0.00155894852007 -0.000581887427868)
(-0.000641191081363 0.00149563861046 -0.00099421522894)
(2.04696082357e-05 0.0014332766409 -0.000143661669874)
(-0.000164944774529 0.00139675916076 -0.000499836966648)
(0.000262946174367 0.0018005441449 -0.000388168168175)
(2.23863955921e-05 0.00178746360095 -0.000104220190458)
(0.000237929697568 0.00183377313279 -0.000473405743716)
(0.00103320186564 0.00197459527262 -0.000688447375042)
(0.000609598821533 0.00196542568204 -0.000591736810979)
(0.000880559371086 0.00197231548658 -0.00102585414556)
(0.00184505161498 0.00218460686546 -0.000667760574184)
(0.00158661548807 0.0021527063458 -0.000679500712078)
(0.00171641385756 0.00214413093917 -0.00108625143932)
(0.00241148748859 0.00242526645953 -0.000473482659201)
(0.00231304455878 0.00237832929828 -0.000502540017605)
(0.00232448929604 0.00236434369108 -0.000840603317645)
(0.00262886864113 0.00265509806296 -0.000225099586923)
(0.00270648959364 0.00260629894639 -0.000234489506942)
(0.00263683426419 0.00259295157124 -0.000472107604137)
(0.0024926405125 0.00283504922716 1.37270909117e-05)
(0.00271192949831 0.00279519617459 3.78528777357e-05)
(0.002614382443 0.00278725791075 -8.59103746808e-05)
(0.00205370537459 0.002946352358 0.00020918113611)
(0.00237548653406 0.00291644809341 0.000266973865516)
(0.00228753439951 0.00291979452638 0.000256877120396)
(0.0013954427389 0.00299015552679 0.000345596301297)
(0.00177465544789 0.00296967794992 0.000435223066527)
(0.00171843937053 0.00298556337783 0.000514730327949)
(0.000612281458223 0.00297875842135 0.000415874065682)
(0.0010088799819 0.00296395523207 0.000532574612019)
(0.000990719470949 0.00299162784902 0.000672177054748)
(-0.000206051199669 0.00292838968749 0.000422168626366)
(0.000173674050525 0.0029193890872 0.000562971086635)
(0.000191252992831 0.00295488190952 0.000727824795546)
(-0.000979614136857 0.00285103770408 0.000370691862882)
(-0.000648005254311 0.00285214340582 0.000533411786928)
(-0.000600058327822 0.0028900890503 0.000688717559584)
(-0.00164000905987 0.00275184207442 0.000269169208565)
(-0.00138557630456 0.00277093554631 0.000451808491828)
(-0.00131338561867 0.00280571640427 0.000566132404908)
(-0.00212791893251 0.00263026408239 0.000125776299456)
(-0.00197968797394 0.00267565182675 0.000325078546543)
(-0.00188979697139 0.00270271652873 0.000372046484692)
(-0.00239410556606 0.00248406807012 -5.01335938273e-05)
(-0.00237631594139 0.00256175471003 0.0001595547734)
(-0.00227885628131 0.00257839707332 0.000120399106719)
(-0.00239920115316 0.00231308589429 -0.000247881827534)
(-0.00253107556857 0.00242504725865 -3.64349024411e-05)
(-0.00244295892235 0.00243042111953 -0.000173986620936)
(-0.00212254666532 0.00212661303703 -0.000445050239642)
(-0.00240666694672 0.00226366534261 -0.000253356644336)
(-0.00235611605412 0.00226101659038 -0.000485664842493)
(-0.00158089649953 0.00194406018974 -0.0005950455212)
(-0.0019893078307 0.00209114259982 -0.000458679440446)
(-0.00201421367567 0.00208438076578 -0.000771088108635)
(-0.000862159256173 0.00178395523953 -0.000599438107649)
(-0.00132890096975 0.00192555596926 -0.000589208690176)
(-0.00145557535679 0.00192123690872 -0.000952961077868)
(-0.000203278185468 0.0016354056004 -0.000328339177108)
(-0.000486837544285 0.00178043100871 -0.000500819211142)
(-0.000730889144136 0.00178943802297 -0.000880363948624)
(-1.40890739129e-06 0.00161650122529 -7.2302495785e-05)
(-0.000193187688967 0.00166117572711 -0.000386502983537)
(0.000339083674113 0.00192861771842 -0.000307788833263)
(6.27060475284e-05 0.001794494518 -3.30586675549e-05)
(0.000283749780253 0.00193787907451 -0.000346115918017)
(0.00119429198747 0.00211926930002 -0.000582790148016)
(0.000725210432201 0.00198736745847 -0.000498992970913)
(0.0010094594559 0.00209191402969 -0.0008771515171)
(0.00206284058824 0.00232046544176 -0.000514280155499)
(0.00177079087608 0.00216381699392 -0.000549795579003)
(0.00191502526874 0.00225358613433 -0.00087966067681)
(0.00263709051219 0.00253164030473 -0.000263546865346)
(0.00252156283847 0.00235637735838 -0.000322198729231)
(0.00254599404736 0.00244421173699 -0.000552299365628)
(0.00281883568256 0.0027167565622 2.84629577173e-05)
(0.00289222809975 0.00253572988094 -1.07478707453e-05)
(0.00283495295292 0.00262964441149 -0.000111177415287)
(0.00261919846634 0.00284550669951 0.00029109965234)
(0.00284201573601 0.0026668596467 0.000285761576607)
(0.00275812244103 0.00277518032247 0.000327972516973)
(0.00211269608021 0.00290812553642 0.000493015795934)
(0.00244008914324 0.00273443885688 0.00052121586267)
(0.00236669927663 0.0028609197778 0.000688510480112)
(0.00139632334299 0.00291158132914 0.000622201377249)
(0.00177946259322 0.00274199154791 0.00068090294327)
(0.00173755008312 0.00288686615676 0.000944058072518)
(0.000572610631874 0.00287292855628 0.000679671632972)
(0.000971812573567 0.00270268804875 0.000761890091142)
(0.000965291759965 0.00286314342983 0.00108497888708)
(-0.000270806042921 0.00281193437086 0.000674214247196)
(0.000114554132973 0.00264130916586 0.000777226467464)
(0.000138719770336 0.00281028272266 0.00112149562942)
(-0.00106112787572 0.00274136946421 0.000614528415873)
(-0.000716623036786 0.00257531198229 0.000738376488871)
(-0.00066813279161 0.00274425698756 0.00106715231406)
(-0.00173769742252 0.00266475073998 0.000507717829805)
(-0.0014605083535 0.0025128556868 0.000653720783799)
(-0.00139352099462 0.00267340007708 0.000934648475245)
(-0.00224588895661 0.00257805581744 0.000358857020487)
(-0.0020654044271 0.00245092333959 0.000527440982379)
(-0.00198507429468 0.00259659554013 0.000732919089169)
(-0.00253555807908 0.00247463936076 0.000173253464787)
(-0.00247993773464 0.00238091198362 0.000361926300351)
(-0.00239469257966 0.00250812460484 0.000470510908193)
(-0.00256239697313 0.00234884170223 -4.19097192433e-05)
(-0.00265673274423 0.00229383593115 0.000160562523908)
(-0.00258195411485 0.00240214103096 0.000158049282729)
(-0.00229440606303 0.00220305296841 -0.00026698584514)
(-0.00255154409332 0.00218341548202 -7.10708940865e-05)
(-0.00251388266226 0.00227648727953 -0.000187741943222)
(-0.00173816014426 0.00204915152819 -0.000452842609422)
(-0.0021380816683 0.00205509271209 -0.000301387287303)
(-0.00217516432571 0.00213939509159 -0.000520196806129)
(-0.000977667492787 0.00189995753019 -0.000490589793668)
(-0.00145709651228 0.00192001343122 -0.00046357595593)
(-0.00159403426152 0.00200437352292 -0.000754950699845)
(-0.000260158777636 0.00174001003408 -0.000244782529819)
(-0.000570481931004 0.00178684118764 -0.000403123178763)
(-0.00081985606938 0.0018838532067 -0.00072391930119)
(-3.3754781989e-05 0.00161398892268 -2.96171386065e-06)
(-0.000225022619239 0.00174426487944 -0.000257646697838)
(0.000414705313783 0.00183088782848 -0.000224262805205)
(0.000104309571817 0.00159717125931 3.11495327205e-05)
(0.000324545101497 0.00182561136338 -0.000217383485565)
(0.00133593633841 0.00200905947489 -0.0004659984019)
(0.0008266809436 0.00177486569194 -0.000401898155744)
(0.00111838736201 0.00197459385738 -0.000708730794858)
(0.00223988307124 0.00217570605042 -0.000357714152735)
(0.00191642321183 0.00191863186103 -0.000419796123758)
(0.00207503394281 0.00210807373033 -0.000658763152109)
(0.00280762332565 0.00233493353267 -6.93997346302e-05)
(0.00267484141946 0.00205994431619 -0.000156975909736)
(0.00271643971044 0.00225103415084 -0.000271308749445)
(0.00294630722111 0.00245942326867 0.000246550748144)
(0.00301498347837 0.00217740257404 0.000179041421918)
(0.00297733480131 0.00237901162662 0.000219641895853)
(0.00268759871391 0.00252913313622 0.000515877786937)
(0.0029117959979 0.00224774059976 0.00048319792921)
(0.00284870107104 0.00246671506647 0.000677826058945)
(0.00212289230773 0.00254152094066 0.000709103010006)
(0.0024533554532 0.00226333856292 0.000710333722033)
(0.00240012919958 0.00250198174004 0.00103580522346)
(0.00136217737968 0.00250667177229 0.000820591657163)
(0.00174566889898 0.002231378894 0.000851056751574)
(0.00172159445888 0.00248851029916 0.00127132612404)
(0.000515183227481 0.0024451854742 0.000859444925634)
(0.000911817014317 0.00216634153674 0.000908033869991)
(0.000917976227351 0.00243791949982 0.00138333922926)
(-0.00033435744119 0.00237929647928 0.000841388709139)
(5.03752239377e-05 0.00209553475751 0.000905257276723)
(7.95850800506e-05 0.00237361943735 0.00139531367467)
(-0.00112313910833 0.00232173801211 0.000777568856797)
(-0.00077249070751 0.00203626905826 0.000858906726179)
(-0.000727183250438 0.00231190134745 0.00132782323471)
(-0.00180040637746 0.00227415953774 0.000673443936373)
(-0.00150667350508 0.00199567348545 0.000777428207459)
(-0.00145028395 0.0022604325765 0.00119444817)
(-0.00231730446529 0.00222908364102 0.000530510262243)
(-0.00210959019245 0.00196865118449 0.000660783587137)
(-0.00204529543945 0.00221599863037 0.000999168998758)
(-0.00262394275993 0.00217578382392 0.000349235359472)
(-0.00253318830167 0.00194349999976 0.000506558183385)
(-0.00246696239738 0.00216994797775 0.00074404908525)
(-0.00267079259752 0.00210461177957 0.000131401349065)
(-0.00272713409257 0.00190810949714 0.00031291021837)
(-0.00267224182175 0.00211330513897 0.000432575135376)
(-0.00241733347861 0.0020124511147 -0.000105472336249)
(-0.00264167127919 0.00185297185664 8.01575745602e-05)
(-0.00262203354162 0.00204028251849 7.69834623441e-05)
(-0.00185918263506 0.00190411337854 -0.00031212063381)
(-0.00223935669118 0.00177752394902 -0.000160100824779)
(-0.00229097802034 0.00195353002684 -0.000280582967917)
(-0.00107553087954 0.001786108332 -0.000376109341024)
(-0.00155237214847 0.00168633037667 -0.000342103397229)
(-0.00169838217477 0.00185949979164 -0.000549969369774)
(-0.000316198261194 0.0016405123707 -0.000161302362805)
(-0.000641908334748 0.00158271619225 -0.000305954715111)
(-0.000891291818758 0.00176419148788 -0.000555208089865)
(-6.67693860693e-05 0.00142901029056 5.80871361112e-05)
(-0.00025262270795 0.00163272254237 -0.00013121988774)
(0.000478921320246 0.00152240918906 -0.000146485817819)
(0.000139630736824 0.00121974256784 8.33391960634e-05)
(0.00035626460567 0.0015097752779 -0.000101494154495)
(0.00144365784238 0.00166582537422 -0.000355695877602)
(0.000902049172754 0.0013579242096 -0.000315557505926)
(0.00119761729207 0.00163472170124 -0.000547796678736)
(0.00236359592793 0.00178382474233 -0.000219057880759)
(0.0020138178579 0.00145621492761 -0.000308435355008)
(0.00218522430054 0.00172995722137 -0.000457522826812)
(0.00291475601814 0.00188312823864 9.14652468116e-05)
(0.00276756084838 0.00154062410833 -2.51713618953e-05)
(0.00282710198405 0.00181991291793 -3.18415823221e-05)
(0.00301210227154 0.00194645888659 0.000415688602983)
(0.0030762505003 0.00159826120995 0.000321893150482)
(0.00305945827306 0.00188997135017 0.000481793371701)
(0.00270237454053 0.00196287993408 0.000677653864307)
(0.00292870371862 0.00161651186285 0.000621176172762)
(0.00288644495851 0.00192396892888 0.0009409546745)
(0.00209197877493 0.00193447347956 0.000852287463602)
(0.00242583499401 0.00159337068426 0.00083193512349)
(0.00239195727738 0.00191632733862 0.0012803617918)
(0.00130160775882 0.00187262011293 0.000938498964402)
(0.00168493632961 0.00153743299401 0.000948075394006)
(0.0016768980171 0.0018731581583 0.00148431501591)
(0.000447713207575 0.001798538782 0.00095384622108)
(0.000839117031172 0.00146183326987 0.000975981064454)
(0.000855513437941 0.00180534497253 0.00155840089774)
(-0.000391434876687 0.00173463235946 0.000922775293763)
(-1.20175795771e-05 0.0013923285008 0.0009533235702)
(1.96255104071e-05 0.00173729166883 0.00154235244135)
(-0.00116322868049 0.00169258467617 0.000858766076841)
(-0.000813113060698 0.00134406165849 0.000901033358463)
(-0.000773349253886 0.00168430656661 0.00146399937043)
(-0.00182789716263 0.00167272278928 0.000764767858223)
(-0.00152548960809 0.00132288668019 0.000827503215699)
(-0.00148163678771 0.00165307938237 0.00133745355752)
(-0.00234308987138 0.00166566411262 0.000636831508279)
(-0.00211620940896 0.00132355139819 0.000727560626888)
(-0.0020694326115 0.00163924292178 0.00116029088517)
(-0.0026595090269 0.00165829842269 0.000470233042283)
(-0.00254086696855 0.00133385948163 0.000591870056674)
(-0.00249468691127 0.00163224401209 0.000926058183953)
(-0.00272346095343 0.00163887589475 0.000261666443866)
(-0.00274636701923 0.00134080344812 0.000413991337298)
(-0.0027119977642 0.00162116332485 0.000631256608121)
(-0.00248672138032 0.00160071857895 2.55290860298e-05)
(-0.00267833203118 0.00133435989643 0.000189601121004)
(-0.00267721227706 0.00159806771382 0.000281871165852)
(-0.00193580293165 0.00154267544412 -0.000190083588198)
(-0.00229089738298 0.00130955887506 -5.14186173429e-05)
(-0.00235670860034 0.00156065239931 -8.29543977608e-05)
(-0.00114541749664 0.0014660005872 -0.000271948771316)
(-0.00160891361665 0.00126446257573 -0.000242164748929)
(-0.00176241297242 0.00151027581801 -0.000368518407926)
(-0.000362339994933 0.00135444075954 -8.65652161955e-05)
(-0.000691432674915 0.00120019777777 -0.000223911995458)
(-0.000939062002995 0.00144738240137 -0.000400559637621)
(-9.33620499025e-05 0.00108890828906 0.000104867637942)
(-0.000272942856658 0.00134153743087 -2.22383016409e-05)
(0.000523249442104 0.00104271604597 -8.57324920443e-05)
(0.000162626684511 0.000711079082886 0.000116791797066)
(0.000375995003684 0.00102867924154 -1.45875548169e-05)
(0.00151015859342 0.00113583085166 -0.000268296983332)
(0.000944954595458 0.000790804060695 -0.00025378068932)
(0.0012437854454 0.00111437752979 -0.000419790717802)
(0.00243156086595 0.00120059368045 -0.000114548836144)
(0.00206176750439 0.000837742977653 -0.000230481858676)
(0.00224483535347 0.00116781040088 -0.000302932094227)
(0.00296242648286 0.0012435576917 0.000205256541775)
(0.00280436817495 0.000867181063796 6.18549739486e-05)
(0.00288027449127 0.0012081215583 0.00014257559045)
(0.00302501805338 0.00125662494532 0.000527380720261)
(0.00308684400685 0.000874229640979 0.000410443779023)
(0.00308768464681 0.00122878184783 0.000661438063041)
(0.00267667510055 0.00123593135262 0.000775457431945)
(0.00290794971492 0.000855451237252 0.000700245400936)
(0.00288101096622 0.00122250965083 0.00110940151719)
(0.002034651486 0.00118582032496 0.000927723053895)
(0.00237614193084 0.000812168569421 0.000894106042855)
(0.00235386074758 0.00118813138674 0.00142322353663)
(0.00122803638561 0.00111663583667 0.000985557494059)
(0.00161662292796 0.000752378056764 0.000987538336715)
(0.00161506955849 0.00113239131786 0.00159166773593)
(0.000379714896107 0.00104609953081 0.000975458413575)
(0.000769730948667 0.000685981073585 0.000989484493513)
(0.000787408165089 0.00106408871135 0.00162417132453)
(-0.00043791592854 0.000992668595435 0.0009315816349)
(-6.41780950273e-05 0.000630881531607 0.000949696413326)
(-3.53102950173e-05 0.00100378815484 0.00157907544229)
(-0.00118274553705 0.000965606045017 0.000869770497321)
(-0.000839007397159 0.000597468017432 0.000892731846584)
(-0.000805099051945 0.000963717770457 0.00149142098276)
(-0.00182578132794 0.0009650472006 0.000790295984363)
(-0.00152523874956 0.000590000919747 0.000827057808495)
(-0.00148990534954 0.000949207375019 0.00137591943068)
(-0.00233131905081 0.000982837488551 0.000682599175283)
(-0.00209812242454 0.000605637137259 0.000743356409117)
(-0.00206261205926 0.000956642892118 0.00122345004194)
(-0.00265075607777 0.00100689648942 0.000535628351689)
(-0.00251687163274 0.000635838624696 0.000626010023674)
(-0.00248445618823 0.000976474264539 0.00101745612661)
(-0.00272699542605 0.00102610422309 0.000341926014437)
(-0.00272699656881 0.000669894993785 0.000464340266233)
(-0.00270801395621 0.000998205623537 0.000747146226424)
(-0.0025057381516 0.00103219492505 0.000112653417632)
(-0.00267100379193 0.000699207132013 0.000251404103383)
(-0.00268514105243 0.00101361601972 0.000413894107665)
(-0.00196846946068 0.00101998852027 -0.000103499778074)
(-0.00229793858439 0.00071538082392 1.4538623871e-05)
(-0.00237600046783 0.00101693147434 5.6908210474e-05)
(-0.00118229481442 0.000987292011938 -0.000194127973072)
(-0.00162713469633 0.000714103493525 -0.000177241873231)
(-0.001787220896 0.00100580476862 -0.000235816437288)
(-0.000390851836056 0.000922570947627 -3.24791413209e-05)