/*--------------------------------*- C++ -*----------------------------------*\
| =========                 |                                                 |
| \\      /  F ield         | OpenFOAM: The Open Source CFD Toolbox           |
|  \\    /   O peration     | Version:  3.0.1                                 |
|   \\  /    A nd           | Web:      www.OpenFOAM.org                      |
|    \\/     M anipulation  |                                                 |
\*---------------------------------------------------------------------------*/
FoamFile
{
    version     2.0;
    format      ascii;
    class       volScalarField;
    location    "0.3";
    object      epsilon_0;
}
// * * * * * * * * * * * * * * * * * * * * * * * * * * * * * * * * * * * * * //

dimensions      [0 2 -3 0 0 0 0];

internalField   nonuniform List<scalar> 
7968
(
0.0967293017637
0.0975563590015
0.0978477441879
0.0979015646177
0.0979083601586
0.0979086050405
0.0979081708858
0.0979075341805
0.0979069138415
0.0979064149673
0.0979061664567
0.0979063397084
0.0979068453407
0.0979074835419
0.0979080005685
0.0979078101167
0.097901115577
0.0978472907086
0.0975559205697
0.096729358739
0.0975564895053
0.106622319199
0.110002801635
0.110718706009
0.110829296028
0.110843510369
0.110845325663
0.110845576081
0.110845527438
0.110845478599
0.110845426034
0.110845395856
0.110845501675
0.110845583663
0.110844373756
0.110830837299
0.110720656046
0.110004879574
0.106624365505
0.0975563182777
0.0978479133312
0.110002862701
0.11537897947
0.116701758534
0.11693776634
0.116971284933
0.116975512892
0.116975975459
0.116975666844
0.116975509412
0.116975404706
0.116975317559
0.116975498306
0.116975593989
0.116972254916
0.116939352431
0.116704298797
0.115381658009
0.110005389182
0.097847787452
0.0979018296761
0.110718835089
0.116701755005
0.118252357835
0.11854263922
0.118585533516
0.11859002299
0.118589869109
0.118589403552
0.118589192394
0.118588762614
0.118588728636
0.118588720659
0.118589120891
0.118585279736
0.11854379389
0.118254240476
0.116704207252
0.110721048802
0.0979019460116
0.097908689817
0.11082939721
0.116937540413
0.118542571773
0.118846496535
0.118890646258
0.118894286459
0.118892775759
0.118891034293
0.118890197592
0.118889778798
0.118889568586
0.118890152769
0.118891635538
0.118888932941
0.118845884293
0.118543322055
0.116939256305
0.110831069635
0.0979089857792
0.097909028463
0.110843286193
0.116971309213
0.11858502711
0.118890220143
0.118933300391
0.11893561008
0.118936518819
0.118937192159
0.118937420114
0.118937260923
0.118936777801
0.1189358495
0.118934460609
0.11892959907
0.118888079088
0.118584105756
0.116971439152
0.110844380364
0.097909370459
0.0979085027596
0.110844915221
0.116974943528
0.118588957622
0.118893407284
0.118935140534
0.118941794512
0.118943807261
0.11894465492
0.118944906704
0.118944681324
0.118944163049
0.118943063721
0.118941241127
0.118934134374
0.11888957067
0.118587067123
0.116973938431
0.110845215914
0.0979088763917
0.0979078182244
0.110845076648
0.116974856349
0.118588438369
0.118891325987
0.118935906816
0.118943508226
0.11894561986
0.118946289968
0.118946436165
0.118946119779
0.118945688323
0.118944630304
0.11894257839
0.118935298181
0.118887722095
0.118585125186
0.116972772312
0.110844460203
0.0979082115946
0.0979071463114
0.1108446363
0.116974162412
0.118587273375
0.118889085072
0.11893641841
0.118944030849
0.118945937719
0.118946226464
0.118946018381
0.118945680747
0.11894564912
0.118944834481
0.118943111808
0.1189357898
0.118887577002
0.118583448132
0.116971548391
0.110843627956
0.0979075377486
0.0979065531642
0.110844304875
0.116973763745
0.118586548061
0.11888858207
0.118936569807
0.1189440732
0.118945762534
0.118945600898
0.118944777782
0.118944248586
0.118944998992
0.118944747874
0.118943321351
0.11893609017
0.118887707442
0.118582450869
0.116970791645
0.110843184484
0.0979069850191
0.0979062380938
0.110844097313
0.116973457713
0.118586045842
0.118888329589
0.118936396704
0.118943836975
0.118945437692
0.118944914238
0.118944036241
0.118943312085
0.118944437851
0.118944358788
0.118943200676
0.118936089404
0.118887754329
0.118582270628
0.116970616591
0.110842887583
0.097906692704
0.0979064103367
0.110844193375
0.116973722443
0.118586386771
0.118888241815
0.118936041723
0.118943439669
0.118945093078
0.118944876899
0.11894438753
0.118944055407
0.118944660563
0.118944466317
0.11894324514
0.118936066101
0.118887993324
0.118582754815
0.116970952875
0.110842920455
0.0979068805431
0.0979069850583
0.110844490996
0.116974225819
0.118586977005
0.118888640646
0.118935274214
0.118942467168
0.118944230837
0.118944204379
0.118944315679
0.11894415998
0.118944343384
0.11894400652
0.118942747688
0.118935611753
0.118888153132
0.118584137743
0.116971891607
0.110843533626
0.097907533819
0.0979077010119
0.110844775999
0.116974663369
0.118587991873
0.11889079851
0.118934000707
0.118940843417
0.118942370396
0.118942584993
0.118942851139
0.118942834514
0.118942967
0.118942711792
0.118941464616
0.118934694786
0.118888735488
0.118586056612
0.116972858501
0.110844150407
0.0979083261854
0.0979082846203
0.110843820841
0.116971694616
0.118584727416
0.118888589415
0.118929776127
0.118933918923
0.118935135116
0.118935445303
0.118935768817
0.118935831028
0.118935926624
0.118935584106
0.118934674357
0.118928985636
0.118886686038
0.118582875917
0.116970072787
0.110843204102
0.0979089820338
0.0979081197654
0.110830298329
0.116938823301
0.118543093645
0.118845390823
0.118888197743
0.118889658821
0.118887826705
0.118887444328
0.118887599904
0.118887723666
0.11888805781
0.11888815394
0.118888576818
0.118886583924
0.118843887658
0.118541618355
0.116937305001
0.110829737949
0.0979088120482
0.0979014286572
0.110720170609
0.116703665231
0.118253672834
0.118542850626
0.118583944185
0.118586979319
0.118585513007
0.118583334729
0.118582594257
0.118582161198
0.118582955669
0.118584341502
0.118585843557
0.118582804642
0.118541639264
0.118252209407
0.116702067763
0.110719640013
0.0979020287328
0.0978475725315
0.110004373554
0.115381040332
0.116703521627
0.116938645257
0.116971134026
0.116973858627
0.11697283859
0.116971692212
0.116971083847
0.116970795353
0.116971077787
0.116972098418
0.116972770136
0.116970137712
0.116937304484
0.116702111778
0.115379618141
0.110003749974
0.0978480201372
0.0975561777075
0.10662404237
0.110004886299
0.110720540111
0.110830525385
0.110844108804
0.110844980052
0.110844365191
0.1108435749
0.110843143189
0.110842934484
0.110843061464
0.110843647212
0.110844188712
0.110843197774
0.110829778867
0.110719693722
0.11000375165
0.106623637458
0.0975565216956
0.0967294329007
0.0975562987138
0.0978477049227
0.0979017960571
0.0979088018724
0.0979091521936
0.0979086780398
0.0979080016417
0.0979073292776
0.0979067827225
0.097906494569
0.0979067516021
0.0979074583112
0.0979082511968
0.0979088864097
0.0979086914196
0.097901911248
0.0978478953655
0.0975564055831
0.0967296944738
0.0975682174481
0.106636765016
0.110012176221
0.110725382533
0.110833662534
0.110845715442
0.110846260803
0.110845652009
0.110844931336
0.110844382282
0.110844020279
0.110844015501
0.110844380637
0.110844904646
0.110844243179
0.110831704949
0.110722887045
0.110009573132
0.106634954923
0.0975679378627
0.106637476447
0.0885932094404
0.0860372758191
0.0855004575035
0.0854096653088
0.0853979909754
0.0853970072958
0.085397194742
0.085397461435
0.0853976353886
0.085397721539
0.0853976718036
0.0853974990611
0.0853973355811
0.085398186445
0.0854096400051
0.0855001884601
0.0860369044837
0.0885928900031
0.10663727701
0.110013147243
0.0860372371152
0.0813697851215
0.080194985288
0.0799582472978
0.079921403843
0.079917030907
0.0799168155341
0.0799169966701
0.0799171409949
0.0799172202915
0.0799172019034
0.0799171182883
0.0799173195465
0.0799215824953
0.0799582835706
0.0801948483058
0.0813695085302
0.0860368974362
0.11001240441
0.110726659027
0.0855004341573
0.0801949350943
0.0787762319507
0.0784727541608
0.0784226530137
0.0784163645556
0.0784160076644
0.0784162516999
0.0784164518569
0.0784165557946
0.0784165326767
0.0784164048978
0.078416737463
0.0784229057654
0.0784728396936
0.0787761440396
0.080194708781
0.0855001331633
0.110725867853
0.110834865578
0.0854096208242
0.079958205524
0.0784727504684
0.0781492653533
0.0780951580245
0.0780885514681
0.0780884570798
0.0780889879394
0.0780894182358
0.0780896321606
0.078089460348
0.0780891049628
0.0780892112825
0.0780956628233
0.078149565393
0.0784728211331
0.0799581269116
0.085409396149
0.110834066035
0.110846920664
0.0853978804656
0.0799213736201
0.0784226594944
0.0780952168535
0.0780406254847
0.0780344967193
0.0780356406796
0.0780373426476
0.0780382963121
0.0780386992906
0.0780383446748
0.0780372353468
0.0780361252424
0.0780415133175
0.0780958061805
0.0784230155222
0.0799214992668
0.0853977809012
0.110845973045
0.110847187158
0.085396871527
0.0799170554508
0.0784164783432
0.0780886963441
0.0780346830608
0.0780304757522
0.0780326326167
0.0780349831788
0.0780362413042
0.0780367150843
0.0780360682318
0.0780344371915
0.0780324325864
0.0780365687503
0.0780895846197
0.0784170380377
0.0799173809497
0.0853969790993
0.110846387208
0.110846375332
0.0853971256976
0.07991689447
0.0784162211115
0.0780887222584
0.0780361502527
0.0780330074395
0.0780357985636
0.0780389033971
0.0780403646762
0.078040841236
0.0780399937921
0.0780378031356
0.078035274883
0.0780383802193
0.0780900278988
0.0784169658029
0.0799174011035
0.0853973446527
0.110845557446
0.110845600671
0.0853973783131
0.0799171697962
0.0784165637822
0.0780894126415
0.0780380675923
0.0780357584953
0.078039146291
0.0780430951511
0.0780448066715
0.078045263255
0.0780438789209
0.0780411961965
0.0780378447296
0.0780402602307
0.078091387075
0.0784174307768
0.0799177443817
0.0853977167525
0.110844810486
0.110844962183
0.0853975743154
0.0799173662515
0.0784168154913
0.0780900382673
0.0780391482346
0.0780371905322
0.0780408633808
0.0780452791058
0.0780472849275
0.0780475467529
0.0780458062491
0.0780425644636
0.0780390279458
0.0780411838034
0.0780921338172
0.0784176840032
0.0799179405662
0.0853979640934
0.110844283834
0.110844491545
0.0853976577074
0.0799174482218
0.0784169264876
0.0780903302246
0.0780395636445
0.0780376272356
0.078041324464
0.0780459299925
0.078047358405
0.0780478321799
0.0780461668849
0.0780431370421
0.0780395097239
0.0780415384596
0.0780923339017
0.0784177651133
0.0799180015496
0.0853980471872
0.110843892521
0.110844510747
0.0853975858359
0.0799173755073
0.0784168016623
0.078089929244
0.0780389791703
0.0780368197338
0.0780403802117
0.0780447028948
0.0780463465244
0.0780466145058
0.0780451249257
0.0780421934618
0.078038771551
0.0780409583032
0.0780917235885
0.0784175949602
0.0799179100898
0.0853979610492
0.110844059773
0.110845004849
0.0853974091649
0.079917213977
0.0784165778819
0.0780893078309
0.0780376170625
0.0780350317777
0.0780380366115
0.0780419600261
0.0780430000983
0.0780433543043
0.0780422737714
0.0780397253448
0.0780366462825
0.0780394357801
0.0780907113396
0.0784172220315
0.0799176512849
0.0853977257429
0.110844775536
0.110845744791
0.0853972196603
0.0799173434855
0.078416811996
0.0780892582188
0.0780361486511
0.078032749253
0.078035379109
0.0780386357285
0.078039559122
0.0780399489925
0.0780391187474
0.0780367973114
0.0780339736008
0.0780376150128
0.0780899809911
0.0784173241262
0.0799176971627
0.0853974489624
0.110845633323
0.11084515795
0.0853980666843
0.0799215860435
0.078422938896
0.078095659962
0.0780414522035
0.0780364502092
0.0780382488333
0.0780406542684
0.0780414921048
0.0780418636109
0.0780411224228
0.0780394932561
0.078037616584
0.0780423543647
0.0780961964686
0.0784233503014
0.0799218893996
0.08539824648
0.110845181235
0.110832761088
0.0854095740818
0.0799582750534
0.0784728430079
0.0781495564086
0.0780957216314
0.078089489272
0.0780898193849
0.0780912636528
0.0780920351979
0.0780923656116
0.0780916509718
0.0780907777473
0.0780900202876
0.0780962227951
0.0781499714808
0.0784732072346
0.0799585462138
0.0854097725278
0.110832549279
0.110724081009
0.0855001901442
0.0801948575642
0.0787761743259
0.0784728147535
0.0784229426316
0.0784169527331
0.0784168448901
0.0784173744237
0.0784176064841
0.0784177349653
0.0784175559645
0.0784172266836
0.0784173300814
0.0784233661051
0.0784732033872
0.0787765252805
0.0801951526622
0.0855003897638
0.110723941313
0.110010726502
0.086036960049
0.0813695432649
0.0801947670078
0.0799581489963
0.0799214937426
0.0799173376519
0.079917317793
0.0799176969366
0.0799178759419
0.0799179684176
0.0799178582058
0.0799176471356
0.0799176902152
0.0799218961459
0.0799585468798
0.0801951505282
0.0813698828531
0.086037164342
0.110010119239
0.106635889111
0.0885929594386
0.0860369512018
0.0855001971389
0.0854094351579
0.0853978074899
0.0853969892134
0.0853973034306
0.085397695753
0.0853979925298
0.0853981055458
0.0853979507458
0.0853977285564
0.0853974514008
0.0853982354193
0.0854097667873
0.0855003926195
0.0860371668923
0.0885930294755
0.106634823062
0.0975681890022
0.106637324153
0.110012284556
0.110725604327
0.11083363494
0.110845556124
0.11084593471
0.11084509245
0.110844287939
0.110843701475
0.110843362671
0.110843671034
0.110844418827
0.110845254322
0.110844913278
0.110832332893
0.110723836079
0.110010065754
0.106634808491
0.0975681924838
0.097871437804
0.110024125306
0.11539128994
0.116709509822
0.116942022098
0.11697344712
0.11697597085
0.1169754098
0.116974660668
0.116974082945
0.116973720369
0.116973631132
0.11697379751
0.116974091801
0.116971086108
0.116939182662
0.116705809078
0.115387175554
0.110020560235
0.0978700874435
0.110025045571
0.086039893215
0.0813730475828
0.0801986230392
0.0799621410339
0.0799257777481
0.0799220825209
0.0799224657644
0.0799232020167
0.0799237659462
0.0799239801764
0.0799238810531
0.0799233835275
0.0799229610415
0.0799266509019
0.0799626974979
0.0801987827504
0.0813729571907
0.0860397662044
0.110022464282
0.115392606221
0.0813729827436
0.0731458725837
0.0707843453018
0.070231144066
0.0701298836305
0.070115549773
0.0701144117347
0.070114761674
0.0701151140271
0.0701152766776
0.0701152126651
0.0701150605242
0.0701162757424
0.0701305181311
0.0702316650525
0.0707846658936
0.0731460484712
0.0813729263924
0.115389351326
0.116711098078
0.0801985739849
0.0707842358399
0.0679357252873
0.0672283203284
0.0670904820759
0.0670694633719
0.067067262754
0.0670673931319
0.0670676099177
0.0670677158406
0.0670676761652
0.067067695798
0.0670699344389
0.0670908786293
0.0672285995699
0.0679358960873
0.0707843763561
0.0801984696351
0.116707671817
0.116943356
0.0799619664899
0.0702309957272
0.0672282645071
0.0664673932632
0.0663162913948
0.0662929670106
0.0662905678991
0.0662908398042
0.0662912346311
0.0662914559416
0.0662913703629
0.0662911441181
0.0662934682677
0.0663166723945
0.0664676529544
0.0672284450314
0.0702312094173
0.0799620768222
0.116940349771
0.116974615331
0.0799254925103
0.070129681328
0.067090416552
0.0663162936647
0.0661620912164
0.0661386144883
0.066137202684
0.0661386341
0.0661396998957
0.0661401956588
0.0661400728299
0.0661392648013
0.0661405069529
0.0661628503549
0.0663167128252
0.0670907657324
0.0701301306022
0.0799259941017
0.116971934361
0.116976909379
0.0799217904657
0.0701154270589
0.0670694553062
0.0662930125233
0.0661387378568
0.0661165063105
0.0661161435715
0.0661187890161
0.0661205650513
0.066121334096
0.066120941071
0.0661194114144
0.0661197039908
0.0661408194258
0.0662937243296
0.0670699699982
0.0701160451454
0.079922478738
0.116974722652
0.116976052186
0.0799222415633
0.0701143363968
0.0670673159736
0.0662907157776
0.0661375572824
0.0661163788059
0.0661173020893
0.066121486121
0.0661239388318
0.0661248459081
0.0661240073826
0.0661213128634
0.0661204949222
0.0661403173552
0.0662920104924
0.0670679922487
0.0701151076043
0.0799232115375
0.116974063796
0.116975102119
0.0799230355929
0.070114774352
0.0670675493378
0.066291244004
0.0661391903317
0.0661192161589
0.0661216069874
0.0661276658585
0.066130895492
0.0661317989099
0.0661299912663
0.066125729349
0.0661234842387
0.0661419951808
0.0662928330206
0.06706828144
0.0701156071305
0.0799240675917
0.116973268727
0.116974358542
0.079923615116
0.0701151550787
0.0670678371068
0.0662917771864
0.0661402655803
0.0661209393465
0.0661240970773
0.0661311625081
0.0661346406266
0.0661353987241
0.0661333475079
0.0661280924827
0.0661250490514
0.0661428571108
0.0662933237761
0.0670685115868
0.0701159345582
0.0799245567343
0.116972672636
0.11697385476
0.0799238284263
0.0701153225111
0.0670679700692
0.0662920453709
0.0661406907518
0.0661216102866
0.0661249149236
0.0661320583588
0.0661352847156
0.0661361250266
0.0661341393124
0.0661289379689
0.0661256773522
0.0661432043145
0.0662934566827
0.0670685669046
0.0701160123734
0.0799246677303
0.116972296002
0.116973941802
0.0799235987833
0.0701151778689
0.0670678463755
0.0662917281926
0.0661402345233
0.0661209004622
0.0661238285522
0.0661302170528
0.0661334611432
0.0661343386227
0.0661325729397
0.0661281163255
0.0661251343242
0.066142837213
0.0662931039729
0.0670683890042
0.0701158071457
0.0799243508271
0.116972663485
0.116974420554
0.0799229899448
0.0701149411971
0.0670677689083
0.0662913475636
0.0661392053943
0.0661191920521
0.0661209516426
0.0661258769771
0.0661281088243
0.0661289966265
0.0661279896006
0.066124825106
0.0661228525083
0.0661415349528
0.0662924065399
0.0670681611223
0.07011539957
0.0799237634121
0.116973557996
0.116975028128
0.079922586332
0.070116082583
0.0670699004032
0.0662934998552
0.0661402599552
0.0661194052012
0.0661199978362
0.0661235644698
0.0661251026616
0.0661258440382
0.0661251309914
0.0661228801822
0.0661218454849
0.0661418328859
0.0662939843652
0.0670701833228
0.0701164320666
0.0799231480857
0.116974386585
0.116972238526
0.0799263381901
0.0701303032486
0.067090800194
0.066316643601
0.0661627280602
0.0661406052827
0.066140050306
0.0661421646642
0.0661429568578
0.0661433663258
0.0661428446605
0.0661414927577
0.0661418195431
0.066163492641
0.0663169054668
0.0670910298711
0.0701305793419
0.0799266787883
0.116971706612
0.11694056307
0.0799623925037
0.0702314382144
0.0672285137055
0.0664676137283
0.0663166474623
0.0662936271465
0.0662917964402
0.0662928542736
0.0662933226296
0.0662935500473
0.0662931370475
0.0662924854192
0.0662940604153
0.0663169374974
0.0664678604004
0.0672287473318
0.0702316938892
0.0799627157547
0.116939601039
0.116707358576
0.080198629404
0.0707845146204
0.0679358408985
0.067228422293
0.0670907161156
0.0670699132752
0.067067897024
0.06706827117
0.0670684936978
0.0670686003172
0.0670684154133
0.0670682100286
0.0670702243071
0.0670910574142
0.0672287519112
0.0679361505654
0.0707848137266
0.0801988048268
0.116706028925
0.115388877204
0.0813729302114
0.0731459681638
0.0707843680132
0.070231199889
0.0701301170919
0.0701160276475
0.070115051591
0.0701156064753
0.0701159372298
0.0701160564019
0.0701158237986
0.0701154503905
0.0701164773083
0.0701306138263
0.0702317140907
0.0707848143867
0.0731463494743
0.0813730521976
0.115386950421
0.110021997699
0.0860398120383
0.0813729284258
0.0801985009714
0.0799620858424
0.0799259471347
0.0799224978028
0.0799231535041
0.0799240583068
0.0799245705713
0.0799247664368
0.0799244258395
0.0799238015052
0.0799231745106
0.0799266835366
0.079962717693
0.0801988051781
0.0813730545435
0.0860397829105
0.110019618593
0.0978704989524
0.110022740706
0.115389373109
0.116707561722
0.116940015583
0.116971607618
0.116974166104
0.116973518059
0.116972597906
0.116972014038
0.116971714382
0.116972163318
0.116973053359
0.116973779646
0.116971239857
0.116939230469
0.116705756611
0.115386827825
0.110019579683
0.0978697763186
0.0979368916732
0.110746160811
0.116718190048
0.118263170014
0.118549872806
0.118590827022
0.118594860556
0.118594509591
0.11859394412
0.118593464114
0.118593102513
0.118592793008
0.118592707864
0.118592572112
0.118588214753
0.118546545963
0.118258442024
0.11671242919
0.110741033857
0.0979346370548
0.110747201278
0.0855042707963
0.0801992631918
0.0787812249153
0.0784784097439
0.0784293561699
0.0784242175753
0.0784251677956
0.0784264567211
0.0784274091585
0.078427762163
0.0784275763535
0.0784267209116
0.0784260064464
0.0784308824721
0.0784796705613
0.0787818479154
0.0801994256743
0.0855042766524
0.110743019523
0.116719712333
0.0801991833647
0.0707848602674
0.0679370203242
0.0672303436862
0.0670932978425
0.06707307235
0.0670715821332
0.0670722664924
0.0670728451238
0.0670730794296
0.0670729325444
0.0670726271004
0.0670743024229
0.0670945316102
0.0672314472746
0.0679378921096
0.0707855307255
0.0801993737033
0.116714672388
0.118264933497
0.078781132851
0.0679368835893
0.0644807151483
0.0635699073956
0.0633811483357
0.0633507202375
0.0633474109315
0.0633476868477
0.063348089152
0.0633482650405
0.0633482017831
0.0633481694895
0.0633514331926
0.0633817626514
0.0635704826052
0.0644812850063
0.0679375289447
0.0787813277038
0.118259598112
0.118551206512
0.0784781464713
0.0672301230563
0.0635698040615
0.0625839070453
0.0623749098299
0.0623402684737
0.0623363587164
0.0623367666939
0.0623373281106
0.0623376247512
0.0623376040667
0.0623375665136
0.0623413640423
0.0623755462465
0.0625842682021
0.0635702604603
0.0672308665856
0.0784787716033
0.118547072145
0.118591764644
0.0784290044663
0.0670929891918
0.0633809860744
0.0623749200906
0.0621603400031
0.0621248830856
0.0621216586732
0.062123114026
0.0621242750366
0.0621247581887
0.0621245001279
0.0621237394685
0.0621269908033
0.0621616162469
0.0623754168052
0.0633815348022
0.0670940018786
0.0784301271575
0.118588465729
0.118595460162
0.0784239255095
0.0670728060646
0.0633506093861
0.062340393432
0.0621249550839
0.0620905120399
0.0620895283831
0.062093760007
0.0620962772873
0.0620968961099
0.0620955929803
0.0620924458489
0.0620936842663
0.0621271839107
0.0623411945694
0.0633512209751
0.0670740127271
0.0784254237457
0.118592605946
0.118594837282
0.0784248101906
0.0670713496961
0.0633473928477
0.0623365267414
0.0621217189963
0.0620895016363
0.0620929699653
0.0621028930406
0.0621079804249
0.0621086416155
0.062104882322
0.0620962958653
0.0620933181337
0.0621246098055
0.0623377582237
0.0633480330996
0.0670727648899
0.0784267726193
0.118592111096
0.118593967177
0.0784263257999
0.0670721791265
0.0633477253154
0.0623368805399
0.0621230810977
0.0620936538832
0.0621027950129
0.0621199984244
0.0621281256911
0.0621287391548
0.0621218314553
0.0621060737065
0.0620975561241
0.0621262887096
0.0623384850944
0.0633483645311
0.0670735605826
0.0784282544962
0.118591449047
0.118593327929
0.0784272830889
0.0670728509622
0.0633481195143
0.0623373486058
0.062124066108
0.0620959812799
0.0621077292043
0.062128068072
0.062137549021
0.0621381394471
0.0621298529678
0.0621109351612
0.0620998724493
0.0621274195365
0.0623391103241
0.0633487179436
0.0670740486758
0.0784290250022
0.118591117029
0.118592935695
0.078427634038
0.0670731242919
0.0633482595279
0.0623374988684
0.0621243554874
0.0620964048236
0.0621082226304
0.0621285341774
0.0621379588681
0.062138571391
0.0621302983072
0.0621114228906
0.0621003438846
0.0621278371379
0.06233938313
0.0633488236779
0.0670741284237
0.078429196464
0.118591050103
0.118592904063
0.0784272351328
0.0670728681964
0.0633480617391
0.0623371931976
0.0621237968297
0.06209482786
0.0621042237424
0.0621214494454
0.0621295262122
0.0621301625848
0.0621233127044
0.0621076050377
0.0620989219505
0.062127442203
0.0623392057389
0.0633486294237
0.0670737302208
0.0784286429913
0.11859147323
0.118593129811
0.0784262531806
0.0670724208111
0.0633479368209
0.0623369791882
0.0621228843379
0.0620915096562
0.0620954475731
0.0621055438706
0.0621105112365
0.0621111625272
0.0621074392872
0.0620988072981
0.0620953800009
0.0621262243561
0.0623387218826
0.0633483587092
0.0670730024288
0.0784273827743
0.118592337759
0.11859343955
0.0784254641484
0.067073959414
0.0633512218778
0.0623408510213
0.0621261786647
0.0620927793067
0.06209243421
0.0620969697193
0.0620993680407
0.0620999885944
0.0620986315101
0.062095231354
0.0620958399669
0.0621287388111
0.0623419155422
0.0633514463461
0.0670743390891
0.0784261715106
0.11859304036
0.118589359988
0.0784303363146
0.0670941081305
0.0633815873089
0.0623752816105
0.0621611655936
0.0621266093196
0.0621239898363
0.0621258168025
0.0621269483116
0.0621274677092
0.0621270227919
0.0621258747125
0.0621285407797
0.0621624665496
0.0623756987862
0.0633817114072
0.0670944156582
0.0784309790657
0.118589071062
0.118547898839
0.0784791253829
0.0672310428213
0.0635703086873
0.0625841609621
0.0623752752635
0.0623410646195
0.0623375624789
0.062338383913
0.0623388969221
0.0623391851833
0.0623388803164
0.0623384070316
0.0623417159039
0.0623756536542
0.0625843442928
0.0635704568587
0.0672312894447
0.0784795583132
0.118547358854
0.118260118571
0.0787815689846
0.0679375923921
0.0644811340452
0.0635701781374
0.0633814269768
0.0633511336661
0.0633479722671
0.0633483993164
0.0633487107189
0.0633488323812
0.0633485796862
0.0633483219213
0.0633514882664
0.0633817811913
0.063570479697
0.0644813994381
0.0679378686222
0.0787817505701
0.118258999265
0.116714468229
0.0801993244135
0.0707853374226
0.0679374300487
0.0672307856736
0.067093908797
0.0670739337385
0.0670726442281
0.0670735873714
0.0670741114733
0.0670742944878
0.0670739055029
0.0670732218686
0.0670745308792
0.0670945217207
0.0672313400149
0.0679378854205
0.0707857015176
0.0801994147397
0.116712603556
0.11074266001
0.0855043038606
0.0801993279312
0.0787813036029
0.0784787282387
0.0784299746567
0.0784253226177
0.0784266451151
0.0784283632374
0.0784291149242
0.078429440028
0.0784288436856
0.0784275725432
0.0784263007889
0.078430981563
0.078479570756
0.0787817582351
0.080199412027
0.0855042448475
0.110740447411
0.0979351786873
0.110743271246
0.116714687194
0.118259630417
0.118546730843
0.118588149102
0.11859202045
0.118591551293
0.118590772602
0.118590497048
0.118590445263
0.11859087679
0.118591579758
0.118592256232
0.118588363049
0.118546732991
0.118258577423
0.116712353201
0.110740343599
0.09793415177
0.0979547216615
0.110863119004
0.116959321981
0.118558845589
0.118860333318
0.118904183859
0.118908621915
0.118908711702
0.118908673076
0.118908389798
0.118907945549
0.118907299843
0.118906638892
0.118905873071
0.118900654114
0.118856142028
0.118553490218
0.116952686343
0.110856784619
0.0979516706529
0.110864277457
0.0854144267963
0.0799629976019
0.0784784573865
0.0781562026157
0.0781038457428
0.0780995399739
0.0781014167082
0.0781035218426
0.0781048393758
0.0781053766965
0.0781051493892
0.0781041095355
0.0781024649448
0.078106818263
0.0781584055518
0.0784797175263
0.0799634561864
0.0854145429497
0.110858927026
0.116960997469
0.0799628995571
0.0702314920466
0.0672300499819
0.0664706841392
0.066321261906
0.0662996537468
0.0662987040376
0.0663000413103
0.066301038036
0.0663014823428
0.0663013284074
0.0663007213947
0.0663017383078
0.066323182417
0.0664723973926
0.0672314049043
0.0702325009534
0.079963249885
0.116954779227
0.118560524268
0.0784782800813
0.0672298902532
0.0635704956308
0.0625856380062
0.0623776381121
0.0623439957557
0.0623408987124
0.0623419173827
0.062342925198
0.0623433984518
0.0623434005016
0.062343156814
0.0623461952508
0.0623791325803
0.0625865853653
0.0635714570118
0.0672309914
0.0784789243767
0.118554096869
0.118861453643
0.0781558452028
0.0664703861912
0.0625855383178
0.06151571449
0.0612840484557
0.0612455097179
0.0612421692709
0.0612439938855
0.0612454053552
0.061245830542
0.0612453395499
0.0612442800481
0.0612476643694
0.0612853989164
0.0615161932799
0.0625862192634
0.0664717745885
0.0781574495043
0.118856374281
0.118904874768
0.0781034520636
0.0663208582032
0.0623778482004
0.0612845805662
0.0610465370699
0.0610081123119
0.0610080100627
0.0610143613212
0.0610178388275
0.0610181541261
0.0610153690718
0.0610097100342
0.0610099293429
0.0610475358662
0.0612843550654
0.062377935732
0.0663226202186
0.0781059572852
0.118900357363
0.118908659484
0.0780990840065
0.066299396503
0.0623447624151
0.0612465598111
0.0610085335128
0.0609748987145
0.0609860676713
0.0610072123888
0.061017333395
0.0610174741739
0.0610078037593
0.0609874469478
0.0609766292884
0.0610094251348
0.0612457967606
0.0623439398349
0.0663011881214
0.0781023671634
0.118904791662
0.118908308857
0.0781011869784
0.066298653808
0.0623418180093
0.0612432041305
0.0610084517003
0.0609861632147
0.0610225623498
0.0610764870541
0.0611002904689
0.0611000332955
0.0610761658324
0.0610232200376
0.0609877125126
0.0610094243827
0.0612424232468
0.0623405605527
0.0663003145559
0.0781049659473
0.118904671622
0.118907801438
0.0781036613744
0.0663001859246
0.0623425142985
0.0612445612564
0.0610145309816
0.061007227122
0.0610764676737
0.0611721205627
0.0612116013882
0.0612110683608
0.0611711156354
0.0610761879507
0.0610083584454
0.0610155700672
0.0612441165606
0.0623414227385
0.0663016316279
0.0781073778461
0.118904369734
0.118907384297
0.0781052299643
0.0663012287336
0.0623429720546
0.0612453326555
0.0610176463626
0.0610172338072
0.0611004528852
0.0612119792059
0.0612581792451
0.0612575796243
0.0612106782135
0.0611000465641
0.0610183172834
0.0610189058154
0.0612453768099
0.0623422514449
0.0663024179493
0.0781085295356
0.118904509847
0.118906864071
0.0781058890822
0.0663016154809
0.0623429414673
0.0612452068468
0.0610176563113
0.061017269872
0.061100304392
0.0612114680076
0.0612577646736
0.0612570722864
0.0612101708623
0.0610999617461
0.0610185446611
0.0610192790712
0.0612458361909
0.0623426629668
0.0663025696075
0.0781087200542
0.118904739457
0.118906742798
0.0781052012423
0.0663011213409
0.0623423379391
0.0612441586454
0.0610145317864
0.0610073782383
0.0610762786658
0.0611712527347
0.0612104885698
0.0612100486337
0.0611702430493
0.0610763272929
0.061009238957
0.061016690472
0.0612453984085
0.0623425612538
0.0663020510819
0.0781076893258
0.118905387147
0.118906701468
0.0781035373456
0.0663001981604
0.0623416457536
0.0612426624922
0.0610085984461
0.0609867591999
0.0610230217204
0.0610762883957
0.0611000733652
0.0610999444992
0.0610764706341
0.0610243920999
0.0609892873572
0.061011015055
0.0612442090692
0.06234208418
0.0663007363895
0.0781054363026
0.118906162732
0.118906530527
0.0781016898755
0.0663011544126
0.0623447879466
0.0612460687123
0.0610088564773
0.0609759487781
0.0609873840106
0.0610084617231
0.0610183743887
0.061018601169