/*--------------------------------*- C++ -*----------------------------------*\
| =========                 |                                                 |
| \\      /  F ield         | OpenFOAM: The Open Source CFD Toolbox           |
|  \\    /   O peration     | Version:  3.0.1                                 |
|   \\  /    A nd           | Web:      www.OpenFOAM.org                      |
|    \\/     M anipulation  |                                                 |
\*---------------------------------------------------------------------------*/
FoamFile
{
    version     2.0;
    format      ascii;
    class       volScalarField;
    location    "0.3";
    object      p_rgh;
}
// * * * * * * * * * * * * * * * * * * * * * * * * * * * * * * * * * * * * * //

dimensions      [1 -1 -2 0 0 0 0];

internalField   nonuniform List<scalar> 
7968
(
4939.52125476
4939.32635319
4938.94854319
4938.42359955
4937.79580085
4937.12469141
4936.47960258
4935.93200044
4935.54747919
4935.37706274
4935.44733187
4935.75654447
4936.27457148
4936.9482321
4937.70840214
4938.48064455
4939.19312351
4939.78309959
4940.20329742
4940.42427599
4939.32389929
4939.11072145
4938.70369079
4938.13682467
4937.45630355
4936.72611344
4936.02063197
4935.41861232
4934.99349172
4934.80254644
4934.87595804
4935.21146672
4935.77557553
4936.50792286
4937.33205454
4938.16622423
4938.93289591
4939.56605659
4940.01606707
4940.25431602
4938.94061727
4938.69833461
4938.23548089
4937.58424912
4936.79728173
4935.9470022
4935.11950453
4934.40774078
4933.90035255
4933.66791687
4933.74755965
4934.13646234
4934.79312422
4935.64389223
4936.59662171
4937.5555568
4938.43210384
4939.1522432
4939.6613228
4939.93014504
4938.40816703
4938.12376441
4937.57659375
4936.80174885
4935.85879915
4934.83150822
4933.82278748
4932.946565
4932.3147949
4932.02033792
4932.1095528
4932.57919488
4933.37466123
4934.4026898
4935.54668984
4936.6899121
4937.72729685
4938.57393079
4939.16925051
4939.48147003
4937.77061894
4937.4340005
4936.78092783
4935.85031136
4934.70939144
4933.45606131
4932.2133445
4931.12208414
4930.322587
4929.94997875
4930.05193953
4930.62798054
4931.60366455
4932.86645211
4934.25825231
4935.63725336
4936.87882364
4937.88521037
4938.588711
4938.95497924
4937.08876921
4936.69558921
4935.92230181
4934.81517041
4933.44859082
4931.93428177
4930.41859335
4929.0763622
4928.08845079
4927.61070431
4927.7266402
4928.43115742
4929.62893861
4931.16155288
4932.84164338
4934.49459069
4935.9699737
4937.15760849
4937.98402863
4938.41031106
4936.43651893
4935.98159205
4935.08799768
4933.80094094
4932.20185208
4930.41546885
4928.61192571
4927.00036853
4925.80358844
4925.21580232
4925.34739798
4926.19199155
4927.6284169
4929.45536294
4931.44395438
4933.38294743
4935.10162017
4936.47552018
4937.42699257
4937.91484247
4935.88420204
4935.37537835
4934.37333558
4932.9239476
4931.11271452
4929.07589094
4927.00405181
4925.13763713
4923.74135722
4923.04934557
4923.1970453
4924.17776976
4925.8440791
4927.95317364
4930.23377709
4932.44051667
4934.38387655
4935.92852825
4936.99331654
4937.53716984
4935.49965607
4934.95073092
4933.86767903
4932.29676041
4930.32513565
4928.09732715
4925.81815669
4923.75355135
4922.20104893
4921.42856765
4921.5922877
4922.68505946
4924.537806
4926.87318244
4929.38612623
4931.80436117
4933.92279284
4935.59985396
4936.75239303
4937.34068896
4935.33428285
4934.76549567
4933.64196717
4932.00993225
4929.95727962
4927.63212852
4925.24660366
4923.08027486
4921.44877231
4920.63870244
4920.81781386
4921.97857037
4923.93998018
4926.40541722
4929.05013717
4931.58709051
4933.80263807
4935.55339228
4936.7541931
4937.36654511
4935.41494715
4934.84980783
4933.73348828
4932.11183679
4930.07296891
4927.76438013
4925.39703218
4923.24957761
4921.6364688
4920.84281483
4921.03669491
4922.21023236
4924.18250362
4926.65640781
4929.30735174
4931.84866525
4934.06651825
4935.81979104
4937.02129046
4937.63411354
4935.73883815
4935.20019639
4934.13755465
4932.59716261
4930.66556762
4928.48606095
4926.2601605
4924.25103749
4922.75252833
4922.02913712
4922.23657355
4923.36781155
4925.25267154
4927.61373417
4930.14600944
4932.57810634
4934.70490256
4936.38739448
4937.54339229
4938.13321764
4936.27424652
4935.78144172
4934.81112684
4933.40954054
4931.66048266
4929.69951634
4927.71192168
4925.93355994
4924.62348445
4924.01125653
4924.23126372
4925.27621054
4926.99701463
4929.14992
4931.46442214
4933.69584197
4935.65464532
4937.20891366
4938.2790971
4938.82534299
4936.9657234
4936.53087123
4935.67799644
4934.45178757
4932.93262116
4931.24281016
4929.54874385
4928.05265234
4926.97042179
4926.49052874
4926.72119986
4927.65536968
4929.16870436
4931.05847372
4933.09693459
4935.07154126
4936.8135593
4938.20163923
4939.16043051
4939.65226941
4937.74225303
4937.37067954
4936.64480407
4935.60782536
4934.33330261
4932.93030151
4931.54232629
4930.33703941
4929.48738167
4929.14116314
4929.38050435
4930.19850613
4931.49593548
4933.11034016
4934.85559565
4936.5548866
4938.06196443
4939.26902579
4940.10644089
4940.53851295
4938.52773524
4938.21778767
4937.61489226
4936.75982025
4935.71836084
4934.58634751
4933.48273483
4932.54380018
4931.90496559
4931.67847778
4931.92420178
4932.63511977
4933.73405548
4935.09278959
4936.56309262
4938.00074564
4939.28280426
4940.31442796
4941.03326387
4941.40732886
4939.25187065
4938.99423837
4938.49972004
4937.80334532
4936.96367629
4936.06289764
4935.20029265
4934.48439866
4934.01987931
4933.89055038
4934.13963357
4934.76187268
4935.69468984
4936.83780102
4938.07406648
4939.28717311
4940.37355105
4941.25186327
4941.8663036
4942.18831475
4939.85147649
4939.63491579
4939.22582514
4938.65407397
4937.97209584
4937.25058221
4936.57232629
4936.02546121
4935.69223973
4935.63653105
4935.88910894
4936.44208696
4937.24774799
4938.22610111
4939.28217489
4940.32038053
4941.25371546
4942.01143005
4942.54277668
4942.82588327
4940.28198866
4940.09233705
4939.73942267
4939.25210318
4938.67718619
4938.07672681
4937.52202258
4937.0874979
4936.84121662
4936.83351679
4937.08777201
4937.59542677
4938.31618724
4939.18427687
4940.11929746
4941.03938269
4941.86898337
4942.54551412
4943.02612249
4943.28378825
4940.50243662
4940.33842592
4940.01108805
4939.56557403
4939.04389806
4938.50279469
4938.00890164
4937.62967648
4937.4270904
4937.44337466
4937.69825393
4938.18335472
4938.86151996
4939.67542032
4940.55018237
4941.41272543
4942.19046684
4942.82643494
4943.28329351
4943.51513388
4939.92413924
4939.72534939
4939.34772843
4938.81930554
4938.18424617
4937.50423645
4936.84867513
4936.29044679
4935.89693778
4935.72078102
4935.79019906
4936.10330293
4936.62938534
4937.31261708
4938.08185447
4938.86166711
4939.57929702
4940.17284215
4940.59680904
4940.81890106
4939.72301887
4939.50529736
4939.09399367
4938.51923318
4937.82851482
4937.08391824
4936.36162307
4935.74278391
4935.30369393
4935.10440987
4935.17730441
4935.51995133
4936.09732461
4936.84568292
4937.68555762
4938.53312788
4939.3103119
4939.95096526
4940.40459041
4940.64834647
4939.33962998
4939.08848146
4938.61459898
4937.9475248
4937.13881924
4936.26076909
4935.40114172
4934.65718675
4934.12335936
4933.87543487
4933.9549485
4934.35901391
4935.04229127
4935.92466709
4936.90883642
4937.89496086
4938.79280798
4939.52807096
4940.04756462
4940.32421754
4938.80257367
4938.50542677
4937.93931534
4937.13557686
4936.15247227
4935.07419834
4934.00652952
4933.07116308
4932.39131208
4932.06707886
4932.15662333
4932.6558602
4933.50266781
4934.58937868
4935.79197614
4936.9857132
4938.06268595
4938.93756691
4939.55160423
4939.87501055
4938.15722641
4937.80435983
4937.12097876
4936.14313758
4934.93583464
4933.59692056
4932.25433831
4931.06274489
4930.1889403
4929.75705774
4929.86038543
4930.48930935
4931.55969868
4932.91637234
4934.40759052
4935.87172847
4937.1790764
4938.23182877
4938.96532508
4939.34613538
4937.46602888
4937.04921655
4936.23303678
4935.05571747
4933.58841303
4931.9421484
4930.27058851
4928.76631358
4927.64224593
4927.08473943
4927.20357026
4927.9923491
4929.33250204
4931.02885754
4932.86714297
4934.6495964
4936.22523962
4937.48231646
4938.3517208
4938.79820597
4936.80066798
4936.31764546
4935.36533576
4933.98135867
4932.24056344
4930.26615274
4928.23519709
4926.38364575
4924.9814788
4924.27553357
4924.41128203
4925.38171446
4927.02947905
4929.1000909
4931.31862125
4933.44424436
4935.3045748
4936.774959
4937.78450725
4938.2991552
4936.23563797
4935.69303432
4934.61713231
4933.04370285
4931.04870426
4928.76436882
4926.38768492
4924.19568519
4922.51712768
4921.6615989
4921.81445171
4922.96815381
4924.92373712
4927.36372408
4929.95262575
4932.40947406
4934.53518504
4936.20351999
4937.34173665
4937.91911236
4935.8407036
4935.25339695
4934.08423652
4932.36679887
4930.17726991
4927.64965827
4924.99869665
4922.53268188
4920.62984529
4919.65270693
4919.82174734
4921.12967473
4923.34151926
4926.085053
4928.97465042
4931.69622161
4934.03283727
4935.8569189
4937.09496506
4937.71953573
4935.66975312
4935.05991746
4933.843612
4932.05253385
4929.76223304
4927.10837944
4924.3125835
4921.70080686
4919.67881998
4918.63963493
4918.82433058
4920.22621798
4922.58842466
4925.50724149
4928.56885613
4931.4398766
4933.89331607
4935.80530293
4937.09852137
4937.74954413
4935.7506415
4935.14479782
4933.93627
4932.15675075
4929.88202475
4927.24640404
4924.47111218
4921.88037957
4919.87824207
4918.85672299
4919.05747972
4920.47290161
4922.84582668
4925.7721533
4928.83951016
4931.71398512
4934.16623903
4936.08314759
4937.37678017
4938.02768559
4936.0804812
4935.50457618
4934.35776696
4932.67360466
4930.52816585
4928.05421649
4925.4628007
4923.05847719
4921.21437659
4920.28992848
4920.50595023
4921.85399954
4924.09809262
4926.86478579
4929.7727801
4932.50697606
4934.84920381
4936.67828282
4937.91816195
4938.54256358
4936.62597737
4936.10118709
4935.05984726
4933.53833929
4931.61273582
4929.41012744
4927.12616312
4925.03093933
4923.44615311
4922.67605457
4922.90561199
4924.12639192
4926.13715142
4928.61917854
4931.24134123
4933.72223105
4935.86133008
4937.53711269
4938.6778776
4939.25478148
4937.32899532
4936.86859634
4935.96016187
4934.64156368
4932.98682305
4931.11703448
4929.20465331
4927.4781186
4926.19911918
4925.6080802
4925.84893199
4926.91324828
4928.64085045
4930.77542825
4933.04392163
4935.20679125
4937.08737432
4938.56914636
4939.58321476
4940.09916898
4938.11618797
4937.72539851
4936.9593354
4935.85644926
4934.48684647
4932.95791037
4931.42457184
4930.06685827
4929.08899883
4928.6723542
4928.92262531
4929.83143895
4931.27581815
4933.05827509
4934.9621943
4936.79242847
4938.39840523
4939.67229237
4940.54952956
4940.9989161
4938.9111027
4938.58654316
4937.95692324
4937.05891177
4935.95676355
4934.74549123
4933.54971555
4932.51934053
4931.80531021
4931.53926745
4931.79564574
4932.56769355
4933.76185096
4935.22811142
4936.80009596
4938.3239055
4939.67023725
4940.74581876
4941.49148791
4941.87622314
4939.64034091
4939.37350115
4938.86283019
4938.14148472
4937.26687873
4936.32123795
4935.40664754
4934.63957475
4934.13447837
4933.98540809
4934.24053009
4934.90654481
4935.90027296
4937.11006455
4938.40866983
4939.67330751
4940.79823752
4941.70258742
4942.33337218
4942.66220385
4940.24304044
4940.01868628
4939.60312703
4939.01967127
4938.32072111
4937.57701877
4936.87330326
4936.30209106
4935.95086644
4935.88933994
4936.15195459
4936.73145041
4937.57301898
4938.59016834
4939.68199122
4940.74902101
4941.70296511
4942.47375974
4943.01335042
4943.29911375
4940.66507127
4940.47756967
4940.12598542
4939.63586705
4939.05499064
4938.44536115
4937.88023012
4937.43634769
4937.18387296
4937.17734261
4937.44161672
4937.96698996
4938.71086104
4939.60237479
4940.55811023
4941.49386382
4942.33323925
4943.0134736
4943.49172754
4943.7426872
4940.89201143
4940.71916659
4940.40386936
4939.95962792
4939.43570565
4938.8911877
4938.39364726
4938.01168786
4937.80580481
4937.82499733
4938.08935782
4938.5890592
4939.2860739
4940.1169402
4941.00681895
4941.87781099
4942.66117306
4943.29832301
4943.74126628
4943.98002995
4940.73703144
4940.54936673
4940.16054546
4939.62659142
4938.98523724
4938.2947104
4937.62435686
4937.05024159
4936.64208067
4936.45673184
4936.52420999
4936.84227568
4937.37969987
4938.0766127
4938.85877863
4939.64805608
4940.37118015
4940.96672464
4941.39087295
4941.61115871
4940.5458034
4940.31650667
4939.899624
4939.31601224
4938.60935818
4937.84227573
4937.09219374
4936.44398255
4935.97947189
4935.76484536
4935.83607202
4936.19088428
4936.79090895
4937.5667083
4938.43288821
4939.30179678
4940.09390529
4940.74323404
4941.19737747
4941.44407154
4940.15154284
4939.89320669
4939.40708685
4938.71587323
4937.87001642
4936.94220363
4936.02321565
4935.21806224
4934.63226446
4934.35432061
4934.43298351
4934.86536802
4935.59856164
4936.54072813
4937.58326893
4938.61866008
4939.55326342
4940.31228674
4940.84307424
4941.12355497
4939.60892705
4939.29909612
4938.70609265
4937.85264454
4936.79553348
4935.61970132
4934.43647886
4933.38207226
4932.60114768
4932.22031402
4932.3106273
4932.86812137
4933.81459517
4935.01979716
4936.33729291
4937.62844315
4938.77929542
4939.7038365
4940.34562801
4940.67555571
4938.95340465
4938.58055159
4937.84834377
4936.78381694
4935.4481797
4933.93927639
4932.39352673
4930.9899967
4929.92980279
4929.40106672
4929.50779056
4930.24461976
4931.49432809
4933.06775406
4934.76129354
4936.39485528
4937.82989419
4938.96867777
4939.7505469
4940.14832157
4938.24814296
4937.79959685
4936.90725307
4935.5955273
4933.92754278
4932.01156797
4930.01053713
4928.1584112
4926.73324536
4926.00399396
4926.12963159
4927.10274598
4928.74949182
4930.79616177
4932.96175963
4935.01489776
4936.78927795
4938.17931645
4939.12363698
4939.59868954
4937.56396645
4937.0362225
4935.97635723
4934.40193746
4932.37338407
4930.00390557
4927.48288426
4925.10120566
4923.23408531
4922.25890249
4922.40516052
4923.66332809
4925.78613825
4928.39125087
4931.10064991
4933.62297057
4935.76687433
4937.42506379
4938.54029025
4939.0962519
4936.97852702
4936.37838673
4935.16326007
4933.34204548
4930.96780938
4928.15262201
4925.10571259
4922.1750845
4919.83906829
4918.59824528
4918.76425276
4920.32658829
4922.95371293
4926.14020459
4929.40297992
4932.39013923
4934.89443225
4936.80757424
4938.08270077
4938.71387861
4936.56659943
4935.91068899
4934.57606582
4932.5627952
4929.91413894
4926.73917988
4923.25683894
4919.86206461
4917.12239739
4915.64986543
4915.83269338
4917.66081903
4920.72718532
4924.41211722
4928.14151235
4931.51433409
4934.31107311
4936.42760777
4937.82849634
4938.51784786
4936.38592059
4935.70149755
4934.30533827
4932.19196777
4929.39901171
4926.03010468
4922.30915986
4918.6562756
4915.68980039
4914.08911699
4914.28815827
4916.27722743
4919.60412627
4923.58089848
4927.58127438
4931.17585677
4934.13946463
4936.36875685
4937.83849897
4938.55921838
4936.46676055
4935.78703594
4934.40002806
4932.3003914
4929.52634165
4926.1809902
4922.48647203
4918.86050508
4915.91772561
4914.33617971
4914.55277092
4916.55622329
4919.89355824
4923.87565826
4927.88068754
4931.47884767
4934.44654221
4936.67384974
4938.14041677
4938.85967627
4936.80611626
4936.16348608
4934.85482631
4932.88123858
4930.28674506
4927.17865129
4923.77182122
4920.45503092
4917.78493859
4916.37046976
4916.60381081
4918.47401666
4921.57200256
4925.27491572
4929.02011994
4932.40487251
4935.20749432
4937.32015967
4938.71897358
4939.40552833
4937.36778647
4936.78796611
4935.612459
4933.85135583
4931.55773455
4928.84401124
4925.91140629
4923.10012536
4920.87453222
4919.72744586
4919.97672367
4921.61077933
4924.29433527
4927.51927315
4930.8136747
4933.8235729
4936.33899217
4938.25263809
4939.52419677
4940.15139758
4938.0893484
4937.58752431
4936.57710931
4935.07680201
4933.14778169
4930.90118948
4928.52079381
4926.28880777
4924.56547781
4923.71750238
4923.97896598
4925.3395756
4927.54806636
4930.2181685
4932.97869844
4935.5352154
4937.69778907
4939.360686
4940.47342107
4941.02588718
4938.89312605
4938.47404736
4937.63739711
4936.40832045
4934.85057162
4933.07101519
4931.22587844
4929.54248615
4928.28589036
4927.71361546
4927.98634234
4929.0937704
4930.85636792
4932.99562626
4935.23156145
4937.33156781
4939.13100275
4940.53064944
4941.47536832
4941.94827445
4939.69980363
4939.35848085
4938.68532922
4937.7080444
4936.4878544
4935.12080025
4933.73954773
4932.51671057
4931.64313562
4931.29453161
4931.57595064
4932.47517262
4933.86778453
4935.55761214
4937.33848012
4939.03068339
4940.49973747
4941.65444472
4942.44108349
4942.83839739
4940.43524623
4940.16110587
4939.62799165
4938.86347496
4937.92360043
4936.89185606
4935.87628682
4935.00837574
4934.42374911
4934.24208808
4934.53170415
4935.26944912
4936.37797104
4937.71788198
4939.13775183
4940.50037005
4941.69539206
4942.64334637
4943.29469261
4943.62770231
4941.03994839
4940.8152184
4940.3913681
4939.79011761
4939.06172998
4938.27819245
4937.52768605
4936.91088344
4936.52638951
4936.45635313
4936.74272167
4937.37277364
4938.28380683
4939.3751899
4940.53363078
4941.65229295
4942.64087126
4943.43101115
4943.97786194
4944.26160028
4941.46713112
4941.27572936
4940.92511955
4940.43351356
4939.84316921
4939.21999281
4938.63838149
4938.17926325
4937.91866863
4937.91689523
4938.20216034
4938.76255787
4939.54931638
4940.48354169
4941.47502724
4942.43603245
4943.28956003
4943.97561401
4944.44996528
4944.70336405
4941.6887336
4941.52215308
4941.20624228
4940.7626865
4940.24047584
4939.69407059
4939.1922611
4938.80726087
4938.60429849
4938.6339191
4938.91805773
4939.44571566
4940.1737861
4941.03347462
4941.94612685
4942.83166621
4943.62051721
4944.25583896
4944.70117454
4944.93016791
4941.93264781
4941.72705046
4941.37435435
4940.85008808
4940.21184917
4939.51853275
4938.83994063
4938.25222873
4937.83061814
4937.63474008
4937.69754617
4938.01814544
4938.56250676
4939.26773666
4940.05595599
4940.84693567
4941.56680955
4942.15550902
4942.5714768
4942.78730086
4941.72411591
4941.52404719
4941.11722583
4940.53317215
4939.8165703
4939.0304766
4938.25291863
4937.57284239
4937.07863663
4936.8446526
4936.91180371
4937.27840233
4937.90184516
4938.70527763
4939.5966045
4940.48370954
4941.28519742
4941.93581031
4942.38822504
4942.62689142
4941.36430437
4941.1094897
4940.6166715
4939.90411959
4939.01914838
4938.03373234
4937.04169643
4936.15774652
4935.50255355
4935.18300768
4935.25873716
4935.72675468
4936.52372172
4937.54071277
4938.65466112
4939.74752162
4940.72154635
4941.50222622
4942.04060039
4942.31821278
4940.83008142
4940.51156511
4939.89165314
4938.98158407
4937.83282919
4936.52947924
4935.188647
4933.96622905
4933.03910585
4932.57359105
4932.66380713
4933.30485464
4934.39315675
4935.76203611
4937.23586963
4938.65461969
4939.89742268
4940.87869618
4941.54705052
4941.88268165
4940.17238436
4939.77973346
4938.99046421
4937.81655496
4936.30920091
4934.56287607
4932.7218302
4930.99929354
4929.65897766
4928.97163188
4929.08487257
4929.99099632
4931.51913697
4933.40362833
4935.39230681
4937.26178728
4938.86687028
4940.11365985
4940.95097905
4941.36497597
4939.45770002
4938.97368316
4937.98543857
4936.49415323
4934.54448062
4932.2341738
4929.73276304
4927.32676179
4925.40597324
4924.38799406
4924.52711352
4925.81081228
4927.96098574
4930.56060498
4933.22351884
4935.66362039
4937.71430728
4939.2795451
4940.3163953
4940.82222535
4938.75729329
4938.17543524
4936.97364555
4935.13495389
4932.6872879
4929.71853542
4926.41339115
4923.13612354
4920.44991091
4918.99115242
4919.15960424
4920.9372594
4923.89513648
4927.39849616
4930.88890438
4933.99800987
4936.55493786
4938.46971568
4939.72098644
4940.32518145
4938.15222404
4937.47808786
4936.07372801
4933.8990891
4930.95606088
4927.30820816
4923.13929821
4918.89204568
4915.32416846
4913.34544742
4913.54018592
4915.88787875
4919.7697975
4924.28123998
4928.66633543
4932.47910813
4935.53984327
4937.79567468
4939.25190469
4939.94899287
4937.72051427
4936.97483973
4935.41122623
4932.96830343
4929.62182785
4925.40141815
4920.47997783
4915.36290238
4910.98158536
4908.51433075
4908.72500576
4911.5967251
4916.33411272
4921.75829982
4926.93468395
4931.35183245
4934.83752856
4937.3736326
4938.99455875
4939.76521319
4937.52735157
4936.74472822
4935.09749867
4932.5116901
4928.94821862
4924.41070912
4919.06274376
4913.44239848
4908.58315259
4905.82733194
4906.054126
4909.24299417
4914.49614206
4920.46529087
4926.11091436
4930.88187915
4934.61157861
4937.30745263
4939.01946326
4939.82993352
4937.60662206
4936.83002139
4935.19399823
4932.62601531
4929.08849256
4924.58570786
4919.27714019
4913.69682584
4908.86809404
4906.13215119
4906.37749599
4909.58300482
4914.84487604
4920.81183132
4926.4589627
4931.23142234
4934.95826001
4937.65168689
4939.35917786
4940.16574377
4937.95563545
4937.22615035
4935.69489386
4933.30278853
4930.03081033
4925.90548395
4921.09490567
4916.09264292
4911.8000961
4909.39278227
4909.65858313
4912.57424631
4917.33945996
4922.76218742
4927.94759713
4932.37406559
4935.85813553
4938.38469881
4939.99248147
4940.75534394
4938.53390511
4937.88401829
4936.52727788
4934.42697466
4931.58997035
4928.0803089
4924.07073013
4919.99159045
4916.56426783
4914.6867618
4914.9727272
4917.3974233
4921.33276369
4925.86474302
4930.27649794
4934.11157007
4937.1753968
4939.42040984
4940.86035117
4941.54596778
4939.27201484
4938.72020052
4937.5759014
4935.82505027
4933.49947177
4930.68901845
4927.56880688
4924.49176411
4921.98632502
4920.66972312
4920.96613246
4922.85821931
4925.90855481
4929.47193815
4933.01384612
4936.1616936
4938.72526952
4940.63075989
4941.86515263
4942.45691918
4940.08851359
4939.63806715
4938.71288622
4937.31612093
4935.49540775
4933.34809293
4931.04046533
4928.84818941
4927.13429761
4926.29758109
4926.60736033
4928.04991133
4930.3356372
4933.0363509
4935.77235921
4938.25869303
4940.32488612
4941.88475277
4942.90686673
4943.40065856
4940.90127716
4940.54439532
4939.8206656
4938.74371067
4937.3665568
4935.78258416
4934.12984859
4932.63127293
4931.51642573
4931.03768216
4931.35734209
4932.46299872
4934.16543984
4936.18701633
4938.26427725
4940.18968484
4941.81759392
4943.06521084
4943.8927546
4944.29710186
4941.63592044
4941.35836665
4940.80327111
4939.98990762
4938.96998136
4937.82721704
4936.67574265
4935.66984372
4934.97116252
4934.73636109
4935.05624879
4935.92534263
4937.2147826
4938.74179595
4940.32609795
4941.81428603
4943.09150129
4944.08304901
4944.74857475
4945.07819708
4942.23448098
4942.01578114
4941.58808041
4940.97173274
4940.21367927
4939.38579313
4938.57995972
4937.90778389
4937.48225047
4937.40376751
4937.72535245
4938.43292736
4939.44378438
4940.63477785
4941.87675598
4943.05428831
4944.07591884
4944.87753087
4945.42150023
4945.69543323
4942.65491614
4942.47303495
4942.12885883
4941.64008508
4941.04874557
4940.41777869
4939.82376382
4939.35262482
4939.08789915
4939.09851349
4939.41692938
4940.02792763
4940.87275763
4941.86038392
4942.89191033
4943.87562613
4944.73533074
4945.41518253
4945.88008448
4946.11975237
4942.87167866
4942.71137424
4942.40718493
4941.97563911
4941.4615739
4940.92166744
4940.42469951
4940.0448162
4939.85182986
4939.90171711
4940.21744518
4940.78357604
4941.55285025
4942.44776701
4943.382563
4944.27692677
4945.06163061
4945.68514096
4946.11564678
4946.33289435
4943.55004908
4943.39845891
4943.02028264
4942.51326208
4941.89925933
4941.22635971
4940.56076265
4939.97960068
4939.55732899
4939.3562911
4939.41114808
4939.7228114
4940.25628893
4940.94839857
4941.71957213
4942.48864516
4943.1833741
4943.74637254
4944.14065854
4944.34062456
4943.39429954
4943.1606907
4942.75838121
4942.19001356
4941.48537049
4940.70311966
4939.91906906
4939.22398531
4938.7098887
4938.45959858
4938.51864768
4938.88767211
4939.5196015
4940.3315881
4941.22695071
4942.10978475
4942.89941381
4943.53452957
4943.96599515
4944.19883817
4943.00817331
4942.74944286
4942.2597647
4941.54276113
4940.63739789
4939.61174462
4938.55939266
4937.60368374
4936.87912526
4936.51465835
4936.58425677
4937.08230008
4937.93750587
4939.01964069
4940.19195814
4941.32619691
4942.32205939
4943.1078802
4943.64055682
4943.91495483
4942.48711109
4942.16553365
4941.5272996
4940.57340507
4939.34326125
4937.91627789
4936.41068865
4935.00191037
4933.90452874
4933.33431979
4933.42270096
4934.16074051
4935.40975908
4936.95586267
4938.59141209
4940.13478705
4941.46039072
4942.48610445
4943.17106258
4943.51044481
4941.85004102
4941.43862464
4940.59920906
4939.32032201
4937.63529755
4935.6287522
4933.44047148
4931.31531243
4929.62301066
4928.71011078
4928.83790777
4929.9729412
4931.86272435
4934.1251469
4936.45625323
4938.58190647
4940.36091539
4941.71035354
4942.5958621
4943.02502475
4941.14735682
4940.62706434
4939.54406249
4937.86385343
4935.59992975
4932.82040349
4929.67861351
4926.50686029
4923.86376367
4922.41303337
4922.57939342
4924.33492367
4927.21709613
4930.56995554
4933.86101747
4936.75457362
4939.10596039
4940.85107897
4941.97712387
4942.51267918
4940.44828284
4939.81016042
4938.45879062
4936.32568906
4933.38145967
4929.64680542
4925.24682652
4920.60531331
4916.58633579
4914.32652772
4914.54161712
4917.1936444
4921.50473708
4926.36332008
4930.93205472
4934.7878421
4937.81195821
4940.00319527
4941.39307785
4942.0449852
4939.83650812
4939.08415387
4937.4718856
4934.88699808
4931.23401713
4926.45848955
4920.60430683
4914.17144159
4908.39675139
4905.06438539
4905.32344977
4909.12274052
4915.2425442
4921.93676138
4927.99117017
4932.9071273
4936.64300047
4939.28560255
4940.93431598
4941.69872822
4939.39334846
4938.55011229
4936.72769079
4933.77141774
4929.52931643
4923.82747111
4916.62966325
4908.47430964
4900.93163004
4896.49873458
4896.76459881
4901.6935605
4909.63670616
4918.11494756
4925.56594774
4931.44695881
4935.80525882
4938.83073475
4940.69290641
4941.54911223
4939.19140853
4938.30000815
4936.36490337
4933.20604729
4928.63908145
4922.41534592
4914.43418317
4905.24735258
4896.62605517
4891.51048812
4891.78643249
4897.40785024
4906.46940631
4916.03639861
4924.33749374
4930.79843935
4935.52162479
4938.76992375
4940.75078853
4941.65683744
4939.26696277
4938.38327219
4936.46263057
4933.32835314
4928.79945546
4922.6329129
4914.7182945
4905.60216571
4897.02283295
4891.92198969
4892.21586191
4897.8569183
4906.92471228
4916.46742985
4924.76408714
4931.223563
4935.94078966
4939.17719349
4941.14606781
4942.04356378
4939.61871885
4938.79504962
4937.01356649
4934.12562222
4929.99410151
4924.44582144
4917.43705789
4909.48101876
4902.05019134
4897.65754503
4897.98208169
4902.96131344
4910.92337122
4919.34163244
4926.7869068
4932.67360521
4937.02013979
4940.01786912
4941.84783151
4942.68640199
4940.20074508
4939.47749578
4937.92317393
4935.43454741
4931.93817169
4927.36549606
4921.76317517
4915.60498959
4910.01987545
4906.77661405
4907.12961774
4911.01464444
4917.17119536
4923.82686472
4929.89697398
4934.8374527
4938.56588355
4941.17503493
4942.7835746
4943.52238465
4940.93930188
4940.33661883
4939.05223574
4937.02577513
4934.2370502
4930.72503798
4926.59243529
4922.25275171
4918.48038957
4916.36235287
4916.71374119
4919.49296129
4923.90223432
4928.79571471
4933.41642339
4937.31071833
4940.334055
4942.49141446
4943.83808419
4944.46132557
4941.74838681
4941.26790632
4940.25587745
4938.68517033
4936.57739932
4934.00898855
4931.11550862
4928.23760093
4925.8611572
4924.61777999
4924.985042
4926.93623857
4929.98653558
4933.45001359
4936.81975245
4939.75928706
4942.10779141
4943.81884678
4944.90211197
4945.40816077
4942.54718016
4942.17577264
4941.40852515
4940.23797244
4938.70291471
4936.88853306
4934.91225786
4933.09511257
4931.6703848
4931.01854306
4931.39931678
4932.79390378
4934.90895686
4937.34218307
4939.76295959
4941.93471381
4943.71275382
4945.03313054
4945.88178792
4946.28491677
4943.2607084
4942.98021651
4942.41346706
4941.56477586
4940.47725978
4939.23288843
4937.94590407
4936.79586011
4935.97219314
4935.68536092
4936.07179298
4937.10237503
4938.60756129
4940.34508597
4942.09939653
4943.70246102
4945.04036967
4946.05012376
4946.70895553
4947.02730981
4943.83410776
4943.62104518
4943.20270327
4942.58858925
4941.82013771
4940.96769131
4940.123699
4939.4095014
4938.95317636
4938.87872366
4939.25535458
4940.06021565
4941.18493836
4942.47730976
4943.79182799
4945.00718583
4946.03529905
4946.82148177
4947.34164832
4947.59961952
4944.23537664
4944.05902059
4943.73744093
4943.27176257
4942.70044075
4942.08523093
4941.50196226
4941.04022603
4940.78971625
4940.82909933
4941.19587926
4941.86850018
4942.77464679
4943.80831066
4944.86274324
4945.84478763
4946.68285712
4947.32972213
4947.75789504
4947.98504813
4944.43396417
4944.29116921
4944.01315751
4943.61112198
4943.12727765
4942.6166984
4942.14841293
4941.79693391
4941.63532316
4941.72312058
4942.08310621
4942.69638824
4943.50528312
4944.42457431
4945.36372515
4946.24307565
4946.9960425
4947.58128431
4947.97780779
4948.16775868
4945.46493286
4945.28862082
4945.01676347
4944.58136966
4944.03558944
4943.42843232
4942.82407198
4942.29048109
4941.89677237
4941.70511431
4941.74642701
4942.02735019
4942.51564192
4943.15293064
4943.86311733
4944.56695328
4945.19615963
4945.69852989
4946.0471976
4946.22021753
4945.2860456
4945.13641544
4944.79320209
4944.28152489
4943.63244508
4942.90195403
4942.16017919
4941.49441115
4940.99003415
4940.73719507
4940.78118923
4941.12995961
4941.73290218
4942.50900232
4943.36079646
4944.19379343
4944.930267
4945.51338643
4945.90549617
4946.10486623
4945.00308851
4944.78271798
4944.33101011
4943.65162804
4942.77447781
4941.76214819
4940.702807
4939.72333909
4938.95930259
4938.5620796
4938.61494436
4939.12219519
4939.99206208
4941.08920827
4942.26881446
4943.39585597
4944.36981479
4945.1227128
4945.62396368
4945.87070124
4944.55272169
4944.25322479
4943.63279253
4942.68156756
4941.42368167
4939.93216489
4938.31721335
4936.76945438
4935.51998867
4934.85252224
4934.93020583
4935.74696059
4937.11886166
4938.79517156
4940.53549237
4942.15042961
4943.51186826
4944.54032651
4945.21038504
4945.53049827
4943.97729204
4943.57545399
4942.72598397
4941.39310737
4939.58767344
4937.37991249
4934.88958502
4932.39487902
4930.29728913
4929.14758983
4929.28535266
4930.66986637
4932.93297258
4935.58126191
4938.17549372
4940.49524105
4942.39415861