/*--------------------------------*- C++ -*----------------------------------*\
| =========                 |                                                 |
| \\      /  F ield         | OpenFOAM: The Open Source CFD Toolbox           |
|  \\    /   O peration     | Version:  3.0.1                                 |
|   \\  /    A nd           | Web:      www.OpenFOAM.org                      |
|    \\/     M anipulation  |                                                 |
\*---------------------------------------------------------------------------*/
FoamFile
{
    version     2.0;
    format      ascii;
    class       volScalarField;
    location    "0.3";
    object      rAU;
}
// * * * * * * * * * * * * * * * * * * * * * * * * * * * * * * * * * * * * * //

dimensions      [-1 3 1 0 0 0 0];

internalField   nonuniform List<scalar> 
7968
(
3.56424620672e-06
3.56002844269e-06
3.55994795047e-06
3.55993078398e-06
3.55993319295e-06
3.55993697057e-06
3.55991292205e-06
3.55989706007e-06
3.55991202979e-06
3.55991671425e-06
3.55991892708e-06
3.55991963045e-06
3.55991649493e-06
3.55990832895e-06
3.559917913e-06
3.55993389006e-06
3.55993574892e-06
3.55995325626e-06
3.56002961919e-06
3.56424702111e-06
3.56002846755e-06
3.55100234883e-06
3.54931667645e-06
3.54889828293e-06
3.54882111753e-06
3.54880947537e-06
3.54880035859e-06
3.54879146703e-06
3.54878995181e-06
3.54879102531e-06
3.54879259496e-06
3.54879277192e-06
3.54879157792e-06
3.54879298498e-06
3.54880065443e-06
3.54881789922e-06
3.54889794697e-06
3.54931601998e-06
3.55100277588e-06
3.56003029749e-06
3.55994764014e-06
3.5493169836e-06
3.54664648155e-06
3.54587716922e-06
3.54571009495e-06
3.54568194354e-06
3.54567501269e-06
3.54567108379e-06
3.54567301829e-06
3.54567538589e-06
3.54567674447e-06
3.5456765829e-06
3.54567405711e-06
3.54567104919e-06
3.54567847907e-06
3.54571139644e-06
3.54587612658e-06
3.54664589785e-06
3.54931593913e-06
3.55994569569e-06
3.55993059903e-06
3.54889896479e-06
3.54587720065e-06
3.5449558322e-06
3.54474635939e-06
3.54471031526e-06
3.54470573003e-06
3.54470364012e-06
3.54470444209e-06
3.54470852603e-06
3.54471029194e-06
3.54470969778e-06
3.54470583097e-06
3.54470367292e-06
3.54470996033e-06
3.54474923336e-06
3.54495926069e-06
3.5458801837e-06
3.54890054562e-06
3.55993366011e-06
3.55993224728e-06
3.54882253413e-06
3.5457117986e-06
3.54474826627e-06
3.54452538021e-06
3.54448620144e-06
3.54447748508e-06
3.54447530891e-06
3.54448143018e-06
3.544490645e-06
3.5444954328e-06
3.54449252582e-06
3.5444835526e-06
3.54447672699e-06
3.54448439945e-06
3.54452840039e-06
3.54475096533e-06
3.5457185523e-06
3.54882831413e-06
3.55993652584e-06
3.55993999805e-06
3.5488118245e-06
3.54568433355e-06
3.54470983227e-06
3.54448493071e-06
3.54444049602e-06
3.54442403577e-06
3.54442323382e-06
3.54442539745e-06
3.54442433395e-06
3.54441876341e-06
3.54442009959e-06
3.54442383903e-06
3.54442159981e-06
3.54443169972e-06
3.54448403283e-06
3.54471348163e-06
3.54568536837e-06
3.54881577598e-06
3.55994749125e-06
3.55991833277e-06
3.54880190455e-06
3.54567394757e-06
3.54470191507e-06
3.54447551877e-06
3.54442140559e-06
3.54440140201e-06
3.54439359721e-06
3.54438621851e-06
3.54437871111e-06
3.54436773359e-06
3.54437280432e-06
3.5443845967e-06
3.54438862671e-06
3.54440437145e-06
3.54446098995e-06
3.5446999628e-06
3.54566975814e-06
3.5487943512e-06
3.55990752807e-06
3.55989559576e-06
3.54878866028e-06
3.54566811693e-06
3.5447000083e-06
3.54447179691e-06
3.54441839826e-06
3.54439006365e-06
3.54437992048e-06
3.54438295631e-06
3.54438454511e-06
3.54438439481e-06
3.5443846831e-06
3.54438316104e-06
3.54437519252e-06
3.54439157415e-06
3.54445936697e-06
3.54469227171e-06
3.54566452636e-06
3.54878229554e-06
3.55988123704e-06
3.55990590707e-06
3.54878709536e-06
3.54567053013e-06
3.54470163475e-06
3.54447931024e-06
3.54442203747e-06
3.5443859802e-06
3.54438379523e-06
3.54440014588e-06
3.54440563451e-06
3.54440700925e-06
3.54440373623e-06
3.54439664151e-06
3.54437963856e-06
3.54439852277e-06
3.54447174203e-06
3.54469901209e-06
3.54566953854e-06
3.54878774756e-06
3.55990835803e-06
3.5599159691e-06
3.54879212177e-06
3.54567453956e-06
3.5447075278e-06
3.54449017616e-06
3.54442103616e-06
3.54437846113e-06
3.5443862359e-06
3.54440606388e-06
3.54441659838e-06
3.54441715368e-06
3.54441401315e-06
3.54440664622e-06
3.54438294347e-06
3.5444001031e-06
3.54447909503e-06
3.54470651586e-06
3.54567550837e-06
3.54879261102e-06
3.55991676161e-06
3.55991880204e-06
3.54879351142e-06
3.54567623967e-06
3.54471008826e-06
3.5444962109e-06
3.54441881333e-06
3.54437142291e-06
3.54438633166e-06
3.5444072732e-06
3.54441832641e-06
3.54441977015e-06
3.54441668017e-06
3.54440875346e-06
3.54438260353e-06
3.54439924559e-06
3.54448149503e-06
3.54470984265e-06
3.54567819965e-06
3.54879535384e-06
3.55991970783e-06
3.55991907597e-06
3.54879396824e-06
3.54567621542e-06
3.54470900975e-06
3.54449237515e-06
3.54441999917e-06
3.54437592069e-06
3.54438629856e-06
3.54440515128e-06
3.54441627391e-06
3.54441813789e-06
3.54441468891e-06
3.54440627069e-06
3.54438176346e-06
3.54439782412e-06
3.54447856334e-06
3.54470938236e-06
3.54567784667e-06
3.54879579008e-06
3.55992079286e-06
3.55991557933e-06
3.54879202324e-06
3.5456728921e-06
3.54470445125e-06
3.54448315491e-06
3.54442154413e-06
3.54438364383e-06
3.54438326343e-06
3.54439741053e-06
3.54440714364e-06
3.54440904563e-06
3.54440631842e-06
3.54439747299e-06
3.54437971335e-06
3.54439697517e-06
3.54447157183e-06
3.54470288064e-06
3.54567340443e-06
3.54879291638e-06
3.55991877228e-06
3.55990730265e-06
3.54879285519e-06
3.54566983066e-06
3.5447021845e-06
3.54447398154e-06
3.5444195469e-06
3.54438923897e-06
3.54437536436e-06
3.544375888e-06
3.54438138051e-06
3.54438308122e-06
3.54438216986e-06
3.54438124131e-06
3.54437848071e-06
3.54439588133e-06
3.5444597481e-06
3.54469762575e-06
3.54566857517e-06
3.54879065843e-06
3.55990682049e-06
3.55991763683e-06
3.54880149738e-06
3.54567794627e-06
3.54470789074e-06
3.5444842824e-06
3.54443015102e-06
3.54440391037e-06
3.54439539854e-06
3.54439739528e-06
3.54439864958e-06
3.54439689539e-06
3.54439798299e-06
3.5443969151e-06
3.544395426e-06
3.54441396868e-06
3.54447080913e-06
3.54470489322e-06
3.54567689823e-06
3.54880043642e-06
3.55991692638e-06
3.55993364415e-06
3.5488196597e-06
3.54571172925e-06
3.54474778907e-06
3.54452748483e-06
3.54448397783e-06
3.54446486255e-06
3.54446255321e-06
3.54447212868e-06
3.54447928245e-06
3.54447954992e-06
3.54447808593e-06
3.54447055849e-06
3.5444603031e-06
3.54447113127e-06
3.54452304451e-06
3.54474917632e-06
3.54571317305e-06
3.54882208664e-06
3.55993489749e-06
3.55993430418e-06
3.54889855757e-06
3.54587646668e-06
3.54495902691e-06
3.54474957002e-06
3.54471341107e-06
3.54470224133e-06
3.54469446725e-06
3.54470014265e-06
3.5447079234e-06
3.54471123021e-06
3.54470978568e-06
3.5447026184e-06
3.54469872516e-06
3.54470580515e-06
3.54474889872e-06
3.54496108985e-06
3.54587900218e-06
3.5489007685e-06
3.55993274125e-06
3.55995143514e-06
3.5493164448e-06
3.54664627858e-06
3.54587945945e-06
3.54571589179e-06
3.54568463946e-06
3.54567198663e-06
3.54566672327e-06
3.54566985366e-06
3.54567502179e-06
3.545677711e-06
3.54567756469e-06
3.54567307237e-06
3.54566822441e-06
3.54567766709e-06
3.5457135133e-06
3.54587904009e-06
3.54664738839e-06
3.54931757076e-06
3.5599485942e-06
3.56002977869e-06
3.55100310198e-06
3.54931594562e-06
3.54890065236e-06
3.54882597436e-06
3.54881615979e-06
3.54879665604e-06
3.54878193062e-06
3.54878822719e-06
3.54879282071e-06
3.54879513882e-06
3.54879545874e-06
3.54879186424e-06
3.54878988769e-06
3.54880099445e-06
3.54882235022e-06
3.54890078496e-06
3.54931742563e-06
3.55100407506e-06
3.56002961204e-06
3.5642464729e-06
3.56003098614e-06
3.55994589602e-06
3.55993223779e-06
3.55993616559e-06
3.55994512013e-06
3.55990692648e-06
3.5598838971e-06
3.55990947584e-06
3.55991669382e-06
3.55991967455e-06
3.5599205477e-06
3.55991708338e-06
3.55990382728e-06
3.55991524747e-06
3.55993496905e-06
3.55993322825e-06
3.55994843298e-06
3.56003012806e-06
3.56424173445e-06
3.56003201255e-06
3.55099540966e-06
3.5493059507e-06
3.5488906664e-06
3.54881714424e-06
3.54880891082e-06
3.54878903574e-06
3.54877517386e-06
3.54878777189e-06
3.54879364395e-06
3.54879507783e-06
3.54879531423e-06
3.54879162819e-06
3.54878577724e-06
3.54879611499e-06
3.54881837864e-06
3.54889519915e-06
3.54931095899e-06
3.55099331961e-06
3.56003334337e-06
3.55099576713e-06
3.50779319193e-06
3.49074914234e-06
3.48615186793e-06
3.48517871318e-06
3.48501579419e-06
3.48499007752e-06
3.48498240766e-06
3.48498159071e-06
3.48498350958e-06
3.48498488498e-06
3.48498459768e-06
3.48498284419e-06
3.48498547708e-06
3.4850113008e-06
3.48517680115e-06
3.48615065349e-06
3.49074938251e-06
3.50779476569e-06
3.55099618366e-06
3.54930619619e-06
3.49074883705e-06
3.46436938361e-06
3.45618614221e-06
3.45421704465e-06
3.45384310198e-06
3.45378377948e-06
3.45377470986e-06
3.45377448719e-06
3.45377636132e-06
3.45377771096e-06
3.45377760663e-06
3.45377665267e-06
3.4537825937e-06
3.45384158781e-06
3.4542175717e-06
3.45618576189e-06
3.46436920824e-06
3.49074928464e-06
3.54930627503e-06
3.54889052645e-06
3.4861515212e-06
3.45618605673e-06
3.4463181671e-06
3.44381150486e-06
3.44331014495e-06
3.44322825069e-06
3.4432163305e-06
3.443215191e-06
3.44321700498e-06
3.44321832439e-06
3.44321859772e-06
3.44321869624e-06
3.44322836927e-06
3.44331015295e-06
3.44381268802e-06
3.44631918524e-06
3.45618673596e-06
3.48615286694e-06
3.54889352907e-06
3.54881707988e-06
3.48518075542e-06
3.45421823874e-06
3.44381207177e-06
3.44111937904e-06
3.44057150736e-06
3.44047990596e-06
3.44046573389e-06
3.44046475882e-06
3.44046965807e-06
3.44047199014e-06
3.4404704065e-06
3.44046744162e-06
3.44047969704e-06
3.44057221705e-06
3.44112118264e-06
3.44381390923e-06
3.45422093192e-06
3.48518506002e-06
3.54882190989e-06
3.54881142783e-06
3.48501693452e-06
3.45384378543e-06
3.44330979108e-06
3.44057138281e-06
3.44000929913e-06
3.43991393003e-06
3.43990741839e-06
3.43991385323e-06
3.43992057841e-06
3.43992301154e-06
3.43992031607e-06
3.43991528864e-06
3.43991893243e-06
3.44000624599e-06
3.44057222176e-06
3.4433120114e-06
3.45384494336e-06
3.48501958078e-06
3.54881318369e-06
3.54879167332e-06
3.48498863571e-06
3.45378273193e-06
3.44322693602e-06
3.44047896133e-06
3.43991375022e-06
3.43983010177e-06
3.43982711792e-06
3.43983465717e-06
3.43984184468e-06
3.43984299875e-06
3.43983857565e-06
3.43983174847e-06
3.43983043124e-06
3.43991414807e-06
3.44047446712e-06
3.44322635928e-06
3.45378083289e-06
3.48498219091e-06
3.54878245878e-06
3.54877309152e-06
3.48497836181e-06
3.45377237026e-06
3.44321431855e-06
3.44046346498e-06
3.43990664602e-06
3.43982773047e-06
3.43982469538e-06
3.43983390826e-06
3.43984229958e-06
3.43984301254e-06
3.43983618003e-06
3.43982636325e-06
3.43982380635e-06
3.43990495272e-06
3.44046076879e-06
3.44321086378e-06
3.45376965386e-06
3.4849699268e-06
3.54876471031e-06
3.54878098997e-06
3.48497641836e-06
3.45377256546e-06
3.4432135224e-06
3.44046442402e-06
3.43991401891e-06
3.43983634566e-06
3.43983539018e-06
3.4398465102e-06
3.43985807483e-06
3.43985888684e-06
3.43984879357e-06
3.43983590437e-06
3.43983135116e-06
3.43991185731e-06
3.44046642463e-06
3.44321069803e-06
3.45377128092e-06
3.48497309636e-06
3.54878045988e-06
3.54878835254e-06
3.48497959758e-06
3.45377583271e-06
3.4432166624e-06
3.44047132969e-06
3.43992313046e-06
3.43984555339e-06
3.4398457311e-06
3.43986038343e-06
3.43987451259e-06
3.43987444221e-06
3.43986033342e-06
3.4398447067e-06
3.43983819991e-06
3.43991830202e-06
3.4404727895e-06
3.44321394797e-06
3.45377545249e-06
3.48497770531e-06
3.54878641628e-06
3.54879037717e-06
3.48498097042e-06
3.45377769723e-06
3.44321863196e-06
3.44047470753e-06
3.43992685221e-06
3.43984866755e-06
3.43984755232e-06
3.43986248285e-06
3.43987529185e-06
3.43987531273e-06
3.43986158207e-06
3.43984641416e-06
3.43983958849e-06
3.43992021869e-06
3.44047478033e-06
3.44321541283e-06
3.45377760568e-06
3.48497991132e-06
3.54878882437e-06
3.5487906288e-06
3.48498114778e-06
3.45377759847e-06
3.44321849076e-06
3.44047237573e-06
3.43992361972e-06
3.43984492177e-06
3.43984160127e-06
3.43985316058e-06
3.43986371952e-06
3.43986387248e-06
3.43985294361e-06
3.43983942028e-06
3.43983458751e-06
3.43991614625e-06
3.44047103203e-06
3.44321465841e-06
3.45377689513e-06
3.48497940151e-06
3.54878960178e-06
3.54878664374e-06
3.48497959785e-06
3.45377574448e-06
3.44321752522e-06
3.44046807851e-06
3.43991584199e-06
3.43983631967e-06
3.43983026379e-06
3.43983914961e-06
3.43984776938e-06
3.4398481589e-06
3.43983975483e-06
3.43982788411e-06
3.43982587787e-06
3.43990867979e-06
3.44046497326e-06
3.44321331245e-06
3.45377441063e-06
3.48497701567e-06
3.54878720338e-06
3.54878096261e-06
3.48498287976e-06
3.45378126884e-06
3.44322707068e-06
3.44047790902e-06
3.43991703237e-06
3.43983393004e-06
3.43982630363e-06
3.43983306082e-06
3.43984077507e-06
3.43984177093e-06
3.43983598103e-06
3.43982662474e-06
3.43982724183e-06
3.43991207619e-06
3.44046993677e-06
3.44322284511e-06
3.45377931765e-06
3.48497790649e-06
3.54877496558e-06
3.54879354342e-06
3.48501009971e-06
3.45384090551e-06
3.44330921023e-06
3.44057121584e-06
3.44000520162e-06
3.43991528204e-06
3.43990598491e-06
3.4399116143e-06
3.4399188438e-06
3.43992075694e-06
3.43991676924e-06
3.43990956728e-06
3.4399125592e-06
3.44000007372e-06
3.44056242368e-06
3.4433071201e-06
3.45383974372e-06
3.48500700469e-06
3.54878682844e-06
3.54881739101e-06
3.48517674002e-06
3.4542175535e-06
3.44381202038e-06
3.44112092558e-06
3.44057100218e-06
3.44047520225e-06
3.44046135897e-06
3.44046485922e-06
3.44047207961e-06
3.44047432168e-06
3.44047086102e-06
3.4404654171e-06
3.44047091805e-06
3.44056292567e-06
3.44111717549e-06
3.44381253374e-06
3.45421848285e-06
3.48517839413e-06
3.54881720122e-06
3.54889390675e-06
3.48615106473e-06
3.45618586467e-06
3.44631895363e-06
3.44381350925e-06
3.4433115888e-06
3.44322755432e-06
3.44321207976e-06
3.44321066748e-06
3.44321441833e-06
3.4432154035e-06
3.44321460877e-06
3.44321327353e-06
3.44322334716e-06
3.44330766074e-06
3.44381255286e-06
3.44632093164e-06
3.45618860691e-06
3.48615395863e-06
3.54889316044e-06
3.54930980089e-06
3.49074983794e-06
3.46436918607e-06
3.4561865482e-06
3.4542196977e-06
3.45384489139e-06
3.453782555e-06
3.45377103633e-06
3.45377156197e-06
3.45377562151e-06
3.45377750994e-06
3.45377684226e-06
3.45377442988e-06
3.45377943381e-06
3.45384018158e-06
3.45421868402e-06
3.45618847976e-06
3.4643724091e-06
3.4907528511e-06
3.54930922166e-06
3.55099372087e-06
3.50779441807e-06
3.49074876626e-06
3.48615283528e-06
3.48518329687e-06
3.48501898092e-06
3.48498382212e-06
3.48497072224e-06
3.48497381858e-06
3.48497803166e-06
3.48497993776e-06
3.48497950761e-06
3.48497680418e-06
3.48497761024e-06
3.48500713143e-06
3.48517871219e-06
3.4861539478e-06
3.49075273199e-06
3.50779731997e-06
3.55099691085e-06
3.56003284237e-06
3.55099662302e-06
3.54930593381e-06
3.54889166637e-06
3.5488199923e-06
3.54881375952e-06
3.54877990373e-06
3.54876122848e-06
3.5487816544e-06
3.54878666977e-06
3.54878868863e-06
3.54878925559e-06
3.54878691919e-06
3.54877405512e-06
3.54878590195e-06
3.54881710623e-06
3.54889332656e-06
3.54930899995e-06
3.55099718879e-06
3.56003477139e-06
3.55993792677e-06
3.54930298109e-06
3.54663857919e-06
3.54587545986e-06
3.54571340756e-06
3.54568787207e-06
3.54568036067e-06
3.54567122666e-06
3.5456719463e-06
3.54567813185e-06
3.54568020134e-06
3.54568019478e-06
3.54567567561e-06
3.54567198418e-06
3.54568027209e-06
3.54571377372e-06
3.54587808961e-06
3.54664056052e-06
3.54930240729e-06
3.55994350476e-06
3.54930285574e-06
3.49073851514e-06
3.46436811747e-06
3.45619181594e-06
3.45422668082e-06
3.4538561796e-06
3.45380070537e-06
3.45379392792e-06
3.45379507762e-06
3.45379788862e-06
3.45379936084e-06
3.45379900059e-06
3.45379674039e-06
3.45380124606e-06
3.45385778356e-06
3.45423025396e-06
3.45619564301e-06
3.46437266222e-06
3.49074502178e-06
3.5493065265e-06
3.54663840926e-06
3.46436762832e-06
3.42105576865e-06
3.40548038577e-06
3.40120699851e-06
3.40028670275e-06
3.40012627707e-06
3.40010318033e-06
3.40010134679e-06
3.40010278509e-06
3.40010374965e-06
3.40010384517e-06
3.40010543142e-06
3.40012722053e-06
3.40028827081e-06
3.40121009324e-06
3.40548304695e-06
3.42105945766e-06
3.46437265391e-06
3.54664419705e-06
3.5458755916e-06
3.45619143641e-06
3.40547974325e-06
3.38598948217e-06
3.38031589327e-06
3.37902370777e-06
3.37878641715e-06
3.37875072616e-06
3.37874546141e-06
3.37874450572e-06
3.37874425713e-06
3.37874421443e-06
3.37874881818e-06
3.37878580641e-06
3.37902470971e-06
3.3803176688e-06
3.38599074488e-06
3.4054819677e-06
3.45619506992e-06
3.54587928609e-06
3.54571394152e-06
3.45422711267e-06
3.40120707351e-06
3.38031551856e-06
3.3740983652e-06
3.37265646428e-06
3.3723921664e-06
3.3723575729e-06
3.3723510035e-06
3.37234674106e-06
3.37234196509e-06
3.37233826824e-06
3.37234189824e-06
3.37238186423e-06
3.37265210218e-06
3.3740988088e-06
3.38031666483e-06
3.40120952338e-06
3.45423318178e-06
3.54572043649e-06
3.54569031214e-06
3.45385575033e-06
3.40028566565e-06
3.37902262606e-06
3.37265540887e-06
3.3711809722e-06
3.37093326858e-06
3.37092257284e-06
3.37092573737e-06
3.37091808468e-06
3.37090597138e-06
3.37089354081e-06
3.37088572781e-06
3.37090857602e-06
3.37116922516e-06
3.37265259157e-06
3.3790229231e-06
3.40028705857e-06
3.45386014174e-06
3.54569188223e-06
3.54567511806e-06
3.45379801881e-06
3.40012436125e-06
3.37878472168e-06
3.37238989267e-06
3.37092640049e-06
3.3707205935e-06
3.37074333834e-06
3.37076002083e-06
3.37075390798e-06
3.37073843068e-06
3.37071692984e-06
3.37069528158e-06
3.37069251531e-06
3.37091624937e-06
3.37238173425e-06
3.37878208631e-06
3.40012306278e-06
3.45379640447e-06
3.54566617825e-06
3.54566226282e-06
3.45378913236e-06
3.40010018581e-06
3.37874694328e-06
3.37235093217e-06
3.37090714649e-06
3.37073313406e-06
3.37077564254e-06
3.37080472383e-06
3.37080519517e-06
3.37078966563e-06
3.37076180305e-06
3.37072800138e-06
3.37070587129e-06
3.3709018386e-06
3.37234251814e-06
3.37874217189e-06
3.40009709518e-06
3.45378557541e-06
3.54565447033e-06
3.54566676434e-06
3.45378913267e-06
3.40009766997e-06
3.37874148862e-06
3.37234556337e-06
3.37091471242e-06
3.37075371119e-06
3.37080642571e-06
3.37084636469e-06
3.37085713385e-06
3.37084169016e-06
3.37080734813e-06
3.37076015722e-06
3.37072347303e-06
3.37090632164e-06
3.3723381433e-06
3.37873563381e-06
3.40009481037e-06
3.45378671922e-06
3.5456645964e-06
3.54567316243e-06
3.45379285409e-06
3.40010003131e-06
3.37874269099e-06
3.37234872976e-06
3.37092419279e-06
3.37076623728e-06
3.37081967569e-06
3.37086617298e-06
3.37088063383e-06
3.37086527223e-06
3.37082497181e-06
3.37076924536e-06
3.37072264727e-06
3.37090080565e-06
3.37233546099e-06
3.378735268e-06
3.40009704035e-06
3.45379008273e-06
3.5456703271e-06
3.54567629055e-06
3.45379471555e-06
3.40010159614e-06
3.37874419919e-06
3.37235106159e-06
3.37092898271e-06
3.37076959483e-06
3.37081721735e-06
3.37086070651e-06
3.37087440406e-06
3.370858567e-06
3.3708185834e-06
3.3707615412e-06
3.37071190361e-06
3.37089086119e-06
3.37233108022e-06
3.37873477112e-06
3.40009825277e-06
3.45379141217e-06
3.5456721786e-06
3.5456763834e-06
3.45379450028e-06
3.4001019906e-06
3.37874513208e-06
3.37235235931e-06
3.37093017965e-06
3.37076370777e-06
3.37080045664e-06
3.37083457244e-06
3.37084360204e-06
3.37082859285e-06
3.37079411577e-06
3.37074093586e-06
3.37069449608e-06
3.37087802548e-06
3.37232500283e-06
3.37873379542e-06
3.40009758353e-06
3.45379048944e-06
3.54567208089e-06
3.54567188257e-06
3.45379186354e-06
3.40010294652e-06
3.37874923585e-06
3.37235300629e-06
3.3709197765e-06
3.37073983891e-06
3.37076212661e-06
3.37078451279e-06
3.37078974681e-06
3.37077914232e-06
3.37075405967e-06
3.37071164409e-06
3.37067570876e-06
3.37086923313e-06
3.37232568736e-06
3.37873796978e-06
3.4000983373e-06
3.45378859133e-06
3.54566966404e-06
3.54566931019e-06
3.4537974587e-06
3.40012504285e-06
3.37878453532e-06
3.37238657592e-06
3.37092559214e-06
3.37071466661e-06
3.37071885314e-06
3.37073204027e-06
3.37073765694e-06
3.37073336905e-06
3.37072084314e-06
3.37069416745e-06
3.37067560639e-06
3.37089192156e-06
3.37236575388e-06
3.37877664204e-06
3.40012084526e-06
3.45379376992e-06
3.54566210012e-06
3.54567951042e-06
3.45385522914e-06
3.40028652461e-06
3.37902309283e-06
3.37265371553e-06
3.37117320315e-06
3.37092071791e-06
3.37089885036e-06
3.37090171017e-06
3.37090712271e-06
3.37090684284e-06
3.37090313358e-06
3.37089173973e-06
3.37090103919e-06
3.37115333687e-06
3.37264076444e-06
3.37901892047e-06
3.40028380054e-06
3.45385346361e-06
3.54567533746e-06
3.54571321171e-06
3.45422810848e-06
3.40120856087e-06
3.38031619187e-06
3.374098285e-06
3.37265226883e-06
3.37238402756e-06
3.37234169848e-06
3.37233516867e-06
3.37233790827e-06
3.37233714964e-06
3.37233567141e-06
3.37233507749e-06
3.37236999201e-06
3.37264220424e-06
3.37409283509e-06
3.38031495447e-06
3.40120815771e-06
3.45422972867e-06
3.54571742761e-06
3.54587773355e-06
3.45619439764e-06
3.40548203521e-06
3.38598991196e-06
3.38031629835e-06
3.37902277967e-06
3.37878327798e-06
3.37874270955e-06
3.37873523031e-06
3.37873631228e-06
3.3787357844e-06
3.37873582257e-06
3.37874008709e-06
3.37877765618e-06
3.37901928139e-06
3.38031500661e-06
3.38599064348e-06
3.40548363899e-06
3.45619701297e-06
3.54587955248e-06
3.54664067701e-06
3.4643718815e-06
3.42105863822e-06
3.40548153346e-06
3.40120875877e-06
3.40028717799e-06
3.40012454474e-06
3.40009843932e-06
3.40009534727e-06
3.40009814941e-06
3.40009889853e-06
3.40009819736e-06
3.40009891578e-06
3.40012119271e-06
3.40028428603e-06
3.40120825702e-06
3.40548343736e-06
3.42106233366e-06
3.46437675159e-06
3.54664569689e-06
3.54930064404e-06
3.49074409498e-06
3.46437177026e-06
3.45619493272e-06
3.45423124477e-06
3.45385956766e-06
3.45379876047e-06
3.45378685499e-06
3.45378721903e-06
3.45379126607e-06
3.45379255912e-06
3.45379127738e-06
3.45378884393e-06
3.45379384246e-06
3.45385376314e-06
3.45422989048e-06
3.45619674375e-06
3.46437680161e-06
3.49075062748e-06
3.549308928e-06
3.55994281777e-06
3.54930510835e-06
3.54664326965e-06
3.54587913442e-06
3.54571827241e-06
3.54569237567e-06
3.54567034484e-06
3.54565442151e-06
3.54566345785e-06
3.54567085104e-06
3.54567272364e-06
3.54567219382e-06
3.5456687852e-06
3.54566235179e-06
3.54567553876e-06
3.54571679371e-06
3.54587935348e-06
3.54664575776e-06
3.54930917452e-06
3.55994695257e-06
3.5599166648e-06
3.54888005957e-06
3.54588122325e-06
3.54496649811e-06
3.54475919293e-06
3.54472553118e-06
3.54472097443e-06
3.5447201049e-06
3.54472146691e-06
3.54472448306e-06
3.54472618585e-06
3.54472561426e-06
3.54472000226e-06
3.54471622733e-06
3.54472403201e-06
3.54476508022e-06
3.54497263299e-06
3.54588910335e-06
3.54889484694e-06
3.55992190614e-06
3.54888016957e-06
3.48614634068e-06
3.4561942198e-06
3.44633791643e-06
3.44383733548e-06
3.44334148411e-06
3.44326556458e-06
3.44325973607e-06
3.44326266261e-06
3.44326573369e-06
3.44326690443e-06
3.44326627807e-06
3.44326375092e-06
3.44326999558e-06
3.44334777666e-06
3.44384493895e-06
3.44634565989e-06
3.45620268958e-06
3.48615685036e-06
3.54889999345e-06
3.54588144598e-06
3.45619398112e-06
3.40548826178e-06
3.38600551008e-06
3.38033510919e-06
3.37904507728e-06
3.37881062113e-06
3.37877772487e-06
3.3787737125e-06
3.37877274005e-06
3.37877149579e-06
3.37877066762e-06
3.37877421856e-06
3.37881003128e-06
3.37904842404e-06
3.38033999976e-06
3.38601078522e-06
3.40549585058e-06
3.4562030988e-06
3.5458926529e-06
3.54496717341e-06
3.44633732858e-06
3.38600469531e-06
3.36110541768e-06
3.35338821148e-06
3.35153604746e-06
3.35119983451e-06
3.35116749143e-06
3.35116002407e-06
3.35114703146e-06
3.35113356122e-06
3.35112326599e-06
3.35112560368e-06
3.35117823284e-06
3.35153101123e-06
3.35338927074e-06
3.36110720896e-06
3.3860085777e-06
3.4463440776e-06
3.54497380928e-06
3.54475905894e-06
3.44383659671e-06
3.38033418706e-06
3.35338708668e-06
3.34484433351e-06
3.34279591241e-06
3.34246819927e-06
3.34246617141e-06
3.34246343801e-06
3.34242907332e-06
3.34238989108e-06
3.34235655564e-06
3.34234493582e-06
3.34238539693e-06
3.34275740333e-06
3.3448360206e-06
3.35338735585e-06
3.38033700145e-06
3.443844582e-06
3.54476930126e-06
3.54472855104e-06
3.44334024321e-06
3.37904301061e-06
3.35153316231e-06
3.34278645448e-06
3.34074063622e-06
3.34046543783e-06
3.34050495669e-06
3.34051815108e-06
3.34046864549e-06
3.34040621152e-06
3.34034623646e-06
3.34031026427e-06
3.34033171126e-06
3.34067610696e-06
3.34276841017e-06
3.35153030906e-06
3.37904439307e-06
3.4433461465e-06
3.54473556111e-06
3.54471533215e-06
3.44326277847e-06
3.37880673509e-06
3.35119030471e-06
3.34244028769e-06
3.34043449064e-06
3.34019973724e-06
3.34028032007e-06
3.34032605902e-06
3.34029531318e-06
3.34022936387e-06
3.34014509047e-06
3.34007123295e-06
3.34006117311e-06
3.34037202427e-06
3.34242056909e-06
3.35118581004e-06
3.37880660458e-06
3.44326317252e-06
3.54470438064e-06
3.54470411779e-06
3.44325365765e-06
3.37877118339e-06
3.35114435259e-06
3.34241719597e-06
3.34043941822e-06
3.34023799093e-06
3.34036700832e-06
3.34047448235e-06
3.34048303293e-06
3.34041833152e-06
3.34030407402e-06
3.34018074264e-06
3.34011651561e-06
3.34039023529e-06
3.34240544553e-06
3.35114571664e-06
3.3787702658e-06
3.44325233829e-06
3.54469103203e-06
3.54471107972e-06
3.44325467404e-06
3.37876652699e-06
3.35114112167e-06
3.34242675096e-06
3.34046755844e-06
3.34029496074e-06
3.34046734971e-06
3.340631137e-06
3.34067396394e-06
3.34061554353e-06
3.34048428989e-06
3.34029673383e-06
3.34016958124e-06
3.34040184378e-06
3.34240158571e-06
3.35113790925e-06
3.37876502291e-06
3.44325433554e-06
3.54470661422e-06
3.54471652727e-06
3.44325844144e-06
3.37876838509e-06
3.35114743127e-06
3.34244098983e-06
3.3404886922e-06
3.34032727219e-06
3.3405137241e-06
3.34068996388e-06
3.34074967817e-06
3.34069166191e-06
3.34054039188e-06
3.34033079517e-06
3.34016294638e-06
3.34037073577e-06
3.34237379909e-06
3.35112613035e-06
3.37876450385e-06
3.44325790555e-06
3.54471343613e-06
3.54471869204e-06
3.44326035476e-06
3.37877036003e-06
3.35115419903e-06
3.34245413664e-06
3.34050203808e-06
3.34032927505e-06
3.34050271018e-06
3.34066815054e-06
3.34073444947e-06
3.34067441531e-06
3.34051614598e-06
3.34029514484e-06
3.34012176868e-06
3.34032405585e-06
3.34234010648e-06
3.35111349144e-06
3.3787632693e-06
3.44325869263e-06
3.54471547732e-06
3.54471886969e-06
3.44326020224e-06
3.37877228522e-06
3.35116124375e-06
3.34246876238e-06
3.34051331257e-06
3.34030583221e-06
3.34042614366e-06
3.34055788288e-06
3.34060226529e-06
3.34054483497e-06
3.34041220967e-06
3.34020972283e-06
3.34006498697e-06
3.34027767309e-06
3.34230896638e-06
3.35110236893e-06
3.3787610092e-06
3.44325666207e-06
3.54471453858e-06
3.5447126995e-06
3.44325731347e-06
3.37877593871e-06
3.35116364933e-06
3.34246168931e-06
3.3404878819e-06
3.3402377513e-06
3.34029838463e-06
3.34037362431e-06
3.34040686774e-06
3.34035589636e-06
3.34026086966e-06
3.34012118502e-06
3.34001875895e-06
3.34025751409e-06
3.34230206354e-06
3.35110526202e-06
3.37876331013e-06
3.44325342472e-06
3.54470880133e-06
3.54470935579e-06
3.44326490331e-06
3.37880976348e-06
3.35119655179e-06
3.34246055898e-06
3.34045123228e-06
3.34016545488e-06
3.34017301706e-06
3.34020135213e-06
3.34021887793e-06
3.34019948906e-06
3.34016068768e-06
3.34008587288e-06
3.34002475027e-06
3.34029088104e-06
3.3423521324e-06
3.35116238968e-06
3.37880013902e-06
3.44326037241e-06
3.54469634661e-06
3.54472152308e-06
3.44334368468e-06
3.37904625245e-06
3.3515353601e-06
3.34279003762e-06
3.34072999856e-06
3.34041440988e-06
3.34039443684e-06
3.34039787598e-06
3.34040708809e-06
3.340405117e-06
3.34039824745e-06
3.34036692597e-06
3.34034062051e-06
3.34064604732e-06
3.3427370691e-06
3.35152056018e-06
3.37904014802e-06
3.44334134871e-06
3.5447129769e-06
3.54476322291e-06
3.44384161358e-06
3.38033758766e-06
3.3533886518e-06
3.34484270768e-06
3.34277902514e-06
3.34242625795e-06
3.34239069027e-06
3.34238601102e-06
3.34239262472e-06
3.34239477146e-06
3.34239774434e-06
3.34238782863e-06
3.3423991589e-06
3.34275140655e-06
3.3448257627e-06
3.35338323919e-06
3.3803348908e-06
3.44384209716e-06
3.5447663268e-06
3.54497133455e-06
3.44634309552e-06
3.38600882736e-06
3.36110579401e-06
3.35338746805e-06
3.35153235184e-06
3.35118640708e-06
3.35113545619e-06
3.35112757652e-06
3.35113094364e-06
3.35113233819e-06
3.35113583254e-06
3.35113842355e-06
3.35117725525e-06
3.35152407211e-06
3.3533836137e-06
3.36110458839e-06
3.38600883944e-06
3.44634579921e-06
3.54497346745e-06
3.54588794291e-06
3.45620079567e-06
3.40549414241e-06
3.386007608e-06
3.38033643548e-06
3.37904475691e-06
3.37880770907e-06
3.3787697701e-06
3.3787645049e-06
3.37876712937e-06
3.37876690801e-06
3.37876649134e-06
3.37876889978e-06
3.37880304152e-06
3.37904106328e-06
3.38033479054e-06
3.38600867021e-06
3.40549764896e-06
3.45620638729e-06
3.54589259649e-06
3.5488915387e-06
3.4861550835e-06
3.4562018933e-06
3.44634300295e-06
3.44384315191e-06
3.44334542719e-06
3.44326555878e-06
3.44325429984e-06
3.44325556407e-06
3.44326052868e-06
3.44326117318e-06
3.4432587739e-06
3.44325475229e-06
3.44326121125e-06
3.44334158921e-06
3.44384209307e-06
3.44634564256e-06
3.45620643049e-06
3.48616105594e-06
3.54890093726e-06
3.55992147724e-06
3.54889667329e-06
3.54589190274e-06
3.54497224214e-06
3.54476737768e-06
3.54473095035e-06
3.54470847611e-06
3.54469667008e-06
3.54470588004e-06
3.54471511933e-06
3.54471693364e-06
3.54471522989e-06
3.54470912842e-06
3.54469993969e-06
3.54471560893e-06
3.54476657608e-06
3.54497345635e-06
3.54589292729e-06
3.54890127604e-06
3.55992395637e-06
3.55992240642e-06
3.54879533192e-06
3.54568443064e-06
3.54471230885e-06
3.54447878235e-06
3.54443895712e-06
3.54445242909e-06
3.54446396891e-06
3.54447495807e-06
3.54447743851e-06
3.54447614301e-06
3.54447586721e-06
3.54447169928e-06
3.54446297298e-06
3.54445651649e-06
3.54447606361e-06
3.54470286935e-06
3.54567555696e-06
3.5487926792e-06
3.55993720826e-06
3.54879653041e-06
3.48511245069e-06
3.45417265367e-06
3.44380579799e-06
3.44113094429e-06
3.44059781473e-06
3.44052262586e-06
3.44052399769e-06