/*--------------------------------*- C++ -*----------------------------------*\
| =========                 |                                                 |
| \\      /  F ield         | OpenFOAM: The Open Source CFD Toolbox           |
|  \\    /   O peration     | Version:  3.0.1                                 |
|   \\  /    A nd           | Web:      www.OpenFOAM.org                      |
|    \\/     M anipulation  |                                                 |
\*---------------------------------------------------------------------------*/
FoamFile
{
    version     2.0;
    format      ascii;
    class       surfaceVectorField;
    location    "0.3";
    object      Uf_0;
}
// * * * * * * * * * * * * * * * * * * * * * * * * * * * * * * * * * * * * * //

dimensions      [0 1 -1 0 0 0 0];

internalField   nonuniform List<vector> 
22672
(
(-7.53424697315e-05 -6.96931814752e-05 3.655200186e-05)
(-7.1492093854e-05 -7.26303045714e-05 3.6559889455e-05)
(-7.27476466185e-05 -7.09429081181e-05 0.000148067042082)
(-3.62300362904e-05 -6.26797290115e-05 -1.4796670779e-05)
(-6.21112848092e-05 -5.3383377767e-05 -3.71184781055e-05)
(-6.25540080543e-05 -5.944319783e-05 1.43758126855e-05)
(2.72801830608e-05 -5.68338318485e-05 -2.45462469884e-05)
(5.02607553815e-06 -4.03547245864e-05 -5.51645177268e-05)
(1.59996255034e-06 -5.28579583872e-05 -2.30548169423e-05)
(8.14065080551e-05 -4.94061182894e-05 -2.42169362738e-05)
(6.71399657874e-05 -2.79351489816e-05 -5.54183775597e-05)
(6.18984784976e-05 -4.46808435326e-05 -2.61017765482e-05)
(0.000120245317499 -3.96022520183e-05 -2.31467938565e-05)
(0.000113338866342 -1.21277259074e-05 -5.43010520408e-05)
(0.000105942492514 -3.53316750315e-05 -2.66358104104e-05)
(0.000138365199818 -2.97141192743e-05 -2.29034186694e-05)
(0.000143052829036 6.61657258898e-06 -5.36455945647e-05)
(0.000134917756555 -2.32831951503e-05 -2.46752757508e-05)
(0.000140316950439 -2.1442786915e-05 -2.24314363968e-05)
(0.000151726810904 2.42458506268e-05 -5.33263444376e-05)
(0.000145290675643 -1.29980716035e-05 -2.61483574455e-05)
(0.000123734314065 -1.3990565246e-05 -2.12457988545e-05)
(0.000139807866789 4.11003561659e-05 -5.18969853096e-05)
(0.000134692589332 -4.10186698882e-06 -2.44769482747e-05)
(9.32493872624e-05 -8.56168335475e-06 -2.10022296049e-05)
(0.000113263934459 5.41671491814e-05 -5.06497300619e-05)
(0.000109003105976 3.73204605296e-06 -2.36459197713e-05)
(5.31628503077e-05 -5.71143625099e-06 -2.10759271152e-05)
(7.4960827837e-05 6.33399292598e-05 -5.03822364387e-05)
(7.26142361971e-05 8.89403277123e-06 -2.32175522508e-05)
(9.68086416203e-06 -5.61387648352e-06 -2.08816052747e-05)
(2.90695506454e-05 6.65852361748e-05 -5.028743099e-05)
(2.93442003892e-05 1.05840463673e-05 -2.3064183875e-05)
(-3.07290091474e-05 -7.98625830248e-06 -2.08251532261e-05)
(-1.65980255111e-05 6.33203339382e-05 -5.01765075091e-05)
(-1.4369484117e-05 9.05754082733e-06 -2.2865043982e-05)
(-6.200884161e-05 -1.34719679346e-05 -2.16442732913e-05)
(-5.59310200682e-05 5.48973788345e-05 -5.09861128537e-05)
(-5.18906676432e-05 4.65545281183e-06 -2.35635284781e-05)
(-7.79750220085e-05 -2.09930303108e-05 -2.38063259497e-05)
(-8.27401988547e-05 4.16073254367e-05 -5.29848974808e-05)
(-7.82436546865e-05 -3.93171938047e-06 -2.55775398034e-05)
(-7.49534875115e-05 -2.97998057298e-05 -2.60194385213e-05)
(-9.15604359342e-05 2.61175544083e-05 -5.60280061053e-05)
(-8.60118049247e-05 -1.23409507754e-05 -2.90664969265e-05)
(-5.04876258171e-05 -3.83410218796e-05 -2.83630779448e-05)
(-7.83810810569e-05 7.25209626921e-06 -5.81309915499e-05)
(-7.3185405939e-05 -2.38021931463e-05 -3.16385447437e-05)
(-8.06770162329e-06 -4.46688661283e-05 -2.97749492051e-05)
(-4.39227950463e-05 -6.72453410291e-06 -6.11639288019e-05)
(-4.05724071808e-05 -3.16802795698e-05 -3.56122935624e-05)
(4.40583957787e-05 -5.25524056767e-05 -2.2453875266e-05)
(9.33312321055e-06 -1.76500551421e-05 -6.13319364861e-05)
(1.25984435681e-05 -3.91834138929e-05 -3.43908308593e-05)
(8.11229912105e-05 -6.57931993887e-05 2.21219121978e-05)
(6.63316877503e-05 -3.18165780472e-05 -4.79572360021e-05)
(6.65206017173e-05 -5.10547034548e-05 -5.15692982904e-06)
(8.71958933474e-05 -5.26154991935e-05 2.0252865018e-05)
(8.72748866278e-05 -6.7814557999e-05 0.000133804118857)
(-5.82878263615e-05 -5.59007370518e-05 -3.71105905106e-05)
(-6.52599926622e-05 -2.86694174239e-05 -1.48276685285e-05)
(-6.2719823437e-05 -5.64349232253e-05 1.44351819554e-05)
(-1.71779442521e-05 -3.4970471725e-05 -7.74863250534e-05)
(-4.30468313615e-05 -6.14580421601e-06 -7.72926648016e-05)
(-4.2238406025e-05 -3.30415743193e-05 -8.82313773853e-05)
(4.53636075648e-05 -1.60755933406e-05 -8.60366482982e-05)
(2.72937607781e-05 1.60444468384e-05 -9.375547605e-05)
(2.00228396314e-05 -1.39891149665e-05 -0.000118830550635)
(0.000101351906441 5.76031950962e-06 -8.55024933267e-05)
(9.19266843311e-05 3.98227015958e-05 -9.37226612299e-05)
(7.88913001893e-05 7.53249670756e-06 -0.000123648288732)
(0.000140313121791 3.23472026274e-05 -8.47998527489e-05)
(0.00014165239354 7.19512991731e-05 -9.13639032712e-05)
(0.00012545242929 3.43658513888e-05 -0.000122957075939)
(0.000158167257867 6.02374278723e-05 -8.4068520333e-05)
(0.000171525396906 0.000111611949535 -8.8739636487e-05)
(0.000154112681024 6.58637109316e-05 -0.000122780706407)
(0.000155334758281 8.6275695229e-05 -8.27918933504e-05)
(0.00017741918698 0.000147532418612 -8.6211668043e-05)
(0.000160818184561 9.58458709912e-05 -0.000120397342724)
(0.000134197308318 0.00010843740864 -8.1300916517e-05)
(0.000160986101431 0.000180470723543 -8.38548819523e-05)
(0.000147432057429 0.000122930522754 -0.000118184823578)
(9.81497206373e-05 0.000124148850274 -8.00297368957e-05)
(0.000127429905731 0.000206221429251 -8.05727665563e-05)
(0.000118087057562 0.000144592475631 -0.000115963218692)
(5.23383247837e-05 0.000132584276761 -7.95937403135e-05)
(8.13910014482e-05 0.000223867810286 -7.90885008747e-05)
(7.62856250956e-05 0.000158355667516 -0.000114673430175)
(2.82481517232e-06 0.000132670042788 -7.95823332245e-05)
(2.67920126335e-05 0.000230185850408 -7.86346661814e-05)
(2.70728548057e-05 0.000163562807134 -0.000114040328614)
(-4.35732579524e-05 0.00012470200274 -8.03374671366e-05)
(-2.73262658706e-05 0.000223983436212 -7.88718788647e-05)
(-2.22266660009e-05 0.000158762149438 -0.000114210778784)
(-7.95847054362e-05 0.000109492598135 -8.23267370431e-05)
(-7.44924416856e-05 0.000207171384625 -8.11695785564e-05)
(-6.6118783349e-05 0.000145643396203 -0.00011619797532)
(-9.98958677473e-05 8.82191082263e-05 -8.52065776364e-05)
(-0.000108112549615 0.000181747966407 -8.49913143602e-05)
(-9.65995160304e-05 0.000124499796425 -0.000119753220067)
(-9.71038852638e-05 6.24191643652e-05 -8.81395591339e-05)
(-0.000122267650322 0.000148529169909 -8.96278603942e-05)
(-0.000108029415458 9.85780635473e-05 -0.00012511629858)
(-7.45528577378e-05 3.69851686883e-05 -9.0931842407e-05)
(-0.000109661133945 0.000115201623989 -9.4260760185e-05)
(-9.59447482969e-05 6.7920210989e-05 -0.000130404768501)
(-2.85316161494e-05 1.64590327194e-05 -9.27209160829e-05)
(-7.10947588066e-05 8.17430718897e-05 -9.91984716615e-05)
(-6.09306126143e-05 4.21690509657e-05 -0.00013438825912)
(2.86723882986e-05 -1.54303463247e-06 -8.68352972221e-05)
(-1.40387483596e-05 5.75128809263e-05 -0.000100194144974)
(-9.04386560173e-06 2.1231405074e-05 -0.000132263786834)
(6.7048687492e-05 -1.87500118124e-05 -4.98262831818e-05)
(5.02661733795e-05 3.54603889231e-05 -8.80401000143e-05)
(4.91228294405e-05 1.07398165726e-06 -0.000105545006956)
(7.80356594157e-05 1.89194830812e-05 -2.63294601308e-05)
(7.41232275619e-05 -1.59942309141e-05 -4.40916168328e-06)
(-4.57419896605e-05 1.80169516983e-05 -5.50097428195e-05)
(-5.96405096588e-05 4.01960956392e-05 -2.41881044787e-05)
(-5.61907394503e-05 1.50488188985e-05 -2.30096974383e-05)
(3.2055533896e-06 4.24981273417e-05 -9.35618157982e-05)
(-2.50325989601e-05 6.3109449162e-05 -8.57810962891e-05)
(-2.34872321919e-05 3.6554691483e-05 -0.000118081209549)
(7.54419772227e-05 7.17943380217e-05 -0.000101441488982)
(5.62398657915e-05 9.28230894188e-05 -0.00010110477282)
(4.69954804879e-05 6.32465034974e-05 -0.000148898494759)
(0.00013675494518 0.000107794219091 -9.95840711744e-05)
(0.00012953808323 0.000130972783158 -9.90710342153e-05)
(0.000111947325382 9.77113263296e-05 -0.000152357235003)
(0.000177891245302 0.000150890492911 -9.53036870092e-05)
(0.000186168385426 0.000178382933098 -9.29912863363e-05)
(0.000162977689672 0.000140710293028 -0.000147475169661)
(0.000195034503614 0.000196376720472 -9.0882784197e-05)
(0.000218022685107 0.000233357698013 -8.59659231302e-05)
(0.000192966308404 0.000190634134562 -0.000138809435661)
(0.000186977522183 0.000239036355274 -8.72746566448e-05)
(0.000220738125179 0.000286505352526 -7.90139235647e-05)
(0.000197628061934 0.000238839331904 -0.000130848190963)
(0.00015803607714 0.00027620842347 -8.31267319916e-05)
(0.000198505284734 0.000332818603942 -7.29911201951e-05)
(0.000178522842939 0.000282756927438 -0.000123348008245)
(0.000112861444418 0.000303250440614 -7.96315305352e-05)
(0.00015454096678 0.000367510552748 -6.75130346583e-05)
(0.000140019209826 0.000318435778625 -0.000116062047211)
(5.7301586466e-05 0.000317135115448 -7.81294267425e-05)
(9.50904465893e-05 0.00039132212859 -6.50314664981e-05)
(8.78600685406e-05 0.000340355770182 -0.000111843864068)
(-4.06772247029e-06 0.000317435354495 -7.79242118217e-05)
(2.66633366575e-05 0.000401673187991 -6.36290702103e-05)
(2.7007379923e-05 0.000348346465652 -0.000110064565145)
(-6.09337248294e-05 0.000303678267285 -7.97039902845e-05)
(-4.17871666288e-05 0.00039175973615 -6.44376196923e-05)
(-3.41305126669e-05 0.000341223617374 -0.000110849199473)
(-0.000106524658906 0.000277271958286 -8.38341558735e-05)
(-0.000101919197829 0.000368635674397 -6.74898583946e-05)
(-8.78229674594e-05 0.000319256364469 -0.00011580065344)
(-0.000134082767789 0.000240777489456 -8.9412597118e-05)
(-0.000146006330014 0.000334010117018 -7.40415974363e-05)
(-0.000127246682076 0.000284882976749 -0.000124617519009)
(-0.000136065055893 0.000200344774852 -9.57490614453e-05)
(-0.000164523436882 0.000286870098701 -8.27370681696e-05)
(-0.00014551462809 0.000240953570542 -0.000136258497032)
(-0.00010902448309 0.000159318654661 -0.000102527389439)
(-0.00015291167729 0.000236841302056 -9.27140064793e-05)
(-0.000134476407402 0.000196383037454 -0.000148569048001)
(-5.76009501269e-05 0.000122562664247 -0.000106671700553)
(-0.000110268428712 0.000189822825086 -0.000101619730396)
(-9.50470375479e-05 0.00015108350949 -0.000159385010258)
(5.86822077462e-06 9.37255630102e-05 -0.000101398947766)
(-4.39026045751e-05 0.000153184286813 -0.000105465429081)
(-3.76866455683e-05 0.000116489625597 -0.000159017715138)
(5.30155360605e-05 7.1856166798e-05 -6.45432769632e-05)
(3.07461200216e-05 0.000122070380487 -9.40173098404e-05)
(2.82767768573e-05 8.86685595306e-05 -0.000133627560866)
(6.93801894521e-05 0.000104433239475 -3.19134496817e-05)
(6.23550685901e-05 7.08890062056e-05 -3.24062673383e-05)
(-3.36344894664e-05 8.35851705733e-05 -5.49594579483e-05)
(-5.19785253363e-05 9.81481909858e-05 -2.33895284928e-05)
(-4.88253862777e-05 7.8552768514e-05 -2.42003821071e-05)
(2.85095994931e-05 0.000111626478845 -9.33240533109e-05)
(-3.51031284236e-06 0.000123885922979 -8.51213842331e-05)
(-3.26762641892e-06 0.000100201098497 -0.000122794437889)
(0.000112946150863 0.000150033249027 -9.87343180536e-05)
(9.25812549827e-05 0.000159549980662 -9.81359067349e-05)
(8.07523553406e-05 0.000133221502005 -0.000151040279585)
(0.000184832093513 0.000198758709826 -9.24782493771e-05)
(0.000178225897544 0.000207715117694 -9.21991537483e-05)
(0.000157286073588 0.000179875345413 -0.00014851349473)
(0.000229530256939 0.000256095144851 -8.36535224572e-05)
(0.000243647194509 0.000268138996303 -8.07207191206e-05)
(0.000218103448056 0.000237128378721 -0.000134350709552)
(0.000248882785784 0.000316419723133 -7.40970624979e-05)
(0.000278461018429 0.000331202068762 -6.80121210731e-05)
(0.00025098224834 0.000302072086941 -0.000117106202522)
(0.000237537607576 0.00037151701673 -6.4730387115e-05)
(0.000275917702018 0.000396347348173 -5.49697834725e-05)
(0.000251351732791 0.000365574148056 -9.84193627875e-05)
(0.000199855981012 0.000417849566766 -5.73774228618e-05)
(0.000244899159679 0.000452946874674 -4.32039875212e-05)
(0.000225440027876 0.000421068040332 -8.23815279659e-05)
(0.000139449108874 0.000451927974105 -5.29129706211e-05)
(0.000188653658322 0.000497539163256 -3.3691821015e-05)
(0.000174351508694 0.000466287580777 -6.95663694325e-05)
(6.57368670748e-05 0.0004694544978 -5.05311099659e-05)
(0.000112616929802 0.000527433909858 -2.9013276931e-05)
(0.000105355856623 0.000494308380084 -6.23494587086e-05)
(-1.19530609834e-05 0.000469375481111 -5.0142478081e-05)
(2.65562710831e-05 0.000537952074619 -2.59236661911e-05)
(2.76313459756e-05 0.000504135473861 -5.85381738255e-05)
(-8.59027553206e-05 0.000452182651942 -5.22234878024e-05)
(-5.90460373131e-05 0.000526567309095 -2.77526142772e-05)
(-5.11867999062e-05 0.000494667340304 -6.07998039786e-05)
(-0.000146021814594 0.00041865687991 -5.76972999574e-05)
(-0.000135562179495 0.000496881812679 -3.34847221171e-05)
(-0.000121982527458 0.000466930281317 -6.80558681615e-05)
(-0.000180979064243 0.000372412304379 -6.7366068488e-05)
(-0.000192415835314 0.000452599280881 -4.45981595687e-05)
(-0.000174474921488 0.000422124418667 -8.35437873098e-05)
(-0.000186073224578 0.000319314805479 -7.97020132037e-05)
(-0.000217823221345 0.000396778228594 -5.91537483569e-05)
(-0.000196628730499 0.000366830127143 -0.000104708062195)
(-0.000156437412195 0.000264837651684 -9.18063474359e-05)
(-0.000207623059579 0.000335742092812 -7.55029110994e-05)
(-0.000186858971729 0.000307097202761 -0.000128414941219)
(-9.88809631452e-05 0.000217325042485 -0.000100413458925)
(-0.000157908145908 0.000280194510735 -9.02512417062e-05)
(-0.000143227407617 0.000249239304336 -0.000147794675444)
(-1.99144716555e-05 0.000178621647883 -9.80837911554e-05)
(-8.14296464624e-05 0.000230340457152 -9.95295316734e-05)
(-7.346035684e-05 0.000203495934236 -0.000155980141297)
(3.97433667128e-05 0.000151527294449 -6.13874825589e-05)
(6.65235748485e-06 0.000194814072756 -8.96666942694e-05)
(5.58610892261e-06 0.000167331161804 -0.000132248483192)
(6.1587443072e-05 0.000174370077679 -2.79918709116e-05)
(5.36492966226e-05 0.000149538017556 -3.00858280128e-05)
(-1.70332163234e-05 0.000134641161181 -5.35514547776e-05)
(-4.35018329896e-05 0.000139756093548 -2.19010093338e-05)
(-3.85529710324e-05 0.000128861476339 -2.44537791603e-05)
(6.17977244145e-05 0.000166717495391 -8.99332376571e-05)
(2.30931415426e-05 0.000165862036557 -8.30515452637e-05)
(2.4648661194e-05 0.000151364481243 -0.000120675632068)
(0.00016125361687 0.00021209875936 -9.16007424297e-05)
(0.000136085772435 0.000204079644851 -9.37638238754e-05)
(0.000125350819498 0.000190246108063 -0.000143854880719)
(0.000242978831666 0.000268977595257 -8.04416234917e-05)
(0.000234933827652 0.00025904536592 -8.23301212081e-05)
(0.000215894608915 0.000244654523765 -0.000132931297385)
(0.000297819207435 0.000334355280946 -6.50793177364e-05)
(0.000309023969077 0.000321701878624 -6.45748356455e-05)
(0.000284679909731 0.000311148712452 -0.000108290037431)
(0.000312741159586 0.000401730722032 -4.88848420477e-05)
(0.000345853394306 0.000394694997598 -4.45202677947e-05)
(0.000320576071245 0.000384140966886 -7.83165733903e-05)
(0.000294126788662 0.000464575733783 -3.34433838787e-05)
(0.000338785744372 0.000463305439649 -2.47033178985e-05)
(0.000315781253206 0.00045544691562 -4.82632534466e-05)
(0.000242484987695 0.000518041458996 -1.95183856743e-05)
(0.000298390289119 0.000526138245776 -6.39847353882e-06)
(0.000278501956306 0.00051919382 -2.14877383068e-05)
(0.000166317052929 0.000556585236225 -9.79212732485e-06)
(0.000227219825268 0.000573975591297 8.64535706472e-06)
(0.000212730102476 0.000570522633469 -2.22982173333e-07)
(7.47679184565e-05 0.000576643971051 -4.4058331562e-06)
(0.000132687612976 0.000603076960714 1.71651583844e-05)
(0.000125444421519 0.000602632725477 1.59409445407e-05)
(-2.16629971623e-05 0.000576248868845 -3.53380238728e-06)
(2.61535328566e-05 0.000613625158709 2.1631178314e-05)
(2.74000734198e-05 0.000613932458953 2.07902951346e-05)
(-0.000113364410078 0.000555310599147 -9.01384859186e-06)
(-8.00069705865e-05 0.000602401437811 1.84583348723e-05)
(-7.10223153776e-05 0.000601744308773 1.5906608572e-05)
(-0.000187104578749 0.000516794023906 -2.03855817283e-05)
(-0.000174106908361 0.000570507058802 7.96715832666e-06)
(-0.000159852950163 0.000568321205291 1.69523849452e-07)
(-0.000235442990729 0.000464803084953 -3.63858394376e-05)
(-0.000244433496686 0.000523765243246 -8.65999620862e-06)
(-0.000226726096546 0.000518339516932 -2.27516914072e-05)
(-0.000244603180776 0.000404190870373 -5.49546462526e-05)
(-0.000278459992321 0.000461491907279 -2.89650031407e-05)
(-0.000259904625551 0.000456740283709 -5.54537723079e-05)
(-0.000215492577339 0.00034213955861 -7.39478053697e-05)
(-0.000269675816948 0.000397772536676 -5.33134672623e-05)
(-0.000251727918484 0.000387945641306 -9.10183146602e-05)
(-0.00014508820422 0.00028670070017 -8.93673144551e-05)
(-0.000213205235801 0.000333744851951 -7.50834203915e-05)
(-0.000199019101342 0.000322764489357 -0.000123812490843)
(-5.37891917697e-05 0.000242515432061 -9.11124347874e-05)
(-0.000124416959273 0.000281274743027 -9.04878615105e-05)
(-0.000119571023871 0.000268275917733 -0.00014207469681)
(2.23272967821e-05 0.000212252139333 -5.62710826221e-05)
(-2.12335140071e-05 0.000242356760359 -8.41597403346e-05)
(-2.4885797446e-05 0.000229401199405 -0.000123484662596)
(5.15800610614e-05 0.000220488933067 -2.32371040323e-05)
(4.38225147182e-05 0.000208119199725 -2.36697731844e-05)
(-5.51953802982e-07 0.000166404226811 -5.14010998199e-05)
(-3.49322811769e-05 0.000162053371371 -2.02037627574e-05)
(-2.92010196627e-05 0.000160841400183 -2.16195364388e-05)
(9.88394746663e-05 0.000199259650484 -8.68821314819e-05)
(5.16844755037e-05 0.000184021375381 -8.08965903101e-05)
(5.48844870453e-05 0.000182115441917 -0.000117412843217)
(0.000212579995414 0.000245838260071 -8.44932026538e-05)
(0.000181192153148 0.000225918208485 -8.90395642154e-05)
(0.000174055631534 0.000223532830309 -0.000135440281559)
(0.000308995347902 0.000305521536438 -6.64633333619e-05)
(0.000294477745704 0.000276611730762 -7.13498108214e-05)
(0.000278809432733 0.000278673239032 -0.000113849030405)
(0.00036339226015 0.000374316223716 -4.40157857038e-05)
(0.00037779968868 0.000343905718401 -4.73853803794e-05)
(0.000357632302342 0.000350053342479 -7.64811606124e-05)
(0.000380719496323 0.00044309206795 -2.03387436455e-05)
(0.00041463002024 0.000411810815649 -1.97852350473e-05)
(0.000395052604049 0.000424423328983 -3.43437015931e-05)
(0.000355201229076 0.000509627042328 2.34159244134e-06)
(0.000405334780469 0.000481167249858 7.92761899916e-06)
(0.000386136757707 0.000497854046311 7.72994428855e-06)
(0.000293335573481 0.000567241746696 2.17652692002e-05)
(0.000356024966742 0.000540593614445 3.22590127916e-05)
(0.000340276083968 0.000566021059502 4.74559061964e-05)
(0.000198754532406 0.000607220377481 3.5602642774e-05)
(0.000267213621999 0.000588617217617 5.25651403674e-05)
(0.000257618693822 0.000619829089809 7.99601864588e-05)
(8.57334013262e-05 0.000627750340679 4.32021698546e-05)
(0.000153226579373 0.00061741207061 6.40931331213e-05)
(0.000148669860567 0.000652383379999 9.86898992367e-05)
(-3.36420308855e-05 0.000627151765086 4.36233155735e-05)
(2.55535454506e-05 0.000626347393852 6.87060172112e-05)
(2.67213325888e-05 0.000663707808571 0.000106651495249)
(-0.000146282249254 0.00060338864829 3.54393417908e-05)
(-0.000103786402152 0.00061469381639 6.3453149572e-05)
(-9.67354842101e-05 0.000649686760958 0.000100352916331)
(-0.000239067839765 0.000561075501977 1.96927438463e-05)
(-0.000216441523826 0.00058365833475 4.95380036161e-05)
(-0.000205238689722 0.00061244392186 7.96573898622e-05)
(-0.000296175291451 0.00050512119945 -1.23915991176e-06)
(-0.000300397260605 0.000535397221667 2.84461770753e-05)
(-0.000285837830152 0.000559988193246 4.5525039909e-05)
(-0.000310861828785 0.000442577459901 -2.73238241505e-05)
(-0.000340999425477 0.000477910982598 2.05170159896e-06)
(-0.000326822983214 0.000494434949908 -1.65162686094e-06)
(-0.000275384207957 0.000380360087597 -5.44490822841e-05)
(-0.000331862829373 0.000411937167453 -3.07192385579e-05)
(-0.000320847819652 0.000426122238104 -4.95290452578e-05)
(-0.000198218611008 0.000321427112425 -7.6203967447e-05)
(-0.000271982888332 0.000351282820889 -5.97473689514e-05)
(-0.000263476213285 0.000359493738357 -9.45607623165e-05)
(-9.09451757459e-05 0.000275354236109 -8.35351670577e-05)
(-0.000169575792451 0.000298532372218 -8.07367503521e-05)
(-0.00016765925089 0.000300555523719 -0.000124362317477)
(4.23112229462e-06 0.000245865631102 -5.11257617449e-05)
(-4.92721275697e-05 0.000261410466627 -7.87226963265e-05)
(-5.56711190512e-05 0.000262565416067 -0.00011403874975)
(4.0711296512e-05 0.000240666930863 -1.81493830888e-05)
(3.10800081116e-05 0.000241183804396 -1.58142023172e-05)
(1.82390322088e-05 0.000176168894282 -4.96992532475e-05)
(-2.51887662244e-05 0.000162974565168 -1.86024721482e-05)
(-1.89711761528e-05 0.000169496338576 -1.9028279118e-05)
(0.000132900070201 0.000206377303078 -8.30540230436e-05)
(7.89261599995e-05 0.000182514630252 -7.90842323316e-05)
(8.64844809826e-05 0.000191058357172 -0.000113008982712)
(0.000266296236228 0.000250192958783 -7.58961723831e-05)
(0.000223969484335 0.00021723372411 -8.35334179457e-05)
(0.000222783235318 0.000228537951959 -0.000124564966929)
(0.00037043121294 0.000307068713346 -5.2271857839e-05)
(0.00035124173255 0.00026528482134 -6.10472353543e-05)
(0.000343381469342 0.000282278219177 -9.26690048477e-05)
(0.000436584516453 0.000370252569158 -2.31548297229e-05)
(0.000440960269469 0.000322547013401 -3.08825440499e-05)
(0.000430705595426 0.000348626602157 -4.46733920336e-05)
(0.000452023942149 0.000436421681729 8.48112759744e-06)
(0.000480787500346 0.000385478948244 3.95441173893e-06)
(0.000468389415164 0.000417377505454 1.098528608e-05)
(0.000417567527036 0.000500554091738 3.78450393494e-05)
(0.00046947257754 0.000447076510718 3.82567889768e-05)
(0.000457331989395 0.00048950673378 6.86038003868e-05)
(0.000340574977732 0.000553539917947 6.30588839587e-05)
(0.000409018389699 0.000500990792583 6.74747505564e-05)
(0.000400415359704 0.000552777655661 0.000116613643552)
(0.000228176176009 0.000590259527818 8.10556307148e-05)
(0.000303937498061 0.000543356989113 9.21798681851e-05)
(0.000299027952392 0.000603350443871 0.000157643807643)
(9.46138890329e-05 0.000608597753154 8.9596980478e-05)
(0.000171564167538 0.000569837486319 0.000105462664978)
(0.000169264065045 0.000632737593534 0.000181099172547)
(-4.62186948566e-05 0.00060695688251 8.85358512097e-05)
(2.39111710592e-05 0.000576958590403 0.000110136566562)
(2.46544482628e-05 0.000642416946675 0.000190175755538)
(-0.000178226936677 0.000584274971792 7.75518113973e-05)
(-0.00012647681629 0.000566179994776 0.000103244143932)
(-0.000122320871388 0.000628385568596 0.000180483657344)
(-0.000286643281685 0.000545139911932 5.8291436845e-05)
(-0.000255585383438 0.000538932220877 8.60299955495e-05)
(-0.000249562400461 0.00059322718626 0.000153124929055)
(-0.000354828346574 0.000494282715083 3.1737038586e-05)
(-0.000351253069072 0.000494104641383 6.19558375398e-05)
(-0.000344714135124 0.00054408788209 0.000109491893293)
(-0.000374909139932 0.000434223541264 -1.34371280842e-06)
(-0.000401039716997 0.000444663467656 2.86489394588e-05)
(-0.000393765409459 0.000483309233366 5.33816915985e-05)
(-0.000337744812208 0.000374771939939 -3.60175252252e-05)
(-0.000391277346152 0.000384555545063 -8.84783932145e-06)
(-0.000386855202733 0.000417003988346 -9.68703067181e-06)
(-0.000251065592466 0.000321379561721 -6.42801518566e-05)
(-0.000325241500554 0.0003318563014 -4.58067231758e-05)
(-0.000325288989239 0.000356412989206 -6.71163241242e-05)
(-0.000128615016128 0.000276759434988 -7.59242796209e-05)
(-0.000213591067574 0.000282829865553 -7.15069611518e-05)
(-0.000217874785508 0.000301789067588 -0.000106575324301)
(-1.33046702674e-05 0.000249336005069 -4.57463176705e-05)
(-7.6407666679e-05 0.000250025726583 -7.3021336941e-05)
(-8.66728725304e-05 0.000263454089123 -0.000103723502748)
(3.17330280283e-05 0.00023561962174 -1.35712206863e-05)
(2.02286783201e-05 0.000245876589741 -8.11764293486e-06)
(3.6294968915e-05 0.000165898983895 -4.79874512323e-05)
(-1.72262699116e-05 0.000143409224518 -1.71122117603e-05)
(-7.69375834516e-06 0.000160614249819 -1.65907823933e-05)
(0.000169197314598 0.000189203608884 -7.95636272337e-05)
(0.000100588430488 0.000159219614507 -7.68451240789e-05)
(0.000114362507882 0.000177687526062 -0.000109454548028)
(0.000315176339668 0.000227150501401 -6.86844809169e-05)
(0.000261263204704 0.000185794991661 -7.81853884961e-05)
(0.000266685852767 0.000207558663273 -0.000114386794912)
(0.000430308566883 0.000274907917761 -3.96579215652e-05)
(0.000398905757058 0.000224939527934 -5.24360037874e-05)
(0.000399892846703 0.000256203645408 -7.46443200234e-05)
(0.000499697441773 0.00032746528891 -3.77330258807e-06)
(0.000493491225036 0.000269120732286 -1.52546022644e-05)
(0.00049304622228 0.000309518361806 -1.58443855858e-05)
(0.000511888519 0.000385466199803 3.37300731183e-05)
(0.000538773133782 0.000320437368323 2.51119602744e-05)
(0.000535998194848 0.000370033006958 5.29309362806e-05)
(0.00046967726678 0.000439833523433 6.78865001838e-05)
(0.000523836195939 0.000369471871661 6.57355064636e-05)
(0.000521548393966 0.000432283426609 0.000119849537576)
(0.000383913185626 0.000484206527489 9.65957347827e-05)
(0.000453390459013 0.000411135815284 9.72146550469e-05)
(0.000454104860135 0.000485429160972 0.000175604755423)
(0.000254347560958 0.000515826558459 0.000116586902448)
(0.000335550760651 0.000447404545164 0.000128290809745)
(0.000337546071689 0.000529246841569 0.000225463363068)
(0.000102620397906 0.000531782845906 0.000126002251061)
(0.00018750987467 0.000469096627922 0.000143460190412)
(0.00018768779906 0.000555351487781 0.000252387068701)
(-5.85990896699e-05 0.000530158576699 0.000124844859285)
(2.22859296221e-05 0.000475475941582 0.000148801604873)
(2.23152543379e-05 0.000563371320642 0.000262612086965)
(-0.000208259669784 0.000511379801541 0.000111722328085)
(-0.0001452542063 0.000464590036676 0.000138129766997)
(-0.000145982955184 0.000551180366124 0.000251168436047)
(-0.000327760178077 0.00047729918143 8.96943962442e-05)
(-0.000289665276761 0.000441787966223 0.000118245037429)
(-0.000289584578578 0.000521041709314 0.000216585939812)
(-0.000408175894124 0.000433499775975 5.88677384126e-05)
(-0.000395056887924 0.000407101925687 8.98401810178e-05)
(-0.000395785762751 0.000476707135216 0.00016739584902)
(-0.000430748468038 0.000383124154465 2.11448129458e-05)
(-0.00045140114103 0.000367372813913 4.98656419005e-05)
(-0.000453943324582 0.00042530639362 9.98867314385e-05)
(-0.000392574719396 0.000332101265593 -1.86370372721e-05)
(-0.000442259910946 0.000320325372008 9.66954825518e-06)
(-0.000447941116041 0.000368590469257 2.61314807833e-05)
(-0.000296342198829 0.000287320529821 -5.3033532471e-05)
(-0.000369925113231 0.00027818448472 -3.41189761351e-05)
(-0.000379365296922 0.000316518078129 -4.24345241965e-05)
(-0.000162383095388 0.000250290356259 -6.86040184719e-05)
(-0.000250360282804 0.000239410337143 -6.36386565074e-05)
(-0.000261998908427 0.000271680003092 -9.03673804778e-05)
(-3.23373226569e-05 0.000228331341583 -4.08462399569e-05)
(-9.94172560536e-05 0.000213908819213 -6.7876240388e-05)
(-0.00011502868736 0.000238664542249 -9.37212618469e-05)
(2.46567473215e-05 0.00020530332387 -1.02584764857e-05)
(1.07102826511e-05 0.000225357127211 -1.87767360744e-06)
(4.84507025065e-05 0.000134121783626 -4.59698846069e-05)
(-1.24835028288e-05 0.000109503578968 -1.60817542928e-05)
(-8.53232025195e-07 0.000131166084626 -1.4399463712e-05)
(0.00019553126135 0.000150188988312 -7.54668853413e-05)
(0.000116292165166 0.000117131771144 -7.46253642739e-05)
(0.000135006005274 0.000141779401752 -0.000104833287354)
(0.000351351127083 0.000178481277224 -6.19369113666e-05)
(0.0002892146337 0.000135004620749 -7.40988391449e-05)
(0.000302844891643 0.000164708943605 -0.000104870924266)
(0.000475869735198 0.000213117424031 -2.80326844866e-05)
(0.000433477969267 0.000159359091354 -4.60937491464e-05)
(0.000446136281705 0.000200148852511 -5.87945567369e-05)
(0.000547272462707 0.000251852880076 1.3630660598e-05)
(0.000532198175185 0.000187963976317 -3.80485106543e-06)
(0.00054480619857 0.000238835802946 9.86637279433e-06)
(0.000559525726095 0.000293477719491 5.71173936196e-05)
(0.000580388176248 0.000220561668872 4.02556747825e-05)
(0.000591228415888 0.000283700963312 8.76882666385e-05)
(0.000512820962984 0.00033173044228 9.50636613267e-05)
(0.00056208875624 0.000251469245078 8.58639468272e-05)
(0.000572760709235 0.000327622019345 0.000164717660401)
(0.000417805502017 0.000364480251659 0.00012890973001)
(0.00048613946777 0.000278436870255 0.000117985241359)
(0.000497392845986 0.000365834653585 0.000227669768884)
(0.000274625988407 0.000387283979748 0.000155164097709)
(0.000358348615982 0.000302334981639 0.000156317222686)
(0.000368941638993 0.000399598468793 0.000288159804648)
(0.000109190991785 0.000398531867161 0.000166259544223)
(0.0001987534957 0.000315085772502 0.000172728157719)
(0.000203354763841 0.000417785011284 0.000319328522061)
(-6.68069499161e-05 0.000397730251002 0.000162086512585)
(2.14870363138e-05 0.000320429947652 0.000177085204655)
(2.0440188106e-05 0.000424298730274 0.000330917185466)
(-0.000231272979443 0.000384377431085 0.000144652476341)
(-0.000158604964401 0.000315101193525 0.000165394376384)
(-0.000164701158201 0.000416033697348 0.000313836596894)
(-0.000364121706256 0.00035979158169 0.000118390822202)
(-0.000314251493278 0.000301063165016 0.000143169993409)
(-0.000324085371971 0.000394239850409 0.000273480067143)