/*--------------------------------*- C++ -*----------------------------------*\
| =========                 |                                                 |
| \\      /  F ield         | OpenFOAM: The Open Source CFD Toolbox           |
|  \\    /   O peration     | Version:  3.0.1                                 |
|   \\  /    A nd           | Web:      www.OpenFOAM.org                      |
|    \\/     M anipulation  |                                                 |
\*---------------------------------------------------------------------------*/
FoamFile
{
    version     2.0;
    format      ascii;
    class       volScalarField;
    location    "3.7";
    object      ddt0(epsilon);
}
// * * * * * * * * * * * * * * * * * * * * * * * * * * * * * * * * * * * * * //

dimensions      [0 2 -4 0 0 0 0];

internalField   nonuniform List<scalar> 
7968
(
-0.00034742503742
-0.000387028414192
-0.000416713845543
-0.00043321497503
-0.000441122080859
-0.000444211758365
-0.00044484896644
-0.000444288061452
-0.000443240192863
-0.000442603500474
-0.000442155819896
-0.000442428322487
-0.000443064630977
-0.000443312328432
-0.000442638495927
-0.000439674271976
-0.00043203750574
-0.000415887280527
-0.000386551117292
-0.000347293589143
-0.000387039595121
-0.000587859963412
-0.000733440539095
-0.000821647873416
-0.000871014509652
-0.000895629516283
-0.000905468609113
-0.000907581289071
-0.000906551656857
-0.000905050933112
-0.000904443523328
-0.000904971655743
-0.000905259795861
-0.000902538939774
-0.000892277947854
-0.000867587639504
-0.000818524490691
-0.000730908840097
-0.000586152517668
-0.000386540097437
-0.000416737844458
-0.000733383083893
-0.000971996396683
-0.00112327786608
-0.00121293453992
-0.00126130647125
-0.00128362253174
-0.00129129525047
-0.00129241247982
-0.00129180238764
-0.00129180942439
-0.00129233286698
-0.00129090483506
-0.0012825801791
-0.00125946814088
-0.00121042166985
-0.00112039055505
-0.000969102766137
-0.000731027610679
-0.000415874693695
-0.000433297062816
-0.00082176270087
-0.00112340726709
-0.00132029353005
-0.00144079451658
-0.00150850209525
-0.00154204222856
-0.00155658771211
-0.00156333306129
-0.00156580600072
-0.00156698828774
-0.00156658441505
-0.00155979719113
-0.00154555645581
-0.0015106787508
-0.00144118795248
-0.00131895996189
-0.0011207893909
-0.000818915281254
-0.000432070204839
-0.000441331608964
-0.000871465582329
-0.00121322427152
-0.00144073002748
-0.00158270552298
-0.00166446114329
-0.00171013273659
-0.00173312044207
-0.00174290949784
-0.00174688433597
-0.00174898192741
-0.00174886506935
-0.00174208882765
-0.00172053604838
-0.0016730125181
-0.00158767733107
-0.00144200691201
-0.00121143563227
-0.000868334577535
-0.000439775659271
-0.000444614067032
-0.000896506282386
-0.00126166975823
-0.00150796872917
-0.00166349923687
-0.00175895056088
-0.00181337675029
-0.0018401597105
-0.00185157314447
-0.00185644764211
-0.0018593764064
-0.00185994538658
-0.001853008716
-0.00182896183856
-0.00177447060835
-0.00167456470495
-0.00151272879329
-0.00126123459186
-0.00089337666149
-0.000442806397958
-0.000445457621371
-0.000906724189721
-0.00128383845344
-0.00154039334994
-0.00170625171009
-0.00181067503908
-0.00186895164337
-0.00189723846461
-0.00190912966023
-0.0019143382228
-0.00191796430359
-0.00191958314705
-0.00191340068033
-0.00188873724414
-0.00183117921544
-0.00172371933718
-0.00154916391713
-0.00128517004172
-0.000903927346523
-0.000443521309481
-0.00044503527671
-0.000909087255854
-0.00129100613569
-0.00155232733154
-0.00172640137978
-0.00183414961936
-0.00189367934811
-0.00192210729657
-0.0019337305477
-0.00193885189286
-0.001943011826
-0.00194579426902
-0.00194092530839
-0.00191688720573
-0.00185838432906
-0.00174775079754
-0.00156516368274
-0.00129437109887
-0.000906889520346
-0.000443280517779
-0.000443791481722
-0.000908101104013
-0.00129133966137
-0.00155594125101
-0.00173330062519
-0.00184205811819
-0.0019016726762
-0.00192971656178
-0.00194087806031
-0.00194579356724
-0.00195035090992
-0.00195413665547
-0.00195053469189
-0.00192751172392
-0.00186915725313
-0.00175751277328
-0.00157276682351
-0.00129667990281
-0.000906714671573
-0.000442824411187
-0.000443160533478
-0.00090650185164
-0.00128968124151
-0.00155653778222
-0.00173456228808
-0.0018434938053
-0.00190302424763
-0.00193086449056
-0.00194187641051
-0.00194678398886
-0.00195168325917
-0.00195610904798
-0.00195325233962
-0.00193084777092
-0.00187272162546
-0.00176074611304
-0.00157575874866
-0.00129683914812
-0.000906062478017
-0.000442521676627
-0.000442709221677
-0.000905550083804
-0.00128854986938
-0.00155601600702
-0.00173413482924
-0.00184320632256
-0.00190300362971
-0.00193121990235
-0.00194266833508
-0.00194803135562
-0.00195325319754
-0.00195779734588
-0.00195487640605
-0.00193226056851
-0.001873841412
-0.00176157244966
-0.00157630525527
-0.00129724457721
-0.000906204388088
-0.000442469775973
-0.000442897904848
-0.000905557224681
-0.00128811397542
-0.00155438091373
-0.00173206934772
-0.00184121051969
-0.00190158767859
-0.00193072476582
-0.00194314598182
-0.00194928979449
-0.00195472249082
-0.00195884869915
-0.00195506122296
-0.00193141908588
-0.00187222624742
-0.00175969653521
-0.00157333099887
-0.00129764627536
-0.00090706056705
-0.000442753776225
-0.00044392718694
-0.000905472404196
-0.00128612858257
-0.0015485727421
-0.00172443039047
-0.00183282338031
-0.00189347720106
-0.00192356162116
-0.00193708237629
-0.00194398081162
-0.00194940119835
-0.00195268269336
-0.00194749640344
-0.00192248445553
-0.00186267780995
-0.00175072808398
-0.00156742003416
-0.00129538422765
-0.000907158302599
-0.000443145933067
-0.000444117331631
-0.000902569225558
-0.00127786693312
-0.00153409488852
-0.00170337642538
-0.00180896089274
-0.00186853187695
-0.00189876965128
-0.0019129088825
-0.00192019854273
-0.00192530043339
-0.00192749249286
-0.00192088783437
-0.00189500387077
-0.00183579797832
-0.00172620687113
-0.00155095820238
-0.00128566329395
-0.000903849149271
-0.000443291834495
-0.00044334501261
-0.000892399377392
-0.00125555495044
-0.00150092204846
-0.00165775382746
-0.00175657692324
-0.00181269562624
-0.00184142998983
-0.00185512879247
-0.00186213969781
-0.00186658305907
-0.00186773993137
-0.00186033849176
-0.00183491874784
-0.00177876062043
-0.00167760873863
-0.00151359992977
-0.00126095716303
-0.000892849639276
-0.000442503039418
-0.000440274598242
-0.00086795663505
-0.0012078310149
-0.00143409751322
-0.0015761230274
-0.00166000571568
-0.00170880316497
-0.00173388554084
-0.00174582458138
-0.00175174765808
-0.00175526341748
-0.0017556193789
-0.00174842396797
-0.00172501345436
-0.00167759195766
-0.00158960232595
-0.00144199020868
-0.0012105683664
-0.00086750021246
-0.0004394314194
-0.000432527756373
-0.000819194123754
-0.00111934108984
-0.00131502980802
-0.00143503927034
-0.00150349254329
-0.0015390379956
-0.00155576535012
-0.00156532202807
-0.00156949210877
-0.00157184918845
-0.00157065779718
-0.00156650121498
-0.00155090707186
-0.0015138315823
-0.0014421400516
-0.00131843613713
-0.00111971511648
-0.000818003768739
-0.000431723615865
-0.000416253757303
-0.000731759980526
-0.000969357372252
-0.00111971199184
-0.00120880313754
-0.00125734338186
-0.00128068696847
-0.00129011365098
-0.00129317403815
-0.00129434402791
-0.00129574850616
-0.00129698201455
-0.00129535459682
-0.00128596382635
-0.00126127945803
-0.00121075061685
-0.00111975757757
-0.000968144182116
-0.000730214175241
-0.000415566500723
-0.000386781800949
-0.000586964499451
-0.000731953886942
-0.000819600136736
-0.000868579127999
-0.000893181156879
-0.000903463981282
-0.000906401844542
-0.000906374471558
-0.000905909606121
-0.000906180603165
-0.000907198384936
-0.000907401865412
-0.000904122371457
-0.000893042180743
-0.000867580804309
-0.000818006262217
-0.000730201979528
-0.000585514378455
-0.000386308541639
-0.000347352738566
-0.000386775262107
-0.000416257842565
-0.000432559027474
-0.000440312954568
-0.000443337132109
-0.000444010794781
-0.000443704326665
-0.000442952651966
-0.00044257243612
-0.000442351357112
-0.000442769324991
-0.000443175876148
-0.000443324403518
-0.000442520451403
-0.000439440931512
-0.000431733694155
-0.000415581015303
-0.00038631706757
-0.000347219822989
-0.000386076481674
-0.000583233564953
-0.000727246453081
-0.000815201628069
-0.000865279119744
-0.000891245517439
-0.000902724976251
-0.000906587251309
-0.000907094587627
-0.000905924825434
-0.00090535128871
-0.000905754321729
-0.000905096037601
-0.000901269825537
-0.000889710000463
-0.000863780627471
-0.000813861942219
-0.000726164130601
-0.000582517794928
-0.000385780303381
-0.000583447255696
-0.000688371347625
-0.000816661031326
-0.000901724092736
-0.000952162945453
-0.000979203719586
-0.000991830172686
-0.000996554308321
-0.000997700582919
-0.000997685618255
-0.000997745230356
-0.000997892974184
-0.00099690461387
-0.00099222303131
-0.000979533238615
-0.000952348881934
-0.000901684248973
-0.000816305462942
-0.000687648759807
-0.000582366520065
-0.000727436514804
-0.000816773525747
-0.000961378971686
-0.00106296981889
-0.00112622822677
-0.00116200794697
-0.00118004955388
-0.00118787807006
-0.00119072797111
-0.00119172424002
-0.00119231887511
-0.0011924043518
-0.00119037068759
-0.00118294580168
-0.00116487757712
-0.00112866624983
-0.00106462049882
-0.000961973295068
-0.000816222622945
-0.00072597020731
-0.00081531080968
-0.000901810736497
-0.00106281831531
-0.00117972961875
-0.00125491603756
-0.00129902258013
-0.0013224678664
-0.00133382170367
-0.00133898666158
-0.00134136206273
-0.00134264750066
-0.00134263728525
-0.00133917947387
-0.0013288120608
-0.00130531483403
-0.00126031726447
-0.00118359167025
-0.00106470512137
-0.000901653676411
-0.000813762057771
-0.00086532114685
-0.000952096684532
-0.00112560582415
-0.00125421267798
-0.00133861577103
-0.00138944710673
-0.00141798749264
-0.00143262311226
-0.00143957263466
-0.00144297492669
-0.001444899922
-0.00144512419879
-0.00144116706561
-0.00142836173403
-0.00139992492974
-0.00134761090859
-0.00126067676194
-0.00112902237763
-0.000952486242995
-0.000863875543028
-0.000891262504991
-0.000978905639732
-0.00116065090915
-0.00129707758099
-0.00138785298335
-0.0014441417715
-0.001476367288
-0.00149311591126
-0.00150116453307
-0.00150522330859
-0.00150767811939
-0.00150831009747
-0.00150429198276
-0.00149028482913
-0.00145876317858
-0.0014007233821
-0.00130633674685
-0.00116568503711
-0.000979921403675
-0.000890057111659
-0.000902747650985
-0.000991259449393
-0.00117777342587
-0.0013188205408
-0.00141402431339
-0.00147377494945
-0.00150807383785
-0.00152585912445
-0.00153434859725
-0.00153866802637
-0.00154149746708
-0.00154265162205
-0.00153901201426
-0.00152471600319
-0.00149168500285
-0.00143035326475
-0.00133079846776
-0.00118437487983
-0.000992927738246
-0.000901900267955
-0.00090666397668
-0.000995684793595
-0.0011845542432
-0.0013281385702
-0.00142602398947
-0.00148749671339
-0.00152265823438
-0.0015407064945
-0.001549124786
-0.00155337811673
-0.00155642477465
-0.001558140417
-0.00155516385364
-0.00154120744466
-0.00150774174287
-0.0014448706752
-0.0013423442908
-0.00119257027594
-0.000997977369403
-0.000906009586641
-0.00090746385624
-0.000996522000496
-0.00118635833751
-0.00133129921537
-0.00143041593541
-0.00149252803457
-0.00152787925694
-0.00154578324266
-0.00155389896737
-0.00155794479904
-0.00156111375558
-0.00156333527028
-0.00156106760165
-0.00154769064033
-0.00151435695779
-0.0014509852019
-0.0013473367405
-0.0011955272986
-0.000999338096554
-0.000906561471293
-0.00090650240897
-0.00099614244718
-0.0011863407839
-0.00133202486497
-0.00143156524981
-0.00149385667107
-0.00152920028576
-0.00154696222855
-0.00155489035653
-0.00155883766888
-0.00156212470911
-0.00156468657339
-0.00156287271861
-0.00154988814372
-0.00151672047322
-0.0014531985071
-0.00134911574045
-0.00119640913491
-0.000999544735937
-0.000906145894918
-0.000905712420721
-0.000995774057866
-0.00118610896837
-0.00133201066564
-0.00143166438454
-0.00149404469651
-0.00152949342711
-0.00154738632994
-0.00155546606219
-0.00155958061368
-0.00156301243262
-0.00156564967068
-0.00156382949629
-0.00155076519183
-0.0015174657013
-0.0014537888982
-0.00134955022562
-0.00119672793164
-0.000999733062399
-0.000906226535944
-0.000905694770231
-0.000995548054142
-0.00118567379611
-0.00133121812778
-0.00143069169012
-0.00149307520617
-0.00152874510207
-0.00154704271934
-0.00155560561972
-0.00156011322074
-0.00156366230476
-0.00156607701458
-0.00156377630157
-0.00155015981506
-0.00151643833517
-0.00145260613864
-0.00134844700434
-0.00119636195522
-0.000999830643918
-0.000906796100707
-0.000904252466185
-0.000994307577557
-0.00118346970532
-0.00132775124425
-0.00142637325832
-0.00148833212561
-0.00152401603605
-0.00154269839796
-0.0015518173276
-0.00155675129548
-0.00156032251483
-0.00156227876531
-0.0015592065933
-0.00154483817613
-0.00151074715711
-0.00144716174877
-0.00134401647009
-0.00119363417466
-0.000998568753501
-0.000906255505236
-0.00090037743525
-0.000989677366884
-0.00117634823439
-0.00131789946624
-0.00141417587424
-0.00147469302295
-0.00150969374032
-0.00152829673854
-0.00153767427449
-0.0015428213626
-0.00154624837231
-0.0015476363068
-0.0015438027455
-0.00152892969711
-0.00149507185279
-0.00143279948679
-0.00133247683116
-0.0011853463028
-0.000993398405088
-0.000901977298916
-0.000889029489658
-0.000977338265852
-0.0011591005393
-0.00129574118154
-0.00138733293776
-0.00144473191851
-0.00147786225215
-0.0014955367674
-0.00150456791271
-0.00150952217023
-0.00151260217766
-0.00151344111442
-0.00150915651125
-0.00149445847997
-0.00146202647956
-0.00140307002728
-0.00130770512222
-0.00116637280773
-0.000980171550692
-0.000889879237552
-0.000863493920885
-0.000950752063781
-0.00112415503877
-0.00125269463049
-0.00133747072331
-0.00138920032506
-0.00141886348528
-0.00143453421559
-0.00144249568171
-0.00144678863223
-0.00144932809988
-0.00144972839849
-0.00144549810671
-0.00143195953098
-0.00140284281093
-0.00134944319616
-0.00126162558457
-0.00112942473659
-0.000952574994505
-0.000863544285611
-0.00081402562144
-0.000900808176202
-0.00106163669379
-0.00117832444506
-0.00125350511254
-0.00129806581693
-0.00132240583002
-0.00133476472147
-0.00134102163056
-0.00134425507702
-0.0013461220806
-0.00134619832453
-0.00134279531483
-0.00133190973563
-0.00130750909907
-0.00126158388196
-0.00118418252328
-0.00106494309103
-0.000901718957345
-0.000813450346116
-0.000726649898123
-0.000816094696472
-0.000960495090297
-0.00106181437101
-0.00112490655884
-0.00116081582493
-0.00117935984135
-0.00118799819964
-0.00119174308206
-0.00119356903338
-0.00119479923421
-0.00119517828389
-0.00119301439632
-0.00118509519892
-0.00116630766343
-0.00112942458303
-0.00106495446755
-0.000962152895615
-0.000816349358714
-0.000725790319821
-0.000583035148386
-0.000687917599729
-0.000815991619254
-0.000900787820463
-0.000951015721313
-0.000978044835064
-0.000990940270021
-0.000996173722775
-0.000997919450974
-0.000998567424656
-0.000999168472251
-0.000999592027983
-0.000998550192522
-0.000993500485698
-0.000980303437106
-0.00095268849024
-0.000901808824975
-0.000816417327296
-0.000687782122491
-0.000582290028822
-0.00038593557886
-0.000582810939025
-0.000726448418112
-0.000814001923225
-0.000863750742482
-0.000889614010457
-0.000901308209311
-0.000905469282043
-0.000906568110336
-0.000906262223178
-0.000906412491705
-0.000906955445562
-0.000906437668586
-0.000902183682637
-0.00089005940699
-0.000863680656404
-0.000813568421311
-0.000725918062586
-0.000582393971976
-0.000385678161396
-0.000414618388549
-0.000723235352094
-0.000957699988793
-0.00110818730862
-0.0011995118549
-0.00125108215028
-0.00127714285777
-0.00128827335336
-0.00129188200455
-0.00129256830205
-0.00129310464468
-0.00129353371122
-0.00129111871184
-0.00128085918063
-0.00125513474533
-0.00120328535228
-0.00111099049582
-0.000959004818289
-0.000723155751078
-0.000414218109884
-0.000723621647645
-0.000813057982186
-0.00095759268769
-0.0010595875974
-0.00112369401722
-0.00116056487341
-0.00117968162184
-0.00118840461581
-0.00119187685537
-0.00119332271862
-0.00119427929564
-0.00119464620703
-0.00119274205674
-0.00118516444507
-0.00116655034852
-0.00112939686048
-0.00106413836097
-0.000960277542408
-0.000813661819802
-0.000722897472164
-0.000957778135197
-0.000957587286479
-0.00108756701522
-0.0011871508605
-0.00125268511053
-0.00129199069128
-0.00131358700503
-0.00132461146278
-0.0013300603094
-0.00133333969947
-0.00133546611703
-0.00133655683414
-0.00133461504088
-0.00132602153415
-0.00130531164922
-0.00126521033188
-0.00119721969625
-0.00109397826644
-0.000960134159002
-0.000958619423775
-0.00110733467651
-0.00105888635458
-0.00118610225391
-0.001288352046
-0.00135766190619
-0.00140051743462
-0.00142520882093
-0.00143892393996
-0.00144681885102
-0.00145204474352
-0.00145599616474
-0.00145826167103
-0.00145660181641
-0.00144696055823
-0.00142359206759
-0.00137912811748
-0.00130559065562
-0.00119734907725
-0.00106404779584
-0.00111071092696
-0.00119723961039
-0.00112163350292
-0.00124944977442
-0.0013549027343
-0.00142758805495
-0.00147354946547
-0.0015005650583
-0.00151690046093
-0.00152748170966
-0.00153474312764
-0.00154040660323
-0.00154398206495
-0.00154343048897
-0.00153351061797
-0.00150743724782
-0.00145891968606
-0.00137991155515
-0.00126587517114
-0.0011295863394
-0.00120339731524
-0.00124711913632
-0.00115673212717
-0.00128573509795
-0.00139356288492
-0.00146869868637
-0.00151541278993
-0.00154317451069
-0.00156270441665
-0.00157647402258
-0.00158552550956
-0.00159262473849
-0.00159733765064
-0.00159869668468
-0.0015904104937
-0.00156242966462
-0.00150952919459
-0.00142602866026
-0.00130700590532
-0.00116725766839
-0.00125593059248
-0.00127144512082
-0.00117395019319
-0.00130389071252
-0.00141318779962
-0.00148943007194
-0.0015347247362
-0.0015641758352
-0.0015877601906
-0.00160442481381
-0.0016146443565
-0.00162256324847
-0.00162794562465
-0.00163103636483
-0.00162513564737
-0.00159680532223
-0.00153921001011
-0.00145202898902
-0.00132928576124
-0.0011866415074
-0.00128262081524
-0.00128095814889
-0.00118084625082
-0.00131142181345
-0.00142154651317
-0.00149809396751
-0.00154303871724
-0.00157506107013
-0.00160148009581
-0.00161980656659
-0.00163036443546
-0.00163842874637
-0.00164407569382
-0.00164819342166
-0.00164369988852
-0.00161582755692
-0.00155527502773
-0.00146523030121
-0.00133996980913
-0.00119523410142
-0.00129409438406
-0.00128314065305
-0.00118263823364
-0.00131350755889
-0.00142428006487
-0.00150127027836
-0.00154704089713
-0.00158061206484
-0.00160834432299
-0.00162707113194
-0.00163734110468
-0.00164520159638
-0.00165101982611
-0.00165577740142
-0.0016519861585
-0.00162423761279
-0.00156267312458
-0.0014710936821
-0.00134437401402
-0.00119833490774
-0.00129781789375
-0.00128264821568
-0.00118259660469
-0.00131384886335
-0.00142490727102
-0.00150238899497
-0.00154871041379
-0.00158292452629
-0.00161105993987
-0.00162970659599
-0.00163966395972
-0.00164738186957
-0.0016533731907
-0.00165855328734
-0.00165514674074
-0.00162745434001
-0.00156554892536
-0.00147341847017
-0.00134599094304
-0.00119926446326
-0.0012985907322
-0.00128203529134
-0.00118237969329
-0.0013138987111
-0.00142524876219
-0.00150299517846
-0.00154954859065
-0.00158404005351
-0.00161242043971
-0.00163118986007
-0.00164119068586
-0.00164894742192
-0.00165495478089
-0.00166013476377
-0.00165664225472
-0.00162870158976
-0.00156644664493
-0.00147404142363
-0.00134642192097
-0.00119955535325
-0.00129891077317
-0.00128157699318
-0.0011820380699
-0.00131365587472
-0.00142529988394
-0.00150313953751
-0.00154966803391
-0.00158414926792
-0.0016126930022
-0.00163183371081
-0.00164221864889
-0.00165012476538
-0.00165589775875
-0.00166056008625
-0.0016564268521
-0.00162787299952
-0.00156522171981
-0.00147279354991
-0.00134550874725
-0.00119906853226
-0.00129863034313
-0.00127885792304
-0.0011799847825
-0.00131159268078
-0.00142316671539
-0.00150140272017
-0.00154816106457
-0.00158225017525
-0.00161039056436
-0.00162957583761
-0.00164029820106
-0.00164823896255
-0.00165349438451
-0.00165704352724
-0.00165148308609
-0.00162176729793
-0.00155909332113
-0.00146754564697
-0.00134140394907
-0.0011960511683
-0.00129494244212
-0.00126918380621
-0.00117299595795
-0.00130407021024
-0.00141504882088
-0.00149364555687
-0.00154188771118
-0.00157476826873
-0.00160111838124
-0.00161922226594
-0.00162976155239
-0.00163736024425
-0.00164184548689
-0.00164358242486
-0.00163552167389
-0.00160403591769
-0.00154346492032
-0.00145448376791
-0.00133053335072
-0.00118716131293
-0.00128302258711
-0.00124501741486
-0.00115582660903
-0.00128579963049
-0.00139517592529
-0.00147248141442
-0.00152219611654
-0.00155367809893
-0.00157649524712
-0.00159212324603
-0.0016017772724
-0.0016085864604
-0.00161217477345
-0.00161165796192
-0.00160045815347
-0.001568983109
-0.00151335961376
-0.00142800413149
-0.00130773454623
-0.00116730180384
-0.00125571084844
-0.00119561374965
-0.00112090517448
-0.00124934849225
-0.00135579745577
-0.00143010770875
-0.00147820996892
-0.00150774177276
-0.00152655375175
-0.00153896809814
-0.00154713008978
-0.00155280940826
-0.0015555182639
-0.00155328037718
-0.00154096589928
-0.00151246044732
-0.00146179736049
-0.00138110299383
-0.00126602836551
-0.00112926327529
-0.00120277308834
-0.00110629538664
-0.00105837649933
-0.00118581509326
-0.00128842850833
-0.0013584627351
-0.00140258020906
-0.00142894224022
-0.00144435554881
-0.00145374915652
-0.00145997456831
-0.00146425160234
-0.00146608791214
-0.00146338260098
-0.00145217387099
-0.00142697695072
-0.00138080898919
-0.00130601552635
-0.00119712852555
-0.00106366382014
-0.00111011424914
-0.000957162521427
-0.000957239481576
-0.00108713257438
-0.00118656588879
-0.00125207776796
-0.00129171859731
-0.0013141189862
-0.00132622569399
-0.00133291109017
-0.00133707989692
-0.00133994402265
-0.00134111736787
-0.00133867987053
-0.00132907143858
-0.00130710239044
-0.00126585269629
-0.00119713057518
-0.00109368542395
-0.000959985785637
-0.000958401157602
-0.000723206953239
-0.000812783964829
-0.000957140932882
-0.00105873990347
-0.00112241960545
-0.00115910697117
-0.00117848056835
-0.0011878769502
-0.00119230364264
-0.00119473114202
-0.00119644605882
-0.00119715114625
-0.00119505770017
-0.00118681446156
-0.00116732739746
-0.00112944337746
-0.0010638621068
-0.000960127505489
-0.000813833249689
-0.000723036266495
-0.00041443621348
-0.000722822033774
-0.000956905906348
-0.00110673306497
-0.0011973547941
-0.00124859306214
-0.00127498283927
-0.00128706318152
-0.00129202020776
-0.00129421840533
-0.00129592668081
-0.00129684030585
-0.00129410215006
-0.00128283462505
-0.00125586003203
-0.00120303564105
-0.00111038772989
-0.00095866269788
-0.00072322370103
-0.000414149993744
-0.000429746736223
-0.000805059883691
-0.0010998475546
-0.00129591640187
-0.00141977282271
-0.00149324937748
-0.00153309716437
-0.00155234894174
-0.00156066510331
-0.00156461172102
-0.00156770731134
-0.00156962164314
-0.00156649243497
-0.00155126451063
-0.00151359360797
-0.00143979751467
-0.00131258590685
-0.00111039365495
-0.000808638890788
-0.000429504957602
-0.000805604007154
-0.00089144286591
-0.00105075416362
-0.00116655536895
-0.00124191387362
-0.00128756000104
-0.00131335259053
-0.0013270666129
-0.00133440059688
-0.00133916326687
-0.00134305131394
-0.00134569375998
-0.00134479544126
-0.00133601071653
-0.00131279586528
-0.00126655772617
-0.0011871234681
-0.00106458124851
-0.000898028889546
-0.000808334953375
-0.00109916430922
-0.001049956447
-0.0011722178441
-0.0012684213603
-0.00133296629644
-0.00137350177918
-0.00139821751322
-0.00141364850452
-0.00142444299396
-0.00143350149615
-0.001442187103
-0.0014490074952
-0.00145177249974
-0.0014460779165
-0.00142567481224
-0.0013829145633
-0.00130957131408
-0.0012000493311
-0.00106451507645
-0.00110987859065
-0.00129202165672
-0.00116272702255
-0.00126427335752
-0.00134860503741
-0.00140617854859
-0.00144214739546
-0.00146428171712
-0.0014824533927
-0.00149868142149
-0.00151360359059
-0.00152817048329
-0.00154098633832
-0.001550098439
-0.00154994102625
-0.00153108720607
-0.00148857347756
-0.0014163062492
-0.00131036062582
-0.00118743761566
-0.00131237227703
-0.00141106997052
-0.00123302803685
-0.00132143330162
-0.00139737691988
-0.0014464000042
-0.00147364781242
-0.00149486988727
-0.00152023898286
-0.00154522211764
-0.00156644384483
-0.00158670645141
-0.00160450785355
-0.00162063095716
-0.00162780584026
-0.00161191505589
-0.00156705654219
-0.00149206391335
-0.00138602758671
-0.00126794809444
-0.00144072568749
-0.0014788585419
-0.00127251394711
-0.00135256054805
-0.00142112480683
-0.00145784378202
-0.00147956311799
-0.001506108302
-0.00154386970443
-0.00157965177887
-0.00160659818179
-0.00163069401159
-0.00165086845778
-0.00167181209994
-0.00168566120669
-0.00167250849098
-0.00162411575675
-0.0015418200807
-0.00143311775466
-0.00131610942675
-0.00151660387196
-0.00151285051048
-0.00129196383151
-0.00136707077316
-0.00142762663951
-0.0014561956152
-0.00147900289165
-0.00151616291335
-0.00156893802787
-0.00161504056162
-0.00164583168635
-0.00167093378907
-0.00169038870868
-0.00171254830444
-0.00172979353912
-0.00171701000706
-0.00166434722733
-0.00157406035464
-0.00145993983571
-0.00134212899573
-0.00155722700541
-0.0015265437435
-0.00129965840408
-0.00137212766192
-0.0014275954495
-0.00145505553209
-0.00148305014094
-0.00153222018701
-0.00159714592477
-0.00165016683976
-0.00168200550412
-0.0017056897096
-0.00172276025341
-0.00174372669081
-0.00176101881441
-0.00174712848847
-0.00168962956747
-0.00159367884144
-0.0014738316118
-0.00135449121957
-0.00157608286782
-0.00152979497701
-0.00130147011715
-0.00137298610953
-0.00142737115228
-0.00145682710973
-0.00149045611184
-0.00154771724023
-0.00161939655656
-0.00167477779797
-0.00170532928625
-0.00172676328955
-0.00174196207081
-0.00176197862543
-0.00177864839526
-0.00176324990335
-0.00170281093723
-0.00160341786654
-0.00148034298206
-0.00135949627451
-0.00158315814409
-0.00152938053088
-0.00130142180106
-0.00137279130633
-0.00142801186859
-0.00145927578588
-0.00149613221854
-0.00155712821833
-0.00163116098131
-0.00168640504658
-0.00171533701262
-0.00173522352563
-0.00174965893749
-0.00176969295242
-0.00178643921192
-0.00177044132418
-0.00170861545759
-0.00160756542899
-0.00148312553713
-0.00136123061532
-0.00158516816384
-0.00152867997791
-0.00130135616144
-0.00137370855022
-0.00142998659127
-0.0014623653342
-0.0015003818208
-0.00156228467878
-0.00163668404678
-0.00169167077542
-0.00172003398853
-0.00173944618267
-0.00175358286888
-0.00177359352135
-0.0017902933585
-0.00177379073058
-0.00171099752687
-0.00160893934195
-0.00148382759164
-0.00136161919687
-0.00158567455302
-0.00152788440928
-0.00130142553899
-0.00137587457827
-0.00143372749833
-0.0014668309478
-0.00150432029138
-0.00156481604193
-0.0016381305665
-0.00169311290714
-0.00172203770762
-0.00174182973722
-0.00175571045626
-0.00177513071338
-0.00179111903798
-0.00177373410441
-0.00171004614964
-0.00160741728671
-0.00148223609931
-0.00136041082179
-0.00158429223511
-0.00152382606076
-0.0012999134092
-0.00137723348397
-0.00143944274902
-0.00147471839092
-0.00151111263203
-0.0015677955105
-0.00163745068031
-0.00169115393456
-0.00172069434526
-0.00174109532876
-0.00175460201646
-0.00177261916463
-0.00178647086106
-0.00176692715776
-0.0017022134057
-0.00159992348238
-0.00147636152666
-0.00135532609961
-0.00157696964133
-0.0015099359282
-0.00129281804492
-0.00137418624771
-0.00144460490134
-0.00148533574114
-0.001521762525
-0.00157170924848
-0.00163354008473
-0.00168271963091
-0.00171143213742
-0.00173168223306
-0.00174450154595
-0.00175969633193
-0.00176874527464
-0.00174497407462
-0.00168063118139
-0.00158122364055
-0.00146222190379
-0.00134219891992
-0.00155699653734
-0.00147632848602
-0.00127400732409
-0.00136092387979
-0.00143965637448
-0.0014900293013
-0.00152780191963
-0.00156985065977
-0.00161942107252
-0.00166030707354
-0.00168608171855
-0.00170475239137
-0.001716326908
-0.00172710932072
-0.00172880090776
-0.00170138298608
-0.00163968077353
-0.00154794492284
-0.00143434263044
-0.0013150225349
-0.00151491523317
-0.00140937787232
-0.00123475211471
-0.00132930055827
-0.0014137647689
-0.00147393848956
-0.00151497514707
-0.00155015117388
-0.00158638232044
-0.0016167845683
-0.00163779714181
-0.00165338501067
-0.00166297438548
-0.00166865839313
-0.00166346377377
-0.00163432309784
-0.00157824261214
-0.00149589995659
-0.00138574099939
-0.00126583113405
-0.00143797336415
-0.00129123962471
-0.00116409506806
-0.00126981842967
-0.00136001358121
-0.0014244603046
-0.00146825235993
-0.00149901765121
-0.00152493936505
-0.00154550324253
-0.00156093595748
-0.00157255636143
-0.0015796138072
-0.00158087096725
-0.001571747775
-0.00154420693567
-0.00149468064474
-0.00141747339174
-0.0013087402807
-0.00118492006765
-0.00130949007539
-0.00109892164503
-0.00105066636941
-0.00117461821457
-0.00127337590519
-0.00134088702487
-0.00138469994809
-0.00141290616449
-0.00143172033684
-0.00144516456537
-0.00145533510646
-0.00146295922834
-0.00146741038063
-0.00146655678979
-0.00145638084414
-0.00143140077987
-0.00138463366959
-0.0013085277864
-0.00119783013397
-0.00106244393285
-0.00110791681154
-0.000805395707384
-0.000891722379818
-0.0010510381853
-0.00116665844424
-0.00124182765013
-0.00128761391161
-0.00131416528686
-0.00132927770398
-0.00133833661405
-0.00134453596725
-0.00134919581982
-0.0013517436939
-0.00134982137709
-0.00133917881408
-0.00131375065992
-0.00126558362073
-0.00118509958731
-0.00106265327668
-0.000897025291893
-0.000807839685331
-0.000429600697379
-0.000804902515887
-0.00109897293027
-0.00129342753489
-0.001415532559
-0.00148805287104
-0.00152832249958
-0.00154931869997
-0.00156021189049
-0.00156677062819
-0.00157181078398
-0.00157452012974
-0.00157077155427
-0.00155365933656
-0.00151356570146
-0.00143776677335
-0.00130976903995
-0.00110829448219
-0.0008080857789
-0.000429493111772
-0.000435809036981
-0.000847504241944
-0.00117730743737
-0.00139993151777
-0.001542905165
-0.00162998024736
-0.00167950116029
-0.00170582319488
-0.00172001900079