/*--------------------------------*- C++ -*----------------------------------*\
| =========                 |                                                 |
| \\      /  F ield         | OpenFOAM: The Open Source CFD Toolbox           |
|  \\    /   O peration     | Version:  3.0.1                                 |
|   \\  /    A nd           | Web:      www.OpenFOAM.org                      |
|    \\/     M anipulation  |                                                 |
\*---------------------------------------------------------------------------*/
FoamFile
{
    version     2.0;
    format      ascii;
    class       volScalarField;
    location    "3.7";
    object      epsilon;
}
// * * * * * * * * * * * * * * * * * * * * * * * * * * * * * * * * * * * * * //

dimensions      [0 2 -3 0 0 0 0];

internalField   nonuniform List<scalar> 
7968
(
0.000479116393762
0.000554594329674
0.000615354351674
0.000652774957867
0.000673290988779
0.000682790294117
0.000685687675104
0.000685156859545
0.000683981419665
0.000683074840666
0.0006836354238
0.000684972909854
0.000686577281995
0.000686798505176
0.000683301404592
0.000673163840599
0.00065217667452
0.00061456249699
0.000553949969104
0.000478851575055
0.000554533161618
0.000916819179377
0.00119376323013
0.00137353326661
0.00148262280496
0.00154241920199
0.0015700763663
0.00157907229694
0.00157991108188
0.00157974807493
0.0015821300733
0.00158606450351
0.00158705413098
0.00157778360275
0.00154826377274
0.00148580639116
0.00137419382148
0.00119272920317
0.000915384518564
0.00055388355329
0.000615296333008
0.00119385873136
0.00164651595745
0.00194878370932
0.00213912573159
0.00224918230133
0.00230514576381
0.00232856674242
0.00233622499182
0.00233930700085
0.00234308929456
0.00234646620511
0.00234254484057
0.00231956758496
0.00226104222391
0.0021467291318
0.00195198718289
0.00164640351262
0.00119238114885
0.000614365806329
0.000652893454238
0.00137418736821
0.00194942146228
0.00233983179758
0.00259007142843
0.00273836726094
0.00281767112373
0.00285689504799
0.00287887143224
0.00288842128929
0.00289195206028
0.00288876888046
0.00287500948255
0.00283981044808
0.00275814265684
0.00260416863642
0.00234739994801
0.00195158004823
0.00137347307233
0.000651818958813
0.000673692240725
0.00148396869904
0.00214041360838
0.00259057913769
0.0028819194453
0.00305847731592
0.00317029901498
0.00323029260231
0.00325828404968
0.00327020143194
0.0032743787926
0.00326992109876
0.00324726158641
0.00319016938953
0.00308651654071
0.00290420979189
0.00260417497498
0.00214612149194
0.00148479978246
0.000672635383651
0.000683469604113
0.00154418001992
0.00225057218969
0.00273856708858
0.00305784830428
0.00327288910012
0.00340113196141
0.00346759796674
0.00349763711313
0.00351029867515
0.00351521248771
0.00351135954731
0.00348753909077
0.00342415206474
0.00329684796402
0.00308797463598
0.00275914695121
0.00226078141611
0.00154722544925
0.000682622052886
0.00068654219601
0.0015716885624
0.00230572338489
0.00281628152069
0.00316711667282
0.00339903139658
0.00353348423575
0.00360129339164
0.00363078384091
0.00364305432823
0.00364876928412
0.00364671143831
0.0036244663657
0.00356031902545
0.00342638732382
0.00319318689839
0.00284336841445
0.00232071892402
0.00157729038848
0.000686063640278
0.000686015687063
0.00157984158891
0.00232724152826
0.00285168438417
0.00322435522719
0.0034626628656
0.00359832316036
0.00366469287989
0.00369219268754
0.00370353238191
0.00371014035452
0.00371046625515
0.00369111079728
0.00362881525865
0.00349380148633
0.00325389351458
0.0028829219387
0.00234657116719
0.00158799402642
0.000686005770555
0.000684528335271
0.00157903676946
0.00233200155774
0.00287032921713
0.00324915814092
0.00348922658053
0.00362403156815
0.00368818529015
0.00371358805435
0.00372412569102
0.00373171648861
0.00373425902167
0.00371766036105
0.00365773481537
0.00352354905724
0.0032816046641
0.00289919756722
0.00235487619119
0.00158947946806
0.000685173592668
0.000683112757624
0.00157655121657
0.00233148121704
0.00287683950748
0.00325773195095
0.0034981568511
0.00363219578788
0.00369505962912
0.00371937152842
0.00372966277525
0.00373807186237
0.00374191553888
0.00372679747831
0.00366818487932
0.00353464760906
0.00329222946076
0.00290748870866
0.00235682862193
0.00158861317218
0.000684285133245
0.00068293708096
0.00157650358417
0.00233176802793
0.00287773835431
0.00325901718399
0.00349986635856
0.00363444268489
0.00369798159558
0.00372306937223
0.00373393934295
0.00374243445063
0.00374605595241
0.00373049352973
0.00367128669933
0.00353711707262
0.00329412894838
0.00290895938682
0.00235795740983
0.00158911113005
0.000684082921537
0.000684036246025
0.00157879657425
0.00233267280953
0.00287277898579
0.0032527624489
0.00349404606045
0.0036303583457
0.00369634088056
0.00372371071496
0.0037357442968
0.00374379536224
0.00374585366957
0.00372803110011
0.00366639883805
0.00353036780076
0.00328677165771
0.00290366592872
0.0023575236957
0.00159060194084
0.000684920241738
0.000685359331809
0.00157921624282
0.0023278000849
0.00285465894005
0.00322956273277
0.00346981039924
0.00360776568021
0.00367682120875
0.0037070752901
0.00372053262712
0.00372797013432
0.0037276933069
0.0037064902468
0.00364151604341
0.00350356377782
0.00326104344972
0.00288859187655
0.00234892220802
0.00158859414872
0.000685510561921
0.000685741883449
0.00157046705138
0.00230557323893
0.0028192352351
0.00317292212961
0.00340738288707
0.00354469547179
0.00361575444257
0.00364847826011
0.00366323227387
0.00366999077794
0.00366724350393
0.00364269708657
0.00357511484599
0.0034373824275
0.00320104915796
0.00284722425355
0.0023207034322
0.00157609209151
0.000684998987853
0.000682553751866
0.00154232678325
0.00224938745018
0.00274031590085
0.00306410234909
0.00328123210276
0.00341265534006
0.00348266617899
0.00351617416485
0.00353149587228
0.00353755744458
0.00353295789398
0.00350656369697
0.0034393175409
0.0033076982048
0.00309493047199
0.00275930005116
0.00225719307678
0.00154356274105
0.00068089604985
0.00067278118032
0.00148172256888
0.00213826895168
0.00259070544825
0.00288611781386
0.00306769276256
0.00318092026528
0.0032444742581
0.00327589414702
0.00329049248697
0.0032958460591
0.00329070373901
0.00326566573572
0.00320585976185
0.003097911277
0.00290687202533
0.00260010827823
0.00213908195302
0.00147891299127
0.000670385682217
0.000652115822428
0.00137196393805
0.00194678970404
0.00233855714975
0.0025917619534
0.00274433802411
0.00282860362215
0.00287090232684
0.00289426057425
0.00290634294158
0.00291108185883
0.00290921108354
0.00289616479786
0.00285457533948
0.00276467748573
0.00260265697359
0.00234027346399
0.00194251212569
0.00136645597678
0.0006493803601
0.000614708789797
0.00119197579901
0.00164393060437
0.00194672703821
0.00213881431535
0.00225174405073
0.00231141767615
0.0023388891675
0.00235039550887
0.0023563892647
0.00236149442029
0.0023640322319
0.00235689004578
0.00232838645089
0.00226322293083
0.00214274527918
0.00194394692504
0.00163738756047
0.00118568949657
0.000612141018259
0.000554156843823
0.000915507887769
0.00119177816598
0.00137159365651
0.00148147614148
0.00154280435811
0.00157257532618
0.00158403253795
0.00158727529354
0.00158892335309
0.00159207009433
0.00159545626222
0.00159434331549
0.00158162434536
0.00154802207605
0.00148181919334
0.00136786111434
0.00118606727521
0.000910542140105
0.0005522932291
0.000478962293056
0.000554135644912
0.000614622300527
0.000651914278385
0.000672465308552
0.000682184464802
0.000685461316405
0.0006854048445
0.00068466568265
0.000684089016004
0.000684646595603
0.000685858678604
0.000687036662365
0.00068645081234
0.00068204469363
0.000671130505291
0.000649744438392
0.000612244175729
0.000552294751939
0.000478215861222
0.000551294257523
0.000895897254614
0.00116433746888
0.00134270453602
0.0014548528873
0.00152040037287
0.00155463397615
0.00156958508853
0.00157392765804
0.00157518196377
0.00157743717135
0.00157954028851
0.0015763298202
0.00156145495857
0.00152623123174
0.00145910679481
0.00134530256906
0.00116555295201
0.000896151153297
0.000550900034741
0.000895739644623
0.00109861973745
0.0013396634663
0.00151392843048
0.00162850997579
0.00169813854812
0.00173656131664
0.0017552747869
0.00176315087627
0.00176631704621
0.00176779016356
0.00176716784179
0.0017608678442
0.0017426669896
0.00170380813922
0.00163313691278
0.00151726547801
0.00134172483756
0.00109962071605
0.000896131171844
0.0011640031903
0.00133949514517
0.00161169506916
0.00181863692725
0.0019598006507
0.0020486791164
0.00209992024393
0.00212660259504
0.00213904330246
0.00214435854548
0.00214604929153
0.00214378900472
0.00213351211562
0.00210790441884
0.0020565413995
0.0019666749992
0.00182403464014
0.00161542658476
0.0013416495276
0.00116531175005
0.00134228062035
0.00151358662609
0.00181837844534
0.00205629535666
0.00222233894605
0.00232953220063
0.00239351961879
0.0024289586102
0.00244698391947
0.00245474361755
0.00245630051513
0.00245147239093
0.00243617269699
0.00240296817006
0.00233950303479
0.00223156367751
0.00206392700612
0.00182397344696
0.00151709651701
0.00134479530314
0.00145430188321
0.00162786254838
0.00195906354435
0.00222177494136
0.00240807526497
0.00253124808802
0.00260826211486
0.00265148032878
0.00267295261704
0.00268196435296
0.00268347718918
0.00267731003946
0.00265822699667
0.00261698594097
0.00254233320696
0.00241944202193
0.00223172853302
0.00196671412401
0.00163296626546
0.00145841963009
0.0015195276211
0.00169696548366
0.00204717791574
0.00232805145125
0.0025302599561
0.00266790251695
0.00275327610372
0.00280046921886
0.002823285653
0.00283256178256
0.00283407151865
0.00282761802759
0.00280711717139
0.00276182100921
0.0026782934459
0.00254292101493
0.00234023447819
0.00205700899937
0.00170386719186
0.00152560658922
0.00155315778637
0.0017346119147
0.00209736325954
0.00239078821306
0.00260596525947
0.0027520528112
0.00284147861784
0.00288977005011
0.0029122544117
0.00292105960011
0.00292265574558
0.00291679068345
0.00289664380563
0.00285024201377
0.00276262335074
0.00261838900162
0.0024047949973
0.0021093119988
0.0017433691442
0.00156136143955
0.00156717354766
0.00175230780714
0.00212273764635
0.00242469154046
0.00264786795632
0.00279802517193
0.00288855658236
0.00293611548556
0.00295728390587
0.00296525033011
0.0029670369044
0.00296229014818
0.00294355559513
0.00289787763968
0.00280918662348
0.00266101413825
0.00243966515459
0.00213649965089
0.00176278261163
0.00157744706142
0.00157024531762
0.00175897340834
0.00213374959518
0.0024413410854
0.00266814134393
0.00281971657559
0.00290988997202
0.00295608138612
0.00297578146807
0.00298294942077
0.00298497898104
0.00298139174272
0.00296425829249
0.00291992884486
0.00283157277959
0.00268202679853
0.00245678124381
0.00214897495197
0.00177086267143
0.00158227376498
0.00156970394658
0.00176082280051
0.00213766369749
0.00244796715015
0.00267618210413
0.00282808676494
0.00291775187484
0.00296301224725
0.00298184028404
0.00298859159376
0.00299082845117
0.0029879668934
0.00297182776248
0.00292841307429
0.0028405168437
0.0026906569771
0.00246407541756
0.00215385547012
0.00177366331032
0.00158285083937
0.00157004373949
0.00176111728005
0.00213819917991
0.00244873504718
0.00267709994951
0.00282910789669
0.00291888023237
0.00296428509518
0.0029832906523
0.00299020224428
0.00299251939972
0.00298964899688
0.00297342390365
0.00292987154108
0.00284181803131
0.00269180576241
0.00246507726521
0.00215469046844
0.00177425470349
0.00158333086808
0.00157114140043
0.00175978547295
0.00213524484467
0.00244349921113
0.0026707514727
0.00282263808792
0.00291312646288
0.00295972932343
0.0029799234404
0.00298754170702
0.00298982026291
0.00298622281488
0.00296884310855
0.00292410398413
0.00283527222285
0.0026852606434
0.00245959528247
0.00215117660817
0.00177236677238
0.00158354019331
0.00156823299914
0.00175340818134
0.00212485345777
0.00242780168273
0.00265175877373
0.00280245874351
0.00289351749902
0.00294173290347
0.0029636644712
0.00297232441237
0.00297451407659
0.00296976387552
0.00295063395441
0.00290427866188
0.00281478351311
0.00266580398945
0.002443697789
0.00213932396368
0.00176451045436
0.00157875380369
0.00155408658083
0.00173570477954
0.00209965574467
0.0023944068905
0.00261058113742
0.00275746672245
0.00284765943703
0.00289685208214
0.00292033960284
0.00293004044266
0.00293216271225
0.00292628900669
0.00290559909135
0.00285825414712
0.00276948856199
0.00262405589583
0.0024090027017
0.00211185216144
0.00174455571617
0.00156192056698
0.00152014648616
0.00169782318126
0.0020492529779
0.00233155477747
0.00253507543532
0.00267371919121
0.00276012334613
0.00280847252138
0.00283251458323
0.00284285587949
0.00284498260219
0.00283850258578
0.00281732528561
0.00277084078279
0.0026858257199
0.00254877080069
0.00234377738298
0.00205860816143
0.00170404390869
0.00152495738457
0.00145458791863
0.0016284020867
0.00196066638125
0.00222470250972
0.00241250448605
0.00253704062956
0.00261521237953
0.00265981414431
0.00268269692712
0.00269291321912
0.00269511545815
0.00268893031559
0.00266913228607
0.00262656965419
0.00255011550967
0.00242442673813
0.00223410493265
0.00196717686452
0.00163215744341
0.00145671897138
0.0013423440098
0.00151384902797
0.00181942290726
0.00205837990601
0.00222575086599
0.00233453341503
0.00240025037606
0.00243707453546
0.00245651331887
0.00246558285506
0.00246790208366
0.00246324019133
0.00244759981358
0.00241238554382
0.00234610215188
0.00223517401477
0.00206508901876
0.00182353712719
0.00151573846505
0.00134267663917
0.00116393912365
0.00133954997973
0.00161220140053
0.00181981592689
0.00196195415003
0.00205216814368
0.0021050699589
0.00213357256049
0.00214781709465
0.00215458839711
0.00215707407699
0.00215465835882
0.00214320570058
0.00211541377971
0.00206131440912
0.00196880219917
0.00182418709702
0.00161450014576
0.00134029422098
0.00116351827056
0.000895587812621
0.00109852809668
0.00133972170877
0.0015143127167
0.00162950108085
0.00170010111804
0.00173985662288
0.00176014834448
0.00176961915907
0.00177408296093
0.00177624086901
0.0017754304839
0.0017679805854
0.0017478305399
0.00170664457554
0.00163385729765
0.00151659480863
0.00134056519958
0.00109858951353
0.000895033455975
0.000551041786196
0.000895696741994
0.00116405600377
0.00134254847801
0.00145519805399
0.0015217108964
0.00155735713858
0.00157405448714
0.00158030376419
0.0015829313301
0.00158569828113
0.00158731684979
0.00158255343044
0.00156547273735
0.00152774199225
0.0014584863061
0.00134351504323
0.00116376241755
0.000895059662257
0.000549891845494
0.000609500934359
0.00115600658614
0.00159669350486
0.00190098617635
0.00210064880682
0.0022233287103
0.0022918956475
0.00232555155176
0.00233969891519
0.00234547254492
0.00234863448141
0.00234801273236
0.00233683394475
0.00230402271355
0.00223466729569
0.00211025803751
0.00190848916975
0.00160190924945
0.00115860403824
0.000609169043322
0.00115585051336
0.00133652743637
0.00161427129941
0.00182753665957
0.00197465770077
0.00206826144322
0.00212259796541
0.00215080006014
0.00216369812762
0.00216895740674
0.00217037967646
0.00216764717515
0.00215645364003
0.00212902801868
0.00207475914633
0.00198080962253
0.00183309370634
0.00161892072486
0.00133993459262
0.00115861864033
0.00159588132222
0.00161390722963
0.00186595358942
0.00207705204522
0.00222949228785
0.00232999270469
0.002390496278
0.00242327750904
0.00243900355734
0.00244542352016
0.00244637541821
0.00244182798542
0.00242754677722
0.00239569207537
0.0023357794528
0.00223560216236
0.00208324239451
0.00187179602363
0.00161890793914
0.00160166558799
0.00189928755139
0.00182655171932
0.0020764584062
0.00229710802588
0.00246116413884
0.00257205434922
0.00264066051958
0.002678793297
0.0026972341764
0.00270437078245
0.00270468037194
0.00269818314418
0.00268042574149
0.00264323240233
0.00257602698779
0.00246639761047
0.00230335895297
0.00208316590028
0.00183299282376
0.0019079780764
0.00209779274053
0.0019727781937
0.00222811604615
0.00246051773953
0.00263654834114
0.00275781490854
0.00283332814689
0.00287486722642
0.00289430492133
0.00290123256193
0.00290085824757
0.00289324345616
0.00287333524275
0.00283215169324
0.00275829199563
0.00263992397943
0.00246630976183
0.00223545599851
0.00198062479595
0.00210965753051
0.00221896030025
0.00206526408521
0.00232775014306
0.00257090599542
0.002757614107
0.00288665085075
0.00296625280882
0.00300856840327
0.00302708083049
0.0030328966407
0.00303194205675
0.00302421359101
0.00300389264179
0.00296098964556
0.00288329165368
0.00275810099631
0.00257588161326
0.00233567398494
0.00207462346885
0.00223436507749
0.00228567980725
0.00211834712014
0.00238741149626
0.00263930645878
0.00283355147406
0.00296711489631
0.00304757716539
0.00308811309547
0.00310417417948
0.00310834893473
0.00310714808173
0.0031003417535
0.00308126625735
0.00303889253152
0.00296014402721
0.00283157528009
0.00264314608882
0.00239590850856
0.00212929280347
0.00230473401927
0.00231723176502
0.00214526368641
0.00241948073263
0.00267761740539
0.00287613347365
0.00301117881709
0.00309010418671
0.00312744187012
0.00314050645873
0.00314306769679
0.00314201589851
0.0031368168351
0.00312001438563
0.00307963257985
0.00300176307191
0.00287229052026
0.0026805449292
0.00242853379987
0.00215769261494
0.00233961670157
0.0023290722974
0.00215694457351
0.00243471919354
0.00269655016103
0.00289700314999
0.00303178593371
0.00310844688112
0.00314268956665
0.00315322961879
0.00315459348197
0.00315386856029
0.00315026474883
0.00313572679642
0.00309758477649
0.0030212562075
0.00289206374524
0.00269898156587
0.00244413256014
0.00217050283862
0.00235400393389
0.0023324257313
0.00216119223797
0.00244104300611
0.00270448892141
0.00290562105913
0.00303988627604
0.00311501778941
0.00314739842561
0.00315650270499
0.00315722635432
0.00315673387064
0.00315408669702
0.00314090504782
0.00310414837658
0.0030288700859
0.00290007110827
0.00270652151628
0.00245037669257
0.00217530287752
0.00235870056476
0.00233359130435
0.00216198645346
0.00244210426854
0.00270581339649
0.00290710906066
0.00304143937709
0.00311654785034
0.00314889527068
0.00315802180634
0.00315879858919
0.00315834258837
0.00315568697
0.0031424315603
0.00310555304375
0.0030301442045
0.00290120766334
0.00270748881661
0.0024511829476
0.00217594818022
0.00235973056019
0.0023322068375
0.00215915170533
0.00243778719226
0.00270030577665
0.00290123036491
0.00303619797187
0.00311277793129
0.00314692048792
0.00315754355723
0.00315908989862
0.00315849757442
0.00315488320133
0.00314012875043
0.00310162140569
0.00302489197098
0.002895262664
0.00270163743796
0.00244625403845
0.00217210492815
0.00235665067844
0.00232159832768
0.00214841348101
0.00242401288198
0.00268317871361
0.00288241280309
0.00301771686695
0.00309649087069
0.00313368494514
0.0031469316058
0.00314984992816
0.00314907223415
0.00314389691182
0.00312676998842
0.00308581369939
0.00300727571447
0.00287701337979
0.00268423541961
0.00243122102072
0.00215943283663
0.0023426943728
0.00229038761094
0.0021218222456
0.00239262779339
0.00264581641727
0.00284106278615
0.00297499202356
0.00305534044018
0.00309578548599
0.00311215740031
0.00311686671781
0.00311608580374
0.00310935122625
0.00308987687544
0.00304673797786
0.00296699827198
0.00283716342375
0.0026471815767
0.00239828517944
0.00213026776273
0.00230691100812
0.00222324344657
0.00206852285551
0.00233293609037
0.00257782597521
0.00276562508854
0.00289531825305
0.00297516809031
0.00301770201453
0.00303675115444
0.00304325922343
0.00304279971919
0.00303510102643
0.00301420996778
0.00297021416492
0.00289098817938
0.00276387341046
0.00257935808135
0.00233703359918
0.00207428678147
0.002234865697
0.00210124674506
0.00197549985344
0.0022326716129
0.00246686451027
0.00264435201433
0.00276654467847
0.00284288593609
0.00288524224738
0.00290556906012
0.00291334605674
0.00291347766271
0.00290574835348
0.0028849596416
0.00284220412816
0.00276618032882
0.00264503396856
0.00246868532447
0.00223556771102
0.00197905906591
0.00210864110028
0.0019018187317
0.00182863502277
0.00208004124802
0.00230224004614
0.0024677609887
0.00257997395651
0.00264959863314
0.00268908480143
0.00270878456944
0.00271695929864
0.0027178255827
0.00271110659442
0.0026921281752
0.00265308890326
0.00258302431562
0.00247027259849
0.00230447773112
0.00208227551094
0.00183083005691
0.00190634039897
0.0015974804872
0.00161536104714
0.00186844229354
0.00208064726114
0.00223425773698
0.00233605087251
0.00239798176088
0.00243235634713
0.00244959647188
0.00245720351787
0.00245883131057
0.0024540105545
0.00243831517213
0.00240408644618
0.00234114548515
0.00223795570364
0.00208323289326
0.00187040269074
0.00161697687737
0.00160046271808
0.00115647849832
0.00133742932309
0.00161576735831
0.0018296551213
0.0019775434742
0.00207220229503
0.00212794036371
0.00215781624077
0.0021724028447
0.0021790258638
0.00218114980085
0.00217811101574
0.00216543813252
0.00213554385648
0.00207831855327
0.00198167219304
0.00183218934544
0.00161745672236
0.00133881414349
0.00115814907213
0.000609228811121
0.00115668626119
0.00159794181073
0.001902891176
0.00210363676261
0.00222799643001
0.00229884893909
0.00233520959873
0.00235203630055
0.00235986067519
0.00236390286505
0.00236270083471
0.00234929462174
0.00231292743655
0.00223945946075
0.00211149557838
0.00190768770336
0.0016009043947
0.0011582803982
0.000607804005495
0.000648202639986
0.00134203693161
0.00191979780521
0.00233029659608
0.00260604783673
0.00277838361173
0.00287568499527
0.00292355997837
0.00294356722336
0.00295122214833
0.00295431916911
0.00295171368329
0.00293446230726
0.00288709561277
0.00278905080047
0.00261582634782
0.00233953444186
0.00192816434302
0.00134759430227
0.000648187007641
0.00134216596857
0.001526350127
0.0018506735193
0.00210915486056
0.00229276618158
0.00241202546212
0.00248191931888
0.00251791058881
0.00253369787136
0.00253921500718
0.00253955125566
0.00253453345724
0.0025188640695
0.00248272733661
0.00241307979481
0.00229495232539
0.00211322272385
0.00185637547484
0.00153228897596
0.00134766735836
0.0019187191338
0.00185032228941
0.00211543504369
0.00235145096618
0.00252777904429
0.00264621989365
0.00271756902333
0.00275501563963
0.00277146956548
0.00277623962424
0.00277427239565
0.00276610418823
0.00274720225425
0.00270823277525
0.00263733251539
0.00252149874052
0.00234955815781
0.00211825304084
0.0018563572997
0.00192799295643
0.00232767288352
0.00210820721645
0.00235141539762
0.00258578105966
0.00276685061225
0.00289141438062
0.00296811875983
0.00300757382155
0.00302300951059
0.00302528481918
0.00302046195422
0.00300913339503
0.00298634202115
0.00294282325071
0.00286771516644
0.00274815995286
0.00257484524966
0.00234920470706
0.0021129483633
0.00233912685441
0.00260167617897
0.00229121558789
0.00252843667823
0.00276848429835
0.00295834607847
0.00309126476363
0.00317060596518
0.00320832777313
0.00321978449026
0.00321801358406
0.00321013677157
0.00319674880488
0.00317212213581
0.0031262850117
0.00304749724766
0.00292401173332
0.00274699087774
0.00252027291728
0.00229411811209
0.00261524813582
0.00277195305663
0.00240996257323
0.00264840707375
0.00289669542487
0.0030965100393
0.00323351995028
0.00331070642997
0.00334210836961
0.00334657650931
0.00333978857445
0.00332971300526
0.00331647230819
0.00329309409262
0.00324824091696
0.00316932070623
0.00304403797244
0.00286419586303
0.00263463909958
0.00241142290326
0.00278846630303
0.00286696091033
0.00247949855583
0.00272206170355
0.00297916356013
0.00318469346825
0.00332099589243
0.00339116257018
0.00341250826361
0.00340821412274
0.00339663624367
0.00338605399061
0.00337555158655
0.00335651348157
0.00331594690345
0.00324015863663
0.00311624358776
0.002935488208
0.00270365757259
0.00248027015596
0.00288708030896
0.002912512252
0.00251540091368
0.0027625276061
0.00302582006322
0.00323333205199
0.00336537620513
0.00342593420417
0.00343606853389
0.00342362273268
0.00340867781652
0.00339919211396
0.00339297269438
0.00337975860608
0.00334509185802
0.00327425697198
0.00315356775919
0.0029739542988
0.00274067169574
0.00251602046462
0.00293612695592
0.00293033799999
0.00253149360643
0.00278273910867
0.00304900804251
0.00325616442672
0.00338320271695
0.00343506533
0.00343627886072
0.003418326371
0.00340171888914
0.00339377504165
0.00339135491142
0.00338298525937
0.00335341472737
0.00328716312946
0.00316980945185
0.00299171765891
0.00275785380027
0.00253193660036
0.00295639279025
0.00293622833061
0.00253779482032
0.00279152519454
0.00305905798076
0.00326557709669
0.0033894291006
0.00343625750931
0.0034326166134
0.00341185363944
0.00339447910633
0.00338741086361
0.00338704747622
0.00338130522852
0.00335455005784
0.00329092707993
0.00317558338883
0.00299849782384
0.00276445641474
0.00253771917525
0.00296308706751
0.00293858102823
0.00253944668582
0.00279352694507
0.00306137831832
0.00326802322536
0.00339170794328
0.00343820099591
0.00343428730935
0.0034134623605
0.00339610414957
0.0033890380667
0.0033886206991
0.00338270865697
0.00335572936575
0.00329194850552
0.00317652655158
0.00299937225224
0.00276521095055
0.00253833493149
0.00296445227476
0.00293674145358
0.0025360515811
0.00278830024686
0.00305545393242
0.003262850023
0.00338920762322
0.00343989337057
0.00344022676669
0.00342217363109
0.00340576327934
0.00339797784274
0.00339551631875
0.00338672195512
0.0033565707076
0.00328992412292
0.00317236533901
0.00299404867677
0.0027597752531
0.002533328811
0.00295971144093
0.00292158479394
0.00252192707842
0.00277091947072
0.00303499244122
0.00324244508735
0.003373003572
0.00343131709932
0.00343980517823
0.00342716104655
0.00341272383645
0.00340383069528
0.00339791571704
0.00338440833003
0.00334919903555
0.00327800639084
0.00315706813025
0.00297700113299
0.00274281473718
0.00251707353708
0.00293960793594
0.00287691390974
0.00248672872567
0.00273170329162
0.00298956004947
0.00319460080762
0.00332868829972
0.0033957087189
0.00341459525936
0.00340967777704
0.00339873294105
0.00338925939705
0.00337972114703
0.00336103602952
0.00332042010728
0.00324447045825
0.00312015140392
0.00293848371494
0.00270486793707
0.00247972886881
0.00288877085959
0.00278118477421
0.00241680157264
0.0026579349637
0.00290774149062
0.00310687025564
0.00324167316784
0.0033157119595
0.00334457815341
0.00334824637111
0.00334210544084
0.00333335771454
0.00332140857118
0.00329871840709
0.00325393027254
0.00317453724705
0.00304809162395
0.0028662301706
0.00263399929627
0.00240853355973
0.00278725527287
0.00260929219227
0.00229707181783
0.00253695158158
0.00277901762963
0.00296937150525
0.00310101229579
0.00317831520163
0.00321441835922
0.00322552441929
0.00322447581594
0.00321775310257
0.00320530183765
0.00318084316814
0.00313432432334
0.00305389520221
0.00292783104066
0.0027474381204
0.00251752818561
0.00228906958785
0.00261146274128
0.00233341801515
0.00211291646942
0.00235846341463
0.0025948636953
0.0027773620291
0.00290254645996
0.00297885595795
0.00301828296812
0.00303415559266
0.00303727462175
0.00303324722049
0.00302210974713
0.00299836786881
0.00295297010167
0.00287450958659
0.00275083259339
0.00257350636632
0.00234482191768
0.0021068232245
0.00233427437333
0.00192249989867
0.00185386695815
0.00212080719047
0.00235849988199
0.00253629742903
0.00265605962082
0.00272865870984
0.00276739652546
0.00278488470767
0.00279060066665
0.00278936683009
0.00278099449881
0.0027602400096
0.00271798040146
0.00264273611705
0.00252238532385
0.00234671758076
0.00211318319451
0.00185067290631
0.00192393712089
0.00134381933761
0.00152879506268
0.00185437696068
0.00211394872569
0.00229864123446
0.00241917788362
0.0024906600805
0.00252849546146
0.00254608714745
0.00255303366173
0.00255401466138
0.00254839043789
0.0025304885617
0.00249064362895
0.00241647817058
0.00229409601361
0.00210945012851
0.00185164921109
0.00152838164993
0.00134541541681
0.000648023177372
0.00134405336022
0.00192329089913
0.00233526340092
0.0026129607506
0.00278788872006
0.00288841767097
0.00293989606983
0.00296328442184
0.00297344051087
0.00297757209795
0.00297402744649
0.0029533713433
0.00290042594886
0.00279576863618
0.00261663878206
0.00233675265684
0.00192487413196
0.00134583035024
0.000646053512876
0.000676825856377
0.00150030974335
0.00220776704804
0.00272243889928
0.00307243624643
0.00328991822852
0.00340850827583
0.0034618365724
0.00347952343053
0.00348277198433
0.00348243280797
0.0034774435231
0.00345637776618
0.00339869139466
0.0032772288988
0.00306108805265
0.00271723562862
0.00221054920583
0.00150694705308
0.000677470514323
0.00150132954243
0.00169815870373
0.00208050896036
0.00239604096793
0.00262502725334
0.00277392924887
0.00285850941443
0.00289812056153
0.00291114278983
0.00291120615898
0.00290582728742
0.00289528416076
0.00287316911232
0.00282708088189
0.00274082599143
0.00259677651828
0.00237853234022
0.00207570780637
0.00170239037905
0.00150722452651
0.0022078459945
0.00208140451666
0.00238925506622
0.00267732870966
0.00289738403344
0.00304458419998
0.00312915594962
0.00316724286697
0.00317667581421
0.00316986676825
0.00315532788551
0.00313475049601
0.00310393362482
0.00305143824872
0.00296340893672
0.00282489384212
0.00262448896879
0.00236179078345
0.00207556814266
0.00221069035387
0.00272247277392
0.00239943551758
0.0026823550053
0.00297182148356
0.00320110362095
0.00335802367869
0.0034478920022
0.0034825264183
0.00348183567067
0.00346325400912
0.00343713461723
0.00340605282584
0.00336496093596
0.00330329884583
0.00320931919664
0.00306862065266
0.00287163541455
0.00262289453809
0.00237739702256
0.00271691329967
0.00307342786362
0.00263309422864
0.0029124683803
0.00321474040885
0.00346150638912
0.00362854834714
0.00371378926164
0.00373414497039
0.00371602406323
0.00368237873837
0.00364557285289
0.00360791630546
0.00356280668298
0.00349817397127
0.00340092046665
0.00325865963039
0.00306261829579
0.00281900678722
0.00259314504809
0.00305939059021
0.00329206949323
0.0027881514892
0.00307378174651
0.0033941826023
0.00365618289645
0.00382144851782
0.00388837561521
0.00388188064286
0.00383945393999
0.00379037162132
0.00374784913239
0.00371190706804
0.00367263049634
0.00361447133218
0.00352236914933
0.00338349391318
0.00319009835996
0.0029496278975
0.00273286082497
0.00327290757241