/*--------------------------------*- C++ -*----------------------------------*\
| =========                 |                                                 |
| \\      /  F ield         | OpenFOAM: The Open Source CFD Toolbox           |
|  \\    /   O peration     | Version:  3.0.1                                 |
|   \\  /    A nd           | Web:      www.OpenFOAM.org                      |
|    \\/     M anipulation  |                                                 |
\*---------------------------------------------------------------------------*/
FoamFile
{
    version     2.0;
    format      ascii;
    class       surfaceScalarField;
    location    "4.6";
    object      meshPhiCN_0;
}
// * * * * * * * * * * * * * * * * * * * * * * * * * * * * * * * * * * * * * //

dimensions      [0 3 -1 0 0 0 0];

internalField   nonuniform List<scalar> 
22672
(
0
0
0
0
0
0
0
0
0
0
0
0
0
0
0
0
0
0
0
0
0
0
0
0
0
0
0
0
0
0
0
0
0
0
0
0
0
0
0
0
0
0
0
0
0
0
0
0
0
0
0
0
0
0
0
0
0
0
0
0
0
0
0
0
0
0
0
0
0
0
0
0
0
0
0
0
0
0
0
0
0
0
0
0
0
0
0
0
0
0
0
0
0
0
0
0
0
0
0
0
0
0
0
0
0
0
0
0
0
0
0
0
0
0
0
0
0
0
0
0
0
0
0
0
0
0
0
0
0
0
0
0
0
0
0
0
0
0
0
0
0
0
0
0
0
0
0
0
0
0
0
0
0
0
0
0
0
0
0
0
0
0
0
0
0
0
0
0
0
0
0
0
0
0
0
0
0
0
0
0
0
0
0
0
0
0
0
0
0
0
0
0
0
0
0
0
0
0
0
0
0
0
0
0
0
0
0
0
0
0
0
0
0
0
0
0
0
0
0
0
0
0
0
0
0
0
0
0
0
0
0
0
0
0
0
0
0
0
0
0
0
0
0
0
0
0
0
0
0
0
0
0
0
0
0
0
0
0
0
0
0
0
0
0
0
0
0
0
0
0
0
0
0
0
0
0
0
0
0
0
0
0
0
0
0
0
0
0
0
0
0
0
0
0
0
0
0
0
0
0
0
0
0
0
0
0
0
0
0
0
0
0
0
0
0
0
0
0
0
0
0
0
0
0
0
0
0
0
0
0
0
0
0
0
0
0
0
0
0
0
0
0
0
0
0
0
0
0
0
0
0
0
0
0
0
0
0
0
0
0
0
0
0
0
0
0
0
0
0
0
0
0
0
0
0
0
0
0
0
0
0
0
0
0
0
0
0
0
0
0
0
0
0
0
0
0
0
0
0
0
0
0
0
0
0
0
0
0
0
0
0
0
0
0
0
0
0
0
0
0
0
0
0
0
0
0
0
0
0
0
0
0
0
0
0
0
0
0
0
0
0
0
0
0
0
0
0
0
0
0
0
0
0
0
0
0
0
0
0
0
0
0
0
0
0
0
0
0
0
0
0
0
0
0
0
0
0
0
0
0
0
0
0
0
0
0
0
0
0
0
0
0
0
0
0
0
0
0
0
0
0
0
0
0
0
0
0
0
0
0
0
0
0
0
0
0
0
0
0
0
0
0
0
0
0
0
0
0
0
0
0
0
0
0
0
0
0
0
0
0
0
0
0
0
0
0
0
0
0
0
0
0
0
0
0
0
0
0
0
0
0
0
0
0
0
0
0
0
0
0
0
0
0
0
0
0
0
0
0
0
0
0
0
0
0
0
0
0
0
0
0
0
0
0
0
0
0
0
0
0
0
0
0
0
0
0
0
0
0
0
0
0
0
0
0
0
0
0
0
0
0
0
0
0
0
0
0
0
0
0
0
0
0
0
0
0
0
0
0
0
0
0
0
0
0
0
0
0
0
0
0
0
0
0
0
0
0
0
0
0
0
0
0
0
0
0
0
0
0
0
0
0
0
0
0
0
0
0
0
0
0
0
0
0
0
0
0
0
0
0
0
0
0
0
0
0
0
0
0
0
0
0
0
0
0
0
0
0
0
0
0
0
0
0
0
0
0
0
0
0
0
0
0
0
0
0
0
0
0
0
0
0
0
0
0
0
0
0
0
0
0
0
0
0
0
0
0
0
0
0
0
0
0
0
0
0
0
0
0
0
0
0
0
0
0
0
0
0
0
0
0
0
0
0
0
0
0
0
0
0
0
0
0
0
0
0
0
0
0
0
0
0
0
0
0
0
0
0
0
0
0
0
0
0
0
0
0
0
0
0
0
0
0
0
0
0
0
0
0
0
0
0
0
0
0
0
0
0
0
0
0
0
0
0
0
0
0
0
0
0
0
0
0
0
0
0
0
0
0
0
0
0
0
0
0
0
0
0
0
0
0
0
0
0
0
0
0
0
0
0
0
0
0
0
0
0
0
0
0
0
0
0
0
0
0
0
0
0
0
0
0
0
0
0
0
0
0
0
0
0
0
0
0
0
0
0
0
0
0
0
0
0
0
0
0
0
0
0
0
0
0
0
0
0
0
0
0
0
0
0
0
0
0
0
0
0
0
0
0
0
0
0
0
0
0
0
0
0
0
0
0
0
0
0
0
0
0
0
0
0
0
0
0
0
0
0
0
0
0
0
0
0
0
0
0
0
0
0
0
0
0
0
0
0
0
0
0
0
0
0
0
0
0
0
0
0
0
0
0
0
0
0
0
0
0
0
0
0
0
0
0
0
0
0
0
0
0
0
0
0
0
0
0
0
0
0
0
0
0
0
0
0
0
0
0
0
0
0
0
0
0
0
0
0
0
0
0
0
0
0
0
0
0
0
0
0
0
0
0
0
0
0
0
0
0
0
0
0
0
0
0
0
0
0
0
0
0
0
0
0
0
0
0
0
0
0
0
0
0
0
0
0
0
0
0
0
0
0
0
0
0
0
0
0
0
0
0
0
0
0
0
0
0
0
0
0
0
0
0
0
0
0
0
0
0
0
0
0
0
0
0
0
0
0
0
0
0
0
0
0
0
0
0
0
0
0
0
0
0
0
0
0
0
0
0
0
0
0
0
0
0
0
0
0
0
0
0
0
0
0
0
0
0
0
0
0
0
0
0
0
0
0
0
0
0
0
0
0
0
0
0
0
0
0
0
0
0
0
0
0
0
0
0
0
0
0
0
0
0
0
0
0
0
0
0
0
0
0
0
0
0
0
0
0
0
0
0
0
0
0
0
0
0
0
0
0
0
0
0
0
0
0
0
0
0
0
0
0
0
0
0
0
0
0
0
0
0
0
0
0
0
0
0
0
0
0
0
0
0
0
0
0
0
0
0
0
0
0
0
0
0
0
0
0
0
0
0
0
0
0
0
0
0
0
0
0
0
0
0
0
0
0
0
0
0
0
0
0
0
0
0
0
0
0
0
0
0
0
0
0
0
0
0
0
0
0
0
0
0
0
0
0
0
0
0
0
0
0
0
0
0
0
0
0
0
0
0
0
0
0
0
0
0
0
0
0
0
0
0
0
0
0
0
0
0
0
0
0
0
0
0
0
0
0
0
0
0
0
0
0
0
0
0
0
0
0
0
0
0
0
0
0
0
0
0
0
0
0
0
0
0
0
0
0
0
0
0
0
0
0
0
0
0
0
0
0
0
0
0
0
0
0
0
0
0
0
0
0
0
0
0
0
0
0
0
0
0
0
0
0
0
0
0
0
0
0
0
0
0
0
0
0
0
0
0
0
0
0
0
0
0
0
0
0
0
0
0
0
0
0
0
0
0
0
0
0
0
0
0
0
0
0
0
0
0
0
0
0
0
0
0
0
0
0
0
0
0
0
0
0
0
0
0
0
0
0
0
0
0
0
0
0
0
0
0
0
0
0
0
0
0
0
0
0
0
0
0
0
0
0
0
0
0
0
0
0
0
0
0
0
0
0
0
0
0
0
0
0
0
0
0
0
0
0
0
0
0
0
0
0
0
0
0
0
0
0
0
0
0
0
0
0
0
0
0
0
0
0
0
0
0
0
0
0
0
0
0
0
0
0
0
0
0
0
0
0
0
0
0
0
0
0
0
0
0
0
0
0
0
0
0
0
0
0
0
0
0
0
0
0
0
0
0
0
0
0
0
0
0
0
0
0
0
0
0
0
0
0
0
0
0
0
0
0
0
0
0
0
0
0
0
0
0
0
0
0
0
0
0
0
0
0
0
0
0
0
0
0
0
0
0
0
0
0
0
0
0
0
0
0
0
0
0
0
0
0
0
0
0
0
0
0
0
0
0
0
0
0
0
0
0
0
0
0
0
0
0
0
0
0
0
0
0
0
0
0
0
0
0
0
0
0
0
0
0
0
0
0
0
0
0
0
0
0
0
0
0
0
0
0
0
0
0
0
0
0
0
0
0
0
0
0
0
0
0
0
0
0
0
0
0
0
0
0
0
0
0
0
0
0
0
0
0
0
0
0
0
0
0
0
0
0
0
0
0
0
0
0
0
0
0
0
0
0
0
0
0
0
0
0
0
0
0
0
0
0
0
0
0
0
0
0
0
0
0
0
0
0
0
0
0
0
0
0
0
0
0
0
0
0
0
0
0
0
0
0
0
0
0
0
0
0
0
0
0
0
0
0
0
0
0
0
0
0
0
0
0
0
0
0
0
0
0
0
0
0
0
0
0
0
0
0
0
0
0
0
0
0
0
0
0
0
0
0
0
0
0
0
0
0
0
0
0
0
0
0
0
0
0
0
0
0
0
0
0
0
0
0
0
0
0
0
0
0
0
0
0
0
0
0
0
0
0
0
0
0
0
0
0
0
0
0
0
0
0
0
0
0
0
0
0
0
0
0
0
0
0
0
0
0
0
0
0
0
0
0
0
0
0
0
0
0
0
0
0
0
0
0
0
0
0
0
0
0
0
0
0
0
0
0
0
0
0
0
0
0
0
0
0
0
0
0
0
0
0
0
0
0
0
0
0
0
0
0
0
0
0
0
0
0
0
0
0
0
0
0
0
0
0
0
0
0
0
0
0
0
0
0
0
0
0
0
0
0
0
0
0
0
0
0
0
0
0
0
0
0
0
0
0
0
0
0
0
0
0
0
0
0
0
0
0
0
0
0
0
0
0
0
0
0
0
0
0
0
0
0
0
0
0
0
0
0
0
0
0
0
0
0
0
0
0
0
0
0
0
0
0
0
0
0
0
0
0
0
0
0
0
0
0
0
0
0
0
0
0
0
0
0
0
0
0
0
0
0
0
0
0
0
0
0
0
0
0
0
0
0
0
0
0
0
0
0
0
0
0
0
0
0
0
0
0
0
0
0
0
0
0
0
0
0
0
0
0
0
0
0
0
0
0
0
0
0
0
0
0
0
0
0
0
0
0
0
0
0
0
0
0
0
0
0
0
0
0
0
0
0
0
0
0
0
0
0
0
0
0
0
0
0
0
0
0
0
0
0
0
0
0
0
0
0
0
0
0
0
0
0
0
0
0
0
0
0
0
0
0
0
0
0
0
0
0
0
0
0
0
0
0
0
0
0
0
0
0
0
0
0
0
0
0
0
0
0
0
0
0
0
0
0
0
0
0
0
0
0
0
0
0
0
0
0
0
0
0
0
0
0
0
0
0
0
0
0
0
0
0
0
0
0
0
0
0
0
0
0
0
0
0
0
0
0
0
0
0
0
0
0
0
0
0
0
0
0
0
0
0
0
0
0
0
0
0
0
0
0
0
0
0
0
0
0
0
0
0
0
0
0
0
0
0
0
0
0
0
0
0
0
0
0
0
0
0
0
0
0
0
0
0
0
0
0
0
0
0
0
0
0
0
0
0
0
0
0
0
0
0
0
0
0
0
0
0
0
0
0
0
0
0
0
0
0
0
0
0
0
0
0
0
0
0
0
0
0
0
0
0
0
0
0
0
0
0
0
0
0
0
0
0
0
0
0
0
0
0
0
0
0
0
0
0
0
0
0
0
0
0
0
0
0
0
0
0
0
0
0
0
0
0
0
0
0
0
0
0
0
0
0
0
0
0
0
0
0
0
0
0
0
0
0
0
0
0
0
0
0
0
0
0
0
0
0
0
0
0
0
0
0
0
0
0
0
0
0
0
0
0
0
0
0
0
0
0
0
0
0
0
0
0
0
0
0
0
0
0
0
0
0
0
0
0
0
0
0
0
0
0
0
0
0
0
0
0
0
0
0
0
0
0
0
0
0
0
0
0
0
0
0
0
0
0
0
0
0
0
0
0
0
0
0
0
0
0
0
0
0
1.81688902688e-10
6.71660884788e-10
-2.49977345648e-08
3.26950537934e-10
1.90580875197e-09
-6.98695828634e-08
3.2695012704e-10
2.49176604971e-09
-8.97263040205e-08
3.2694966074e-10
2.53962122427e-09
-8.9694925948e-08
3.26949270666e-10
2.58747636458e-09
-8.96635478664e-08
3.26948903755e-10
2.63533151395e-09
-8.96321697878e-08
1.81688211089e-10
2.08124665969e-09
-6.97519049618e-08
0
7.5132915122e-10
-2.49439991337e-08
0
0
0
0
0
0
0
0
0
0
0
0
0
0
0
0
0
0
0
0
0
0
0
0
0
0
0
0
0
0
0
0
4.79639231001e-10
1.87209399123e-09
-7.06684643466e-08
1.46604529498e-09
6.97873011255e-09
-2.81914605077e-07
1.98124247965e-09
1.18183194593e-08
-4.94017860024e-07
1.98122997222e-09
1.35414432389e-08
-5.65436352572e-07
1.98121751355e-09
1.38018283732e-08
-5.65243863177e-07
1.98120509007e-09
1.40622131887e-08
-5.65051373439e-07
1.98119256673e-09
1.43225976159e-08
-5.64858883364e-07
1.4660004058e-09
1.29465086614e-08
-4.93152926027e-07
4.796310967e-10
7.88746004466e-09
-2.8122738981e-07
0
2.1741636048e-09
-7.04627106851e-08
0
0
0
0
0
0
0
0
0
0
0
0
0
0
0
0
0
0
0
0
0
0
0
0
0
0
1.55129492963e-10
6.45101902483e-10
-2.48814731325e-08
1.66979870952e-09
5.63316036357e-09
-2.81338430916e-07
3.67333701831e-09
1.51324532964e-08
-8.03946812394e-07
4.55972103495e-09
2.2681795207e-08
-1.21899906045e-06
4.55967495574e-09
2.53170534953e-08
-1.34281951193e-06
4.55962878305e-09
2.58044442952e-08
-1.34236174133e-06
4.55958268289e-09
2.6291833939e-08
-1.34190396991e-06
4.55953641097e-09
2.67792224218e-08
-1.34144619768e-06
3.67314662534e-09
2.4863341333e-08
-1.21678612314e-06
1.66973395801e-09
1.7145361894e-08
-8.01841208816e-07
1.55128185569e-10
6.57121931491e-09
-2.80459118746e-07
0
7.77888308608e-10
-2.47927107105e-08
0
0
0
0
0
0
0
0
0
0
0
0
0
0
0
0
0
0
0
0
0
0
0
4.11232998284e-10
1.16010394059e-09
-6.94368406205e-08
2.59995212057e-09
7.56866186751e-09
-4.91894449534e-07
5.0504063159e-09
1.86968018685e-08
-1.21610880752e-06
6.09870625731e-09
2.72674952392e-08
-1.73910406892e-06
6.0986381358e-09
3.02547838808e-08
-1.89060069431e-06
6.09856996345e-09
3.08375003359e-08
-1.88993956421e-06
6.09850178644e-09
3.14202151193e-08
-1.88927843359e-06
6.09843353428e-09
3.20029283159e-08
-1.88861730254e-06
5.05011522764e-09
2.98950264207e-08
-1.73583060889e-06
2.59983695616e-09
2.11955947764e-08
-1.21276896548e-06
4.11228091934e-10
8.84247252798e-09
-4.90273114434e-07
0
1.39890597824e-09
-6.91858301903e-08
0
0
0
0
0
0
0
0
0
0
0
0
0
0
0
0
0
0
0
0
0
0
0
4.88079104798e-10
1.16010425859e-09
-8.89871855849e-08
2.68516159804e-09
7.56867332564e-09
-5.61685929948e-07
5.07971615668e-09
1.86968682461e-08
-1.33640343644e-06
6.09841053155e-09
2.72676346731e-08
-1.88601406317e-06
6.09834158359e-09
3.02549515281e-08
-2.04427001519e-06
6.09827266494e-09
3.08376663104e-08
-2.04354208843e-06
6.09820371733e-09
3.14203793556e-08
-2.04281416162e-06
6.09813481072e-09
3.20030908148e-08
-2.04208623481e-06
5.07942129845e-09
2.98951684321e-08
-1.88240944896e-06
2.68504390325e-09
2.11956732164e-08
-1.33268383767e-06
4.88073920811e-10
8.84248978853e-09
-5.59805821154e-07
0
1.39890649376e-09
-8.86626994448e-08
0
0
0
0
0
0
0
0
0
0
0
0
0
0
0
0
0
0
0
0
0
0
0
4.4022032645e-10
1.16010454945e-09
-8.87467199048e-08
2.42467360266e-09
7.5686847582e-09
-5.60162211535e-07
4.59198098463e-09
1.86969346482e-08
-1.33277672384e-06
5.51521024191e-09
2.72677741135e-08
-1.88090860705e-06
5.5151421209e-09
3.02551191827e-08
-2.03874499402e-06
5.51507404185e-09
3.08378321975e-08
-2.03801706723e-06
5.51500594661e-09
3.14205435292e-08
-2.03728914045e-06
5.51493781677e-09
3.20032532156e-08
-2.03656121365e-06
4.59168958111e-09
2.98953103533e-08
-1.87732459346e-06
2.42455727246e-09
2.11957516357e-08
-1.32909298617e-06
4.40215111182e-10
8.84250700107e-09
-5.58296877482e-07
0
1.39890697088e-09
-8.84227764461e-08
0
0
0
0
0
0
0
0
0
0
0
0
0
0
0
0
0
0
0
0
0
0
0
3.92361547723e-10
1.1601048576e-09
-8.85062542446e-08
2.16418630436e-09
7.56869617081e-09
-5.58638493857e-07
4.1042483069e-09
1.86970010813e-08
-1.32915001297e-06
4.93201346571e-09
2.72679135521e-08
-1.87580315191e-06
4.93194615261e-09
3.02552869576e-08
-2.03321997284e-06
4.93187887747e-09
3.08379981742e-08
-2.03249204606e-06
4.93181162603e-09
3.14207077965e-08
-2.03176411927e-06
4.93174429393e-09
3.20034156784e-08
-2.03103619249e-06
4.10396049764e-09
2.98954523776e-08
-1.87223973696e-06
2.16407138044e-09
2.11958300734e-08
-1.32550213293e-06
3.92356468077e-10
8.84252430897e-09
-5.56787933072e-07
0
1.39890750105e-09
-8.81828534052e-08
0
0
0
0
0
0
0
0
0
0
0
0
0
0
0
0
0
0
0
0
0
0
0
3.44502775903e-10
1.16010514077e-09
-8.82657886587e-08
1.90369977969e-09
7.5687076627e-09
-5.5711477688e-07
3.61651811883e-09
1.86970674623e-08
-1.32552330384e-06
4.34882013922e-09
2.72680530328e-08
-1.87069769778e-06
4.34875364421e-09
3.025545459e-08
-2.02769495169e-06
4.34868726786e-09
3.08381641299e-08
-2.02696702492e-06
4.34862076732e-09
3.14208719909e-08
-2.02623909809e-06
4.34855431826e-09
3.20035781253e-08
-2.02551117131e-06
3.61623385938e-09
2.98955944085e-08
-1.86715487946e-06
1.90358630351e-09
2.11959084925e-08
-1.32191127799e-06
3.44497768645e-10
8.84254146477e-09
-5.55278987996e-07
0
1.39890803341e-09
-8.79429303234e-08
0
0
0
0
0
0
0
0
0
0
0
0
0
0
0
0
0
0
0
0
0
0
0
2.35782204956e-10
6.45102504571e-10
-6.85486946124e-08
1.47133553968e-09
5.63319899825e-09
-4.85313279941e-07
2.86738863331e-09
1.51327163e-08
-1.19950195134e-06
3.46911213286e-09
2.26823826836e-08
-1.71517986918e-06
3.46906485773e-09
2.53177708447e-08
-1.86455089132e-06
3.46901760817e-09
2.58051543162e-08
-1.86386944108e-06
3.46897037193e-09
2.62925364798e-08
-1.86318799127e-06
3.46892310395e-09
2.67799174988e-08
-1.86250654194e-06
2.86719204053e-09
2.48639430282e-08
-1.71190761163e-06
1.4712661354e-09
1.71456792985e-08
-1.19624411177e-06
2.35780646419e-10
6.57127996912e-09
-4.83727891885e-07
0
7.77889296404e-10
-6.82980172408e-08
0
0
0
0
0
0
0
0
0
0
0
0
0
0
0
0
0
0
0
0
0
0
0
7.54578642289e-11
0
-2.44774385227e-08
7.60821001839e-10
1.87210003717e-09
-2.76263895557e-07
1.65939603557e-09
6.97880546058e-09
-7.88794860545e-07
2.0594328832e-09
1.18185389336e-08
-1.19556479596e-06
2.05941962079e-09
1.3541729543e-08
-1.31686700318e-06
2.05940633146e-09
1.38021117073e-08
-1.31637385977e-06
2.05939310258e-09
1.40624935323e-08
-1.31588071715e-06
2.05937972331e-09
1.43228750133e-08
-1.31538757537e-06
1.65934822503e-09
1.29467392545e-08
-1.19327284336e-06
7.60813739923e-10
7.88756002873e-09
-7.86690710724e-07
7.54580667406e-11
2.17417414139e-09
-2.75389521186e-07
0
0
-2.43884592589e-08
0
0
0
0
0
0
0
0
0
0
0
0
0
0
0
0
0
0
0
0
0
0
0
0
0
0
1.77538412491e-10
0
-6.91297706548e-08
5.27753311514e-10
6.71661829381e-10
-2.75500124757e-07
7.07048524363e-10
1.90581587267e-09
-4.82468598423e-07
7.07049233828e-10
2.4917787623e-09
-5.52105332704e-07
7.07049867846e-10
2.53963380529e-09
-5.51898269786e-07
7.07050543558e-10
2.58748885843e-09
-5.51691207187e-07
7.07051196617e-10
2.63534391813e-09
-5.51484144916e-07
5.27757443954e-10
2.08125512529e-09
-4.81568791639e-07
1.77539739087e-10
7.51330852623e-10
-2.7480872891e-07
0
0
-6.892406585e-08
0
0
0
0
0
0
0
0
0
0
0
0
0
0
0
0
0
0
0
0
0
0
0
0
0
0
0
0
0
0
0
0
4.88980998613e-11
0
-2.43259264718e-08
8.81349047592e-11
0
-6.79829246976e-08
8.81350156164e-11
0
-8.7297917313e-08
8.81350246869e-11
0
-8.72660040084e-08
8.81351547825e-11
0
-8.72340906959e-08
8.81352116712e-11
0
-8.72021774112e-08
4.88982093633e-11
0
-6.78649519382e-08
0
0
-2.42724200228e-08
0
0
0
0
0
0
0
0
0
0
0
0
0
0
0
0
0
0
0
0
0
0
0
0
0
0
0
0
0
0
0
0
0
0
0
0
0
0
0
0
0
0
0
0
0
0
0
0
0
0
0
0
0
0
0
0
0
0
0
0
0
0
0
0
0
0
0
0
0
0
0
0
0
0
0
0
0
0
0
0
0
0
0
0
0
0
0
0
0
0
0
0
0
0
0
0
0
0
0
0
0
0
0
0
0
0
0
0
0
0
0
0
0
0
0
0
0
0
0
0
0
0
0
0
0
0
0
0
0
0
0
0
0
0
0
0
0
0
0
0
0
0
0
0
0
0
0
0
0
0
0
0
0
0
0
0
0
0
0
0
0
0
0
0
0
0
0
0
0
0
0
0
0
0
0
0
0
0
0
0
0
0
0
0
0
0
0
0
0
0
0
0
0
0
0
0
0
0
0
0
0
0
0
0
0
0
0
0
0
0
0
0
0
0
0
0
0
0
0
0
0
0
0
0
0
0
0
0
0
0
0
0
0
0
0
0
0
0
0
0
0
0
0
0
0
0
0
0
0
0
0
0
0
0
0
0
0
0
0
0
0
0
0
0
0
0
0
0
0
0
0
0
0
0
0
0
0
0
0
0
0
0
0
0
0
0
0
0
0
0
0
0
0
0
0
0
0
0
0
0
0
0
0
0
0
0
0
0
0
0
0
0
0
0
0
0
0
0
0
0
0
0
0
0
0
0
0
0
0
0
0
0
0
0
0
0
0
0
0
0
0
0
0
0
0
0
0
0
0
0
0
0
0
0
0
0
0
0
0
0
0
0
0
0
0
0
0
0
0
0
0
0
0
0
0
0
0
0
0
0
0
0
0
0
0
0
0
0
0
0
0
0
0
0
0
0
0
0
0
0
0
0
0
0
0
0
0
0
0
0
0
0
0
0
0
0
0
0
0
0
0
0
0
0
0
3.34958330316e-10
1.06344530267e-09
-4.50216285111e-08
1.06764691849e-09
4.5302061197e-09
-1.86988815154e-07
1.41488603685e-09
8.17776990382e-09
-3.29132247201e-07
1.4148788909e-09
9.51331962473e-09
-3.74258690045e-07
1.41487174056e-09
9.71583239742e-09
-3.74131726735e-07
1.41486449666e-09
9.91834498418e-09
-3.74004763186e-07
1.41485722294e-09
1.0120857312e-08
-3.73877799415e-07
1.06762201495e-09
9.04087824466e-09
-3.2856220334e-07
3.34954987909e-10
5.17851666277e-09
-1.86540639889e-07
0
1.25448300054e-09
-4.48923799116e-08
0
0
0
0
0
0
0
0
0
0
0
0
0
0
0
0
0
0
0
0
0
0
0
0
0
0
7.18480390451e-10
2.39615961298e-09
-1.03078303918e-07
2.95459252492e-09
1.12784938919e-08
-5.11533120351e-07
5.77143226378e-09
2.51754715199e-08
-1.15551425989e-06
7.05564211313e-09
3.62043968525e-08
-1.63470656449e-06
7.05552696405e-09
4.02623301199e-08
-1.77504720147e-06
7.05541186276e-09
4.11164121591e-08
-1.77448277128e-06
7.05529651808e-09
4.19704910933e-08
-1.77391833832e-06
7.05518139745e-09
4.28245670632e-08
-1.7733539025e-06
5.77092843114e-09
4.00581564609e-08
-1.63184363074e-06
2.95436463934e-09
2.89233720735e-08
-1.15247726243e-06
7.1845854832e-10
1.34283204442e-08
-5.09863238494e-07
0
2.94667035135e-09
-1.02703105533e-07
0
0
0
0
0
0
0
0
0
0
0
0
0
0
0
0
0
0
0
0
2.87190953326e-10
1.01567945739e-09
-4.48127216842e-08
3.15548416524e-09
9.66049558214e-09
-5.10428360682e-07
8.89576018151e-09
3.11734838328e-08
-1.63156387294e-06
1.48015128665e-08
5.93470301646e-08
-2.93124695556e-06
1.73047590087e-08
8.01757928417e-08
-3.76126004424e-06
1.73043143774e-08
8.76209186551e-08
-3.99121094818e-06
1.73038698858e-08
8.94651286244e-08
-3.98996167316e-06
1.73034252632e-08
9.13093285225e-08
-3.98871239076e-06
1.73029807821e-08
9.31535183636e-08
-3.98746310095e-06
1.47993980286e-08
8.86729513624e-08
-3.75440702916e-06
8.89447138013e-09
6.81861454187e-08
-2.92283237617e-06
3.15518417836e-09
3.71956779154e-08
-1.62561757083e-06
2.87185988941e-10
1.19356684549e-08
-5.08389873115e-07
0
1.30224947228e-09
-4.4620900364e-08
0
0
0
0
0
0
0
0
0
0
0
0
0
0
0
0
0
1.13170305267e-09
3.22710027264e-09
-1.85777054131e-07
6.5031328943e-09
1.86313320373e-08
-1.15018972606e-06
1.55933951542e-08
5.1351664574e-08
-2.92378591635e-06
2.41898651494e-08
9.11361506964e-08
-4.70760828928e-06
2.76617655725e-08
1.19107482988e-07
-5.79158266907e-06
2.76609451619e-08
1.29114667551e-07
-6.08560662934e-06
2.76601248747e-08
1.31823400831e-07
-6.08364003299e-06
2.76593044981e-08
1.34532116231e-07
-6.08167342798e-06
2.76584841155e-08
1.37240813722e-07
-6.0797068143e-06
2.41858046305e-08
1.31708180095e-07
-5.78041736449e-06
1.55905433357e-08
1.04711615824e-07
-4.69302017939e-06
6.50221500518e-09
6.12882060643e-08
-2.91216431167e-06
1.13164810431e-09
2.30754210736e-08
-1.14514958503e-06
0
4.13786708869e-09
-1.84957552267e-07
0
0
0
0
0
0
0
0
0
0
0
0
0
0
0
0
0
1.87101220637e-09
4.2704418088e-09
-3.26323640527e-07
8.51105628475e-09
2.26998985045e-08
-1.62299929748e-06
1.91722667821e-08
5.9839898898e-08
-3.74151287977e-06
2.87825081754e-08
1.0386677208e-07
-5.77544982815e-06
3.26019591714e-08
1.34442779994e-07
-6.9887510959e-06
3.26010225615e-08
1.45399084142e-07
-7.31499485818e-06
3.26000859026e-08
1.48446756431e-07
-7.31248163634e-06
3.25991492522e-08
1.51494407438e-07
-7.30996841065e-06
3.25982125492e-08
1.54542037128e-07
-7.30745518111e-06
2.87778014078e-08
1.48659227426e-07
-6.9744703064e-06
1.91687794533e-08
1.19339675082e-07
-5.75653022555e-06
8.50978154418e-09
7.14246704577e-08
-3.72580423946e-06
1.87090666138e-09
2.81252899946e-08
-1.61547534537e-06
0
5.47582145414e-09
-3.24833063966e-07
0
0
0
0
0
0
0
0
0
0
0
0
0
0
0
0
0
1.94787554716e-09
4.27044732137e-09
-3.70217290631e-07
8.46992107593e-09
2.27000102703e-08
-1.75795416431e-06
1.87776278875e-08
5.98404539353e-08
-3.96000393787e-06
2.79873817357e-08
1.03868080981e-07
-6.05270414785e-06
3.16368308753e-08
1.3444473565e-07
-7.29577462465e-06
3.16359389072e-08
1.45401253665e-07
-7.62931954476e-06
3.16350469245e-08
1.48448903458e-07
-7.62660286723e-06
3.16341549491e-08
1.51496532022e-07
-7.6238861897e-06
3.16332628805e-08
1.54544139168e-07
-7.62116951219e-06
2.79828854501e-08
1.48661196996e-07
-7.28051544274e-06
1.87742606675e-08
1.19341132261e-07
-6.03260385092e-06
8.46865988737e-09
7.14253584675e-08
-3.9431962249e-06
1.94776737415e-09
2.81254476022e-08
-1.74970604867e-06
0
5.47583034291e-09
-3.68505106085e-07
0
0
0
0
0
0
0
0
0
0
0
0
0
0
0
0
0
1.74529999551e-09
4.27045277218e-09
-3.69213796963e-07
7.61495868983e-09
2.27001219177e-08
-1.75315034385e-06
1.69304731364e-08
5.98410089691e-08
-3.94915755728e-06
2.52733947893e-08
1.03869389933e-07
-6.03617523569e-06
2.85828929222e-08
1.34446691385e-07
-7.27598203619e-06
2.85820115684e-08
1.45403423256e-07
-7.60869989339e-06
2.85811302025e-08
1.48451050532e-07
-7.60598321588e-06
2.85802487891e-08
1.51498656502e-07
-7.60326653835e-06
2.85793675156e-08
1.54546241195e-07
-7.60054986087e-06
2.52689522094e-08
1.48663166609e-07
-7.26089184165e-06
1.69271459632e-08
1.19342589386e-07
-6.01645249378e-06
7.6137125238e-09
7.1426046423e-08
-3.93267129462e-06
1.74519312367e-09
2.81256051495e-08
-1.74502468441e-06
0
5.47583916714e-09
-3.67510996354e-07
0
0
0
0
0
0
0
0
0
0
0
0
0
0
0
0
0
1.54272486166e-09
4.27045824024e-09
-3.68210303723e-07
6.7600026469e-09
2.270023367e-08
-1.74834652934e-06
1.50833395999e-08
5.98415640317e-08
-3.93831119228e-06
2.25594457289e-08
1.03870698775e-07
-6.01964634181e-06
2.55289999528e-08
1.34448647147e-07
-7.25618945597e-06
2.55281292176e-08
1.45405592827e-07
-7.58808024205e-06
2.55272585381e-08
1.48453197666e-07
-7.58536356455e-06
2.55263877999e-08
1.51500781184e-07
-7.58264688705e-06
2.55255171654e-08
1.54548343249e-07
-7.57993020952e-06
2.25550567519e-08
1.48665136225e-07
-7.2412682324e-06
1.5080052756e-08
1.19344046626e-07
-6.00030111826e-06
6.75877149854e-09
7.1426734454e-08
-3.92214634872e-06
1.54261928542e-09
2.8125762695e-08
-1.74034331421e-06
0
5.47584808173e-09
-3.66516886168e-07
0
0
0
0
0
0
0
0
0
0
0
0
0
0
0
0
0
1.34015022017e-09
4.27046370489e-09
-3.67206810985e-07
5.9050529672e-09
2.27003453057e-08
-1.74354272076e-06
1.32362273083e-08
5.98421191124e-08
-3.92746484287e-06
1.98455344388e-08
1.03872007703e-07
-6.00311746628e-06
2.24751519304e-08
1.34450602851e-07
-7.23639688391e-06
2.24742918907e-08
1.4540776242e-07
-7.56746059072e-06
2.24734318495e-08
1.48455344584e-07
-7.56474391323e-06
2.24725717573e-08
1.51502905553e-07
-7.56202723573e-06
2.24717116357e-08
1.54550445207e-07
-7.55931055821e-06
1.98411991465e-08
1.48667105791e-07
-7.22164461492e-06
1.32329807274e-08
1.19345503818e-07
-5.98414972444e-06
5.90383693305e-09
7.14274223697e-08
-3.91162138721e-06
1.34004589356e-09
2.81259202274e-08
-1.73566193805e-06
0
5.47585696547e-09
-3.65522775477e-07
0
0
0
0
0
0
0
0
0
0
0
0
0
0
0
0
0
1.00763791524e-09
3.22711917591e-09
-3.21983809033e-07
4.65330543087e-09
1.86318106373e-08
-1.60061513059e-06
1.06614419987e-08
5.13542857857e-08
-3.68862887489e-06
1.61573434994e-08
9.11426069941e-08
-5.69275815916e-06
1.83565371248e-08
1.1911729938e-07
-6.88840602611e-06
1.83558636836e-08
1.29125603276e-07
-7.20995790186e-06
1.83551901829e-08
1.3183422308e-07
-7.20727799087e-06
1.83545167265e-08
1.34542825053e-07
-7.20459808377e-06
1.83538432409e-08
1.37251409068e-07
-7.2019181805e-06
1.61539665771e-08
1.3171807064e-07
-6.87413577628e-06
1.06589612679e-08
1.04718815459e-07
-5.67477717537e-06
4.65242326504e-09
6.12914681524e-08
-3.67385378134e-06
1.00757829913e-09
2.30761048607e-08
-1.59344812648e-06
0
4.13789768122e-09
-3.20512662083e-07
0
0
0
0
0
0
0
0
0
0
0
0
0
0
0
0
0
4.8324603252e-10
1.01568203622e-09
-1.82472137379e-07
2.75193334928e-09
9.66069180127e-09
-1.12812642796e-06
6.74136432301e-09
3.11750325672e-08
-2.86485088943e-06
1.05901305514e-08
5.93515022476e-08
-4.60984523442e-06
1.21599980014e-08
8.01830334861e-08
-5.66978664202e-06
1.21596834115e-08
8.762910836e-08
-5.95713096801e-06
1.21593687241e-08
8.94732333447e-08
-5.95479195234e-06
1.21590540436e-08
9.13173482804e-08
-5.95245294539e-06
1.21587394365e-08
9.31614530973e-08
-5.95011394707e-06
1.05885874077e-08
8.86802601445e-08
-5.65771691308e-06
6.74032089214e-09
6.81911659724e-08
-4.59528045789e-06
2.75163925941e-09
3.71976389392e-08
-2.85354370102e-06
4.83243267745e-10
1.19359667203e-08
-1.12320590537e-06
0
1.30225363275e-09
-1.81649717311e-07
0
0
0
0
0
0
0
0
0
0
0
0
0
0
0
0
0
9.61393364817e-11
0
-4.38440938349e-08
1.00454652711e-09
2.39617601238e-09
-4.98372058843e-07
2.86732335244e-09
1.12788056904e-08
-1.59052286822e-06
4.85142009015e-09
2.51768458945e-08
-2.85447816636e-06
5.70330232721e-09
3.62070061712e-08
-3.66093902431e-06
5.70323646763e-09
4.02653980999e-08
-3.88414658032e-06
5.70317048712e-09
4.11194481441e-08
-3.88258022904e-06
5.70310459882e-09
4.19734954089e-08
-3.88101388517e-06
5.70303867405e-09
4.28275394773e-08
-3.87944754867e-06
4.85111878366e-09
4.00608059557e-08
-3.65317901948e-06
2.86717056119e-09
2.8924950883e-08
-2.84578147944e-06
1.00454177089e-09
1.34287497108e-08
-1.58458576948e-06
9.61401644651e-11
2.94669760734e-09
-4.96341179345e-07
0
0
-4.36515784352e-08
0
0
0
0
0
0
0
0
0
0
0
0
0
0
0
0
0
0
0
0
1.67887416232e-10
0
-1.00279444352e-07
6.7832404252e-10
1.06344903663e-09
-4.96904357088e-07
1.32406123108e-09
4.53026532721e-09
-1.12091213138e-06
1.62585459409e-09
8.17796537785e-09
-1.58459569071e-06
1.62585903877e-09
9.51358264091e-09
-1.720255549e-06
1.62586343202e-09
9.71609276162e-09
-1.71957032955e-06
1.62586780386e-09
9.91860255428e-09
-1.71888511291e-06
1.62587217312e-09
1.01211122028e-08
-1.71819989909e-06
1.32408674891e-09
9.04108555456e-09
-1.58138526211e-06
6.78348287835e-10
5.17859802152e-09
-1.11776509179e-06
1.67891198308e-10
1.25448926797e-09
-4.95230382706e-07
0
0
-9.99043751439e-08
0
0
0
0
0
0
0
0
0
0
0
0
0
0
0
0
0
0
0
0
0
0
0
0
0
0
4.83710187216e-11
0
-4.3571893348e-08
1.56714475391e-10
0
-1.80885824083e-07
2.09230410287e-10
0
-3.18273487751e-07
2.09231701642e-10
0
-3.61861708193e-07
2.09232964565e-10
0
-3.61725488743e-07
2.09234269188e-10
0
-3.61589269464e-07
2.0923551664e-10
0
-3.61453050407e-07
1.5671888062e-10
0
-3.17684707649e-07
4.83715474552e-11
0
-1.80441050612e-07
0
0
-4.34433878765e-08
0
0
0
0
0
0
0
0
0
0
0
0
0
0
0
0
0
0
0
0
0
0
0
0
0
0
0
0
0
0
0
0
0
0
0
0
0
0
0
0
0
0
0
0
0
0
0
0
0
0
0
0
0
0
0
0
0
0
0
0
0
0
0
0
0
0
0
0
0
0
0
0
0
0
0
0
0
0
0
0
0
0
0
0
0
0
0
0
0
0
0
0
0
0
0
0
0
0
0
0
0
0
0
0
0
0
0
0
0
0
0
0
0
0
0
0
0
0
0
0
0
0
0
0
0
0
0
0
0
0
0
0
0
0
0
0
0
0
0
0
0
0
0
0
0
0
0
0
0
0
0
0
0
0
0
0
0
0
0
0
0
0
0
0
0
0
0
0
0
0
0
0
0
0
0
0
0
0
0
0
0
0
0
0
0
0
0
0
0
0
0
0
0
0
0
0
0
0
0
0
0
0
0
0
0
0
0
0
0
0
0
0
0
0
0
0
0
0
0
0
0
0
0
0
0
0
0
0
0
0
0
0
0
0
0
0
0
0
0
0
0
0
0
0
0
0
0
0
0
0
0
0
0
0
0
0
0
0
0
0
0
0
0
0
0
0
0
0
0
0
0
0
0
0
0
0
0
0
0
0
0
0
0
0
0
0
0
0
0
0
0
0
0
0
0
0
0
0
0
0
0
0
0
0
3.42965393518e-10
9.42904344104e-10
-4.51413180406e-08
1.09314195617e-09
4.02514530811e-09
-1.87481698641e-07
1.44865692811e-09
7.28178717681e-09
-3.29992757758e-07
1.44864965878e-09
8.49155594586e-09
-3.75234528354e-07
1.44864246572e-09
8.6940693452e-09
-3.75107565639e-07
1.44863519098e-09
8.89658255402e-09
-3.74980602699e-07
1.44862790895e-09
9.09909552557e-09
-3.7485363955e-07
1.09311684894e-09
8.14491407417e-09
-3.29422200838e-07
3.42961943312e-10
4.67347664925e-09
-1.87032897129e-07
0
1.13394436914e-09
-4.5011999396e-08
0
0
0
0
0
0
0
0
0
0
0
0
0
0
0
0
0
0
0
0
0
0
0
1.92603687645e-11
5.41136204348e-11
-2.7322571245e-09
1.3481742209e-09
3.91875114672e-09
-1.90073643539e-07
4.56040368075e-09
1.63252975561e-08
-7.50984170819e-07
8.42335811521e-09
3.47157309029e-08
-1.51271712403e-06
1.00912956948e-08
4.90764354383e-08
-2.054962475e-06
1.0091086738e-08
5.42953584125e-08
-2.21146091279e-06
1.00908777822e-08
5.55689823838e-08
-2.2107911968e-06
1.00906688017e-08
5.68426014446e-08
-2.21012147585e-06
1.00904597863e-08
5.81162155217e-08
-2.20945174994e-06
8.42241333788e-09
5.48755283897e-08
-2.05144671241e-06
4.55992246718e-09
4.04783526162e-08
-1.50872800173e-06
1.34810190368e-09
1.98385048683e-08
-7.48473421899e-07
1.92604111262e-11
4.94076058595e-09
-1.8936333943e-07
0
7.14350778758e-11
-2.72073275769e-09
0
0
0
0
0
0
0
0
0
0
0
0
0
0
0
0
0
1.26733854635e-09
3.76335609428e-09
-1.8963653383e-07
7.1047771289e-09
2.14005781179e-08
-1.07829283697e-06
1.68943230026e-08
5.72150299947e-08
-2.7084365392e-06
2.60300413972e-08
9.88772923151e-08
-4.3878255302e-06
2.96983504833e-08
1.27600759309e-07
-5.41753472563e-06
2.96973159558e-08
1.38112629109e-07
-5.69803119609e-06
2.96962815514e-08
1.41325189282e-07
-5.69641048515e-06
2.96952471316e-08
1.445377295e-07
-5.69478975647e-06
2.9694212663e-08
1.47750249864e-07
-5.69316901e-06
2.60249093147e-08
1.42611210033e-07
-5.40803516677e-06
1.68906853854e-08
1.15303417959e-07
-4.37509667817e-06
7.10357058406e-09
6.95934113771e-08
-2.69816966491e-06
1.26725171604e-09
2.71295902565e-08
-1.07369243758e-06
0
4.96876929762e-09
-1.88799770942e-07
0
0
0
0
0
0
0
0
0
0
0
0
0
0
2.71314309377e-10
8.71255588349e-10
-4.48279577803e-08
4.89929678273e-09
1.25937289055e-08
-7.47672726137e-07
1.75370136254e-08
5.01365517091e-08
-2.7017912404e-06
3.45339873185e-08
1.10961631523e-07
-5.40629625017e-06
4.86812620375e-08
1.73914602928e-07
-7.86446497376e-06
5.41289012124e-08
2.15657579824e-07
-9.29628646348e-06
5.41266146861e-08
2.31212074754e-07
-9.67705466927e-06
5.41243282321e-08
2.365749178e-07
-9.67427673904e-06
5.412204172e-08
2.41937718919e-07
-9.67149877946e-06
5.41197553262e-08
2.47300478054e-07
-9.6687207905e-06
4.86694287949e-08
2.40996972481e-07
-9.27899953164e-06
3.45242607728e-08
2.02834723141e-07
-7.83937442312e-06
1.75324327809e-08
1.35035466418e-07
-5.38337906715e-06
4.89851472862e-09
6.36237554203e-08
-2.68874626713e-06
2.7130848512e-10
1.66479779973e-08
-7.44037291261e-07
0
1.20559408238e-09
-4.46047801566e-08
0
0
0
0
0
0
0
0
0
0
0
1.06521828436e-09
2.7680561265e-09
-1.85837239531e-07
9.51844671211e-09
2.30843025329e-08
-1.50218706487e-06
2.76966183805e-08
7.6562456858e-08
-4.36513931125e-06
4.94891475046e-08
1.55003032403e-07
-7.84254355617e-06
6.67894227274e-08
2.32556768093e-07
-1.08421417937e-05
7.33159060691e-08
2.83108087491e-07
-1.25452433425e-05
7.33127220228e-08
3.02174866639e-07
-1.2991922981e-05
7.33095380293e-08
3.09176038777e-07
-1.29879308077e-05
7.33063539221e-08
3.16177149672e-07
-1.29839386065e-05
7.3303169949e-08
3.23178199341e-07
-1.29799463773e-05
6.67725977982e-08
3.16362597786e-07
-1.25200829254e-05
4.9474311952e-08
2.71254806438e-07
-1.08045943359e-05
2.76884434113e-08
1.88681266702e-07
-7.80628077441e-06
9.51639375038e-09
9.72114043713e-08
-4.34202804058e-06
1.06515385981e-09
3.05431424703e-08
-1.49415364776e-06
0
3.83068455914e-09
-1.84889460978e-07
0
0
0
0
0
0
0
0
0
0
0
1.75310015884e-09
3.66288360209e-09
-3.26433196499e-07
1.21467826164e-08
2.75806560923e-08
-2.03533301874e-06
3.22878852342e-08
8.70963401635e-08
-5.37441751834e-06
5.54687364788e-08
1.7184036196e-07
-9.24320630348e-06
7.35091141042e-08
2.54529443237e-07
-1.25077084289e-05
8.02493582998e-08
3.08142635841e-07
-1.43392848378e-05
8.02461894985e-08
3.28448255061e-07
-1.48161636656e-05
8.02430206272e-08
3.36055720659e-07
-1.48111512322e-05
8.02398517601e-08
3.43663117439e-07
-1.48061387875e-05
8.02366829919e-08
3.51270445479e-07
-1.48011263313e-05
7.34922215766e-08
3.44335057522e-07
-1.43082840336e-05
5.54534056434e-08
2.96893677672e-07
-1.24616584e-05
3.22789031038e-08
2.09194319155e-07
-9.19795609968e-06
1.21441809063e-08
1.10604667181e-07
-5.34432200501e-06
1.75297683828e-09
3.65014919467e-08
-2.02381025018e-06
0
5.06927572614e-09
-3.24717023175e-07
0
0
0
0
0
0
0
0
0
0
0
1.81341447595e-09
3.6628891883e-09
-3.70346015017e-07
1.1929327431e-08
2.75808166597e-08
-2.18484239759e-06
3.10869365156e-08
8.70973016782e-08
-5.63776838729e-06
5.29717372275e-08
1.71843036417e-07
-9.59567251948e-06
6.99374648585e-08