/*--------------------------------*- C++ -*----------------------------------*\
| =========                 |                                                 |
| \\      /  F ield         | OpenFOAM: The Open Source CFD Toolbox           |
|  \\    /   O peration     | Version:  3.0.1                                 |
|   \\  /    A nd           | Web:      www.OpenFOAM.org                      |
|    \\/     M anipulation  |                                                 |
\*---------------------------------------------------------------------------*/
FoamFile
{
    version     2.0;
    format      ascii;
    class       surfaceVectorField;
    location    "4.8";
    object      Uf_0;
}
// * * * * * * * * * * * * * * * * * * * * * * * * * * * * * * * * * * * * * //

dimensions      [0 1 -1 0 0 0 0];

internalField   nonuniform List<vector> 
22672
(
(0.000270662585894 7.85126938956e-06 -0.000202433971626)
(-1.18045823037e-06 0.000280301885457 -0.000198545461171)
(0.000186583656898 0.000199540569009 -0.00055094484422)
(0.000824454898228 -0.000119940329373 -0.000212155213249)
(0.00041294734998 0.000120512496921 -0.000511382052422)
(0.00068390375238 0.000163919999732 -0.000674282813095)
(0.00142649986996 -0.000179512168895 -0.000152002344578)
(0.00118234511172 6.0472518049e-05 -0.000595787293423)
(0.00136208319087 0.000164825355466 -0.000662494768907)
(0.00189477357637 -0.000182626202574 -5.44950735064e-05)
(0.00180563532296 7.05275396922e-05 -0.00053944003303)
(0.00189938539675 0.000194504503178 -0.000538778516678)
(0.00212133833904 -0.000138055717689 4.78198855054e-05)
(0.00221526160751 0.000146877124042 -0.000433976488231)
(0.00223194069311 0.000248847786064 -0.000373419590021)
(0.00206270457206 -7.26898009577e-05 0.00013695844259)
(0.00231154227325 0.000260207364307 -0.000311457938315)
(0.00227754106106 0.000312773807972 -0.0002015520714)
(0.00174619989936 -6.73544396525e-06 0.000205545742835)
(0.00210733689249 0.00036951812705 -0.00020127565944)
(0.00204702200814 0.000367005248724 -5.29929765207e-05)
(0.00121117518842 4.82548849336e-05 0.000251088204225)
(0.00163494281441 0.000461891227512 -0.000107372322278)
(0.00156986798546 0.000409405263691 7.31526712884e-05)
(0.000535958673609 8.21401393519e-05 0.00027120712)
(0.00096615622624 0.000521768433149 -4.62761529177e-05)
(0.000915351130006 0.000434505383622 0.000153465770962)
(-0.000192110421501 9.07687501103e-05 0.000270849399458)
(0.000193232983438 0.00054606636352 -2.12529407744e-05)
(0.000168121679372 0.000442967078392 0.000182018777812)
(-0.000890339439011 7.35247596487e-05 0.000253590791183)
(-0.000590584393375 0.000534828956298 -3.0540524094e-05)
(-0.000586581482576 0.000435691181505 0.000163414412168)
(-0.00148310185821 3.42072847052e-05 0.000219676370051)
(-0.00129733967604 0.000490148858126 -7.07925905724e-05)
(-0.00126840850362 0.000413365092877 0.000102626268713)
(-0.00189938484065 -2.15750889716e-05 0.000166271413415)
(-0.00185026923484 0.000416761774038 -0.000137959496962)
(-0.00180846979323 0.000377573474937 -4.6759419776e-07)
(-0.00210342945481 -8.32761838101e-05 9.75804727355e-05)
(-0.00218733568924 0.000320215299432 -0.000227155054184)
(-0.00214896685344 0.000329901937083 -0.000116160838307)
(-0.00206983398324 -0.000139098859571 1.65611548882e-05)
(-0.00227844099139 0.000217651233115 -0.000323774957659)
(-0.00225985516885 0.000276300900238 -0.000251238085063)
(-0.001793988984 -0.000172206881149 -7.24183739511e-05)
(-0.00210111285418 0.000121845069227 -0.000425503066742)
(-0.0021254923276 0.000219727838142 -0.00039768263061)
(-0.00132614013895 -0.000161971597359 -0.000155156623042)
(-0.00167437162938 6.44022977954e-05 -0.00051032704481)
(-0.00176394806373 0.000176003661177 -0.000532244896923)
(-0.000761827629586 -0.000104503414427 -0.000204487748344)
(-0.0010832382693 6.50738378015e-05 -0.000552503310718)
(-0.00124724388781 0.000154127687856 -0.000629381202193)
(-0.000253245024942 8.41323082306e-06 -0.000191673904612)
(-0.000384837821206 0.000121957143882 -0.000473288994737)
(-0.00062851875818 0.000152653282304 -0.000630535350479)
(-4.18336224852e-06 0.000259399599618 -0.000190803960853)
(-0.000172567743247 0.000177615337733 -0.000512642078088)
(0.000120141526795 0.000413787004171 -0.000507493541967)
(-0.000126461007302 0.000823651487251 -0.000203770322288)
(0.000162247661737 0.000691682611211 -0.000663469152377)
(0.000790911565824 0.000318835375868 -0.000895014132596)
(0.000328853431626 0.000771418432687 -0.000897749496984)
(0.00069193453759 0.000678009196123 -0.00132165188605)
(0.00155807880636 0.000327496016536 -0.000983224981875)
(0.00127206693465 0.000805366991288 -0.00112391720693)
(0.00146551842427 0.000725910907174 -0.00151203703472)
(0.00214122212956 0.000422647984706 -0.000918921447754)
(0.00200994054257 0.000928236380421 -0.00108609597149)
(0.00206034219651 0.000835259743127 -0.00144082759023)
(0.00242181536003 0.000576748056611 -0.000793254312051)
(0.00247906619667 0.00112345344639 -0.000949569153192)
(0.00241582256356 0.000986504780379 -0.00125714552822)
(0.00236596328739 0.00074194924336 -0.000649692040345)
(0.00258716965568 0.0013442653557 -0.000774911169362)
(0.00246306275589 0.00114617162556 -0.00102818279446)
(0.00200278164885 0.000883609569399 -0.000514193724553)
(0.00235017520687 0.00153613557226 -0.000606232315352)
(0.00221008705717 0.00127943433601 -0.000803413886707)
(0.00139225335672 0.000984900366286 -0.000404736679421)
(0.00181741045531 0.00168309078691 -0.000460175810091)
(0.00169571657836 0.00137655396399 -0.000610650824913)
(0.000623088113566 0.00103710899715 -0.000338736213692)
(0.00107124313962 0.0017688940599 -0.000358814070229)
(0.000991977226327 0.00143030931478 -0.000477941647904)
(-0.000205791186122 0.00104162002092 -0.000322642864327)
(0.000214778261085 0.00179471597847 -0.000313407828967)
(0.00018931214391 0.0014446009297 -0.000419753429879)
(-0.000998980931237 0.00100133803304 -0.00035492390585)
(-0.000650890386409 0.0017657506262 -0.000325126710645)
(-0.000621022316346 0.00142437271684 -0.000437716914941)
(-0.00167008554592 0.000919276369484 -0.000428428457585)
(-0.00143076801119 0.00168592350534 -0.000388619259859)
(-0.00135285440445 0.00137172711397 -0.000524656801843)
(-0.00214575437917 0.000800316023394 -0.00053138596456)
(-0.00204245241198 0.00155907522942 -0.000493134525028)
(-0.00193198765149 0.00128703348418 -0.00066663299284)
(-0.0023745959106 0.000656809128897 -0.000648510484579)
(-0.00241843517236 0.00139354293204 -0.000625092818727)
(-0.00229862092749 0.00117239722284 -0.000844475886013)
(-0.00232616257638 0.000506696017926 -0.00076583917929)
(-0.0025207873075 0.00120450839162 -0.000767282163227)
(-0.00241951719987 0.00103693919444 -0.0010352815661)
(-0.00199650287856 0.000378829609067 -0.000863411737602)
(-0.00232156988718 0.00100961970948 -0.000905283301081)
(-0.00227780024251 0.000891814322175 -0.00121742666617)
(-0.00142786916691 0.000307762466576 -0.000907673732487)
(-0.00183699235892 0.000850220763701 -0.00100737171142)
(-0.00189196232459 0.000764065928065 -0.00135444577762)
(-0.00072348646716 0.000309081334194 -0.000821304557111)
(-0.00114825088742 0.000756411410065 -0.00102614595785)
(-0.00132606495151 0.000675250223802 -0.00139571506828)
(-0.000117584847991 0.00039258805886 -0.000472419050978)
(-0.00030503473398 0.000732520659886 -0.000820421370848)
(-0.000628592201262 0.000633962232857 -0.00121646082741)
(0.000105947190075 0.000771037152717 -0.000202167096324)
(-0.000151660656363 0.000635919297221 -0.000629220005017)
(6.38315280278e-05 0.00116153605821 -0.000594026277304)
(-0.000187189044665 0.00141446176621 -0.00014461381986)
(0.000168956044454 0.00135014170284 -0.000654619171898)
(0.000834693678946 0.00123375657113 -0.00112665257132)
(0.000341675840118 0.00152194132319 -0.000996493089005)
(0.000750817532656 0.00143110197857 -0.00152136044528)
(0.00171462842522 0.00137931796135 -0.00122678819654)
(0.00142610247204 0.00166623608123 -0.00123631745098)
(0.00160410892545 0.00155898538337 -0.0017407787497)
(0.00236445739994 0.00160007734572 -0.00111674367693)
(0.00224820218135 0.00189342745696 -0.00114013070656)
(0.00223373772822 0.00175372001588 -0.00161499514354)
(0.00266154780191 0.00185979674686 -0.000931226010502)
(0.00274575437194 0.00217818351138 -0.000928109007688)
(0.00259030628457 0.00198799447639 -0.001351796172)
(0.00258348073235 0.00210506024247 -0.000731451444368)
(0.00283609995014 0.0024678900188 -0.000685074294324)
(0.00261663824624 0.00222044648994 -0.00104553426902)
(0.00217116247732 0.00229982484063 -0.00055221440089)
(0.00254928438349 0.00270634291603 -0.000463999440581)
(0.0023277729884 0.00241072162863 -0.000757867061853)
(0.001498643422 0.00242919207521 -0.000414253200899)
(0.00195092015021 0.00287907234947 -0.000287008130222)
(0.00177326693796 0.00254588134363 -0.000523442078833)
(0.000663131480575 0.00248767740108 -0.000333485685505)
(0.00113544184924 0.00297236164099 -0.000169767710718)
(0.0010297274702 0.00261919749675 -0.000367937053556)
(-0.000231019436139 0.00248023491584 -0.000315891675286)
(0.000213404396091 0.00299232700726 -0.000121494257555)
(0.000189625306665 0.00263489407355 -0.000303443503573)
(-0.00108426423769 0.00241296856977 -0.000358822064654)
(-0.000712611708985 0.00294738475972 -0.000140641645877)
(-0.000655325135998 0.00259970613319 -0.000328374692819)
(-0.00180722592403 0.00229066441495 -0.000453325327301)
(-0.00154745653608 0.0028438107613 -0.000220246102579)
(-0.00141888613098 0.00251796155044 -0.000434912754668)
(-0.0023239206198 0.00211990260353 -0.000586841379196)
(-0.00220711114748 0.00268467960987 -0.000348488731681)
(-0.00202684479909 0.002392101053 -0.000608898468202)
(-0.00257846989665 0.00191118408125 -0.000743864497376)
(-0.00262180262259 0.00247958645117 -0.000517270735048)
(-0.00241929616626 0.00222578706905 -0.000831484404323)
(-0.0025333929688 0.00167959902904 -0.000906726285018)
(-0.00274693010606 0.00223818653351 -0.000706932107625)
(-0.00255916730966 0.00202796251332 -0.00107874647321)
(-0.00217857363326 0.00145524903406 -0.0010492432749)
(-0.00254616864175 0.00197768987848 -0.000900048290485)
(-0.00242531546541 0.00181265055918 -0.00132288211927)
(-0.00154886914124 0.00127495477959 -0.00112584393678)
(-0.00202687535647 0.00174016117034 -0.00105955050913)
(-0.00203099900452 0.00161053459652 -0.00151963875114)
(-0.000750397044629 0.00115806596212 -0.00102526277158)
(-0.00126518915378 0.00155719586463 -0.00112175298425)
(-0.00143345164005 0.00144790512726 -0.00159925157868)
(-6.450107961e-05 0.00109299868354 -0.000550169416195)
(-0.000307537637009 0.0014379511973 -0.000902472519031)
(-0.00067142958102 0.00133792658879 -0.00139132244261)
(0.000159803958485 0.00133220066126 -0.000150852105066)
(-0.000156390334126 0.00125439337644 -0.000625662397669)
(7.29736791505e-05 0.00177811652779 -0.000547080631561)
(-0.000193909470348 0.00188412741867 -5.14898127835e-05)
(0.000200533841549 0.00188284815254 -0.000542616809909)
(0.000960409553559 0.00196353198678 -0.00110615796867)
(0.000436220910728 0.0021071533018 -0.000949596994033)
(0.000864559992506 0.00202422659428 -0.00147262351537)
(0.00194663109206 0.00219317557759 -0.001149659961)
(0.00165017834913 0.00231998448924 -0.00114712437728)
(0.00180350493622 0.00218949056577 -0.00163994520665)
(0.00264776581792 0.00248523539864 -0.000951496037324)
(0.00254390486254 0.00259997103701 -0.000962778736003)
(0.00246955897638 0.00242219902216 -0.00140765381021)
(0.00293954933329 0.00279862605954 -0.00068195729151)
(0.0030514135633 0.00291887325646 -0.000658882518372)
(0.00281969695218 0.00269167178212 -0.0010324494389)
(0.0028159721805 0.00307943818271 -0.000417622290537)
(0.00310307036639 0.0032247722917 -0.000342034691877)
(0.0028094610979 0.00295310561039 -0.000633282343979)
(0.00233703126133 0.00329335793111 -0.000198793169913)
(0.00274938072727 0.00346750672391 -7.36750589569e-05)
(0.00246835900895 0.00316551143014 -0.000282201511043)
(0.00159032440129 0.00342807021579 -4.25226400405e-05)
(0.00207304540799 0.00363361072506 0.000128260949411)
(0.00185834091876 0.00331473362601 -7.81185870071e-06)
(0.000686506738973 0.00348211912134 4.22237172317e-05)
(0.00118407800949 0.00371756750231 0.000251873447975)
(0.00106460407182 0.00339356759232 0.000158629491271)
(-0.000269060901183 0.00346394458688 5.3755771853e-05)
(0.000198479132826 0.00372679986474 0.000295154885549)
(0.000182004485093 0.00340721134086 0.000221110395186)
(-0.00117733976437 0.00338246853787 -2.06568380264e-06)
(-0.000782506914828 0.00367246953074 0.000265137578046)
(-0.000699985787595 0.00336358472505 0.000183207681066)
(-0.00195246723002 0.00324338919056 -0.000115409506959)
(-0.00166786945116 0.00356331371679 0.000169778866071)
(-0.00149875502502 0.0032687161856 5.56362755978e-05)
(-0.00251464026721 0.00305168402335 -0.000278918087533)
(-0.00237636204117 0.00340280730854 1.8422699971e-05)
(-0.0021426499327 0.0031254779638 -0.000155944444502)
(-0.00280605092884 0.00281532603405 -0.000480338345297)
(-0.00283609097151 0.00319380041707 -0.000184042450684)
(-0.0025706134398 0.00293858047865 -0.000422794382216)
(-0.00277905912213 0.00254680561353 -0.000700254113091)
(-0.00299449275881 0.0029448003798 -0.000419695067433)
(-0.00274014134807 0.00271652540054 -0.000733597872566)
(-0.00241259259721 0.00227409846299 -0.000910355524722)
(-0.00280557753551 0.00266856238426 -0.000674312203283)
(-0.00262316364321 0.0024733402832 -0.0010573323595)
(-0.00173181294875 0.00203307235137 -0.00105545955661)
(-0.00226425572254 0.00240263744702 -0.000904706957053)
(-0.00222359641683 0.00224039197901 -0.0013432503949)
(-0.000844778178403 0.00184453542591 -0.000998962731696)
(-0.00143908136386 0.00217540590674 -0.00103428776893)
(-0.00159073437176 0.00204520266731 -0.0015052403751)
(-6.69691876179e-05 0.00167924504851 -0.000503155207902)
(-0.000378380431891 0.00199724544003 -0.000848732695764)
(-0.000758706601993 0.00190297887132 -0.00133709966721)
(0.000167058638175 0.0017868658489 -6.51277981681e-05)
(-0.000180012649523 0.00176341195852 -0.000521632526564)
(0.000146187179665 0.00219929230631 -0.000454006175256)
(-0.000153719994651 0.00213035080136 4.58882587766e-05)
(0.000255433506276 0.00222809798445 -0.000392388655353)
(0.00115542319165 0.00244816269792 -0.000990563402648)
(0.000588527260549 0.00241334869271 -0.000841916958832)
(0.00101793499121 0.00239836453752 -0.00131540783991)
(0.00223328114278 0.00270976484282 -0.000960243152287)
(0.00191274306598 0.0026473817527 -0.000982504179106)
(0.00204090853773 0.00256849891422 -0.00140523134561)
(0.00296758324722 0.00301482041709 -0.000670165217051)
(0.00286147040786 0.00292614568488 -0.00071338601504)
(0.0027414303576 0.00279744464929 -0.00106045320942)
(0.00323607713119 0.00332539686453 -0.000318959918739)
(0.00336393919571 0.00322556313944 -0.000326621271379)
(0.00307919429932 0.00305677744898 -0.000575160987171)
(0.00305256646396 0.00359279396972 1.91253970302e-06)
(0.00336303144051 0.00350095026144 4.92315491525e-05)
(0.00302384785933 0.00330508931681 -9.264567728e-05)
(0.00249433502664 0.00378742497038 0.000253379060367)
(0.00293445733631 0.00370984676913 0.000351594906591)
(0.00262261669558 0.00350434481154 0.000315911491199)
(0.00167027163571 0.00390228591509 0.000422657037427)
(0.00217741459939 0.00384606609021 0.00056796973223)
(0.00194930169369 0.00364166670814 0.000611626273258)
(0.000697611048757 0.00394042442844 0.000504804616292)
(0.00121776635626 0.00390596566442 0.000687992991274)
(0.00109917971336 0.00371089698317 0.000784278594951)
(-0.000315556097568 0.00391298944768 0.000506536691742)
(0.000175059769191 0.00390162026614 0.000720594873703)
(0.000169868590359 0.00371821719144 0.000838360767848)
(-0.00127463645576 0.00383083800068 0.000436982127919)
(-0.000852379948467 0.00384562302522 0.000679228824577)
(-0.000751590660241 0.00367217429531 0.000785938847656)
(-0.00209732484148 0.00369985860975 0.000303611073)
(-0.00178027349649 0.00374769602589 0.000572403973991)
(-0.00158760384344 0.00358007130759 0.000638316275688)
(-0.00270851132197 0.00352202276676 0.000113298336819)
(-0.00253349612401 0.00360908947728 0.000404467706016)
(-0.0022699114074 0.00344461172383 0.000404913045064)
(-0.00304208410594 0.00330116918991 -0.00012339917282)
(-0.00303867408128 0.00343042982724 0.000180477424335)
(-0.00273682844273 0.0032697302969 9.69509252218e-05)
(-0.00304261894705 0.00304541955746 -0.000393753157624)
(-0.00323573306418 0.00321577470592 -8.87009182343e-05)
(-0.00294110799058 0.00306191559453 -0.000270432946137)
(-0.00267711452344 0.00277729144755 -0.000668663635614)
(-0.00306857828727 0.00297030137248 -0.00039255267325)
(-0.00284643357475 0.00283320579285 -0.000667237846646)
(-0.00195943120396 0.00252690556193 -0.00088353516938)
(-0.00251795648569 0.00272474455025 -0.000684522103398)
(-0.00244543184646 0.00261124685677 -0.00103978586092)
(-0.000996755190687 0.0023115957379 -0.000884057733001)
(-0.00164363239577 0.00250052006732 -0.000876915187457)
(-0.00177824138403 0.00242020140386 -0.00128778658212)
(-0.000124190341703 0.00208959085006 -0.000410705286031)
(-0.000497874812626 0.00230453454772 -0.000736864078514)
(-0.000877609517127 0.00227330810632 -0.00117985115762)
(0.000133350880403 0.002039711199 2.70266149696e-05)
(-0.000222058111124 0.0021050452489 -0.000377034339315)
(0.000256603553335 0.00232993804012 -0.000342022524799)
(-9.18366670958e-05 0.00210595441279 0.000131638764496)
(0.000319760699303 0.00230647662919 -0.000232186253676)
(0.00137740555453 0.00259742811534 -0.000833857735289)
(0.000753491270391 0.00240160562834 -0.000712381085014)
(0.00118021940125 0.00248460057011 -0.00110903654924)
(0.00252769477957 0.00284649223188 -0.000735647041858)
(0.0021637750068 0.00261976526733 -0.000798302296546)
(0.0022785616816 0.00263741037507 -0.00112265016482)
(0.0032786206878 0.00311773410167 -0.000369842069368)
(0.00315073450789 0.00285826169875 -0.000462580278718)
(0.00300873317462 0.00283270805993 -0.000683019789334)
(0.00351375023894 0.00338023417565 4.15701965124e-05)
(0.00363828979023 0.00310332127218 -1.69130053859e-05)
(0.00333197598452 0.00304993706981 -0.000112866445566)
(0.00326234249319 0.0035956260702 0.000398913916041)
(0.00358142872492 0.00331572031462 0.000395900975509)
(0.00322956759517 0.00325406075869 0.00043665763165)
(0.00262678572262 0.00374498738002 0.000666185578454)
(0.00308262740591 0.00347073491749 0.000715729894686)
(0.00276826364958 0.003415316296 0.000874686892874)
(0.00172957335205 0.00382498572976 0.000833305686078)
(0.00225325850024 0.003563802384 0.000931454541679)
(0.00203252327329 0.00352340988062 0.00117949237742)
(0.00069751534206 0.00384154080384 0.000903783248686)
(0.00123379590767 0.00359399423596 0.00103775978765)
(0.00112836786401 0.0035731698197 0.00134404358602)
(-0.000361646157734 0.00380829654039 0.000893287006538)
(0.000147455845917 0.00357678188449 0.00105392500235)
(0.000156237070814 0.00357209476562 0.00138401185982)
(-0.00135979939348 0.00373673522456 0.000814650670649)
(-0.000912158057517 0.00352548764827 0.0010036760605)
(-0.000799933877469 0.00352917231694 0.00131829858397)
(-0.0022217962483 0.00363177233556 0.000673260607007)
(-0.00186932463469 0.00344997809859 0.000893545091719)
(-0.00166848202695 0.00345211611733 0.00115972304549)
(-0.00287554840678 0.00349310322754 0.000471646793531)
(-0.00265646692849 0.00334979038984 0.000722173334191)
(-0.0023858991773 0.00334309275424 0.000913058154096)
(-0.0032508631629 0.00332114966588 0.000215175678921)
(-0.00319989992328 0.00322212152044 0.000490881290976)
(-0.00289012401612 0.00320404241984 0.000583628921413)
(-0.00328501465317 0.00311764474155 -8.75004338603e-05)
(-0.00343344342217 0.00306627687752 0.000205644809704)
(-0.00312908044666 0.00303917211619 0.000183654309564)
(-0.00293060267843 0.0028963730072 -0.000408411141034)
(-0.00329295068754 0.00288232873098 -0.000127873822853)
(-0.00305848127583 0.00285574200649 -0.000266435161399)
(-0.00219109844503 0.0026791062331 -0.000677902121475)
(-0.0027432117044 0.00268978566069 -0.000460593201444)
(-0.00265965561537 0.00267551911413 -0.000704542015556)
(-0.00117057121527 0.00247621088081 -0.000729721532971)
(-0.00183638361725 0.00250274742746 -0.000700107840134)
(-0.00196338459969 0.00251580564966 -0.00102275208175)
(-0.00021344134184 0.00223806273149 -0.000299132177514)
(-0.000628443915087 0.00232138017932 -0.00060389350477)
(-0.00100287197783 0.00238418055004 -0.00097397368951)
(8.03567337709e-05 0.00204593537649 0.000109962495109)
(-0.00027174159972 0.00220741131506 -0.000219664778671)
(0.000365024833748 0.00216967196721 -0.000238719795719)
(-2.71833752984e-05 0.00183126539526 0.000199600316283)
(0.000374756239283 0.00211783033004 -9.0316179618e-05)
(0.00157359145932 0.00241379446684 -0.000676825646271)
(0.000898067227998 0.0020923812835 -0.000585131344577)
(0.00131755852181 0.00228059577757 -0.000899321369125)
(0.00277504866827 0.00261921853102 -0.000525235533406)
(0.00236797451125 0.00226776157874 -0.000627317974349)
(0.00247723029669 0.00240107123686 -0.000849432570572)
(0.00353160867526 0.00282941387088 -0.000109651214737)
(0.00337814354435 0.00244436204466 -0.000247946316501)
(0.00323136524064 0.00254706984584 -0.000342639998813)
(0.00373010395578 0.00302307711253 0.000337417773611)
(0.00384566792579 0.00261608496971 0.000232907418947)
(0.003540479523 0.00270749472226 0.000288760317343)
(0.00341994773274 0.00317412857892 0.000712716954154)
(0.00373995333373 0.00275708571695 0.00066329301349)
(0.00339736225336 0.00285540553636 0.000868808657729)
(0.00271902481668 0.00327146381417 0.00098099885791)
(0.00318308724813 0.00285238264008 0.000985171041534)
(0.00288488265778 0.00296976766994 0.0013192912323)
(0.00176274378763 0.00331385437984 0.00113590864325)
(0.00229635507886 0.00290094336018 0.00118731976387)
(0.00209622956085 0.00304278395137 0.001619154041)
(0.000686449546833 0.00331024326018 0.00118790154131)
(0.00123225805008 0.00290336083683 0.00127036745955)
(0.00114731649417 0.003070277286 0.00176693945411)
(-0.000402268155352 0.00327502437455 0.00116431405631)
(0.000117921126902 0.00287712913216 0.00126921340495)
(0.000141951765375 0.00306146430431 0.0017883801364)
(-0.00142323673563 0.00321953828171 0.00108257048158)
(-0.000957849954407 0.00283483327198 0.00121099102423)
(-0.000838870019398 0.00302499217818 0.00171163071491)
(-0.00230972179432 0.00314893027018 0.000942457818904)
(-0.00192839324935 0.00278651525446 0.00110453844072)
(-0.00172948433903 0.00296918544829 0.00154995406846)
(-0.00299331598853 0.00306012598622 0.000741407831636)
(-0.00273428719803 0.00273069735388 0.000942567117899)
(-0.00247224534729 0.00289564431551 0.00130269217412)
(-0.00340186267172 0.00294917216011 0.000481350421759)
(-0.00330472710963 0.00266121904647 0.000716497245852)
(-0.00300559253322 0.0028035380844 0.000969453194465)
(-0.00346565634075 0.00281351642945 0.000165271420711)
(-0.00356678965623 0.00257318487769 0.000431830748363)
(-0.00327280463303 0.00269387698344 0.000556888988097)
(-0.00312768809835 0.00265922119426 -0.000180055883263)
(-0.00345194305176 0.00246227304328 8.70772347673e-05)
(-0.00322407765199 0.0025697157665 8.20901026732e-05)
(-0.00237933793977 0.00249861396724 -0.000482798920103)
(-0.00291015079878 0.00233851506033 -0.000265326717381)
(-0.00282935453331 0.00244549270091 -0.000397077575651)
(-0.00132176522686 0.00233496508902 -0.000574279811934)
(-0.00198703511207 0.00220775018453 -0.000534499679313)
(-0.00211233254001 0.00233113720872 -0.000762574153495)
(-0.000301672130537 0.00211784733508 -0.000194798832148)
(-0.000741492913523 0.00206447206855 -0.000473939939298)
(-0.001106483206 0.00222789599603 -0.000763184252384)
(2.53674373539e-05 0.00182152474304 0.000176441208199)
(-0.000313767850209 0.0020637090677 -7.72614116973e-05)
(0.000459725542458 0.00175005811026 -0.000146811232575)
(2.88659663023e-05 0.00134189348143 0.00024724519889)
(0.000418671284852 0.00168883034082 2.96645501291e-05)
(0.00172853286548 0.00194196969527 -0.000535623672656)
(0.00100586648382 0.00153576298705 -0.000476810817423)
(0.00142083850837 0.00181955731546 -0.000712169788473)
(0.00296040605785 0.00208741506589 -0.000350028757444)
(0.00251140999314 0.0016545000174 -0.000489465417977)
(0.00262393456605 0.00190215384871 -0.000618592526718)
(0.00371414899897 0.00222452500897 9.46123171826e-05)
(0.00353176283517 0.00176254952274 -8.76700641613e-05)
(0.00339518927233 0.0019948100227 -7.1912085915e-05)
(0.00388041613318 0.00234258348004 0.000558782658826)
(0.00397925593129 0.00185889254855 0.000411320635473)
(0.00369211955536 0.00209471253439 0.000590942389239)
(0.00352234791285 0.00242705592417 0.000935747100869)
(0.00383604399041 0.00193150180502 0.000843373477544)
(0.0035174108467 0.00218408988441 0.00118366763146)
(0.00277066132743 0.00247325200195 0.00119149194749)
(0.00323590328356 0.0019728443641 0.00115588874073)
(0.00296529626668 0.00224989117326 0.00163123846946)
(0.00177142960434 0.00248205206541 0.00132177858016)
(0.00230886829542 0.00198504224408 0.00133462160847)
(0.00213641524084 0.00228800203651 0.00191514436997)
(0.000667140804987 0.00246187408515 0.00135167932319)
(0.00121550366959 0.00196865950341 0.0013930312265)
(0.00115423421661 0.0022942592837 0.00203899952988)
(-0.000436452618789 0.00242807673075 0.00131589037287)
(8.92223442849e-05 0.00193952404991 0.00137463190746)
(0.000127381180156 0.00227889397075 0.0020412058661)
(-0.00146446437738 0.0023922941304 0.00123295898338)
(-0.000987007281434 0.00191009428394 0.00130770757979)
(-0.00086597467037 0.00225204393756 0.00195275631507)
(-0.0023589739842 0.00235805093733 0.00110464773972)
(-0.00195579296051 0.00188871769458 0.00120632273309)
(-0.00176661493983 0.00222092043547 0.00179231129099)
(-0.00305872511564 0.00232132814138 0.000917656532116)
(-0.00276556124251 0.00187392034862 0.00106209250412)
(-0.00252232278371 0.00218585718917 0.00155653119091)
(-0.00349000007683 0.00227486524878 0.000666977572457)
(-0.00335023455446 0.00185884778776 0.000852527104812)
(-0.00307447031521 0.00214436301036 0.00123364851498)
(-0.00357794807553 0.00221187311667 0.00035363656242)
(-0.00363191401862 0.00183445845563 0.000580044976599)
(-0.00336189762285 0.00209350504838 0.000826676143056)
(-0.0032572652558 0.00213239698711 1.80640064888e-06)
(-0.00353824975981 0.00179538022154 0.000238896046253)
(-0.00333077497391 0.00203265064745 0.00034621121407)
(-0.00251038964246 0.0020392029361 -0.000317027476591)
(-0.00300920024472 0.00174298446235 -0.000119761679982)
(-0.00294215461454 0.00196809755325 -0.000151344321801)
(-0.00143590387348 0.00192928660113 -0.000434159806676)
(-0.00208399642629 0.0016728815096 -0.000400715328795)
(-0.00221375044386 0.00190366207356 -0.00053961692337)
(-0.000377110391576 0.00176004420506 -0.000102699898951)
(-0.000822552206126 0.00158009420724 -0.000364245267719)
(-0.00117986312883 0.00183481532603 -0.000574415931461)
(-2.13607962368e-05 0.00139928560282 0.000223234177438)
(-0.00034602420747 0.00170020366945 4.51282191014e-05)
(0.000524543807607 0.00112712028886 -8.27543859579e-05)
(6.61657314982e-05 0.000700322215337 0.000271234163379)
(0.000446299801491 0.00107528669823 0.000117044090542)
(0.00182702127372 0.00124819151918 -0.000430652562745)
(0.00106742233162 0.000807321066519 -0.00040445470767)
(0.00148267029408 0.00116057799815 -0.000574018064939)
(0.00307342576125 0.00132837424158 -0.000227106724694)
(0.00258784926713 0.000862844522862 -0.000400168463213)
(0.00271197129989 0.00120475061435 -0.000454731820512)
(0.00381903630871 0.00139477295523 0.000229038254129)
(0.00360858652879 0.000903353501305 9.3874042386e-06)
(0.00349273571162 0.00124820372692 0.000113601704301)
(0.00396092195588 0.00144513688746 0.000695911454191)
(0.00404023182704 0.000932723415116 0.000512622704857)
(0.00378046486632 0.00129300741593 0.000784298333042)
(0.00356932902834 0.00147392645604 0.0010635151174)
(0.00387331758014 0.000948303904196 0.000937944223565)
(0.00358458826049 0.00133096364975 0.00137480396343)
(0.00278408405705 0.0014808302373 0.00129901840171)
(0.003248390933 0.000948189704285 0.00123462085249)
(0.00300636551043 0.00135553288611 0.00180991082984)
(0.00175918570082 0.00146705771783 0.0014058742548)
(0.0022984112816 0.000936696360014 0.00139468728351)
(0.00215098213204 0.00136542834101 0.00207325338679)
(0.000642325959538 0.00144042209374 0.00141598381078)
(0.00119183508931 0.000913897291778 0.00143399945631)
(0.00114851000698 0.0013575589843 0.00217162905501)
(-0.000460220821627 0.00141499605503 0.00136644911438)
(6.73684233656e-05 0.000891913287112 0.00139867540232)
(0.000114008852935 0.00134248815075 0.00215016274914)
(-0.00148036042369 0.00140022832385 0.0012810713295)
(-0.000997617825887 0.000879896765318 0.0013243852653)
(-0.000878413911008 0.00132864103067 0.00205034070214)
(-0.00236861215886 0.00139876847036 0.0011637674975)
(-0.00195341650516 0.00088373471183 0.00122647836089)
(-0.00177598269236 0.00132212250285 0.00189323702965)
(-0.00307048426497 0.00140593863144 0.000996963076821)
(-0.00275602229638 0.000902356903554 0.0010964226229)
(-0.00253279250755 0.00132256020636 0.00167343695847)
(-0.00351320546474 0.00141329934023 0.000765594508954)
(-0.00334205777806 0.000929903653649 0.000907220673519)
(-0.00309237233346 0.00132566209447 0.00137166613324)
(-0.00361786688061 0.00141323510597 0.000465304460432)
(-0.0036332462426 0.000956888311663 0.000650849660468)
(-0.0033916733976 0.00132647128213 0.000982231926991)
(-0.00331276758182 0.00140109340384 0.000117327965622)
(-0.00355413530466 0.000978652412186 0.000320903702692)
(-0.00337363158942 0.00132227376179 0.000511628504342)
(-0.00257756810274 0.00137229016709 -0.000203449532186)
(-0.00303919559894 0.000987224119566 -3.45340467928e-05)
(-0.00299253276424 0.00131155439531 2.0560474917e-05)
(-0.00150109447907 0.00132040946684 -0.000330800789838)
(-0.00212278495341 0.000977235200423 -0.000314869405101)
(-0.00226205431247 0.00129323200697 -0.000380828107332)
(-0.000426650495955 0.00121556302508 -3.83111913302e-05)
(-0.000863786691583 0.000940304394666 -0.000291657477951)
(-0.00121743526192 0.00125955604573 -0.000434655356926)