/*--------------------------------*- C++ -*----------------------------------*\
| =========                 |                                                 |
| \\      /  F ield         | OpenFOAM: The Open Source CFD Toolbox           |
|  \\    /   O peration     | Version:  3.0.1                                 |
|   \\  /    A nd           | Web:      www.OpenFOAM.org                      |
|    \\/     M anipulation  |                                                 |
\*---------------------------------------------------------------------------*/
FoamFile
{
    version     2.0;
    format      ascii;
    class       volScalarField;
    location    "2.3";
    object      k_0;
}
// * * * * * * * * * * * * * * * * * * * * * * * * * * * * * * * * * * * * * //

dimensions      [0 2 -2 0 0 0 0];

internalField   nonuniform List<scalar> 
7968
(
0.00218507894314
0.00235291179478
0.00247473841248
0.00254231345867
0.0025757622882
0.00258983226516
0.00259369488953
0.00259287379151
0.00259057354998
0.00258867595769
0.00258887962067
0.00259104244234
0.00259348940487
0.00259440059159
0.00259058433944
0.00257651549001
0.0025430012231
0.00247528350979
0.00235326868136
0.00218520026954
0.00235294340815
0.0031297645402
0.00362828753527
0.00390618649886
0.00404935334866
0.00411217530696
0.00413161710645
0.00413191711089
0.0041274675363
0.00412446021323
0.0041246412658
0.00412799161624
0.00413276928903
0.00413277257714
0.00411357124797
0.00405089842443
0.00390767815053
0.00362956973899
0.00313064088038
0.00235322119657
0.00247491519967
0.00362851493072
0.00437348149636
0.0047983751869
0.00502424977895
0.00512791681778
0.0051630811205
0.00516733058223
0.00516321006088
0.00516010009181
0.00516022307931
0.00516358588011
0.00516802574627
0.0051641430809
0.00512932000935
0.00502581758939
0.00479994305691
0.00437485370863
0.00362943935579
0.00247523621215
0.00254254400154
0.00390659214229
0.00479849409022
0.0053119179685
0.00558449134012
0.00570606274872
0.00574394350275
0.00574525645419
0.00573835061081
0.00573408498939
0.00573411520181
0.00573846065735
0.00574561666803
0.00574473445794
0.00570726574889
0.00558591677992
0.00531339272035
0.00479981338415
0.00390747163296
0.00254284679015
0.00257603119456
0.0040496477791
0.00502434922298
0.00558438137145
0.00587392214527
0.00599535268679
0.0060493668085
0.00606901555182
0.0060703947953
0.00606844325004
0.00606850019506
0.00607056383477
0.0060693874725
0.00605003374757
0.00599652649383
0.00587540354803
0.00558587305906
0.00502565103034
0.00405049213694
0.00257629970159
0.00259009420553
0.00411241275173
0.00512781643135
0.00570567018781
0.00599498528129
0.00615524978391
0.00622798184633
0.00624773771378
0.00624722477944
0.00624404806478
0.00624409723755
0.00624737581416
0.00624812152298
0.00622870093382
0.00615626773039
0.00599673962998
0.00570742816259
0.00512927335062
0.00411339821847
0.00259036615231
0.00259391525173
0.00413162276984
0.00516260005632
0.00574303440262
0.00604898409234
0.0062277209713
0.00629891024583
0.00631268565652
0.00630711791244
0.00630131625995
0.00630135347356
0.00630727085745
0.00631315120086
0.00629981598624
0.00622890725109
0.00605028163082
0.00574525297672
0.0051643695927
0.00413275301936
0.0025942235531
0.00259301209715
0.00413160678826
0.00516639962977
0.00574377675372
0.00606830159676
0.00624711767636
0.00631229865387
0.00631840871328
0.00630655985599
0.00629727506863
0.00629731833605
0.00630678327257
0.00631900241472
0.00631341151465
0.00624857149345
0.00606985561222
0.00574649420041
0.00516853453313
0.00413295622764
0.00259337803781
0.00259058501859
0.0041268197485
0.00516186998593
0.00573646441007
0.00606938765064
0.00624632513386
0.00630640746294
0.00630614865665
0.00628834464801
0.00627532182457
0.00627536469309
0.00628868975848
0.00630687527486
0.00630762553839
0.00624793554627
0.00607115851615
0.00573949441754
0.00516428503603
0.00412835837202
0.00259100961063
0.00258848604503
0.00412349918763
0.0051584457021
0.00573196803778
0.00606724932055
0.00624297445687
0.0063003732399
0.006296462473
0.00627473591732
0.00625874302464
0.00625887352295
0.0062751385928
0.00629721789371
0.00630157043224
0.00624458106569
0.00606906483874
0.0057350674352
0.00516097571519
0.00412512899112
0.00258894233178
0.00258843901624
0.00412343315034
0.00515834750729
0.00573182627516
0.00606713714882
0.00624284558235
0.00630021595268
0.00629625632687
0.00627446504291
0.00625841304936
0.00625853681499
0.00627485545493
0.00629699775908
0.00630140015945
0.00624444303558
0.00606893660654
0.00573488240933
0.00516082243778
0.00412501456768
0.00258886398125
0.00259048399965
0.00412663124016
0.00516158437004
0.00573605389776
0.00606906994408
0.00624596840692
0.00630597395101
0.00630559802759
0.00628766729566
0.00627455133239
0.00627456537212
0.00628796715769
0.00630628472457
0.00630715446292
0.00624754116437
0.00607078580662
0.00573894582712
0.00516384735517
0.00412803670382
0.00259083735588
0.00259289467016
0.00413132857253
0.0051659601245
0.00574312543949
0.00606781118622
0.00624657601052
0.00631165513411
0.00631762081734
0.00630564133428
0.0062962800876
0.0062963011291
0.00630583069776
0.00631818237547
0.00631272093895
0.00624796762643
0.006069273731
0.00574562787347
0.00516786590143
0.00413247841146
0.00259317043562
0.00259381258784
0.00413132207198
0.00516209553995
0.00574224288191
0.00604835776579
0.00622706155266
0.00629813505646
0.00631177149383
0.00630609027971
0.0063002331896
0.00630025746403
0.00630622347777
0.00631220987127
0.0062989790344
0.00622814353813
0.00604951353871
0.00574417794696
0.00516357744288
0.00413220934539
0.00259402189751
0.00259002733399
0.00411219692852
0.00512736632764
0.00570489400385
0.0059938372934
0.00615446175243
0.00622715039768
0.00624678522541
0.00624617440335
0.00624294444613
0.00624298271798
0.00624630066565
0.00624712371417
0.00622778149168
0.00615532855472
0.00599530102487
0.00570630826365
0.00512849150868
0.004112883793
0.00259020106678
0.00257601239381
0.00404950830618
0.00502406009525
0.00558378388613
0.00587293424645
0.00599406015908
0.00604849601829
0.00606804132286
0.00606931894978
0.00606730777626
0.00606734877014
0.00606944054479
0.00606832641458
0.00604901623438
0.00599487818698
0.00587405675663
0.00558490838355
0.00502502068653
0.00405010769404
0.00257618981105
0.00254258144758
0.00390660617469
0.00479842753933
0.00531161621601
0.00558383456652
0.00570506214007
0.00574264324019
0.00574368663466
0.00573660615124
0.00573223994402
0.00573223165154
0.00573659421071
0.00574383564838
0.00574313934284
0.005705923383
0.00558490988487
0.00531272482947
0.00479941305046
0.00390723352978
0.00254279198352
0.00247497558571
0.00362867516255
0.0043736276672
0.00479837051201
0.00502399063294
0.0051273822326
0.00516227367542
0.00516629683733
0.00516200558135
0.00515879051381
0.00515886721908
0.0051622547169
0.00516678024447
0.00516306067604
0.00512846250165
0.00502522288575
0.0047996003681
0.00437470397503
0.00362936587787
0.00247521992462
0.00235303164131
0.00313000018167
0.00362855006559
0.00390636494687
0.00404936890224
0.00411200123774
0.0041312610608
0.00413139521149
0.00412681619087
0.00412372207733
0.00412386893727
0.00412724199442
0.00413208953763
0.00413220937426
0.00411316085752
0.00405064108426
0.00390760926799
0.00362959975779
0.003130667345
0.0023532411272
0.00218510850996
0.00235300560111
0.00247485856891
0.00254242539487
0.00257583303497
0.00258984867
0.00259365226259
0.00259277053883
0.00259041453026
0.00258846467294
0.00258864352277
0.00259082508459
0.00259330766363
0.00259426573864
0.00259050583558
0.00257649121191
0.00254302379794
0.00247532549323
0.00235329122001
0.00218519317288
0.00234115811742
0.00306904899096
0.00354965592027
0.00382355772843
0.00396964899779
0.00403911674955
0.00406556609141
0.00407117570007
0.00406948547754
0.0040673793526
0.00406754110014
0.00406993332615
0.00407185006611
0.00406639277818
0.00404000682413
0.0039704967166
0.00382425174064
0.00355010898152
0.00306926727707
0.00234134402993
0.00306901086378
0.0059714385114
0.00733071116532
0.00809100936526
0.0085028195475
0.00870249667103
0.00878028515362
0.0087975203644
0.00879300801231
0.00878690825312
0.00878700641954
0.00879330499161
0.00879804613081
0.00878103846792
0.00870339111108
0.00850371268943
0.00809169982842
0.00733099709375
0.00597116038231
0.0030692200545
0.00354978725006
0.00733121688361
0.00911955721848
0.0101528850922
0.0107373190888
0.0110391501061
0.0111716186035
0.0112148139209
0.0112211562631
0.0112187700489
0.0112188119736
0.0112213087102
0.0112151628328
0.0111722198737
0.0110399202907
0.0107380643851
0.0101533822531
0.00911959964305
0.00733064209131
0.00354997598263
0.00382384321107
0.008091845082
0.0101532479427
0.0113679479453
0.0120689903672
0.0124392967858
0.0126073875702
0.0126660052712
0.0126784693362
0.0126782310685
0.0126781854911
0.012678383663
0.012666052692
0.0126077421487
0.0124398747987
0.012069538214
0.0113682130691
0.0101530354576
0.00809102377455
0.00382398629378
0.00397002993803
0.00850377020106
0.0107377963582
0.0120690846813
0.0128427190392
0.0132521062495
0.0134402420407
0.0135023597558
0.0135143103427
0.0135134453611
0.0135133052808
0.0135139590349
0.0135021490877
0.0134405175741
0.0132527242068
0.012843314526
0.0120693268564
0.0107374952894
0.0085028429177
0.00397013953137
0.00403949160845
0.00870331807804
0.0110394561221
0.0124391440984
0.0132517972156
0.0136761761463
0.0138553396043
0.0139086318058
0.0139139726227
0.0139099485954
0.0139097178971
0.013913367551
0.013908199109
0.0138556906382
0.0136772159305
0.0132528285198
0.0124397120174
0.0110393480453
0.00870250272656
0.00403963537483
0.00406583485578
0.00878078995605
0.0111714985227
0.0126066722652
0.0134392240373
0.0138546027019
0.0140197155969
0.0140591731937
0.0140549488758
0.0140463561413
0.0140460077056
0.0140541033824
0.0140585889531
0.014020237447
0.0138561914218
0.0134410471135
0.0126078567627
0.0111718244184
0.00878027662213
0.00406608819597
0.00407126388125
0.00879760379047
0.0112141677081
0.0126646783726
0.0135006270961
0.0139071230288
0.0140583679127
0.0140839750286
0.0140703254286
0.0140569271225
0.0140564880723
0.0140694004257
0.014083340323
0.0140590194391
0.0139091218658
0.0135030465379
0.0126664210031
0.0112149651115
0.00879745160682
0.00407166450927
0.00406933756238
0.00879267223912
0.0112200432617
0.0126767220114
0.0135121321335
0.0139120982204
0.0140537634353
0.0140697808418
0.0140483401255
0.0140308364415
0.014030264977
0.0140474294762
0.0140691357127
0.0140543175266
0.013914192578
0.0135148515594
0.0126787484966
0.0112211731977
0.00879281352731
0.00406987602594
0.00406697658773
0.00878621984299
0.0112172997015
0.0126762022828
0.013511091892
0.0139080171618
0.0140450735798
0.0140559644722
0.0140300706078
0.0140102922618
0.0140098602848
0.0140290854082
0.0140551603076
0.0140453644142
0.0139099291483
0.013513806995
0.012678318444
0.0112185668182
0.00878649293183
0.00406758703874
0.00406692110386
0.00878605820779
0.0112170934806
0.0126759570082
0.0135108042592
0.0139076836907
0.0140446854681
0.0140554964491
0.0140295114197
0.0140096721473
0.0140092197864
0.0140284942729
0.0140546580579
0.0140449436769
0.013909572533
0.0135134865834
0.0126780259854
0.0112183012442
0.00878627425742
0.00406750102237
0.00406918351704
0.00879219969429
0.0112194423736
0.0126760072477
0.013511299797
0.0139111504612
0.0140526700866
0.0140684868074
0.0140468599054
0.0140292457418
0.0140286019472
0.0140458328066
0.0140677372806
0.0140531289303
0.013913156465
0.013513907087
0.0126778871566
0.0112204017122
0.00879218288664
0.00406964085252
0.00407104288657
0.00879686735784
0.0112132264098
0.0126635364749
0.0134993075755
0.0139056362995
0.0140566847108
0.0140820238604
0.0140681731577
0.0140546683675
0.0140541734059
0.0140671588602
0.0140813139005
0.0140572276047
0.013907495748
0.0135015355906
0.012665032909
0.0112137551523
0.0087964766365
0.00407132941162
0.00406559925492
0.00877989317933
0.0111703447591
0.0126052481187
0.0134375610521
0.0138527147625
0.0140175564987
0.0140567370703
0.0140523163571
0.014043644781
0.0140432643932
0.0140514254668
0.0140561053345
0.0140179459139
0.013854065003
0.0134390938548
0.012606086074
0.0111703104379
0.00877906929965
0.00406571592016
0.00403928984045
0.00870239645318
0.0110382635699
0.0124376399457
0.013249974663
0.0136740406097
0.0138528854311
0.0139059042513
0.013911062787
0.0139069474913
0.0139066896171
0.0139104040191
0.0139053801519
0.0138530439875
0.0136747861084
0.0132506433377
0.0124377747106
0.0110377141124
0.0087012073866
0.00403928639334
0.00396990168538
0.00850294453523
0.0107367222025
0.012067683941
0.0128409552749
0.013249986541
0.0134377597136
0.0134995844621
0.0135113495602
0.0135103758503
0.013510203717
0.0135109038037
0.0134991975966
0.0134377513275
0.013250230486
0.0128410982507
0.0120674233126
0.0107359219386
0.00850159256971
0.00396985678579
0.00382380842714
0.00809121025859
0.0101524160305
0.0113668100458
0.0120674759982
0.0124373957027
0.0126051133346
0.0126634512747
0.0126757730998
0.012675429214
0.0126753400414
0.0126755543873
0.0126632608355
0.0126051245867
0.0124375437095
0.0120675247552
0.0113665352254
0.0101516683416
0.00808991829267
0.00382378600723
0.00354982579624
0.00733080273166
0.0091190168675
0.0101520933211
0.0107361903233
0.0110376600834
0.0111697893411
0.011212712901
0.011218866505
0.0112163584071
0.0112163506547
0.0112188698965
0.0112128085877
0.0111700400113
0.0110379984727
0.0107364422579
0.0101520593861
0.00911852207862
0.00732973223507
0.00354984970625
0.00306910249822
0.00597125234085
0.00733044750238
0.00809056344771
0.00850211569302
0.00870150937799
0.00877903427786
0.008796049182
0.00879136953037
0.00878516163735
0.00878521737713
0.00879154052227
0.00879636326778
0.00877949820298
0.0087020485531
0.00850259639778
0.00809079523757
0.00733024341944
0.00597047956477
0.00306915705286
0.00234119968276
0.00306906702298
0.00354966730433
0.00382354160786
0.00396956440294
0.00403893702059
0.00406528274497
0.00407079171135
0.00406901514583
0.00406684728129
0.00406698657636
0.00406940002413
0.0040713673666
0.00406598441375
0.004039687114
0.00397026117996
0.00382407689899
0.0035499581276
0.00306913290515
0.00234135167935
0.00245252042297
0.0035214588282
0.00423464649293
0.00465277944924
0.00488557345517
0.00500371366868
0.00505467100433
0.00507095030715
0.00507317394928
0.00507221673875
0.00507233741328
0.00507352034551
0.00507149608221
0.00505535225297
0.00500442674344
0.00488619439202
0.00465319228864
0.00423478547801
0.00352141745528
0.00245275936142
0.00352139221127
0.00725421280684
0.0090197569522
0.0100379008748
0.0106128964389
0.0109101656156
0.01104130189
0.0110843604919
0.0110903719596
0.0110875087398
0.0110874947107
0.0110903516502
0.0110843997349
0.011041422056
0.0109102869481
0.0106128786277
0.01003757432
0.00901896347867
0.00725284432709
0.00352137545829
0.00423475896383
0.00902039907602
0.0112782743006
0.0126142105858
0.0133991758802
0.0138285941859
0.0140364839286
0.0141200393015
0.0141450669679
0.014149329303
0.0141492622445
0.0141449131808
0.0141199080559
0.0140364457837
0.0138285508146
0.0133989133931
0.0126135108862
0.0112769738068
0.00901842830053
0.00423459676326
0.00465310101178
0.0100389950805
0.0126147013869
0.0141633428666
0.0150925665314
0.0156142996606
0.0158753743858
0.0159865550104
0.0160254554448
0.0160354023362
0.0160352782102
0.0160251484368
0.0159861637656
0.0158751337597
0.0156141040379
0.0150921087296
0.0141623364136
0.0126129814613
0.0100365528075
0.00465282483288
0.00488602884886
0.0106141948605
0.0133998835333
0.015092771927
0.0161194260597
0.0167022827195
0.0169928203302
0.017114579247
0.0171545365999
0.0171633468788
0.0171630525165
0.017153777001
0.0171136204057
0.0169922119991
0.0167021384128
0.0161190231701
0.0150917239461
0.0133979857861
0.0106114951988
0.00488568246639
0.00500416839446
0.0109113686364
0.0138291770345
0.0156143311783
0.016702140876
0.0173094440867
0.0176062241556
0.0177244094773
0.0177582050342
0.0177630202571
0.0177625278254
0.0177568637667
0.0177223186928
0.0176042298255
0.0173087941052
0.0167020160185
0.0156135929463
0.0138274465087
0.0109087160645
0.00500385492344
0.00505498650941
0.0110421537822
0.0140366332691
0.0158748711576
0.0169920191953
0.0176061400505
0.0178960928915
0.0180012840592
0.0180233421264
0.0180215961256
0.0180208789009
0.0180213398134
0.0179978205181
0.0178920241168
0.017603997789
0.0169923026117
0.0158747208426
0.014035353156
0.0110398237154
0.00505482105519
0.00507102875679
0.0110847300992
0.014119639652
0.0159855107059
0.0171134495058
0.0177248335353
0.0180021640593
0.0180910900542
0.0180994417503
0.0180901406229
0.0180892641624
0.0180970154295
0.0180866698187
0.0179965813022
0.0177211995868
0.0171135441747
0.0159857696346
0.01411882844
0.0110828171635
0.0050710727492
0.00507296800483
0.0110902679028
0.0141441984088
0.0160242690036
0.0171533110549
0.0177590531927
0.0180250159549
0.0181002613774
0.0180971433615
0.0180813800008
0.0180803350401
0.0180944864657
0.018095367903
0.0180186438183
0.0177547419075
0.0171532017042
0.0160244180881
0.0141436825602
0.0110886945002
0.00507320461275
0.0050717378583
0.0110870270259
0.0141481006011
0.0160339921453
0.017162057192
0.0177640610385
0.0180236230388
0.0180911891502
0.0180814084662
0.018061921687
0.0180609429302
0.0180785722032
0.0180859902205
0.0180168532589
0.0177594503075
0.0171618581012
0.016034158451
0.0141477197914
0.0110856105461
0.00507207442154
0.00507165895802
0.0110867746301
0.0141478182749
0.0160337211912
0.0171617561159
0.017763736373
0.0180232637359
0.0180907746322
0.0180809275976
0.0180614031604
0.018060397802
0.0180780561253
0.0180855496414
0.018016477634
0.0177591122721
0.0171615277128
0.0160338503047
0.0141473783293
0.0110852921496
0.00507196101587
0.00507273646595
0.0110895202501
0.0141433669212
0.0160234650772
0.0171524306254
0.0177581262553
0.0180240193118
0.0180991208406
0.0180958612347
0.0180800160921
0.0180789127321
0.0180931129301
0.0180941488484
0.0180175895276
0.0177537580809
0.0171522236747
0.016023496147
0.0141426808852
0.0110877666594
0.00507288167973
0.00507067477189
0.0110835433978
0.014118309917
0.015984135337
0.0171120417831
0.0177234052884
0.0180006957771
0.0180894723614
0.018097673846
0.0180882779827
0.018087355217
0.0180951611898
0.018084986021
0.0179950358212
0.0177196642486
0.0171119568424
0.015984161915
0.0141172244523
0.0110813606083
0.00507058872191
0.00505457374925
0.0110406647223
0.0140349482941
0.0158730816122
0.0169901993469
0.0176042847595
0.0178942204325
0.0179993143671
0.0180212529094
0.018019428758
0.0180186770797
0.018019181404
0.017995780149
0.0178900313461
0.0176019474229
0.0169902083101
0.0158725879478
0.0140332883717
0.0110379781873
0.00505424903707
0.00500377037323
0.0109097645502
0.0138273417818
0.0156123478038
0.0167002025926
0.0173072252925
0.0176038690874
0.0177219633191
0.0177556485548
0.0177603744521
0.0177598499032
0.0177542231371
0.0177197479035
0.0176016791924
0.0173063049469
0.0166997505953
0.0156111663708
0.0138251285507
0.0109066678238
0.00500327496236
0.00488570488372
0.010612660183
0.0133980884984
0.0150907361315
0.0161171917176
0.0167000065946
0.0169900518001
0.0171115952552
0.0171514397548
0.017160157307
0.017159829592
0.0171505801613
0.017110457998
0.0169891737224
0.0166995324094
0.0161163293849
0.0150891453808
0.0133956193987
0.0106094350684
0.00488515886244
0.00465288561831
0.010037673712
0.0126131127479
0.0141614449091
0.015090328445
0.0156117310008
0.0158724426517
0.0159834211265
0.016022448729
0.0160323335846
0.0160321729486
0.016022025411
0.0159827919756
0.0158718488785
0.0156110835071
0.0150893224281
0.0141598236241
0.0126107562599
0.0100346415922
0.00465239168754
0.004234651417
0.00901936129179
0.011276991348
0.0126125963897
0.0133971630719
0.0138261665291
0.0140336679747
0.0141169287896
0.0141417684819
0.0141458932148
0.0141457717452
0.0141414493087
0.0141165126274
0.0140332304643
0.0138256238135
0.0133963196059
0.012611258935
0.0112750304015
0.00901676422264
0.0042342619478
0.00352138719706
0.00725349901974
0.009018833795
0.0100366767412
0.0106112970296
0.0109081691978
0.0110389426389
0.0110817065841
0.0110874944724
0.0110844853511
0.0110844177127
0.0110873139574
0.0110814740693
0.0110386924153
0.0109078354211
0.0106107519906
0.0100357652651
0.00901741797426
0.00725150765741
0.00352115489165
0.00245257038239
0.00352134700327
0.00423445523315
0.004652516711
0.00488520096451
0.00500320119782
0.0050540114551
0.00507015715945
0.00507227197933
0.00507124164416
0.00507133666544
0.00507254479644
0.00507058251373
0.005054537624
0.00500373589688
0.00488562556525
0.00465271808472
0.00423437187986
0.0035210940586
0.00245278731414
0.00251507563482
0.00378372275026
0.00464086359728
0.00515453455258
0.00544930729341
0.00560554980713
0.00567817719135
0.00570562807405
0.00571295864236
0.00571387072583
0.00571394880796
0.0057131887335
0.0057060120439
0.00567866178483
0.00560602134983
0.00544964411028
0.00515464093036
0.00464070862668
0.00378346237001
0.00251538338746
0.00378365194755
0.00800709967844
0.0100343193882
0.0112303775816
0.0119256463393
0.0123005311109
0.0124785831873
0.0125477148541
0.01256650963
0.0125685286468
0.0125683702785
0.0125660829941
0.0125471533519
0.0124779359599
0.0122997263829
0.0119245734485
0.0112289463945
0.0100324473336
0.0080047225866
0.00378342391745
0.00464097930957
0.0100350698088
0.0125961806895
0.0141378059259
0.0150667730674
0.0155935959558
0.0158633777021
0.0159829456603
0.0160258557153
0.0160367613639
0.0160365404863
0.0160252936103
0.0159822736267
0.0158626824147
0.0155927510804
0.0150655180977
0.0141359268961
0.0125935663184
0.0100317330171
0.0046404776628
0.00515488449425
0.0112316746823
0.0141383932117
0.0159091716633
0.0169966780304
0.0176284746415
0.0179612300634
0.0181153580108
0.0181741970335
0.0181902860481
0.0181899276298
0.0181732723592
0.018113954647
0.0179594702218
0.0176271913724
0.0169953550133
0.0159069956579
0.0141352027068
0.0112275537369
0.0051541738419
0.00544980582793
0.0119272105173
0.015067643995
0.0169969410398
0.0181937419101
0.0188952608401
0.0192611436801
0.0194250409705
0.0194838742843
0.0194985923463
0.0194979138219
0.0194819153734
0.0194214671434
0.0192563318014
0.0188912267203
0.0181915145174
0.0169948005741
0.015064199443
0.0119225983986
0.00544896705185
0.00560603193282
0.0123019982368
0.0155943301681
0.0176286204226
0.018895888138
0.0196278449281
0.0200015764177
0.020159280044
0.0202082033243
0.0202163127878
0.0202152026002
0.0202047129745
0.0201524647222
0.0199915640775
0.0196180384808
0.0188902789571
0.0176263052068
0.0155910776278
0.0122973362595
0.00560522072582
0.00567845845173
0.0124795961967
0.0158635724312
0.0179615210707
0.0192639427437
0.0200047780134
0.0203690240116
0.020508421103
0.0205394473496
0.0205370829363
0.020535634621
0.0205345640863
0.0204984619845
0.0203536804388
0.0199883367644
0.0192529834817
0.0179578907775
0.0158608547027
0.0124752998766
0.00567785154945
0.00570558440641
0.0125480889993
0.0159824397129
0.0181164444667
0.0194303680842
0.0201663051069
0.0205127090459
0.0206275580443
0.0206375201038
0.0206232816243
0.0206217166058
0.0206321320718
0.0206159898208
0.0204939857776
0.0201452344387
0.0194152498904
0.0181110034804
0.0159802671683
0.0125443139794
0.00570527427022
0.00571254989723
0.0125662477647
0.016024660882
0.0181751643159
0.019490367933
0.0202174323519
0.02054651753
0.020640392611
0.0206322573426
0.0206076701867
0.0206059798629
0.0206267285386
0.0206283108943
0.0205265567758
0.0201946324283
0.0194738212403
0.0181694767646
0.0160229459733
0.0125629308971
0.00571251364445
0.00571314119848
0.012567801968
0.0160351374021
0.0181910450741
0.0195054341619
0.0202265214069
0.0205455129557
0.0206274144333
0.0206087296513
0.0205782186113
0.0205766376891
0.0206031113001
0.0206151774981
0.020525196128
0.0202033017019
0.0194886563623
0.0181854235558
0.0160336160219
0.0125646997387
0.00571324732585
0.00571302374072
0.0125674221663
0.0160347556047
0.0181907036693
0.0195051318167
0.0202262518914
0.0205452549572
0.0206270832117
0.0206083130159
0.0205777307434
0.0205761628271
0.02060269449
0.0206148284354
0.0205249232105
0.0202030488851
0.0194883562411
0.0181850509835
0.016033171174
0.0125642355588
0.00571308709871
0.00571219600452
0.0125651101792
0.016023533101
0.0181741675031
0.0194894915409
0.0202166896141
0.0205458216227
0.0206395804757
0.0206313028068
0.0206066061422
0.0206048689477
0.0206256808304
0.020627448
0.0205258625611
0.0201939220922
0.0194729409497
0.0181683840227
0.0160216404102
0.0125615686038
0.00571204921501
0.0057050290649
0.0125462685418
0.0159806415583
0.0181149246497
0.0194290290031
0.0201652582938
0.0205118837206
0.0206266462265
0.020636467531
0.0206221433766
0.0206205225896
0.0206309904443
0.0206150399547
0.0204931573412
0.0201441967703
0.0194138569217
0.0181093176813
0.0159781886924
0.0125421653558
0.00570456370164
0.00567778518183
0.0124772818489
0.0158612406808
0.0179594255186
0.0192621928542
0.0200034888365
0.0203681231779
0.0205076325084
0.0205385783126
0.0205361474915
0.0205346399796
0.0205335988972
0.0204976110965
0.0203526857721
0.0199869382731
0.0192510432497
0.0179554643487
0.0158581189201
0.0124725485295
0.00567698626537
0.00560534747308
0.0122994640519
0.0155917082891
0.0176260936419
0.0188936662699
0.0196260712154
0.0200002629359
0.0201581979598
0.0202070803628
0.0202150797732
0.0202139130151
0.0202034342754
0.0201511719847
0.0199900085061
0.019616000973
0.0188877099067
0.0176233149336
0.0155879190443
0.0122942478685
0.00560431110053
0.00544919934474
0.0119247341574
0.0150649785175
0.0169941753814
0.0181909642284
0.0188926667842
0.0192588083141
0.0194228804012
0.0194816106645
0.0194961900935
0.0194954511432
0.0194794709619
0.019419028363
0.0192536536161
0.0188882373912
0.0181882463667
0.0169914411261
0.0150608742087
0.0119194644795
0.00544811107936
0.00515441053793
0.0112294760087
0.0141358989846
0.0159063883219
0.0169935732636
0.0176250750479
0.01795766872
0.0181119069326
0.0181703505869
0.018186242614
0.0181858256283
0.0181692489587
0.0181102369591
0.0179555228675
0.017623290451
0.0169916329782
0.0159035029264
0.014131948114
0.0112246211119
0.00515343348485
0.00464065331195
0.010033259766
0.0125939980664
0.0141351821542
0.0150636333883
0.0155899171942
0.0158591978132
0.0159783785915
0.0160209277801
0.0160316115479
0.0160313213465
0.016020157059
0.0159773592068
0.0158580162932
0.0155884620782
0.015061670989
0.0141325275699
0.0125905815087
0.0100291627077
0.00463988399958
0.00378348988713
0.00800573452609
0.0100325614639
0.0112281143457
0.0119227783696
0.012297030216
0.0124745030396
0.012543165559
0.0125615861296
0.0125633668015
0.0125631292883
0.0125609272689
0.0125422138849
0.0124733362208
0.0122956002835
0.0119210029284
0.0112259330665
0.0100299273266
0.00800263160014
0.00378303415383
0.00251513563036
0.00378344248159
0.00464041918121
0.00515394407984
0.00544852610256
0.00560454103135
0.00567693722337
0.00570418768772
0.00571135881388
0.00571216667648
0.0057122104927
0.00571149086112
0.00570440874696
0.00567721287866
0.00560477397995
0.00544860660092
0.00515378491847
0.00464000025146
0.00378295641444
0.00251543997199
0.00255009359621
0.00394522189497
0.00489568759002
0.00547403196253
0.00581314504203
0.00599844293736
0.00608879941677
0.00612602306462
0.00613806721546
0.00614076734656
0.00614081651324
0.00613822834252
0.00612635424923
0.00608924462174
0.00599882309686
0.00581333198916
0.00547396488682
0.00489540294992
0.00394492700128
0.00255050245299
0.00394516367438
0.00849116389837
0.0106943350124
0.0120164813853
0.0128013680205
0.0132372243328
0.0134544542016
0.0135465615195
0.0135771236155
0.0135838227731
0.0135835326655
0.0135763387339
0.0135455402714
0.0134532578776
0.0132356896168
0.0127994034141
0.012014124296
0.0106916197107
0.00848801634758
0.00394488508531
0.00489582764953
0.0106952009997
0.0134625206163
0.0151490655801
0.0161822866727
0.0167815910563
0.0170985406709
0.0172448643089
0.0173002707401
0.0173156796631
0.017315309402
0.0172993260942
0.0172433589279
0.017096648687
0.0167800346765
0.0161805719263
0.0151464853202
0.0134589726525
0.0106906952149
0.00489512475407
0.00547442474732
0.0120179984619
0.0151497630457
0.0170740637594
0.0182725751306
0.0189812639094
0.0193618934683
0.0195405185487
0.0196073689129
0.0196254155865
0.0196247072094
0.0196053351837
0.0195366578474
0.0193563545531
0.0189759587915
0.0182690534507
0.017071326365
0.0151455331725
0.0120122554851
0.00547338250094
0.00581367478242
0.0128032270785
0.0161833522121
0.0182732243697
0.0195845573399
0.020360366155
0.0207677577551
0.0209482614083
0.0210092424889
0.0210217990876
0.0210204220991
0.0210047714995
0.0209391837537
0.0207535546554
0.0203449243213
0.0195737835636
0.0182680497092
0.0161788037997
0.0127966577868
0.00581246955005
0.00599889783153
0.0132389389807
0.0167827155018
0.0189844597861
0.020365391213
0.0211660594556
0.0215704030277
0.0217318158922
0.0217721605586
0.0217719766925
0.0217700422091
0.0217652316453
0.0217166242867
0.0215445451733
0.0211346683497
0.020340060654
0.0189721679821
0.0167775409038
0.013232219929
0.00599775969077
0.00608890903551
0.0134554700948
0.0171001457755
0.0193701007502
0.020782060551
0.0215814694524
0.0219606103166
0.0220876062994
0.0220966914354
0.0220786311924
0.0220766565758
0.0220888967322
0.0220685441086
0.0219253354758
0.0215344385066
0.0207399986177
0.0193474428809
0.0170927954731
0.013449264803
0.00608812171824
0.0061256042613
0.0135465779294
0.0172472205834
0.0195533743868
0.0209708046203
0.0217528202908
0.0220978213312
0.0221839154513
0.0221574691808
0.0221196372334
0.0221180667255
0.0221505077233
0.022164441146
0.0220582644824
0.0216968557058
0.0209175874812
0.0195226703169
0.0172376397605
0.0135411269547
0.00612530617164
0.00613710617704
0.0135761792876
0.0173024246539
0.0196218370037
0.0210354512427
0.0217979872126
0.0221119976026
0.0221622339006
0.0221048199974
0.0220496715402
0.0220484085657
0.0220988489519
0.0221438165436
0.0220721252456
0.0217397223601
0.0209788341176
0.0195887416769
0.0172923911161
0.0135713694299
0.00613723107364
0.00613938044271
0.0135822202661
0.0173173092441
0.0196400033548
0.0210492083489
0.0217997025008
0.0220956885655