/*--------------------------------*- C++ -*----------------------------------*\
| =========                 |                                                 |
| \\      /  F ield         | OpenFOAM: The Open Source CFD Toolbox           |
|  \\    /   O peration     | Version:  3.0.1                                 |
|   \\  /    A nd           | Web:      www.OpenFOAM.org                      |
|    \\/     M anipulation  |                                                 |
\*---------------------------------------------------------------------------*/
FoamFile
{
    version     2.0;
    format      ascii;
    class       volScalarField;
    location    "6.8";
    object      ddt0(epsilon);
}
// * * * * * * * * * * * * * * * * * * * * * * * * * * * * * * * * * * * * * //

dimensions      [0 2 -4 0 0 0 0];

internalField   nonuniform List<scalar> 
7968
(
-3.8202420187e-05
-4.63976203043e-05
-5.32342196787e-05
-5.773736478e-05
-6.0475672342e-05
-6.19511513643e-05
-6.25525909328e-05
-6.26586586919e-05
-6.25595160141e-05
-6.24382346738e-05
-6.25298421063e-05
-6.27179205144e-05
-6.2845006665e-05
-6.27510370436e-05
-6.21456540864e-05
-6.06664619602e-05
-5.78994104969e-05
-5.33593120589e-05
-4.64795964793e-05
-3.8244232509e-05
-4.639491631e-05
-8.41196985727e-05
-0.000112952562357
-0.000131244805654
-0.000141601603897
-0.000146391273197
-0.000147780198537
-0.00014753968913
-0.00014698100773
-0.000146664068688
-0.000146767331917
-0.000147222628348
-0.000147885789315
-0.000148190339808
-0.000146832205701
-0.000142070847845
-0.000131663211222
-0.000113282665349
-8.43220192372e-05
-4.64837099598e-05
-5.32464325586e-05
-0.000113011488203
-0.000158786827192
-0.000187926071431
-0.000204495792847
-0.0002121671009
-0.00021434855881
-0.000213994479229
-0.000213206764433
-0.000212782560691
-0.000212880708928
-0.000213442687839
-0.000214354667879
-0.000214817069748
-0.000212702893693
-0.000205058817597
-0.000188430926829
-0.000159173146836
-0.000113246547205
-5.33644191302e-05
-5.77623203504e-05
-0.000131359874299
-0.000187991460015
-0.000223487563979
-0.000242802080815
-0.000250723417222
-0.000252000572216
-0.000250320422628
-0.000248909189378
-0.000248321929589
-0.000248414940632
-0.000249092677051
-0.000250635300335
-0.000252473241669
-0.000251290276373
-0.000243396370811
-0.000223998284669
-0.000188360471418
-0.000131575611865
-5.78864430455e-05
-6.05130989453e-05
-0.000141730235726
-0.00020457828149
-0.000242811624669
-0.000261675976468
-0.000265826625815
-0.000269804609171
-0.000270629259206
-0.000270258094426
-0.000269900478183
-0.000269957725619
-0.000270376463731
-0.000270823225542
-0.000270082066062
-0.000266157526523
-0.000262303333162
-0.000243334529035
-0.000204924389682
-0.000141919651296
-6.06343799218e-05
-6.1990329235e-05
-0.000146494454318
-0.000212198812544
-0.00025064657795
-0.000265774464895
-0.000276907645591
-0.000281813517483
-0.000282605486073
-0.000281897262808
-0.000281275829554
-0.000281312856968
-0.000281969323577
-0.000282753287693
-0.0002820569523
-0.000277195963185
-0.000266143036403
-0.000251232797493
-0.000212563031385
-0.000146686407392
-6.21055901368e-05
-6.25887916846e-05
-0.000147832292949
-0.000214277680228
-0.000251764595841
-0.000269674620754
-0.000281731032189
-0.000286188698728
-0.000286068613015
-0.000284516545882
-0.000283412644631
-0.000283439029787
-0.000284561293538
-0.00028620732896
-0.000286460720529
-0.000282072945495
-0.000270082277202
-0.000252475010455
-0.000214699760449
-0.000148045054549
-6.27018823529e-05
-6.26802348158e-05
-0.000147508388363
-0.000213796619189
-0.000249922676786
-0.000270388654336
-0.000282403715031
-0.000285935975248
-0.000284571964406
-0.000281974190397
-0.000280254327163
-0.000280281350673
-0.000282018903693
-0.000284727074726
-0.000286256120955
-0.000282805986201
-0.000270854898622
-0.000250707064749
-0.000214281422162
-0.000147759592545
-6.27925384047e-05
-6.25560183452e-05
-0.000146846502204
-0.000212875805375
-0.000248361677401
-0.000269905437782
-0.000281588252347
-0.000284273738767
-0.000281860761469
-0.00027817298377
-0.000275694608412
-0.000275752074104
-0.000278250982595
-0.000282048520602
-0.000284642550054
-0.000282048176297
-0.000270434416671
-0.000249216013213
-0.000213414665607
-0.000147132451744
-6.26692805098e-05
-6.23911855293e-05
-0.000146418587092
-0.000212323581485
-0.000247641900522
-0.000269455292766
-0.000280892716424
-0.00028310427362
-0.000280069131752
-0.000275595518829
-0.000272520549236
-0.000272623228751
-0.000275731604284
-0.000280287250142
-0.000283501722018
-0.000281383224162
-0.000270024574053
-0.000248576791013
-0.000212887540846
-0.000146722527229
-6.25054927853e-05
-6.23786479396e-05
-0.000146393327327
-0.000212283281996
-0.000247591797404
-0.000269406982101
-0.000280840611107
-0.000283044301293
-0.0002799952533
-0.000275499957575
-0.000272403317901
-0.000272502537415
-0.000275629449118
-0.000280205849419
-0.000283433366574
-0.000281322514174
-0.000269967669432
-0.000248530332662
-0.000212837491788
-0.000146691327077
-6.24902573384e-05
-6.25309842011e-05
-0.000146775064439
-0.00021276060344
-0.000248216435144
-0.000269768318163
-0.00028144205388
-0.000284109562414
-0.000281667915091
-0.000277937065191
-0.000275420955995
-0.00027547152572
-0.000278000476422
-0.000281837998134
-0.000284458479174
-0.000281879940813
-0.000270272595069
-0.000249033499025
-0.000213268856846
-0.000147042461658
-6.26377556437e-05
-6.26517856244e-05
-0.000147400737399
-0.000213618485933
-0.000249689476327
-0.0002701731376
-0.000282172813441
-0.000285677291177
-0.00028427287564
-0.000281636301952
-0.000279876803169
-0.000279896727492
-0.000281661550759
-0.000284407689673
-0.000285971639727
-0.000282544214143
-0.00027060248087
-0.000250417299323
-0.000214055774911
-0.00014762294007
-6.27555453926e-05
-6.25628292555e-05
-0.00014770430895
-0.000214062225705
-0.000251467178223
-0.000269394016685
-0.000281430697745
-0.000285856221202
-0.000285690798535
-0.000284095311357
-0.000282960665666
-0.000282979749967
-0.000284122417265
-0.000285805285831
-0.000286096496637
-0.000281734248437
-0.000269756397711
-0.000252105953269
-0.000214425570602
-0.000147879414209
-6.26664132493e-05
-6.19722925211e-05
-0.000146374976265
-0.000211985780562
-0.000250333663023
-0.000265427223381
-0.000276537743967
-0.000281430975713
-0.000282181485203
-0.000281433823693
-0.00028078769745
-0.000280817125917
-0.000281486480831
-0.000282301239543
-0.000281637541856
-0.000276787060092
-0.000265747315194
-0.000250839989526
-0.000212281943515
-0.000146521097798
-6.20774206107e-05
-6.05084682899e-05
-0.00014164428062
-0.000204407771682
-0.000242535705762
-0.000261278840557
-0.000265400760785
-0.000269378150504
-0.000270167041668
-0.000269758217851
-0.000269386036101
-0.000269435617572
-0.000269854643582
-0.000270328920138
-0.000269615253145
-0.000265695515105
-0.000261819100412
-0.000242975662157
-0.000204682992219
-0.000141788604393
-6.06202294347e-05
-5.77697382215e-05
-0.000131319895732
-0.000187891667393
-0.000223292414583
-0.000242487452931
-0.000250284924138
-0.000251454196279
-0.000249703610103
-0.00024822881742
-0.000247665503606
-0.000247751947905
-0.000248382250729
-0.000249964691938
-0.000251857342498
-0.000250774438314
-0.000242998123959
-0.000223722298559
-0.000188192053615
-0.000131491769699
-5.78838115398e-05
-5.32614780421e-05
-0.000113018639519
-0.000158764230522
-0.00018783108683
-0.000204301859297
-0.000211869404334
-0.00021395691506
-0.000213529453574
-0.000212691441882
-0.00021223623105
-0.000212323898433
-0.000212897407139
-0.000213842302444
-0.000214365165784
-0.000212337014147
-0.000204790036482
-0.000188264946341
-0.000159091954927
-0.00011321459495
-5.3370152334e-05
-4.64117453622e-05
-8.41518461176e-05
-0.000112982122912
-0.000131235972732
-0.00014153081071
-0.000146257663365
-0.00014758844014
-0.000147298408539
-0.000146704608193
-0.000146366187645
-0.000146463920175
-0.000146929828622
-0.000147616514969
-0.00014795957864
-0.00014665176082
-0.000141948964778
-0.000131609166122
-0.000113272289785
-8.43274280036e-05
-4.64949415578e-05
-3.82102260461e-05
-4.64144247831e-05
-5.32567442718e-05
-5.77577426427e-05
-6.04866423487e-05
-6.19474473594e-05
-6.25337414472e-05
-6.26247302379e-05
-6.25130592603e-05
-6.23816055154e-05
-6.24708849851e-05
-6.26664277055e-05
-6.28044110393e-05
-6.27244360377e-05
-6.21333088889e-05
-6.06687582865e-05
-5.79121320415e-05
-5.33756610233e-05
-4.64932787154e-05
-3.82511568262e-05
-4.50036045809e-05
-7.65397835815e-05
-0.000102133565788
-0.000119438786014
-0.000130236414421
-0.000136233288281
-0.000138972977654
-0.000139806734525
-0.000139810016218
-0.000139674713507
-0.000139743002378
-0.000139967455809
-0.000140017206826
-0.00013920918935
-0.000136461134991
-0.000130440588198
-0.000119593243053
-0.000102233631412
-7.66072230413e-05
-4.50801683227e-05
-7.65100541186e-05
-9.49705601604e-05
-0.000117242598442
-0.000133538959342
-0.000144167692196
-0.000150406639484
-0.000153598282173
-0.000154941507777
-0.000155397711435
-0.000155521119835
-0.000155561051373
-0.000155490925321
-0.000155069271705
-0.000153740762876
-0.000150555664936
-0.000144321068137
-0.0001336848253
-0.000117384531249
-9.51133730004e-05
-7.66206893004e-05
-0.000102111228917
-0.000117215277407
-0.000141445850754
-0.000159858562158
-0.000172035565599
-0.000179162197081
-0.000182738032015
-0.000184191110301
-0.000184675394514
-0.00018480295433
-0.000184834260088
-0.000184746918162
-0.000184290016227
-0.0001828562288
-0.000179290165121
-0.000172171932191
-0.00016000000365
-0.000141603888357
-0.000117399018948
-0.000102252263221
-0.000119440626694
-0.000133495160292
-0.000159837921333
-0.000180176336252
-0.000193659991064
-0.000201497563577
-0.000205425899848
-0.000206859866732
-0.000207456951599
-0.000207639022997
-0.00020765921512
-0.000207498282893
-0.000206918967726
-0.000205522949616
-0.000201607395773
-0.000193783886197
-0.000180313110228
-0.000160002691175
-0.000133699842813
-0.000119592346842
-0.000130256534417
-0.000144108861652
-0.000171995385038
-0.000193640333386
-0.000207935547737
-0.000216241302851
-0.000221540752034
-0.000224223395763
-0.000225368685553
-0.000225749977161
-0.000225767223928
-0.000225401826049
-0.000224267830529
-0.000221598065658
-0.000216300070164
-0.000208037837038
-0.000193780472767
-0.00017217047882
-0.000144328493158
-0.000130413892666
-0.000136247755277
-0.000150323421544
-0.000179094111276
-0.000201449569734
-0.000216224829871
-0.000226705703642
-0.000233261771659
-0.000236739966319
-0.000238260577217
-0.000238772656211
-0.000238785957132
-0.00023828662745
-0.000236783754249
-0.000233321530569
-0.000226764922215
-0.000216297968022
-0.000201606897536
-0.00017929106541
-0.000150561291708
-0.00013641624837
-0.000138960204899
-0.000153484862647
-0.000182635301911
-0.000205342239731
-0.000221504182063
-0.000233242009285
-0.000240635743777
-0.000244568856268
-0.000246271884281
-0.000246834125076
-0.000246842889934
-0.000246290056853
-0.000244608095179
-0.000240701194551
-0.000233320414687
-0.000221595929329
-0.000205533463581
-0.000182863404676
-0.000153745869708
-0.000139153697168
-0.000139743226321
-0.000154789806098
-0.000184052004053
-0.000206756004025
-0.000224165929016
-0.00023669975499
-0.000244552128721
-0.000248649229471
-0.000250378092456
-0.000250915584718
-0.000250920205914
-0.000250406848267
-0.000248684615982
-0.000244612149051
-0.000236784240624
-0.000224266448515
-0.000206931269491
-0.000184304700646
-0.00015507578946
-0.000139963270047
-0.000139676777577
-0.000155199377261
-0.000184494795886
-0.00020732371571
-0.000225286544181
-0.00023820206557
-0.000246244218363
-0.000250361516489
-0.000251952355532
-0.000252326321615
-0.00025234391845
-0.000251979785012
-0.000250406676414
-0.000246290249845
-0.00023827707862
-0.000225391894867
-0.000207508880876
-0.000184769172291
-0.000155505321915
-0.000139922736769
-0.000139457653029
-0.000155272140679
-0.000184578123539
-0.000207474669413
-0.000225640946648
-0.000238694596185
-0.000246792331164
-0.000250886251952
-0.000252295241524
-0.000252549089058
-0.000252583236266
-0.000252338530549
-0.000250905899807
-0.000246826130863
-0.000238760609165
-0.00022574925884
-0.000207651604878
-0.000184865726007
-0.000155591253683
-0.000139721001499
-0.000139433530307
-0.000155259796582
-0.000184563275941
-0.000207458410717
-0.000225624663762
-0.000238678098639
-0.000246774376431
-0.000250864608725
-0.0002522674799
-0.000252517832003
-0.000252554509844
-0.000252316192777
-0.000250889619554
-0.000246810876064
-0.000238744388982
-0.000225731685727
-0.000207633391649
-0.000184847923234
-0.000155576915357
-0.000139693971482
-0.000139611781251
-0.00015516452256
-0.000184451837459
-0.000207275811805
-0.000225239447811
-0.000238155824666
-0.000246195809259
-0.000250306863195
-0.000251887181655
-0.000252254540267
-0.000252279217558
-0.000251925875664
-0.000250363573683
-0.000246247701275
-0.000238230464484
-0.000225340144733
-0.000207452572182
-0.000184716389035
-0.000155462805541
-0.000139847499735
-0.00013965048934
-0.00015473722187
-0.000183984656687
-0.00020667801868
-0.00022409126755
-0.0002366277959
-0.000244480958195
-0.000248575090447
-0.000250303467579
-0.000250830620524
-0.000250843540465
-0.000250341046956
-0.000248621605349
-0.000244546193451
-0.000236709797275
-0.000224182659656
-0.000206838499754
-0.000184220939316
-0.000155009986838
-0.00013985387481
-0.000138857720228
-0.000153420530236
-0.000182549720902
-0.000205235967146
-0.0002214038384
-0.000233146933447
-0.000240544203733
-0.000244477805038
-0.00024617958832
-0.000246740767443
-0.000246754771187
-0.000246207549685
-0.000244525743724
-0.000240612592945
-0.000233218959494
-0.000221482355501
-0.000205405140071
-0.000182755773114
-0.000153663058895
-0.000139030315275
-0.00013615046319
-0.000150260479562
-0.000179002049941
-0.000201327741444
-0.000216100387487
-0.000226584388672
-0.000233146863152
-0.000236627832634
-0.000238149972378
-0.00023866362364
-0.000238678774952
-0.000238179764171
-0.000236674467165
-0.000233203257143
-0.000226631344366
-0.000216154388365
-0.000201457374408
-0.000179172121189
-0.000150475776183
-0.000136294996355
-0.000130180018169
-0.000144057429988
-0.000171910193313
-0.000193519027047
-0.000207782864974
-0.000216093882841
-0.000221394744451
-0.000224080156354
-0.00022522687269
-0.000225610288998
-0.000225627229808
-0.000225257782708
-0.000224120483544
-0.000221442604303
-0.000216136053513
-0.000207856236318
-0.000193627097718
-0.00017205591804
-0.000144252599742
-0.000130312543395
-0.000119394156641
-0.00013346174574
-0.00015977054971
-0.000180071296455
-0.000193519291703
-0.000201327296526
-0.00020523816699
-0.000206672643286
-0.000207265722464
-0.000207447507894
-0.000207465712151
-0.000207300697216
-0.000206720449654
-0.000205316231112
-0.000201410928316
-0.000193611528852
-0.000180176096794
-0.000159905881048
-0.000133641721804
-0.000119521480684
-0.00010209501662
-0.00011720130157
-0.00014140300688
-0.000159780942481
-0.00017192208676
-0.000179015993043
-0.000182565018609
-0.000183999042242
-0.000184469992777
-0.000184589639459
-0.000184618221633
-0.000184532957276
-0.000184083309545
-0.00018266250154
-0.000179118101893
-0.000172029465262
-0.000159893111043
-0.00014153373199
-0.000117362165113
-0.000102214021699
-7.65168404675e-05
-9.4969011607e-05
-0.000117221168266
-0.000133490573291
-0.000144088263963
-0.000150296035274
-0.000153459992952
-0.000154780765857
-0.000155221321356
-0.000155335967314
-0.000155373848547
-0.000155307859758
-0.000154896737024
-0.000153585044422
-0.000150423592143
-0.00014421763783
-0.000133612243038
-0.000117340581608
-9.50940050953e-05
-7.66138491677e-05
-4.50143439927e-05
-7.65329688711e-05
-0.000102114261399
-0.000119400322082
-0.000130169929493
-0.000136131524937
-0.000138837514603
-0.000139640946293
-0.000139620072662
-0.000139468876384
-0.00013953395
-0.000139768357491
-0.000139836493148
-0.000139054794688
-0.000136337044658
-0.000130350229622
-0.000119531690429
-0.000102193989067
-7.65881570355e-05
-4.50904859937e-05
-5.00655520014e-05
-9.7224590412e-05
-0.000136516601547
-0.000163854940805
-0.000181463318546
-0.000191715212798
-0.000196826534768
-0.00019876159346
-0.000199127283156
-0.000199028223119
-0.000199045508205
-0.000199180123467
-0.000198859496895
-0.000196961524558
-0.000191849866648
-0.000181567077676
-0.00016390117939
-0.000136506964389
-9.72220699509e-05
-5.01732207291e-05
-9.71592532105e-05
-0.000113585192569
-0.000138410278188
-0.000157772409901
-0.000171275437045
-0.000179901041178
-0.000184912309248
-0.00018750605779
-0.000188661227252
-0.000189072258867
-0.000189091712033
-0.000188711597746
-0.000187581643799
-0.000185008831003
-0.000180000589691
-0.000171366731749
-0.000157854629726
-0.000138499385577
-0.000113705734685
-9.72720348917e-05
-0.000136437257475
-0.000138341768253
-0.000159898031021
-0.000178129612038
-0.000191231172579
-0.000199744131819
-0.000204715387337
-0.000207398240227
-0.000208661784983
-0.000209139234149
-0.0002091590979
-0.000208711626219
-0.000207466425079
-0.000204786500826
-0.000199819217032
-0.000191314171812
-0.000178228897309
-0.000160036520865
-0.000138539504861
-0.00013658369571
-0.000163790364155
-0.000157657847469
-0.000178073687494
-0.000196282698112
-0.000209589259283
-0.000218272255891
-0.000223191114878
-0.000226271279767
-0.000227707177585
-0.000228251997582
-0.000228267530865
-0.000227746399702
-0.000226328090052
-0.000223246466675
-0.000218335906198
-0.000209662499029
-0.000196400440433
-0.000178252453793
-0.000157910665724
-0.000163972207342
-0.000181397076042
-0.000171127349199
-0.000191132006784
-0.000209547588331
-0.00022313559712
-0.000232389285929
-0.000238083925394
-0.00024150801845
-0.000243283560667
-0.00024392376882
-0.000243933080214
-0.000243313492439
-0.000241772142679
-0.000238431944936
-0.00023247595482
-0.000223050002571
-0.000209675299767
-0.000191351158195
-0.000171425119261
-0.000181627860142
-0.000191607579165
-0.000179716169143
-0.000199608941277
-0.000218199272597
-0.000232355757766
-0.000242114164786
-0.000248416728027
-0.000252711093035
-0.000255047228683
-0.000255784352027
-0.000255774456381
-0.000255039476858
-0.000253515411823
-0.000250006665779
-0.000242992741622
-0.000232490879983
-0.00021835834378
-0.000199866473191
-0.000180060046557
-0.000191909546103
-0.000196639694106
-0.000184684948211
-0.000204547951613
-0.000223089317193
-0.000238010350783
-0.000247854906209
-0.000254854581072
-0.000260093698764
-0.000262938385166
-0.000263731927464
-0.000263690688931
-0.000262860031244
-0.000261422496986
-0.000258072588061
-0.000250473489004
-0.000238469697372
-0.000223288613801
-0.000204844613254
-0.000185073390093
-0.000197032847466
-0.000198473005259
-0.000187230974288
-0.000207201906024
-0.00022613003864
-0.000241123088592
-0.00025103037828
-0.000258643178616
-0.000264406506381
-0.000267489394956
-0.000268259411782
-0.000268190975456
-0.000267344187035
-0.000265981080712
-0.000262704535178
-0.000254952463777
-0.00024206393891
-0.000226387272896
-0.000207530465651
-0.000187653955293
-0.000198945599742
-0.000198737463088
-0.000188337779819
-0.000208432787995
-0.000227536531986
-0.000242656675977
-0.000252770351905
-0.000260662970414
-0.000266547943508
-0.000269598518767
-0.000270336135893
-0.000270264776048
-0.000269458767749
-0.000268176940651
-0.000264883220014
-0.000256991885281
-0.000243792137501
-0.000227810878879
-0.000208780458208
-0.000188786356339
-0.000199264785893
-0.000198555971833
-0.000188705114698
-0.000208875613524
-0.000228054918825
-0.000243282726052
-0.000253520261612
-0.000261500989905
-0.000267366349713
-0.000270382142327
-0.000271096702364
-0.000271026578931
-0.000270239648346
-0.000268995101356
-0.000265680948972
-0.000257707325793
-0.000244406065911
-0.000228332896108
-0.000209232539963
-0.000189169936885
-0.000199112647843
-0.000198511983994
-0.000188689342192
-0.000208863164917
-0.000228043762762
-0.000243273675731
-0.000253514796642
-0.000261499137615
-0.00026736411594
-0.000270381054788
-0.000271098698789
-0.000271033087894
-0.000270248550755
-0.000269005334558
-0.000265685657345
-0.000257703826294
-0.000244396329722
-0.000228320032706
-0.000209218260663
-0.000189153097996
-0.000199067060001
-0.000198616351557
-0.000188293831062
-0.000208396837567
-0.000227502758345
-0.000242628036491
-0.000252751183245
-0.000260652492948
-0.000266538684045
-0.000269590801161
-0.000270336445322
-0.000270279873432
-0.000269476693099
-0.000268195666901
-0.000264888389521
-0.00025697611193
-0.000243760145467
-0.00022777119747
-0.000208737880278
-0.000188737360543
-0.000199135930984
-0.00019829156147
-0.00018716503108
-0.000207144560247
-0.000226073970994
-0.000241055258321
-0.000250928852479
-0.000258511591263
-0.000264260158286
-0.000267330006975
-0.000268103768976
-0.000268061851104
-0.000267223698289
-0.000265854909736
-0.000262577757956
-0.0002548484565
-0.000241987282643
-0.000226319735798
-0.000207460802589
-0.000187577596111
-0.000198748602509
-0.000196422264307
-0.000184606090909
-0.000204468886699
-0.000223009517931
-0.000237911769907
-0.000247667250393
-0.000254548301532
-0.000259724746006
-0.000262556243005
-0.000263358918371
-0.000263329729921
-0.000262499857761
-0.000261062979983
-0.00025775947585
-0.000250276138648
-0.000238358414351
-0.000223193840618
-0.000204747599568
-0.000184979135014
-0.000196792593399
-0.000191379396324
-0.000179630163225
-0.000199514577462
-0.000218085752225
-0.000232245289724
-0.00024195573954
-0.000248127832558
-0.000252323368087
-0.000254639596271
-0.000255384358251
-0.000255379104213
-0.000254641044867
-0.000253131468935
-0.000249712547574
-0.000242817757079
-0.000232360497489
-0.000218224677898
-0.000199749382365
-0.00017995451769
-0.000191653298101
-0.000181186007998
-0.000171041692254
-0.000191032838598
-0.000209424057289
-0.000222933255213
-0.000232252860211
-0.000237937340672
-0.000241331273229
-0.000243097116043
-0.000243741142173
-0.000243751185362
-0.000243126469491
-0.000241593722569
-0.000238275647702
-0.000232320865907
-0.000222875086181
-0.000209525306688
-0.000191226844654
-0.000171317944707
-0.000181386104992
-0.000163620330449
-0.000157581561067
-0.000177976740784
-0.000196160217873
-0.000209441091105
-0.00021810374376
-0.000223040542991
-0.00022611311301
-0.000227545746245
-0.000228089328175
-0.000228103516814
-0.000227581168726
-0.000226163127962
-0.000223083878175
-0.000218148778129
-0.000209488342201
-0.000196250663329
-0.000178130793688
-0.000157811900746
-0.00016377117287
-0.000136320909836
-0.000138278960194
-0.000159810377073
-0.000178013528056
-0.000191090441543
-0.000199581352834
-0.000204540511539
-0.000207211318602
-0.000208465284352
-0.000208936195908
-0.000208954180335
-0.000208509165438
-0.000207268983082
-0.000204595649964
-0.000199635212403
-0.000191148899764
-0.000178088407617
-0.000159925274974
-0.000138454987527
-0.000136439351094
-9.71044612392e-05
-0.000113534054119
-0.000138331500893
-0.000157664399201
-0.000171137732044
-0.000179735889253
-0.000184725266555
-0.000187300991969
-0.000188442306327
-0.000188845668381
-0.000188863620599
-0.000188487670402
-0.000187367089708
-0.000184808326583
-0.000179817431645
-0.00017120787161
-0.000157723806093
-0.000138398654509
-0.000113635767522
-9.72002548414e-05
-5.00694592538e-05
-9.71596702989e-05
-0.000136405228876
-0.000163701969494
-0.000181265576702
-0.000191467779263
-0.000196534813317
-0.000198431960785
-0.000198768851335
-0.000198652541805
-0.000198666451604
-0.0001988121672
-0.000198513216679
-0.000196647152855
-0.000191574232805
-0.000181337291459
-0.000163715678305
-0.00013636578409
-9.7139057391e-05
-5.01769682133e-05
-5.29338785381e-05
-0.000111072839995
-0.000160138938494
-0.000195053940583
-0.000218108175773
-0.000232000764333
-0.00023929330219
-0.000242315455574
-0.000243116175719
-0.000243126747435
-0.000243074035179
-0.000242995432495
-0.000242205555191
-0.000239240461502
-0.000231983730858
-0.000218083210166
-0.000194972179521
-0.000159986020086
-0.000110925399232
-5.30616413252e-05
-0.000110939556873
-0.000127479083143
-0.00015533279775
-0.000177683936919
-0.000193722475226
-0.000204348044314
-0.000210802989044
-0.000214294238264
-0.000215929372983
-0.000216519414586
-0.000216513930582
-0.000215922891536
-0.000214303752213
-0.000210833783018
-0.000204395128248
-0.000193770304552
-0.000177719317924
-0.000155366183532
-0.000127552451201
-0.000111079847286
-0.000159974044489
-0.000155226468978
-0.000177091641914
-0.000196514811121
-0.000211032897775
-0.000220883450563
-0.000227064091763
-0.000230578337905
-0.000232339251957
-0.000233037999729
-0.000233050501187
-0.000232375102876
-0.000230630810511
-0.000227124927204
-0.000220939592311
-0.000211105213756
-0.000196605576885
-0.000177224192908
-0.00015543245434
-0.000160177846291
-0.000194879108813
-0.000177511720098
-0.000196434564288
-0.000214619077738
-0.000228472547938
-0.000237532806049
-0.000243599868194
-0.000247513496627
-0.000249599175253
-0.000250333132841
-0.000250349786703
-0.000249650411745
-0.000248084622801
-0.000244730403866
-0.00023802526293
-0.000228586296586
-0.000214756951655
-0.000196638496653
-0.000177801697752
-0.000195179657213
-0.000217888192302
-0.000193501807653
-0.000210893900447
-0.000228416769076
-0.000241280440731
-0.000250151706866
-0.000256297793635
-0.000261238440424
-0.000264069997954
-0.000264811906596
-0.000264813394691
-0.000264091080971
-0.000263120913228
-0.000260494914899
-0.000253669559866
-0.000242708883798
-0.000228610027084
-0.000211162738361
-0.000193867037072
-0.000218319279901
-0.000231669889094
-0.000204074529503
-0.000220702544631
-0.000237463149782
-0.000249439961249
-0.000257684734417
-0.000264617661485
-0.000271133984355
-0.000274906481399
-0.000275625486102
-0.000275581982188
-0.000274809594297
-0.000274615728821
-0.000273223478776
-0.000266573481639
-0.000254293576615
-0.000238065558856
-0.000221019590844
-0.000204512672132
-0.000232272351325
-0.000238802610892
-0.000210470519437
-0.000226847161271
-0.000242934598949
-0.000253654041561
-0.00026174240449
-0.00026955549249
-0.00027748542418
-0.000282001086027
-0.000282659517116
-0.00028256283888
-0.000281747047232
-0.000282212294994
-0.000282147314433
-0.000275994664335
-0.000262902767877
-0.000245269555016
-0.00022723205044
-0.000210973843785
-0.000239594662869
-0.000241670618063
-0.000213904947442
-0.000230346011788
-0.000245697541581
-0.00025596325163
-0.000263987666753
-0.00027247375721
-0.000281063308384
-0.000285881330026
-0.000286464951815
-0.000286334626181
-0.00028552724162
-0.000286375718401
-0.000287042450038
-0.000281454341242
-0.000267947909362
-0.000249625111514
-0.000230758659396
-0.00021445952306
-0.000242603105649
-0.000242368764252
-0.000215498510819
-0.000232088538685
-0.000247235744759
-0.000257402532169
-0.000265504259057
-0.000274178940271
-0.000282791831033
-0.000287656137858
-0.000288244428997
-0.000288079685616
-0.000287271015847
-0.000288295006334
-0.000289160135774
-0.000283727997366
-0.000270173826104
-0.000251669430935
-0.000232515774355
-0.000216081145484
-0.000243374785497
-0.00024233248968
-0.000216063411364
-0.000232762491081
-0.000247945394664
-0.000258143030269
-0.000266295669765
-0.000274982209113
-0.000283565129196
-0.000288420722437
-0.000288984037095
-0.000288825564206
-0.000288006707978
-0.000289047960398
-0.000289920839731
-0.000284482731335
-0.000270910227127
-0.000252384217525
-0.000233198659649
-0.000216662939642
-0.000243375127716
-0.000242266423127
-0.000216045339507
-0.000232749825792
-0.000247935695858
-0.000258138080585
-0.000266297690698
-0.00027499041273
-0.000283575173859
-0.000288438569089
-0.0002890082792
-0.000288853647237
-0.000288036424761
-0.000289076924271
-0.000289938591291
-0.000284487331357
-0.000270904168531
-0.000252372179118
-0.000233184600573
-0.000216645814574
-0.00024330979052
-0.000242179979184
-0.000215447031034
-0.000232051756484
-0.00024720569249
-0.000257384902451
-0.00026550542657
-0.000274192597296
-0.00028281436132
-0.000287692269609
-0.000288294861006
-0.000288149634606
-0.000287340027609
-0.00028835966229
-0.000289198860494
-0.000283732205291
-0.000270150625005
-0.00025163148169
-0.00023247411204
-0.000216031643376
-0.000243187182059
-0.000241379407908
-0.000213825763706
-0.000230288335977
-0.000245606497681
-0.000255786441327
-0.000263716779669
-0.000272123813212
-0.000280642855554
-0.000285401122869
-0.000285997786757
-0.000285917908932
-0.000285122745206
-0.000285945377144
-0.000286605081847
-0.000281099082437
-0.000267729751063
-0.000249515295505
-0.000230690124148
-0.000214380020227
-0.00024230810163
-0.0002384385927
-0.000210366315854
-0.000226764630452
-0.000242763785175
-0.000253270673089
-0.00026105875016
-0.000268582804202
-0.000276300905899
-0.000280731361105
-0.000281397901242
-0.00028131696273
-0.00028049970873
-0.0002809416815
-0.00028096037358
-0.000275140039861
-0.000262448443357
-0.000245077220668
-0.00022713494528
-0.000210865359386
-0.000239218642506
-0.00023127039196
-0.00020395176732
-0.00022059309454
-0.000237268024696
-0.000249062379276
-0.000256919169858
-0.000263450607476
-0.000269670425959
-0.000273340386577
-0.000274062098525
-0.000274021475079
-0.000273244325158
-0.000273065602553
-0.000271888053015
-0.000265684612716
-0.000253874134335
-0.000237883205917
-0.000220894872449
-0.000204382461192
-0.000231855610442
-0.000217497598296
-0.000193368880814
-0.000210771429687
-0.000228282088094
-0.000241113791668
-0.000249637060596
-0.000255452271339
-0.000260165075374
-0.000262921702747
-0.00026365837265
-0.000263660205712
-0.000262932257522
-0.000262003756846
-0.000259577759865
-0.000253111628742
-0.000242479067406
-0.000228458470882
-0.000211024462192
-0.00019372548308
-0.000217908899867
-0.000194534888105
-0.000177376740803
-0.000196301304079
-0.000214470757531
-0.000228306650474
-0.000237264837417
-0.000243259719665
-0.000247052937411
-0.000249093100503
-0.00024982541213
-0.000249837614431
-0.000249137377385
-0.000247609272044
-0.000244369466087
-0.000237768411783
-0.000228403704438
-0.000214590758951
-0.000196490390373
-0.000177655641832
-0.000194812707407
-0.000159700379441
-0.000155094531494