/*--------------------------------*- C++ -*----------------------------------*\
| =========                 |                                                 |
| \\      /  F ield         | OpenFOAM: The Open Source CFD Toolbox           |
|  \\    /   O peration     | Version:  3.0.1                                 |
|   \\  /    A nd           | Web:      www.OpenFOAM.org                      |
|    \\/     M anipulation  |                                                 |
\*---------------------------------------------------------------------------*/
FoamFile
{
    version     2.0;
    format      ascii;
    class       volScalarField;
    location    "6.8";
    object      p_rgh;
}
// * * * * * * * * * * * * * * * * * * * * * * * * * * * * * * * * * * * * * //

dimensions      [1 -1 -2 0 0 0 0];

internalField   nonuniform List<scalar> 
7968
(
4891.44061682
4891.44370215
4891.4183028
4891.38019638
4891.33839298
4891.29971921
4891.27222446
4891.25516105
4891.24416301
4891.23465756
4891.22429442
4891.21308368
4891.20369075
4891.20102726
4891.21001009
4891.23136841
4891.25888838
4891.28583327
4891.30421378
4891.29824867
4891.44555798
4891.47018672
4891.45522324
4891.4222339
4891.38118721
4891.34354153
4891.31512157
4891.29800311
4891.28762595
4891.27851052
4891.26804776
4891.2562797
4891.24613484
4891.24329316
4891.25282655
4891.27351721
4891.29990598
4891.32164654
4891.32968213
4891.30252547
4891.42496293
4891.45977759
4891.44762147
4891.4108488
4891.36114693
4891.31437873
4891.27860698
4891.25576511
4891.24153633
4891.23035483
4891.21972015
4891.20973315
4891.20323489
4891.20601238
4891.22283866
4891.25245845
4891.28728509
4891.31253607
4891.31772779
4891.28063772
4891.39341774
4891.43365686
4891.41774726
4891.37161548
4891.31163532
4891.25817707
4891.22036549
4891.19793102
4891.18466269
4891.17371461
4891.1629265
4891.15255578
4891.14495983
4891.14731688
4891.16616411
4891.20219965
4891.24696731
4891.28119519
4891.28995375
4891.24751811
4891.35990314
4891.40097459
4891.37651253
4891.32008664
4891.25506662
4891.20430378
4891.17403896
4891.16079035
4891.15501013
4891.14814894
4891.13738063
4891.1227988
4891.10765126
4891.1008512
4891.11217734
4891.14536331
4891.19480757
4891.23884471
4891.25580904
4891.21256073
4891.3310464
4891.37307
4891.33938829
4891.27620506
4891.21389782
4891.1737998
4891.15810707
4891.16090285
4891.1676562
4891.16727551
4891.1565861
4891.13554926
4891.10768512
4891.08472926
4891.0815259
4891.10408751
4891.15068326
4891.201037
4891.22687467
4891.18261498
4891.31401139
4891.35531202
4891.3141482
4891.24885161
4891.19411631
4891.16865128
4891.17223756
4891.19560459
4891.21846335
4891.2263524
4891.21585864
4891.18674272
4891.14248599
4891.09855907
4891.07599553
4891.08404562
4891.12308929
4891.17530827
4891.20829846
4891.16473692
4891.30790286
4891.34929868
4891.30239917
4891.23755205
4891.19211089
4891.18281952
4891.20705099
4891.25251376
4891.29301639
4891.31398155
4891.30417169
4891.26248611
4891.19971394
4891.13312151
4891.08963943
4891.08161652
4891.1115168
4891.16320998
4891.20173606
4891.15810869
4891.30806524
4891.35019991
4891.29958585
4891.23587286
4891.19805602
4891.20141916
4891.24176959
4891.30472121
4891.3682893
4891.40260121
4891.39335896
4891.3393632
4891.25319008
4891.16770543
4891.10779571
4891.08713913
4891.10960227
4891.16013345
4891.20230396
4891.15794599
4891.30969788
4891.35235096
4891.29990946
4891.23672625
4891.20301235
4891.21288947
4891.26139932
4891.33669014
4891.41327887
4891.45278258
4891.44375637
4891.385095
4891.28619741
4891.18744592
4891.1192179
4891.09207409
4891.11071415
4891.16041295
4891.20432842
4891.15942435
4891.31020738
4891.35290542
4891.30055806
4891.23749828
4891.203907
4891.21390603
4891.26250706
4891.33789374
4891.41457235
4891.45414434
4891.44516378
4891.38651608
4891.2875797
4891.1887573
4891.12043842
4891.09316967
4891.11170916
4891.16118395
4891.20495114
4891.16001622
4891.30951579
4891.35179084
4891.30144548
4891.23810518
4891.20066691
4891.20442772
4891.24512845
4891.30837349
4891.37224034
4891.40678908
4891.39768076
4891.34371531
4891.25734058
4891.17160093
4891.11137266
4891.09029048
4891.11228267
4891.1623179
4891.20409858
4891.15961833
4891.3100896
4891.35171971
4891.30522102
4891.24096687
4891.19620215
4891.18762185
4891.21252634
4891.2585577
4891.29955566
4891.32094243
4891.31134201
4891.26958421
4891.20639917
4891.13936257
4891.09525917
4891.08647296
4891.11556097
4891.16648483
4891.20444304
4891.1605827
4891.31665185
4891.35821098
4891.31752371
4891.25296201
4891.19913411
4891.17467209
4891.17923289
4891.20348142
4891.22699746
4891.2352957
4891.22499342
4891.19577457
4891.15110894
4891.10644039
4891.08293866
4891.089928
4891.12788355
4891.1791459
4891.21146806
4891.1676497
4891.33384864
4891.3760794
4891.34288738
4891.28050008
4891.21923723
4891.18030014
4891.16575875
4891.16961305
4891.17717961
4891.17728693
4891.16676638
4891.14555428
4891.11712174
4891.09323763
4891.08890865
4891.11024343
4891.15559342
4891.20491227
4891.23007006
4891.18566431
4891.36245226
4891.40383024
4891.37980781
4891.32414382
4891.26014852
4891.21061876
4891.18155479
4891.16943628
4891.164526
4891.15814858
4891.14747905
4891.13269158
4891.11689504
4891.1090699
4891.11920595
4891.15106981
4891.19929874
4891.24239258
4891.25880445
4891.21530567
4891.39561384
4891.43616032
4891.42066021
4891.37519703
4891.31613256
4891.26379334
4891.22713775
4891.20578289
4891.19333606
4891.18259897
4891.17165508
4891.1613652
4891.15318338
4891.15452201
4891.17218207
4891.20697866
4891.25069105
4891.28417301
4891.29249691
4891.24993319
4891.42679505
4891.46199006
4891.45017439
4891.41393829
4891.36496981
4891.31915617
4891.28439982
4891.26249371
4891.24897281
4891.23813768
4891.2275075
4891.21726441
4891.21011684
4891.21195605
4891.22769549
4891.25624974
4891.29028356
4891.31499982
4891.3198719
4891.28266677
4891.44744414
4891.47220711
4891.45758784
4891.42504978
4891.38450314
4891.3477025
4891.32021905
4891.30395724
4891.29421306
4891.28541714
4891.27494705
4891.26285691
4891.25205826
4891.24833044
4891.25687816
4891.27671293
4891.30255448
4891.32383959
4891.33165798
4891.30446982
4891.44256477
4891.44594244
4891.42080965
4891.38317115
4891.34199302
4891.30409382
4891.2774223
4891.2611242
4891.25070172
4891.24149623
4891.23111318
4891.21956542
4891.20954717
4891.20605863
4891.21416663
4891.23468811
4891.26157937
4891.28806971
4891.3061133
4891.29988295
4891.41450183
4891.4053033
4891.36998286
4891.3246282
4891.28025596
4891.24322997
4891.21701419
4891.20210815
4891.19324661
4891.18475862
4891.17434824
4891.16207431
4891.15043804
4891.14529601
4891.1525424
4891.17239586
4891.20217938
4891.23614102
4891.26421382
4891.27047997
4891.40697939
4891.41216823
4891.38088271
4891.33953978
4891.30277044
4891.27465147
4891.25597355
4891.24670995
4891.24118492
4891.23424693
4891.22379283
4891.20987574
4891.19489175
4891.18415715
4891.18391066
4891.19508498
4891.217052
4891.24667613
4891.27064083
4891.26243884
4891.37609395
4891.38537694
4891.34774503
4891.29927265
4891.25661347
4891.22529058
4891.20567591
4891.19605338
4891.19020668
4891.18300305
4891.17242237
4891.15856204
4891.14381966
4891.13349064
4891.13427594
4891.14847056
4891.1761024
4891.21252241
4891.24253888
4891.23018082
4891.33768537
4891.35102969
4891.30623015
4891.25082468
4891.20643966
4891.17839459
4891.16456719
4891.16166549
4891.15997616
4891.15459879
4891.14389825
4891.12785231
4891.10884803
4891.09169442
4891.08702161
4891.09791784
4891.12706452
4891.16992816
4891.20667651
4891.19020529
4891.30195209
4891.32292671
4891.2721105
4891.21489205
4891.17785701
4891.16542088
4891.17120898
4891.18555081
4891.19630912
4891.19693825
4891.18618376
4891.16409286
4891.13244066
4891.09826689
4891.07386029
4891.06899684
4891.09076351
4891.13505361
4891.17734621
4891.15315688
4891.27481727
4891.30446925
4891.25041452
4891.19641185
4891.17500737
4891.18628071
4891.21947009
4891.25899415
4891.28787488
4891.29760409
4891.28707131
4891.2561762
4891.20617001
4891.14644654
4891.09446011
4891.06598036
4891.07194812
4891.11280392
4891.15798615
4891.12503886
4891.25924499
4891.29634296
4891.24126104
4891.19311354
4891.19139997
4891.23010509
4891.29405805
4891.36227473
4891.41200539
4891.43214247
4891.42212731
4891.38140983
4891.31033746
4891.22107935
4891.13770233
4891.08164369
4891.06785559
4891.10320779
4891.14928792
4891.10886225
4891.25540539
4891.29829059
4891.24268411
4891.20135084
4891.21708145
4891.28106165
4891.37380112
4891.46949333
4891.53752659
4891.56168853
4891.55176754
4891.50742135
4891.41853877
4891.30091827
4891.18804122
4891.10651034
4891.07588035
4891.10433883
4891.15077965
4891.1046466
4891.25777159
4891.30410786
4891.24818723
4891.21123951
4891.23969191
4891.32201682
4891.43535869
4891.54903425
4891.61907965
4891.64806365
4891.63863323
4891.58967438
4891.49784942
4891.36240069
4891.22812793
4891.12830501
4891.08517574
4891.10954857
4891.15629057
4891.10678896
4891.2605164
4891.30845574
4891.25244084
4891.21746987
4891.25219765
4891.3435366
4891.46681466
4891.58446571
4891.65881752
4891.69254777
4891.68345277
4891.62999977
4891.53330654
4891.39403238
4891.24944451
4891.14055444
4891.09114273
4891.11367005
4891.16055897
4891.10941148
4891.26108841
4891.309059
4891.2531692
4891.21828568
4891.25313952
4891.34457247
4891.4679363
4891.58561729
4891.66001614
4891.693801
4891.68475179
4891.63131416
4891.53462718
4891.39538697
4891.25074743
4891.14175057
4891.09214137
4891.11454456
4891.16124546
4891.11007592
4891.25939314
4891.30584485
4891.25027383
4891.21366398
4891.24248179
4891.32525606
4891.43885884
4891.55267751
4891.62280573
4891.65189713
4891.64259416
4891.59368878
4891.50194049
4891.3665269
4891.23207878
4891.13190417
4891.08821392
4891.11208354
4891.15827715
4891.10871474
4891.25780811
4891.30099165
4891.24586399
4891.2051691
4891.22162873
4891.28654877
4891.37978785
4891.47592615
4891.54414927
4891.568404
4891.55865299
4891.51438017
4891.42567899
4891.30776287
4891.19440026
4891.11215173
4891.08061197
4891.10822346
4891.15387069
4891.10753902
4891.26207215
4891.29959886
4891.24512342
4891.19785414
4891.19722863
4891.23712572
4891.30217401
4891.37121263
4891.42156159
4891.44211767
4891.43233201
4891.3915649
4891.32010643
4891.23016357
4891.14585964
4891.08862149
4891.07359118
4891.10787209
4891.15305238
4891.11222548
4891.27768373
4891.30779316
4891.25446192
4891.20150224
4891.18136569
4891.19408599
4891.22867569
4891.26941181
4891.29917033
4891.30943102
4891.29915343
4891.26803023
4891.21736248
4891.15661629
4891.10335544
4891.07342593
4891.07799716
4891.11762742
4891.16186562
4891.12850327
4891.30466112
4891.32611562
4891.27598325
4891.21979294
4891.18398896
4891.17315388
4891.18046634
4891.19613737
4891.20792224
4891.20920938
4891.19866506
4891.17623154
4891.14376144
4891.10836778
4891.08252306
4891.07615393
4891.09649769
4891.1395673
4891.18102855
4891.15639641
4891.34012544
4891.35387394
4891.30958699
4891.25514042
4891.212001
4891.18537744
4891.17292338
4891.17139229
4891.17067747
4891.16619072
4891.15585467
4891.13905548
4891.11913908
4891.10058485
4891.09468059
4891.10417341
4891.13195082
4891.17371026
4891.20982735
4891.19307644
4891.37823044
4891.38780067
4891.35053499
4891.30279789
4891.26125607
4891.23117158
4891.21277855
4891.20430444
4891.19934028
4891.19269267
4891.18222226
4891.16796001
4891.15243308
4891.14098325
4891.14057228
4891.15351941
4891.17994178
4891.21549691
4891.2450816
4891.23269936
4891.40879854
4891.41433208
4891.3833099
4891.34255044
4891.30663195
4891.27949897
4891.26187262
4891.25369349
4891.24891978
4891.24238258
4891.23192856
4891.21764484
4891.20195809
4891.19023884
4891.18894936
4891.1990987
4891.22013659
4891.24912438
4891.27281392
4891.2645852
4891.41638546
4891.40751822
4891.37247
4891.32765132
4891.28405536
4891.24797268
4891.22272529
4891.20866541
4891.20045923
4891.19235268
4891.18195921
4891.16933794
4891.15700663
4891.15092994
4891.15718898
4891.1760728
4891.20504796
4891.23840727
4891.26610974
4891.27197644
4891.39401198
4891.37439767
4891.33250593
4891.28185675
4891.23430822
4891.19525441
4891.16760965
4891.15106025
4891.14020306
4891.13011716
4891.11941763
4891.10830539
4891.09823891
4891.09443871
4891.10261916
4891.12397596
4891.15636887
4891.19512322
4891.22960818
4891.24566027
4891.37609044
4891.37903579
4891.34688956
4891.30556416
4891.27429152
4891.2522923
4891.2385868
4891.23134268
4891.22550384
4891.21777048
4891.20692046
4891.19311576
4891.17801441
4891.16519754
4891.15966524
4891.164417
4891.18061222
4891.20955913
4891.2337989
4891.2275475
4891.3388725
4891.35166662
4891.30953639
4891.25272922
4891.2065346
4891.17639863
4891.16030042
4891.15282393
4891.14799685
4891.140754
4891.12973166
4891.1151908
4891.09891739
4891.08624733
4891.08340339
4891.0962079
4891.12685718
4891.17110661
4891.20499948
4891.18923357
4891.29548178
4891.31770581
4891.26004007
4891.18838949
4891.1365398
4891.10984911
4891.10391743
4891.1060239
4891.10839341
4891.10476277
4891.09337681
4891.07460826
4891.05103682
4891.02964926
4891.01655312
4891.02578644
4891.06201219
4891.12046018
4891.1697582
4891.14448666
4891.25697336
4891.29539096
4891.22273216
4891.14530388
4891.09949716
4891.08861371
4891.10226249
4891.1246157
4891.14161106
4891.14509731
4891.13345871
4891.10758594
4891.07021284
4891.02955956
4890.99715631
4890.98916421
4891.01870292
4891.08267883
4891.14625901
4891.10488028
4891.22827982
4891.28339448
4891.20253433
4891.12818382
4891.09779506
4891.11256338
4891.15551598
4891.20387738
4891.23880424
4891.25085664
4891.23891231
4891.20355197
4891.1486033
4891.08411452
4891.02444937
4890.99002494
4891.00197451
4891.06202651
4891.13335267
4891.07542633
4891.21178042
4891.28060324
4891.19706618
4891.1322715
4891.12077592
4891.16445815
4891.23879376
4891.31421656
4891.36792024
4891.3895215
4891.37678291
4891.3299466
4891.25480548
4891.16467241
4891.0774477
4891.01522412
4891.00705009
4891.056238
4891.13024537
4891.05849396
4891.20644321
4891.28481654
4891.20086132
4891.14554897
4891.15350489
4891.22304925
4891.32551305
4891.42571547
4891.49816909
4891.52999948
4891.51667153
4891.4577909
4891.36155633
4891.24625778
4891.13409724
4891.04792365
4891.01955742
4891.05956871
4891.13412911
4891.05298445
4891.20694384
4891.29062713
4891.20788027
4891.16015042
4891.18276831
4891.27085737
4891.3933332
4891.51261776
4891.60236664
4891.64238145
4891.62880339
4891.56135133
4891.44669593
4891.31036403
4891.17857333
4891.07512537
4891.03289789
4891.06593861
4891.13954886
4891.05342262
4891.20833086
4891.29458595
4891.21269654
4891.16916729
4891.19917977
4891.29659756
4891.42954716
4891.5592601
4891.65724592
4891.70167231
4891.6880349
4891.61615948
4891.49323581
4891.34525827
4891.20281898
4891.09043243
4891.04112898
4891.07047275
4891.14355183
4891.05487097
4891.20893529
4891.29523279
4891.21354897
4891.17012804
4891.20023372
4891.29786098
4891.43110867
4891.5610158
4891.65914868
4891.70370123
4891.69013484
4891.61827088
4891.49531546
4891.34718367
4891.20453862
4891.09196247
4891.04246587
4891.07151981
4891.14419315
4891.0555878
4891.20853329
4891.29248165
4891.21032975
4891.1629359
4891.18625516
4891.27499065
4891.39819727
4891.51808039
4891.60820748
4891.64852181
4891.63519386
4891.56786513
4891.45305864
4891.31615412
4891.18367305
4891.07959404
4891.03678162
4891.06910611
4891.14177375
4891.05555783
4891.20881016
4891.28776112
4891.20462138
4891.15005165
4891.15911894
4891.22986225
4891.33338528
4891.43467382
4891.50771012
4891.54003568
4891.52711786
4891.46841778
4891.37174333
4891.25535408
4891.14201294
4891.05481163
4891.02551218
4891.06433806
4891.13752163
4891.05612903
4891.21462179
4891.28419249
4891.20164295
4891.13795644
4891.12764664
4891.17278171
4891.24854456
4891.32542699
4891.38008373
4891.40235047
4891.39002644
4891.34316781
4891.26726263
4891.1758324
4891.08715929
4891.02371437
4891.01428081
4891.06189729
4891.13454465
4891.06213155
4891.23122883
4891.28688654
4891.20746811
4891.13443274
4891.10527695
4891.12152725
4891.1659563
4891.21576213
4891.25183456
4891.26471839
4891.25312837
4891.21746268
4891.16163912
4891.09586976
4891.03492683
4890.99920322
4891.00956968
4891.06791427
4891.13780534
4891.07910835
4891.25975713
4891.29875875
4891.22737186
4891.15145052
4891.10695338
4891.09766435
4891.11288618
4891.13668853
4891.15492265
4891.15915304
4891.14790112
4891.12161854
4891.08342371
4891.04148253
4891.00773976
4890.99823525
4891.02594781
4891.08818176
4891.1504957
4891.10828267
4891.29789022
4891.32073037
4891.26370617
4891.19372965
4891.14352183
4891.11848689
4891.11416934
4891.11761509
4891.1212066
4891.11841494
4891.10735303
4891.0881121
4891.06358314
4891.0410684
4891.02631641
4891.03377976
4891.06816366
4891.12512078
4891.1734997
4891.14741763
4891.34094558
4891.35411951
4891.31240225
4891.25662112
4891.21223071
4891.18381076
4891.16923111
4891.16319072
4891.15949663
4891.15296822
4891.14211789
4891.12713159
4891.10991262
4891.09588641
4891.09148526
4891.10254975
4891.13158538
4891.17475422
4891.20811419
4891.19169591
4891.37806197
4891.38122648
4891.3492384
4891.30871465
4891.27849441
4891.25774051
4891.24571527
4891.23980719
4891.2347876
4891.22754559
4891.21676429
4891.20256489
4891.18664626
4891.17263717
4891.16560724
4891.1691005
4891.18421859
4891.21244257
4891.23629996
4891.2297263
4891.39549427
4891.37658094
4891.33489396
4891.28490894
4891.23844969
4891.20080472
4891.17450032
4891.15888012
4891.14877626
4891.13923973
4891.12860436
4891.11689525
4891.10601131
4891.10115964
4891.10804395
4891.12819177
4891.15952566
4891.19755111
4891.23128149
4891.24649553
4891.35675743
4891.32826132
4891.28183388
4891.22693528
4891.17623563
4891.13401494
4891.10257034
4891.08037025
4891.06370038
4891.04999613
4891.03857948
4891.02972168
4891.02449299
4891.02575178
4891.03749142
4891.06181055
4891.09687099
4891.13922352
4891.17749436
4891.20236005
4891.33007401
4891.33096726
4891.29672199
4891.25078093
4891.21068667
4891.17886866
4891.15646392
4891.14014164
4891.12625178
4891.11347218
4891.10194678
4891.09203872
4891.0840948
4891.07954757
4891.08235446
4891.09627247
4891.12095976
4891.15426519
4891.17998914
4891.17599974
4891.28861121
4891.30192534
4891.25599485
4891.18907341
4891.13040332
4891.08677104
4891.0607213
4891.04618062
4891.03652024
4891.02666246
4891.01467349
4891.00113531
4890.98916419
4890.98322713
4890.98988525
4891.01565683
4891.05841252
4891.11178246
4891.1494753
4891.13352332
4891.24134033
4891.26376072
4891.19708482
4891.10355132
4891.02745995
4890.98195097
4890.96733716
4890.96896417
4890.97321745
4890.97031185
4890.95736835
4890.93550732
4890.91019106
4890.8907025
4890.88734498
4890.9133152
4890.97184653
4891.05199969
4891.11020396
4891.08523637
4891.20005531
4891.23295932
4891.14773452
4891.03654193
4890.95994693
4890.93501403
4890.94951311
4890.97176091
4890.99836519
4890.99761832
4890.98277822
4890.95756775
4890.91356563
4890.87147386
4890.84391366
4890.85094855
4890.90634219
4891.00196424
4891.07857854
4891.04324663
4891.16835417
4891.21169024
4891.11437378
4890.99967927
4890.94361896
4890.95317855
4891.00408871
4891.06185398
4891.10439542
4891.1167428
4891.0976402
4891.04868713
4890.98148721
4890.91330652
4890.85977992
4890.83827524
4890.87416504
4890.96868558
4891.05703471
4891.0111815
4891.14823514
4891.20001842
4891.09856832
4890.99390421
4890.9660757
4891.01455475
4891.103183
4891.18894651
4891.24741007
4891.26478827
4891.24034451
4891.17545943
4891.08451754
4890.9891043
4890.90754525
4890.85879896
4890.87134267
4890.95405236
4891.04582391
4890.99105596
4891.1377119
4891.19543349
4891.09461941
4891.00635442
4891.00301903
4891.08909792
4891.20899212
4891.31804064
4891.39003326
4891.41318159
4891.38469982
4891.30529272
4891.19180764
4891.07147755
4890.96522401
4890.89415916
4890.88266974
4890.95118017
4891.04118491
4890.98081493
4891.13320974
4891.19394665
4891.09707088
4891.0244887
4891.04562657
4891.1521335
4891.29456621
4891.41922977
4891.50626092
4891.53663232
4891.5058559
4891.41578724
4891.28355628
4891.14179027
4891.01511532
4890.91871166
4890.89704417
4890.95319029
4891.03924927
4890.97626312
4891.13171837
4891.19376834
4891.1003209
4891.03599386
4891.0619564
4891.18688056
4891.34119308
4891.47426146
4891.56907331
4891.60309468
4891.57100469
4891.47571636
4891.3348663
4891.18202578
4891.04422977
4890.93705587
4890.9067151
4890.95567653
4891.03843582
4890.9746578
4891.13231875
4891.19461431
4891.10139669
4891.03732737
4891.06368753
4891.18931027
4891.34420528
4891.47789289
4891.57311599
4891.60744565
4891.57540173
4891.47993912
4891.33900131
4891.18567054
4891.04715303
4890.93930383
4890.9085166
4890.95702857
4891.03939006
4890.97526351
4891.13497077
4891.1962524
4891.10006143
4891.02840705
4891.0507951
4891.15950126
4891.30419334
4891.43066413
4891.51863779
4891.5496656
4891.51928342
4891.42936681
4891.29646462
4891.15291138
4891.02389093
4890.92501214
4890.90221195
4890.95704275
4891.04208078
4890.97852379
4891.14031521
4891.19886003
4891.09913097
4891.01240317
4891.01231075
4891.10056838
4891.22421837
4891.33624404
4891.40938228
4891.43331415
4891.40556779
4891.32659855
4891.21196379
4891.08851821
4890.97846978
4890.90411087
4890.89035475
4890.95694622
4891.04536669
4890.98392249
4891.15126994
4891.20440464
4891.1040386
4891.000993
4890.97545789
4891.02774032
4891.12052069
4891.21010665
4891.27043942
4891.28917246
4891.26557348
4891.20057596
4891.10769088
4891.00859859
4890.92262754
4890.87038439
4890.88037743
4890.96085025
4891.05071549
4890.99463542
4891.17149414
4891.21589115
4891.12015694
4891.00749659
4890.95335062
4890.96540135
4891.01973749
4891.08035173
4891.12587729
4891.1395482
4891.12099847
4891.07169159
4891.00237253
4890.93095985
4890.87399702
4890.84975909
4890.88350666
4890.97562352
4891.06199974
4891.01472127
4891.20301338
4891.23678713
4891.15317364
4891.04393658
4890.96956011
4890.9464748
4890.9628819
4890.98772133
4891.01625437
4891.01813805
4891.00375967
4890.97651856
4890.9302518
4890.88660236
4890.85690492
4890.86194182
4890.91506465
4891.00818675
4891.08308496
4891.04636348
4891.24392018
4891.26715356
4891.20197488
4891.10987294
4891.03586905
4890.99242263
4890.9794812
4890.98309757
4890.98912762
4890.98743307
4890.97499537
4890.95246213
4890.92556982
4890.90429458
4890.89912887
4890.92288912
4890.97892894
4891.05690104
4891.11392574
4891.08770936
4891.29078817
4891.30463815
4891.25938489
4891.19458474
4891.13730896
4891.0958407
4891.07175009
4891.05889122
4891.050707
4891.04182752
4891.03014773
4891.01601884
4891.0027612
4890.99522496
4890.99982252
4891.02300732
4891.06351538
4891.11567498
4891.15238162
4891.13544006
4891.33198177
4891.33312335
4891.2993274
4891.25461903
4891.21604983
4891.18622906
4891.16543889
4891.15063606
4891.13797341
4891.12589271
4891.11453022
4891.10411234
4891.0949972
4891.08886129
4891.08985074
4891.10177582
4891.12483738
4891.15685797
4891.18215618
4891.17756363
4891.35826891
4891.33017652
4891.28420191
4891.23038707
4891.18115458
4891.14033657
4891.11038936
4891.08957149
4891.07392743
4891.06081305
4891.04945711
4891.04011576
4891.03388153
4891.03373332
4891.04376781
4891.06641083
4891.10000854
4891.14139542
4891.17915538
4891.20400471
4891.34266213
4891.31260331
4891.26998295
4891.21350363
4891.15847051
4891.10941522
4891.07029748
4891.0401791
4891.01676258
4890.99855256
4890.98595828
4890.97967618
4890.97950175
4890.98775703
4891.00645644
4891.03693499
4891.07597206
4891.11969935
4891.15406254
4891.18091725
4891.31465796
4891.29656197
4891.25476054
4891.19243626
4891.13123422
4891.07584902
4891.03100131
4890.98174825
4890.94572024
4890.93871954
4890.92924151
4890.91387996
4890.92553595
4890.94737957
4890.97223066
4891.00950302
4891.05468514
4891.1037855
4891.13720039
4891.15244334
4891.27729563
4891.26016515
4891.20315789
4891.11498595
4891.01593102
4890.92798163
4890.89125353
4890.84681182
4890.81365135
4890.80674043
4890.7953854
4890.77715074
4890.78642027
4890.80768036
4890.82851421
4890.89774579
4890.97572332
4891.05058452
4891.09959802
4891.11401028
4891.22883782
4891.20592241
4891.12359779
4890.96729594
4890.83427816
4890.71068553
4890.64251174
4890.63570156
4890.67074204
4890.69043564
4890.67303785
4890.62328013
4890.57539547
4890.5852824
4890.62363388
4890.72173086
4890.83162616
4890.96917392
4891.04458273
4891.06448744
4891.18357803
4891.15477045
4891.03354268
4890.83828647
4890.64421789
4890.62353768
4890.71191098
4890.75135774
4890.78489696
4890.79322135
4890.77067618
4890.72028209
4890.66081672
4890.61311154
4890.51486337
4890.56181571
4890.71569968
4890.88280803
4890.99272509
4891.01874406
4891.14585545
4891.11073662
4890.95354671
4890.70481698
4890.67487079
4890.70957946
4890.77171761
4890.85410925
4890.91262921
4890.92693286
4890.89302541
4890.8134566
4890.71870831
4890.64364319
4890.59742288
4890.50688192
4890.61881866
4890.81026371
4890.94828346
4890.98089672
4891.11881741
4891.07723805
4890.92076368
4890.66272844
4890.72963424
4890.78753391
4890.90347092
4891.0142079
4891.08402773
4891.0970992
4891.04868263
4890.94464146
4890.82397286
4890.72189338
4890.64342948
4890.4799776
4890.59507186
4890.78282081
4890.91518999
4890.9540176
4891.10148384
4891.04318818
4890.88248219
4890.72355983
4890.78857696
4890.8925244
4891.04426695
4891.17731019
4891.25278054
4891.26153287
4891.20674266
4891.08212791
4890.93399652
4890.81144463
4890.71168331
4890.64465864
4890.53812755
4890.75775012
4890.88401082
4890.93668214
4891.09142388
4891.02454652
4890.86226068
4890.78724981
4890.84798463
4890.98793787
4891.16823892
4891.30542608
4891.39656731
4891.41375237
4891.35215622
4891.22065944
4891.0481052
4890.89716483
4890.77510398
4890.68493491
4890.56438843
4890.74200482
4890.86942885
4890.92611237
4891.08674386
4891.02918564
4890.8698565
4890.82133483
4890.88429426
4891.04381477
4891.23716179
4891.3749004
4891.47413094
4891.49171366
4891.42619044
4891.28829695
4891.11359604
4890.9503414
4890.81415467
4890.71037345
4890.59924169
4890.74604813
4890.86922758
4890.92071441
4891.08725933
4891.03250242
4890.87307986
4890.82285387
4890.88703897
4891.04836599
4891.24276528
4891.38165235
4891.48183679
4891.49988853
4891.43389719
4891.29469281
4891.12088203
4890.95692493
4890.81889769
4890.71398395
4890.60282118
4890.74780241
4890.87020853
4890.92055904
4891.09286972
4891.02848402
4890.86907309
4890.79347129
4890.85629265
4891.00196661
4891.18780084
4891.32756157
4891.42058616
4891.43882381
4891.37724698
4891.24606775
4891.07313024
4890.91753834
4890.79002493
4890.6956433
4890.57499146
4890.74692905
4890.87187437
4890.92919775
4891.10365021
4891.04783194
4890.89167261
4890.73446558
4890.8015385
4890.9135952
4891.07366723
4891.21363254
4891.28852403
4891.29765289
4891.24491505
4891.1227341
4890.97150969
4890.84171008
4890.73392798
4890.6601789
4890.55146872
4890.76620378
4890.88799924
4890.939691
4891.12147071
4891.08114943
4890.93058225
4890.67771236
4890.74383869
4890.81078615
4890.93511621
4891.05342108
4891.12651212
4891.14151734
4891.09447364
4890.99033418
4890.865314
4890.75500497
4890.66725362
4890.50527757
4890.60846514
4890.7910345
4890.92019432
4890.9571132
4891.14853412
4891.1148386
4890.96244231
4890.71936493
4890.7086998
4890.72749027
4890.79782552
4890.8867978
4890.94930832
4890.9656238
4890.93220045
4890.85128526
4890.75171908
4890.6701748
4890.61877459
4890.51909217
4890.63435788
4890.82061559
4890.95301466
4890.98369873
4891.18593161
4891.15856896
4891.04012068
4890.8498006
4890.66149621
4890.66817512
4890.73062096
4890.77486199
4890.81193846
4890.82226055
4890.80024541
4890.74909964
4890.68596278
4890.63484957
4890.53855642
4890.58134519
4890.72893889
4890.89076065
4890.99657928
4891.02087319
4891.23069039
4891.20922208
4891.12835127
4890.9763971
4890.84585902
4890.72316018
4890.66455843
4890.67334485
4890.70749586
4890.72583888
4890.71086544
4890.66324506
4890.6125631
4890.60426438
4890.63896609
4890.73460625
4890.8411524
4890.97379243
4891.04730632
4891.06576997
4891.27873155
4891.26242824
4891.20681393
4891.1204949
4891.02506665
4890.94169352
4890.90640432
4890.86581312
4890.83415207
4890.8275821
4890.81628567
4890.79783273
4890.80434492
4890.82346772
4890.84270338
4890.90627395
4890.98065584
4891.0534816
4891.10131062
4891.11457064
4891.31587694
4891.29794766
4891.25714056
4891.1964983
4891.13726792
4891.08404304
4891.04110522
4890.99839037
4890.96356196
4890.95737566
4890.94730015
4890.93302975
4890.94062992
4890.95837682
4890.98072069
4891.0149425
4891.0578494
4891.10558627
4891.1380626
4891.15251423
4891.34405014
4891.31381302
4891.27166469
4891.21636449
4891.16290473
4891.11573897
4891.07861251
4891.05025967
4891.02819867
4891.01078364
4890.99829046
4890.99135223
4890.98988065
4890.99631809
4891.01285426
4891.04099402
4891.07816771
4891.12063652
4891.15426488
4891.18095851
4891.38864724
4891.35785944
4891.3232608
4891.27149272
4891.22270401
4891.17992847
4891.14724736
4891.12426526
4891.10798252
4891.09414785
4891.08080862
4891.06845852
4891.05961817
4891.05872038
4891.06919217
4891.09200321
4891.12387967
4891.16206811
4891.18825367
4891.21504485
4891.36032403
4891.30543957
4891.25131607
4891.17012151
4891.0886661
4891.01106953
4890.94658967
4890.87369335
4890.82383805
4890.82648244
4890.81861765
4890.79168412
4890.81570466
4890.85367835
4890.89642626
4890.95519997
4891.02025485
4891.08818208
4891.13440038
4891.18597251
4891.33124328
4891.25666148
4891.18407678
4891.07884028
4890.79095535
4890.05657026
4889.56515415
4889.32712516
4889.33479285
4889.3893318
4889.3806603
4889.3067483
4889.3020475
4889.53677111
4889.9814515
4890.68473608
4890.92586299
4891.01924904
4891.08428355
4891.155504
4891.28842701
4891.18430632
4891.0885867
4890.49217101
4889.46188277
4888.8057478
4889.31349966
4889.71850284
4890.02907812
4890.16209597
4890.10340054
4889.82975086
4889.49791098
4888.9069549
4888.69946395
4889.42861497
4890.36844735
4890.91871572
4891.01026254
4891.1108009
4891.25074381
4891.11428403
4890.81408569
4889.45464452
4888.61550361
4888.6951207
4888.48609895
4888.98346399
4889.53608034
4889.73107751
4889.54790105
4889.11706355
4888.83412569
4888.72736452
4888.94690551
4888.54636379