/*--------------------------------*- C++ -*----------------------------------*\
| =========                 |                                                 |
| \\      /  F ield         | OpenFOAM: The Open Source CFD Toolbox           |
|  \\    /   O peration     | Version:  3.0.1                                 |
|   \\  /    A nd           | Web:      www.OpenFOAM.org                      |
|    \\/     M anipulation  |                                                 |
\*---------------------------------------------------------------------------*/
FoamFile
{
    version     2.0;
    format      ascii;
    class       volScalarField;
    location    "3.4";
    object      nut;
}
// * * * * * * * * * * * * * * * * * * * * * * * * * * * * * * * * * * * * * //

dimensions      [0 2 -1 0 0 0 0];

internalField   nonuniform List<scalar> 
7968
(
0.000185330406467
0.000196097675378
0.000203818234313
0.000208089412738
0.000210041252214
0.000210560892692
0.000210309963669
0.000209675121563
0.000208991653207
0.000208467960752
0.000208467935251
0.000208991605151
0.000209675582615
0.000210311452263
0.000210563631391
0.00021004533377
0.000208094088542
0.000203822914596
0.000196102348081
0.000185332995449
0.000196095711717
0.000233940967338
0.000255414225788
0.000266575404844
0.000271692807416
0.000273211845837
0.00027282094216
0.000271624285126
0.000270480111398
0.000269816854533
0.000269815194962
0.000270475885802
0.000271618616939
0.000272815432006
0.000273208598903
0.000271693508547
0.000266579704241
0.000255420623825
0.000233948253695
0.000196099995152
0.000203813662451
0.000255410509528
0.000283432981551
0.000298014449003
0.000304924218256
0.000307233482025
0.000307027263598
0.000305781843296
0.000304564403825
0.000303879529285
0.00030387672807
0.000304556913265
0.000305770808898
0.000307014927287
0.000307223235321
0.000304918803388
0.000298014122732
0.000283436355138
0.000255416104236
0.000203818076346
0.000208081026132
0.000266567440096
0.000298011546788
0.000314276909559
0.000321848098498
0.000324161365834
0.000323664367187
0.000322078678741
0.000320634562711
0.00031987766166
0.000319874051222
0.000320624232269
0.000322062326536
0.000323645130936
0.000324143555895
0.000321835493743
0.000314270344567
0.000298009912149
0.000266569449048
0.000208084889326
0.000210029043353
0.000271683499263
0.000304923310742
0.000321852326023
0.00032923550804
0.000330942100627
0.000331280807037
0.000330916622932
0.00033014436225
0.000329602433004
0.000329599910845
0.000330137266201
0.000330905703265
0.000331266972007
0.00033091985521
0.000329216389624
0.000321839057944
0.000304915638271
0.000271680471929
0.000210031189917
0.000210546649712
0.000273207167134
0.00030724305349
0.000324182232566
0.000330962150907
0.000334627725264
0.000336083752851
0.000335895162225
0.000335095420539
0.00033448836508
0.000334486179019
0.000335089216253
0.000335885451366
0.000336071543918
0.000334612608201
0.000330939888884
0.000324163647369
0.000307230016704
0.000273199179733
0.000210546283369
0.000210294998797
0.000272824715661
0.000307053741688
0.000323711470542
0.000331308171484
0.000336098494164
0.00033766865197
0.000337238639025
0.000336149575555
0.000335352091629
0.000335350241234
0.000336144294273
0.00033723025291
0.000337658093958
0.000336086428555
0.000331294001544
0.000323692125514
0.000307038546616
0.000272813547923
0.000210292078819
0.000209659544926
0.000271635395084
0.000305822566644
0.000322148803339
0.0003309589037
0.000335923720232
0.000337250437445
0.000336395225541
0.000334882094641
0.00033380658343
0.000333805069198
0.000334877949725
0.000336388978828
0.000337243171808
0.000335915793086
0.000330949738199
0.000322135596803
0.000305810449062
0.00027162452944
0.00020965493168
0.000208974001352
0.000270491803335
0.000304607720486
0.000320709416317
0.000330194097487
0.000335131562436
0.000336166144487
0.000334884500097
0.000332904406061
0.000331505547074
0.000331504674268
0.000332902622806
0.000334882616706
0.000336164690349
0.000335130458677
0.000330192865283
0.00032070823093
0.000304603796673
0.000270485171476
0.000208969060643
0.000208447870654
0.000269822928092
0.000303913896284
0.00031993854314
0.000329648371869
0.000334524706938
0.000335369687258
0.000333809351452
0.00033150484987
0.000329842218466
0.000329843385209
0.000331508015804
0.000333814289525
0.000335376181376
0.000334532439051
0.000329657006501
0.000319951359819
0.000303921318442
0.00026982358092
0.000208444400836
0.000208450964553
0.000269816610999
0.000303901215471
0.000319921819972
0.000329639012573
0.000334518571945
0.00033536677607
0.000333809737078
0.000331508025985
0.00032984834544
0.000329852100243
0.000331517312164
0.000333822506224
0.000335382124435
0.000334535907333
0.000329658175905
0.000319948975396
0.000303920257911
0.000269825243741
0.000208450355546
0.000208979130009
0.000270475814393
0.000304574784803
0.000320663405179
0.000330170140164
0.00033511743761
0.000336161453191
0.000334889221772
0.000332917807257
0.000331526954101
0.000331531312632
0.000332929116104
0.000334905639229
0.000336182030816
0.00033514108019
0.000330196934734
0.000320702292622
0.00030460157604
0.00027048968499
0.000208980190396
0.000209666392679
0.000271616901077
0.000305780861695
0.000322087786425
0.000330929506731
0.000335908764572
0.000337249573657
0.000336408041988
0.000334907741172
0.000333843054488
0.000333847104259
0.000334918508801
0.000336424511959
0.000337271253078
0.000335934151189
0.000330958252043
0.000322129736791
0.000305808945158
0.000271631633
0.000209667597574
0.000210304512963
0.000272811570859
0.00030701623697
0.000323653503579
0.000331279555299
0.000336087321061
0.000337674489241
0.000337260983749
0.000336186344231
0.00033539990711
0.0003354033835
0.000336195783786
0.000337275883661
0.000337694325178
0.000336110823994
0.000331306087386
0.000323688762506
0.000307038955659
0.000272822697125
0.000210304396752
0.00021055901247
0.00027320472714
0.000307219397509
0.000324139643263
0.000330918372383
0.000334618385894
0.000336095314291
0.000335924753699
0.00033514024243
0.000334543816743
0.000334546772457
0.000335148329903
0.000335937511606
0.000336112255087
0.000334639317154
0.000330947749456
0.000324161824869
0.000307232215829
0.000273209599046
0.000210557131629
0.000210043261492
0.000271692825896
0.000304915874307
0.000321828982238
0.000329206669978
0.00033092778907
0.00033129463112
0.000330949776699
0.000330192922588
0.000329660551658
0.000329663222544
0.000330200174053
0.000330960860077
0.000331308862799
0.000330947047985
0.000329222001008
0.00032183766052
0.000304918915832
0.000271691643984
0.0002100400146
0.000208093870061
0.000266584672535
0.000298017395404
0.000314270585108
0.00032183550543
0.000324155243398
0.000323677595887
0.000322115456286
0.000320689520474
0.000319941932749
0.000319944815974
0.000320697118999
0.000322126478186
0.000323690080941
0.000324165849138
0.000321841157571
0.000314271404955
0.000298014788682
0.000266580179749
0.000208090346775
0.000203823521603
0.000255430685816
0.000283446777586
0.00029801995685
0.000304924360209
0.000307235714509
0.000307040044085
0.00030580931221
0.000304604430482
0.000303927866364
0.000303931210546
0.000304612535003
0.000305819729649
0.000307050137015
0.000307242943743
0.00030492706068
0.0002980185848
0.000283442770219
0.00025542581384
0.000203820436614
0.000196102320922
0.00023395880221
0.000255429824073
0.000266586439902
0.000271699965728
0.000273219019893
0.000272833267828
0.000271645306273
0.000270509449466
0.000269852605248
0.00026985606821
0.00027051780524
0.000271655779624
0.00027284303859
0.000273225903414
0.000271702961953
0.000266585614285
0.000255426640203
0.000233955088581
0.000196100033172
0.000185332547391
0.00019610462324
0.000203826319332
0.000208097091208
0.000210047921777
0.000210566576543
0.000210315902793
0.000209682850704
0.000209001694195
0.000208480767425
0.000208483619019
0.000209007605865
0.000209689522371
0.00021032157898
0.000210570154697
0.000210049312219
0.000208096392348
0.000203824625916
0.000196103112799
0.000185331367493
0.000194516753318
0.000226143381499
0.000246355554512
0.000257962811769
0.000264178523645
0.000267003815843
0.0002677960204
0.000267520533998
0.000266931330162
0.000266502710988
0.000266501882698
0.000266929336542
0.000267518142622
0.00026779410631
0.000267003308035
0.000264180055672
0.000257965889481
0.000246359420166
0.000226147692655
0.000194519533252
0.000226138857003
0.000703048763281
0.000912525221007
0.0010155184433
0.00106432923549
0.00108259869335
0.00108427647351
0.00107838900219
0.0010714391523
0.00106714033348
0.00106713201553
0.00107141758323
0.00107835946631
0.00108424811373
0.00108258468613
0.00106433896716
0.00101554866868
0.000912562369016
0.000703077535304
0.000226141972971
0.000246348079845
0.000912497487846
0.0012341878525
0.00140189123641
0.00148838703321
0.00152736657152
0.00153900045883
0.00153708944664
0.00153135804551
0.00152732767189
0.00152731231754
0.00153131550773
0.00153702456391
0.00153892673962
0.0015273058292
0.00148835429928
0.00140188820156
0.00123420520376
0.00091252111927
0.000246350098062
0.000257951939549
0.00101545849839
0.00140186334353
0.00160916309471
0.00171909948946
0.00177061505685
0.00178734068521
0.0017864820659
0.00178139399078
0.00177824655362
0.00177822938236
0.00178134205962
0.00178637977384
0.00178721619593
0.00177050545694
0.00171901493622
0.00160911229428
0.00140184312774
0.00101545878204
0.000257951980202
0.000264165907011
0.00106426635711
0.00148837140294
0.00171912274359
0.00184139086427
0.00189643562126
0.00190824356953
0.00189716496492
0.00188448490628
0.00187738613347
0.00187735226615
0.00188438537061
0.00189700381302
0.0019080576192
0.00189632363325
0.0018412699507
0.00171902727048
0.00148831014612
0.0010642357491
0.000264162988512
0.000266992704998
0.00108257983828
0.00152742427735
0.00177073911959
0.00189653163134
0.00193783777587
0.00193043160703
0.00190761385177
0.00188785322292
0.0018774056888
0.0018773725983
0.0018877545641
0.00190744942045
0.00193022722563
0.00193764691379
0.00189641776278
0.00177061746226
0.00152733324587
0.00108252470341
0.000266986521018
0.000267789269456
0.00108432828218
0.00153917256681
0.00178764106016
0.00190870327244
0.00193074150392
0.00190846143241
0.00187530215073
0.00184921082499
0.00183581309872
0.00183578728599
0.00184913243674
0.00187516687228
0.00190828783821
0.00193056117629
0.00190854434344
0.00178751892942
0.00153907915438
0.00108426651879
0.000267780709505
0.000267518204051
0.00107849802842
0.00153734804592
0.00178690066979
0.00189787532353
0.00190817237136
0.00187548845436
0.00183448089197
0.00180401000234
0.00178861728785
0.00178859684238
0.00180395044378
0.00183438567403
0.00187538743061
0.00190808009178
0.00189779395739
0.00178683481037
0.00153729267466
0.00107845654068
0.000267509423208
0.000266929944769
0.00107156147731
0.00153162976869
0.00178174532071
0.0018852709374
0.00188849631213
0.0018494113699
0.00180396975243
0.00177042110557
0.00175390301758
0.00175388804629
0.00177038992579
0.00180394373661
0.00184941369598
0.00188853187
0.0018853202501
0.00178176392719
0.00153164416379
0.00107156362359
0.000266923566069
0.000266498720503
0.00106723601133
0.00152755421651
0.00177854512063
0.00187810057694
0.0018779992093
0.00183597584011
0.00178852739246
0.00175383164003
0.00173710358113
0.00173711250963
0.00175386530551
0.00178859889297
0.0018361012275
0.00187818069869
0.00187829824677
0.00177864791897
0.00152765353157
0.00106729512504
0.000266497034292
0.000266496056631
0.00106719407042
0.00152747976289
0.00177847312327
0.00187795500155
0.00187787843587
0.00183591396678
0.00178851630844
0.001753847334
0.00173714702966
0.00173718377213
0.00175395811658
0.00178869522747
0.0018361706606
0.00187820871725
0.00187829760869
0.0017786620329
0.00152766262537
0.00106731038305
0.000266499758621
0.000266923730026
0.00107145710345
0.00153143365168
0.00178154174586
0.00188488230321
0.00188819307511
0.00184928715557
0.00180400268974
0.00177056269579
0.00175413611287
0.00175418539508
0.00177071188128
0.00180424790104
0.00184964170158
0.00188863731956
0.00188533445619
0.00178180617849
0.00153167681792
0.00107161383172
0.000266930851081
0.000267512577719
0.00107837839946
0.00153709212875
0.00178654317898
0.00189735868558
0.00190780241014
0.0018753936246
0.00183461983383
0.00180433786255
0.00178909032514
0.00178914309705
0.00180449481147
0.00183488443508
0.00187578891898
0.00190829493384
0.00189785469988
0.00178688672587
0.00153735760479
0.00107854880027
0.000267520229138
0.000267788483931
0.00108424861157
0.00153894193424
0.00178728573598
0.00190823124269
0.00193041654261
0.0019084524364
0.00187558794916
0.0018497222044
0.00183648357556
0.00183653394723
0.00184987154167
0.00187584518836
0.00190882813257
0.00193087353619
0.00190867066191
0.00178760562809
0.00153918348288
0.00108440395746
0.000267794029286
0.000266999492444
0.00108258735089
0.00152729760609
0.00177051256644
0.00189638549146
0.00193767156605
0.00193052735164
0.00190801661517
0.00188850189876
0.00187821265984
0.00187825544476
0.00188862945191
0.0019082354389
0.00193083514136
0.00193800867208
0.00189662725717
0.00177074283762
0.00152747739259
0.00108270427958
0.00026700161909
0.000264179930438
0.00106437847951
0.00148837482575
0.00171902755891
0.00184128878285
0.00189647103529
0.00190842512489
0.00189760290852
0.00188514101701
0.00187818032105
0.00187821582108
0.00188524552089
0.00189777500848
0.00190864664176
0.00189666711133
0.00184147447998
0.00171917995103
0.0014884894596
0.00106445214057
0.00026417901071
0.000257970209044
0.00101565996386
0.00140198579731
0.0016091998743
0.00171910643464
0.00177068249414
0.00178753806833
0.00178684047423
0.0017818515775
0.00177877977949
0.00177881195252
0.00178194310555
0.00178698413194
0.00178771118982
0.0017708487506
0.00171924598066
0.00160930529173
0.00140205959429
0.00101570466053
0.000257967882073
0.000246367066914
0.00091274334104
0.00123438623941
0.00140202714911
0.00148849406509
0.00152750379361
0.00153922337235
0.00153742216101
0.00153178577064
0.0015278262104
0.00152786146389
0.00153188174704
0.001537561826
0.00153938405793
0.00152765856414
0.00148862244385
0.00140212158565
0.00123444827814
0.000912777897676
0.000246364686526
0.000226154422244
0.000703257198405
0.000912717226493
0.00101567844165
0.00106447132236
0.00108275634825
0.00108448302123
0.00107866121228
0.00107177172438
0.00106752093167
0.00106755130428
0.00107185417305
0.00107878164343
0.00108462346013
0.00108289610385
0.00106459364137
0.00101577137111
0.000912777552176
0.000703287968492
0.000226152395021
0.000194520299275
0.000226163328462
0.000246376901149
0.000257981222336
0.000264193830524
0.000267018060711
0.000267812641125
0.000267542329118
0.000266958686694
0.000266534904236
0.000266538071104
0.000266966389476
0.000267552178585
0.000267822408944
0.000267026125554
0.000264199360062
0.00025798409196
0.000246377891024
0.000226163218624
0.000194518701578
0.000201229237639
0.000242845776744
0.000269224369302
0.000284685137916
0.000293351044969
0.000297707506985
0.000299416286951
0.000299700663981
0.000299470291348
0.000299245781237
0.000299244638118
0.000299467542547
0.000299697198868
0.000299413119108
0.00029770600251
0.000293352250113
0.000284688690883
0.000269229414257
0.000242851520098
0.000201232383346
0.000242840110377
0.000861108527448
0.00115722509919
0.00130706169457
0.00137997711086
0.00140923784955
0.00141443254857
0.00140851574281
0.00140042490345
0.00139522386673
0.00139521429178
0.00140040161703
0.00140848518562
0.0014144050807
0.00140923227601
0.00138000826053
0.00130712404219
0.00115729725029
0.00086116567902
0.000242844506589
0.000269215320881
0.00115716905641
0.00164849722903
0.00191995022039
0.00206659412627
0.00213748408439
0.00216343806062
0.00216632365847
0.002161059779
0.00215629280341
0.00215627186054
0.00216100484808
0.00216624496179
0.00216334767046
0.00213741294621
0.00206656555117
0.00191996424775
0.00164853856267
0.00115721613971
0.00026921784792
0.000284672686703
0.00130695358087
0.00191989585881
0.00227490259655
0.00247563942684
0.00257891166116
0.00262150475533
0.00263291870703
0.0026316352162
0.00262773879543
0.00262770714492
0.00263155013515
0.0026328047536
0.00262134711837
0.00257876485534
0.00247553425687
0.00227484611399
0.0019198813315
0.00130696626715
0.000284672078317
0.000293338019556
0.00137986321088
0.00206654567144
0.00247565545662
0.00271139708441
0.00283448292491
0.00288135848003
0.00288964339424
0.00288406527306
0.00287813971844
0.00287809781866
0.0028839468386
0.00288946173181
0.00288114032637
0.00283427832426
0.00271122733342
0.00247553173981
0.00206647080628
0.00137983174875
0.000293333496754
0.000297697940187
0.00140918924583
0.00213753400819
0.0025790574756
0.00283464713625
0.00295698830007
0.00299923661359
0.00300148777554
0.00298989944995
0.00298039874159
0.00298035466208
0.00298977274179
0.00300128728306
0.0029989928698
0.00295674829499
0.00283444192741
0.00257888993755
0.00213741524309
0.00140912302835
0.000297689510847
0.000299413866622
0.00141449251439
0.00216364649596
0.00262185574952
0.00288181552148
0.00299955003235
0.00303543491327
0.00303031242805
0.00301159845438
0.00299786277852
0.00299782419588
0.00301148636015
0.00303013302209
0.00303521517123
0.00299933096995
0.00288162357959
0.00262169722901
0.00216352823457
0.00141442139151
0.000299403141263
0.000299705050327
0.00140865956858
0.00216664753586
0.00263336203183
0.00289034402323
0.0030020740408
0.00303054539431
0.00301713932364
0.00299132599551
0.00297366785382
0.00297363848237
0.00299124349273
0.00301701587105
0.00303040722167
0.00300195233776
0.00289025032361
0.00263329591898
0.00216659230234
0.00140862603157
0.000299695100255
0.000299476075245
0.00140058412565
0.00216142470436
0.00263222143565
0.00288488354322
0.00299060079962
0.00301189074517
0.0029913391922
0.00296025761326
0.002940073022
0.00294005860538
0.00296022544123
0.00299130558128
0.00301187827072
0.00299062986516
0.00288494579695
0.00263228343341
0.00216148025361
0.00140062295049
0.00029947025361
0.000299247312659
0.00139533742622
0.00215660675811
0.00262829114954
0.00287891231602
0.00298106410393
0.00299812280723
0.00297363589136
0.00294001807117
0.0029188049498
0.00291882002676
0.00294006827228
0.00297372679766
0.00299826594384
0.00298127243917
0.0028791609194
0.00262851733711
0.00215680080681
0.00139546770729
0.000299248079542
0.000299241378173
0.00139526598012
0.00215648874444
0.00262814640958
0.00287874707578
0.00298092870432
0.00299805111506
0.00297362669406
0.0029400540406
0.00291887968105
0.00291892863446
0.00294019684549
0.00297385106358
0.00299835626559
0.00298131603242
0.00287917296178
0.00262852474966
0.00215681204563
0.00139548352223
0.000299248984405
0.000299461454921
0.00140040406341
0.00216112176147
0.00263185232364
0.00288445473444
0.00299026408597
0.00301174440887
0.00299138054836
0.00296044824772
0.00294038445697
0.00294045225105
0.00296064602021
0.00299169403112
0.00301216729348
0.00299078107143
0.00288500068915
0.00263232242488
0.00216152542557
0.00140067829003
0.000299473271445
0.000299688118428
0.00140844029607
0.00216626303516
0.00263294324848
0.00288979540743
0.00300166702754
0.00303043152053
0.00301731516477
0.0029917378849
0.00297426259333
0.00297433577106
0.00299195212704
0.00301766243486
0.00303090611402
0.00300223886598
0.00289038091369
0.00263340630316
0.00216668665955
0.00140873148872
0.000299700569686
0.000299401597601
0.00141431672686
0.00216328105038
0.00262136688615
0.00288128209004
0.00299919034865
0.00303541804899
0.00303064582074
0.00301221589031
0.00299868462448
0.00299875382943
0.00301241973383
0.00303098128848
0.00303587845201
0.00299973568606
0.00288183070972
0.00262183763286
0.00216367410986
0.00141458364697
0.000299411375532
0.000297695726969
0.00140913687533
0.0021373113594
0.00257870583221
0.00283428221366
0.00295677183205
0.00299933948445
0.00300194841958
0.00299066109053
0.00298136673066
0.00298142772997
0.00299084122574
0.00300224446855
0.00299973752717
0.00295722084268
0.00283470924747
0.00257907585469
0.00213761538735
0.00140934222829
0.000297700923985
0.000293346728246
0.00137996623431
0.00206651555556
0.00247550123825
0.00271121972449
0.00283443444935
0.00288156906671
0.00289016177749
0.00288485681218
0.00287911999893
0.00287917465998
0.00288501589556
0.00289041507194
0.00288189416805
0.00283477698844
0.00271153032928
0.00247575911709
0.00206672064309
0.00138010079159
0.000293347718234
0.000284689766595
0.00130719564135
0.00192004409054
0.00227494004846
0.00247563881636
0.00257899403321
0.00262178066546
0.00263341552154
0.00263235316348
0.00262861078462
0.00262866582261
0.00263250779157
0.00263364688863
0.00262206686771
0.00257928084505
0.00247588463247
0.00227513414313
0.00192018800397
0.00130728320211
0.000284688722616
0.000269236761433
0.00115749000593
0.00164876345087
0.00192013266029
0.00206673917557
0.00213767759312
0.00216376463936
0.00216681662521
0.00216170492116
0.00215705687447
0.0021571168625
0.00216186864895
0.00216705592235
0.00216404414626
0.00213795315417
0.0020669742601
0.00192031386884
0.00164888937576
0.00115756022336
0.000269235623238
0.000242860033713
0.000861396413798
0.00115749360079
0.00130728505594
0.0013801759377
0.00140946295098
0.0014147368243
0.00140892184506
0.00140092163294
0.00139579343005
0.00139584363856
0.00140105785904
0.00140912188253
0.00141497281632
0.00140970199799
0.00138038895311
0.00130745436055
0.00115761105613
0.00086145954287
0.000242859089303
0.000201232071713
0.000242871481149
0.000269250867401
0.000284706819381
0.000293368020209
0.000297722695492
0.000299434397597
0.000299725269711
0.000299501369528
0.000299282058624
0.000299285675782
0.000299510348295
0.00029973716687
0.000299446763584
0.000297733625713
0.000293376194413
0.000284712106142
0.000269253884631
0.000242872626821
0.000201230244613
0.00020599042721
0.000253899157199
0.00028426080654
0.000302259406702
0.000312587423615
0.000318046763741
0.000320537639685
0.00032146316393
0.000321766397921
0.000321871042653
0.000321869427993
0.000321762419735
0.000321457876344
0.000320532271215
0.000318043240963
0.000312587493399
0.000302263001622
0.000284267068698
0.000253906713367
0.000205993856919
0.000253893482803
0.000955998259079
0.00130238329556
0.00147781401169
0.00156234748315
0.00159589226677
0.0016019031044
0.00159570075604
0.00158727276677
0.00158197226934
0.00158195731419
0.0015872363461
0.00159565037856
0.0016018505132
0.0015958634232
0.00156236776082
0.0014778798687
0.00130247013441
0.000956073004135
0.00025389966463
0.000284251496723
0.00130230628273
0.00189656945158
0.00223211352481
0.00241629997164
0.00250768899752
0.00254388335207
0.00255125653166
0.00254737504876
0.00254297924228
0.00254295080832
0.00254730053574
0.00255114853337
0.00254376141161
0.00250758865532
0.00241625455352
0.00223212342226
0.00189661540467
0.00130236061279
0.000284254903469
0.000302246907087
0.00147768160063
0.00223204512351
0.0026841155031
0.00294758025875
0.00308950543396
0.00315540546332
0.00317910912682
0.00318140728077
0.003178645239
0.00317860451998
0.00318129673118
0.00317894568857
0.00315521456739
0.00308932693313
0.00294745319487
0.00268404540461
0.00223202285502
0.00147768903419
0.000302245790844
0.00031257599707
0.00156222091971
0.00241623878305
0.00294758871991
0.00326747462608
0.00344704127675
0.00353317076739
0.00356440458787
0.0035682988367
0.0035651155456
0.00356506731131
0.0035681626543
0.00356419569139
0.00353292217958
0.00344679959481
0.00326727687826
0.00294744306539
0.00241614428269
0.0015621725275
0.000312569830584
0.000318041134705
0.00159586269256
0.00250774921268
0.00308965208939
0.00344720562036
0.00364774675364
0.00374566753456
0.00377980418029
0.00378133516997
0.0037755365437
0.00377548676771
0.00378119285903
0.00377957982006
0.00374539024781
0.0036474669628
0.00344696161476
0.0030894549865
0.00250760246923
0.00159577136515
0.000318030234859
0.000320541781956
0.00160202919675
0.00254414355556
0.003155787549
0.00353361131467
0.00374595855364
0.00384803221394
0.00387944326443
0.00387510784552
0.00386511506003
0.00386507123147
0.00387498040905
0.00387923744322
0.0038477742095
0.00374569255666
0.00353337880027
0.00315560131666
0.00254400403091
0.00160193946246
0.000320528449228
0.000321475770631
0.00159594230929
0.00255167421352
0.00317969012174
0.00356509719737
0.00378035641338
0.00387965491404
0.0039040581408
0.00389230810392
0.00387792379597
0.00387789042804
0.00389221118391
0.00390390536488
0.00387947384624
0.00378018253701
0.00356495948311
0.00317959924311
0.0025516214412
0.00159591437277
0.000321463811958
0.000321779420808
0.00158751822578
0.00254782085856
0.00318206292591
0.00356910127747
0.00378200145842
0.00387538540465
0.00389232879993
0.00387445429619
0.00385692764504
0.00385690967491
0.00387440733847
0.00389226386998
0.00387532360851
0.00378197198166
0.003569124332
0.00318213476182
0.00254791861778
0.00158759903572
0.000321772740695
0.000321876737287
0.00158212931626
0.00254333329819
0.00317923279937
0.00356586509711
0.00377617036019
0.0038653714109
0.00387791643136
0.00385689286081
0.00383786219839
0.00383787386294
0.00385692739937
0.00387797263754
0.00386545658929
0.00377631396329
0.00356608211091
0.00317950273563
0.00254361358408
0.00158234157421
0.00032187793937
0.000321867025478
0.00158200934901
0.00254316186827
0.00317904668213
0.00356568752848
0.00377603467939
0.00386529907729
0.00387790296396
0.00385692079519
0.00383792780088
0.00383797191614
0.00385704453017
0.0038780864233
0.00386553634382
0.00377635022148
0.00356608745283
0.00317949798352
0.0025436089445
0.00158234169195
0.000321875924886
0.000321754079938
0.0015872044202
0.00254736871013
0.00318156920813
0.00356863179871
0.00378165873773
0.00387523060059
0.00389235031175
0.00387461667076
0.00385720707869
0.00385727033019
0.00387479669086
0.00389262337148
0.00387558395183
0.00378210151714
0.00356915683332
0.00318213567986
0.00254791837392
0.00158761123375
0.000321767761489
0.000321442664779
0.00159552818183
0.00255106928576
0.00317903041228
0.00356447373037
0.00377992774442
0.00387951810922
0.00390419002733
0.00389266237285
0.00387845572719
0.00387852688483
0.00389286533197
0.00390450556426
0.00387993346584
0.00378043459094
0.00356505059662
0.00317963177548
0.00255164252609
0.00159595170049
0.000321457126093
0.000320510681815
0.00160163581451
0.00254354354011
0.0031551114055
0.00353298263885
0.00374554485326
0.0038479666389
0.00387970638038
0.00387563847588
0.0038658450183
0.00386591534603
0.00387584078807
0.0038800269168
0.00384839258278
0.00374605365824
0.00353353800906
0.0031556718402
0.00254406193715
0.00160201747693
0.000320521939767
0.000318020779996
0.00159561118023
0.00250730442891
0.00308910766382
0.00344669217464
0.00364743389769
0.0037456863255
0.00378017635224
0.00378200147596
0.00377640931917
0.00377647514267
0.00378219339562
0.00378048217948
0.00374608718979
0.00364788963373
0.00344716329828
0.00308955443539
0.00250770220606
0.00159589932973
0.000318026185481
0.000312569048938
0.00156216536906
0.00241602182236
0.00294725587846
0.00326713568687
0.00344686052121
0.00353327830322
0.00356483403342
0.00356901235741
0.00356603051562
0.00356609419482
0.00356919738006
0.00356512231045
0.00353363957167
0.00344724751154
0.00326749703671
0.00294756840493
0.00241628420719
0.00156234513604
0.000312568804612
0.000302251310103
0.0014778102431
0.00223204812209
0.0026839972166
0.00294742499967
0.0030894489847
0.00315558124764
0.00317955300622
0.00318208711131
0.00317950014751
0.00317956821997
0.00318227868506
0.00317983940984
0.00315592323053
0.00308979284563
0.0029477196663
0.00268423261231
0.00223222622281
0.00147791855296
0.000302248322041
0.000284263411424
0.00130255846044
0.00189673664896
0.00223217668554
0.00241631488261
0.00250775982779
0.00254411908495
0.00255169816627
0.00254799831331
0.00254374425813
0.00254382132681
0.0025482063918
0.00255199925163
0.00254446569665
0.00250809872503
0.00241659972816
0.00223239487459
0.00189688683657
0.00130263822225
0.000284260525299
0.000253907372591
0.00095626023654
0.00130260632904
0.00147797355182
0.0015624692896
0.00159604361689
0.00160216049992
0.00159609429609
0.00158778045529
0.00158256789881
0.00158263350351
0.00158795445302
0.0015963452339
0.00160245148509
0.00159633432854
0.00156272199616
0.00147817292484
0.00130274416686
0.000956331733808
0.000253905112078
0.000205987389113
0.00025391905092
0.000284279581274
0.000302271580867
0.000312592955874
0.000318048422184
0.000320540698582
0.000321471863708
0.000321780238549
0.000321888695615
0.000321892127478
0.000321788508644
0.000321482523192
0.000320551424024
0.000318057581748
0.00031259909557
0.000302275007154
0.000284281082803
0.000253918928098
0.000205984561706
0.000210674970624
0.000265001351345
0.000299089966574
0.000319370508443
0.000331226282383
0.000337773204835
0.000341210435837
0.000343142823164
0.000344424076599
0.000345157282927
0.000345155029539
0.000344418298913
0.000343134860639
0.000341201888652
0.000337766527281
0.00033122390283
0.000319372712635
0.000299095983089
0.000265009281193
0.000210678463793
0.00026499763136
0.00104774974155
0.00143305553429
0.00162291243196
0.00171029800635
0.00174185480865
0.00174502068377
0.00173702272422
0.00172821912168
0.00172318145479
0.00172315907188
0.00172816387034
0.00173694343531
0.00174493064754
0.00174178830062
0.0017102908976
0.00162296166955
0.00143313435133
0.00104782355426
0.000265004875688
0.000299083077598
0.00143296552747
0.00210881145639
0.0024876173199
0.0026931070454
0.00279429355832
0.00283536183811
0.0028450217587
0.00284198014715
0.00283788248744
0.00283784355306
0.00284187824104
0.00284487214178
0.00283519156865
0.00279414541171
0.00269302599713
0.00248760280859
0.00210884247283
0.00143301140229
0.000299086731448
0.000319360989236
0.00162277025774
0.00248754324341
0.00300835199117
0.00331433318261
0.00348357445338
0.00356640261743
0.00359709221372
0.00360178373437
0.00359953705797
0.00359948316598
0.00360163650511
0.00359687440562
0.00356616382915
0.00348334030013
0.00331416821029
0.00300825796481
0.00248750394507
0.0016227661618
0.000319358932026
0.000331219084042
0.00171017965483
0.0026930420331
0.00331433248778
0.00369653217337