/*--------------------------------*- C++ -*----------------------------------*\
| =========                 |                                                 |
| \\      /  F ield         | OpenFOAM: The Open Source CFD Toolbox           |
|  \\    /   O peration     | Version:  3.0.1                                 |
|   \\  /    A nd           | Web:      www.OpenFOAM.org                      |
|    \\/     M anipulation  |                                                 |
\*---------------------------------------------------------------------------*/
FoamFile
{
    version     2.0;
    format      ascii;
    class       surfaceVectorField;
    location    "3.4";
    object      Uf;
}
// * * * * * * * * * * * * * * * * * * * * * * * * * * * * * * * * * * * * * //

dimensions      [0 1 -1 0 0 0 0];

internalField   nonuniform List<vector> 
22672
(
(0.00256095159618 0.000955039852191 -0.00231300453155)
(0.000951625792781 0.00256548791713 -0.00231278073114)
(0.00169029232656 0.00169419722222 -0.00512643999112)
(0.00585667498303 0.000461170643361 -0.00216039248186)
(0.00376030202289 0.00195675712848 -0.00338959751187)
(0.00486383488812 0.00161375056368 -0.00525247964362)
(0.00897201277696 0.000265979452272 -0.00175935018916)
(0.00765194444441 0.00176010011878 -0.00355730883375)
(0.00844368140776 0.00165367665312 -0.00487543396724)
(0.0111658733422 0.000356963002929 -0.00125992727245)
(0.010665976496 0.00197751948151 -0.00322404260286)
(0.0111601879042 0.00190721161527 -0.00417137160945)
(0.0120048562244 0.000681764334504 -0.000808968331213)
(0.0124308361019 0.00257885471464 -0.00276651560986)
(0.0126830318918 0.00235274351647 -0.00341782358943)
(0.0114221794098 0.00108986488772 -0.000487662992819)
(0.0125353528797 0.00338614968859 -0.00235824962976)
(0.0126272581738 0.00289267955157 -0.00280345270688)
(0.0096672390574 0.00150254079698 -0.000286335418602)
(0.0113153129745 0.00414962472468 -0.00208510343355)
(0.0113429163138 0.00338267981677 -0.00239465801709)
(0.00694434447416 0.00187383865125 -0.000173055647082)
(0.00887382916028 0.00485772332132 -0.00190706254907)
(0.00887526552058 0.0038563522565 -0.00213479674735)
(0.00361199828244 0.00211499276449 -0.000132213145207)
(0.00561077669542 0.00536501400304 -0.00183601810565)
(0.00560728219538 0.00420257262864 -0.00203263126313)
(-1.47032001866e-07 0.00219772399159 -0.000124072360777)
(0.00191575825078 0.00562398489887 -0.00182138471413)
(0.0019138099518 0.00438178740224 -0.00201179990142)
(-0.00361276781899 0.00211566969186 -0.000132315153251)
(-0.00191469394752 0.00562440096424 -0.00182130634784)
(-0.00191410812788 0.00438197999918 -0.00201173897928)
(-0.00694636650043 0.00187510005953 -0.000173351116492)
(-0.00561067666481 0.00536619302169 -0.00183586282273)
(-0.00560848596206 0.00420309458376 -0.00203255332589)
(-0.00967097161428 0.00150421411026 -0.000286946319887)
(-0.00887538045073 0.00485954458571 -0.0019069531378)
(-0.00887796331882 0.00385712150263 -0.00213490035149)
(-0.0114276129916 0.00109169216077 -0.000488640213802)
(-0.011318852465 0.00415181835146 -0.0020851911632)
(-0.0113473284559 0.00338351976592 -0.00239514135734)
(-0.0120115093826 0.000683490167635 -0.000810365090373)
(-0.012540668702 0.00338836164322 -0.00235870557978)
(-0.012633122709 0.00289338074096 -0.00280443442048)
(-0.0111725726345 0.00035840765405 -0.00126173005031)
(-0.0124372052943 0.0025807520956 -0.00276768056046)
(-0.0126895523635 0.00235313092218 -0.00341966353295)
(-0.00897763034912 0.000267201806778 -0.00176149039746)
(-0.0106717639141 0.00197900259703 -0.00322587520189)
(-0.0111657566187 0.00190733138842 -0.00417392504313)
(-0.00586058206655 0.000462451504696 -0.00216316154064)
(-0.00765623557145 0.00176161737894 -0.00355971451808)
(-0.0084475636123 0.00165394604156 -0.00487865017533)
(-0.00256257476741 0.000956616239333 -0.00231646397671)
(-0.00376270427836 0.00195890328722 -0.00339281206216)
(-0.00486590350499 0.00161460766744 -0.00525689723596)
(-0.000951812193894 0.00256875405827 -0.00231625498906)
(-0.00169036254866 0.00169572051218 -0.0051313204125)
(0.00195381056658 0.00376466930077 -0.00338937371146)
(0.000458440069897 0.00586301609494 -0.00215948428308)
(0.00161119742626 0.00486897075278 -0.0052513390944)
(0.00573766205245 0.0034938070253 -0.00478651386375)
(0.00349202588581 0.00573957605827 -0.00478621139969)
(0.00497076273854 0.00497205075815 -0.00756666913145)
(0.00950099116885 0.00374120872545 -0.00502200124745)
(0.00811722847388 0.00606600832811 -0.00556674696603)
(0.00891787857271 0.00535980744488 -0.00806923266416)
(0.0121219521578 0.0045165717502 -0.00473063094028)
(0.0116841717321 0.00701194436488 -0.00536474472455)
(0.0118851380116 0.00621459879609 -0.00765537649549)
(0.0131476917862 0.00565955187603 -0.00431579690841)
(0.0137351965567 0.00850146068632 -0.00485456975326)
(0.0134911648286 0.00744684106974 -0.00694833057783)
(0.01255511063 0.00687874908753 -0.00395569007049)
(0.0139411417018 0.0102327512621 -0.00433261777172)
(0.0134839802655 0.00882283023074 -0.00625399934837)
(0.0105776101186 0.00798774246598 -0.00370583056402)
(0.0125392335747 0.0118471670323 -0.00393766329121)
(0.0120545401555 0.0100945676549 -0.00572001486725)
(0.00756792048123 0.0088737982184 -0.00357002500764)
(0.00980356853725 0.0132423187059 -0.0036883593267)
(0.00941008459089 0.0111912471185 -0.00537487370687)
(0.00392567851559 0.00942523477512 -0.00352518967457)
(0.00617813789023 0.0142278096653 -0.00358764529486)
(0.00593654026404 0.0119666946992 -0.0052205177461)
(1.23841516913e-06 0.00961074124065 -0.00351861870119)
(0.00210539653685 0.0147276057452 -0.00356869349907)
(0.00202588245105 0.012361941769 -0.00517914235707)
(-0.00392366838634 0.00942617095327 -0.00352485401732)
(-0.0021009728279 0.0147280710382 -0.00356837614457)
(-0.00202041503125 0.0123621264776 -0.0051787240332)
(-0.00756719398369 0.0088755714917 -0.00356946484404)
(-0.00617472676662 0.0142291547854 -0.00358682069753)
(-0.00593202355826 0.0119671894307 -0.00521939766932)
(-0.0105788131753 0.00799013268093 -0.00370519798111)
(-0.00980197906011 0.0132444269783 -0.00368710340428)
(-0.00940724880349 0.0111920015914 -0.00537322698786)
(-0.0125585005006 0.00688138511629 -0.00395525652918)
(-0.0125401371476 0.0118496918907 -0.0039361943903)
(-0.0120539659237 0.0100953853389 -0.00571815367774)
(-0.013152839843 0.0056620010912 -0.00431602104987)
(-0.0139445419535 0.0102353092764 -0.00433148877971)
(-0.0134856713798 0.00882341975108 -0.00625258046571)
(-0.0121275842078 0.00451857975651 -0.00473182571204)
(-0.0137402972314 0.00850368906707 -0.00485451128361)
(-0.0134943839234 0.0074469669758 -0.00694816993085)
(-0.00950572563869 0.00374306903848 -0.00502409932251)
(-0.0116892330515 0.00701386937007 -0.00536593710021)
(-0.0118884609587 0.00621440178173 -0.0076567074783)
(-0.00574061478843 0.00349629715087 -0.0047893650396)
(-0.0081209847635 0.00606839037707 -0.00556892439737)
(-0.00892028364067 0.00536004780014 -0.00807186958777)
(-0.00195471393786 0.0037686390003 -0.00339260307451)
(-0.0034938852181 0.0057434279218 -0.00478909072788)
(-0.00497179392675 0.00497367987825 -0.00757041297011)
(-0.000458524679117 0.00586948331317 -0.00216240554105)
(-0.00161093713833 0.00487287620208 -0.0052554355777)
(0.00175873942466 0.00765553584748 -0.00355632197132)
(0.000263915175299 0.00897715676581 -0.00175731224713)
(0.00165263215487 0.0084481570812 -0.00487288087762)
(0.00606781923479 0.00811538735664 -0.00556644450197)
(0.00374146949394 0.00949889300312 -0.00502114173727)
(0.00536161192056 0.00891568067942 -0.00806839615384)
(0.0104511926565 0.00912557519869 -0.00590949044313)
(0.00913151252348 0.0104432971715 -0.00590955085775)
(0.00980822627341 0.00980117497864 -0.00876065869236)
(0.0135036221045 0.0107588839244 -0.00548868353753)
(0.0133014846984 0.0121349552198 -0.00551549885699)
(0.0131191195692 0.011307288501 -0.00817543266608)
(0.0147159908862 0.0127948422568 -0.00487139061657)
(0.0156817741033 0.014438697562 -0.00469959832669)
(0.0148803102539 0.0132878186365 -0.00714959328324)
(0.0140634837543 0.014869966911 -0.00431459099244)
(0.0159402115732 0.0169828235878 -0.0038590652381)
(0.0148768596171 0.0154370859666 -0.00609754790219)
(0.0118235513261 0.0167143425179 -0.00392019205389)
(0.01429455376 0.0193320807683 -0.00319362185656)
(0.0132585613551 0.0174277350178 -0.00524495944425)
(0.00843717571251 0.0181562963062 -0.00370597961392)
(0.0111382152597 0.021302810847 -0.00276345718732)
(0.0103235341115 0.0190990062505 -0.00467409089257)
(0.00436814689844 0.0190545758608 -0.00363114911935)
(0.00699377535992 0.0226853435499 -0.00257076592499)
(0.00649960983403 0.0202764510795 -0.00438847678299)
(3.21794826537e-06 0.0193569698403 -0.00361845094245)
(0.00237782229069 0.0233840378938 -0.00252111019467)
(0.00221626171929 0.0208758876064 -0.00429147351127)
(-0.0043622442152 0.0190553516851 -0.00363034282478)
(-0.00236999881559 0.0233842609881 -0.00252053801511)
(-0.00220599892436 0.0208759702324 -0.00429069794947)
(-0.00843272777953 0.0181577898246 -0.00370445925776)
(-0.00698697953265 0.0226860148403 -0.00256919541388)
(-0.00649040220421 0.0202766449697 -0.00438634766242)
(-0.0118214826245 0.0167163410696 -0.00391809981347)
(-0.0111334758586 0.0213038865167 -0.0027608345638)
(-0.010316291844 0.0190992945719 -0.00467067793652)
(-0.0140643330478 0.0148721459217 -0.00431242664083)
(-0.0142929229271 0.0193332477336 -0.00319033565295)
(-0.0132542090506 0.0174278805691 -0.00524068165986)
(-0.0147194436647 0.0127969037009 -0.00486997901345)
(-0.0159419112533 0.0169839740337 -0.0038560590543)
(-0.0148756568825 0.0154368774023 -0.00609353400674)
(-0.0135083411612 0.0107607559341 -0.00548862267178)
(-0.0156859880976 0.0144397516263 -0.00469792909732)
(-0.0148815342419 0.0132871723661 -0.00714714868583)
(-0.0104555691032 0.00912775867679 -0.00591076217508)
(-0.0133063083357 0.0121361458134 -0.00551551706271)
(-0.013121272297 0.0113065564176 -0.00817503539418)
(-0.00607068112526 0.00811887712973 -0.00556865008565)
(-0.00913539259938 0.0104455517964 -0.00591090200238)
(-0.00981004957409 0.00980129939328 -0.00876203847254)
(-0.00175971811026 0.00766161141173 -0.00355889319441)
(-0.00374355835743 0.00950346309806 -0.0050232892791)
(-0.00536233588355 0.00891787491986 -0.00807098816414)
(-0.00026435945137 0.008985655468 -0.00175963414419)
(-0.00165242753226 0.00845414340185 -0.00487588443376)
(0.00197716764833 0.010665620371 -0.00322213201309)
(0.000355442953358 0.011167234198 -0.00125647753435)
(0.00190727070871 0.0111604404207 -0.00416724668715)
(0.00701624309997 0.0116762308432 -0.00536424809305)
(0.00451776881521 0.0121140614286 -0.00472952714593)
(0.0062185068925 0.0118774350822 -0.00765424457889)
(0.0121470351624 0.0132877053499 -0.00551555927161)
(0.0107670308569 0.0134884067766 -0.00548942738661)
(0.0113177027523 0.0131055292495 -0.00817590013119)
(0.0157189860247 0.01561071823 -0.00472641364615)
(0.0156281174109 0.0156977428249 -0.00472740332931)
(0.0150983045672 0.015080244618 -0.0071347339208)
(0.0171230734593 0.0183652389553 -0.00368727294822)
(0.0183868339471 0.0185553771049 -0.0034275246181)
(0.0170786555719 0.0176023565523 -0.00552075903889)
(0.016324822396 0.0211179189354 -0.00273809610222)
(0.0186532615451 0.0216440776499 -0.0020691233861)
(0.0170301696735 0.020307935124 -0.00386299170037)
(0.0136783844638 0.023528710664 -0.00203688698999)
(0.0166740232711 0.0244636303761 -0.000963300737436)
(0.0151192226342 0.0227988552409 -0.00248509745638)
(0.00972084631931 0.0253858420335 -0.00162824349839)
(0.0129416754744 0.0267922305704 -0.000207719011273)
(0.0117245368318 0.0248566041021 -0.00153186518844)
(0.00501553472726 0.0265344229028 -0.00146072700031)
(0.00809304120622 0.0284170863463 0.000169964546571)
(0.0073522867251 0.0262912249228 -0.00102641354654)
(4.64892975607e-06 0.0269194271858 -0.00142319726733)
(0.00274428661541 0.0292380865005 0.000294664935627)
(0.00250082060315 0.0270174551955 -0.00084314482526)
(-0.005006749412 0.0265345399215 -0.00145939060421)
(-0.00273448637349 0.0292377406326 0.000295477349089)
(-0.00248745449015 0.0270171570768 -0.000842063794167)
(-0.00971357078013 0.0253860719719 -0.00162557071992)
(-0.00808425312103 0.0284160842875 0.000172305260135)
(-0.00733995721173 0.0262903488244 -0.00102323166266)
(-0.0136738799997 0.0235288904643 -0.00203307040328)
(-0.012935143882 0.0267906957069 -0.000203755299058)
(-0.0117143713595 0.0248551971241 -0.00152648514315)
(-0.0163239228132 0.0211179369785 -0.00273396806642)
(-0.0166710484135 0.0244615450069 -0.000958373072446)
(-0.0151125210655 0.0227967750212 -0.00247824162486)
(-0.0171256139136 0.0183652183853 -0.00368400913818)
(-0.0186541465246 0.021641878802 -0.00206445086776)
(-0.0170273840813 0.02030529868 -0.00385620304724)
(-0.0157234902867 0.0156109050422 -0.00472482348825)
(-0.0183907057919 0.0185534520655 -0.00342431308576)
(-0.017079047583 0.0175995336995 -0.00551581550094)
(-0.0121516763699 0.0132887835693 -0.00551565689002)
(-0.01563316079 0.0156966440412 -0.00472604043145)
(-0.0151002149302 0.0150777411539 -0.00713230509422)
(-0.00701959686359 0.0116793933844 -0.00536554119584)
(-0.0107714319288 0.0134891606073 -0.00548966791907)
(-0.0113196735956 0.0131044149555 -0.00817568194135)
(-0.00197863924116 0.0106724443505 -0.00322403022888)
(-0.00452048808137 0.0121180509145 -0.0047307264366)
(-0.00621954583549 0.0118791391973 -0.00765553914123)
(-0.000356482139422 0.0111763951489 -0.00125810235694)
(-0.00190743927923 0.0111672288638 -0.00416937569534)
(0.00257888201514 0.0124249432336 -0.0027638726672)
(0.000680038630007 0.0120011538868 -0.000804652980075)
(0.00235367397435 0.0126773143838 -0.00341280430483)
(0.0085064673745 0.0137204773926 -0.00485470643949)
(0.00566003565743 0.0131345894682 -0.0043152315867)
(0.00745149674168 0.0134776403973 -0.00694811563618)
(0.0144524638653 0.0156595711383 -0.00470127144431)
(0.0128025636596 0.0146947670884 -0.00487414584777)
(0.0132995729224 0.0148603213394 -0.00715235759487)
(0.0185801090405 0.0183587903584 -0.00342851430126)
(0.0183827854964 0.0170940560624 -0.00369165745612)
(0.0176225828979 0.0170527925027 -0.00552395726853)
(0.0201677718627 0.0215052320836 -0.00180937505598)
(0.0215355256846 0.0201327953415 -0.00181279722968)
(0.0198544983112 0.0198245817188 -0.00316507781806)
(0.0191620426957 0.0246255057379 -0.000294328021311)
(0.0217661645273 0.0233686946181 0.00016476376082)
(0.0197277707877 0.0227870092873 -0.000718882604059)
(0.0160030380481 0.0273374634671 0.00086586724128)
(0.0193901070753 0.0262811580376 0.00180163531251)
(0.0174466745796 0.0255050357851 0.0013414837344)
(0.0113318411464 0.0294134240633 0.00159048903368)
(0.0149967044378 0.0286700477725 0.00294808681689)
(0.0134738148934 0.0277260621133 0.00279338743258)
(0.00583225293489 0.0306975333822 0.0019253564825)
(0.00934509231287 0.0303269954422 0.00355033537314)
(0.00841773919013 0.0292680345997 0.00358968711068)
(5.19203581883e-06 0.0311286367005 0.00201333955205)
(0.00316148820582 0.0311609289479 0.00377042695943)
(0.00285686314224 0.0300502801779 0.00390422603691)
(-0.00582242650233 0.0306961926852 0.00192717321343)
(-0.00315177797925 0.03115988098 0.00377116647942)
(-0.00284268308686 0.0300493099054 0.00390548490418)
(-0.0113236248639 0.0294108674491 0.001594120681)
(-0.00933620710482 0.0303238345623 0.00355262753255)
(-0.00840456531493 0.0292651846263 0.00359345371863)
(-0.0159977977608 0.0273338826353 0.000870942031777)
(-0.0149899516571 0.0286650321353 0.00295227420015)
(-0.0134629000169 0.0277215566856 0.00279984093682)
(-0.0191606710194 0.0246213464791 -0.000288855873785)
(-0.0193869106188 0.0262746258192 0.0018070414908)
(-0.0174394051383 0.0254991164937 0.00134979569649)
(-0.0201700122492 0.0215011669764 -0.00180475481533)
(-0.0217667307903 0.0233615648331 0.000170256548034)
(-0.0197245757308 0.0227803424771 -0.000710342663659)
(-0.0185846814147 0.0183555427113 -0.00342553002896)
(-0.0215392246011 0.020126265161 -0.00180841541596)
(-0.0198546867858 0.0198179952728 -0.00315814258662)
(-0.0144575807708 0.0156580685818 -0.00470005146051)
(-0.0183879572559 0.0170891014648 -0.00368904642563)
(-0.0176247444221 0.0170471936727 -0.00551955693568)
(-0.00851052675238 0.0137219603149 -0.00485485315982)
(-0.0128073278687 0.0146925636104 -0.00487326844993)
(-0.0133020679523 0.014856790369 -0.00715045549591)
(-0.00258105550211 0.0124311136183 -0.00276479856466)
(-0.00566319363275 0.0131365206777 -0.00431538400821)
(-0.00745314241258 0.0134777101247 -0.00694793910231)
(-0.000681491971513 0.0120090683054 -0.000805502876702)
(-0.00235447710923 0.0126834975855 -0.00341372848489)
(0.00338488555394 0.0125250485813 -0.00235601189957)
(0.00108776725514 0.0114152057803 -0.000482896036452)
(0.00289295440384 0.0126171447449 -0.00279894110897)
(0.0102358652976 0.0139220034683 -0.00433467099498)
(0.00687758419669 0.0125397380138 -0.00395630314497)
(0.00882634695914 0.0134668965101 -0.00625613208848)
(0.0169946675978 0.0159127958204 -0.00386453185958)
(0.0148753866245 0.0140407780308 -0.00432046820661)
(0.0154473916263 0.014853381797 -0.00610481624833)
(0.0216677924081 0.018618141178 -0.00207594038454)
(0.0211327765358 0.016294199612 -0.00274823334142)
(0.0203267119369 0.0169997808174 -0.00387327021754)
(0.0234044917082 0.0217266992157 0.000161341587123)
(0.0246549575309 0.0191244442386 -0.00030614889395)
(0.0228169714306 0.0196914914612 -0.000728348787721)
(0.0221443571257 0.0247493538962 0.00226072709464)
(0.0247899895295 0.0221052153651 0.00225590090103)
(0.0225859859627 0.0225480038542 0.00252361448233)
(0.0184253174431 0.0273353046014 0.00388385488812)
(0.0220054113371 0.0247478329842 0.00436585874391)
(0.019903207935 0.0251357890217 0.00525236645385)
(0.0130047612779 0.0293004014643 0.00490793315634)
(0.0169548862158 0.0269280134344 0.00585456312639)
(0.0153170013301 0.0272394223538 0.00716259288329)
(0.00667765914113 0.0305044545721 0.00539540585007)
(0.0105198493811 0.0284371354006 0.0066514316416)
(0.00954007168132 0.0286888490154 0.00821696458207)
(4.56060000857e-06 0.0309057529447 0.00552825388681)
(0.00354821580176 0.0291895432023 0.00695012020758)
(0.00323135325004 0.0294199881642 0.00864448606311)
(-0.00666892351631 0.0305016581309 0.00539662079854)
(-0.00354062943042 0.0291879736231 0.0069505260206)
(-0.00321885962508 0.0294183865883 0.00864539223629)
(-0.0129972151108 0.0292949338281 0.00491078105171)
(-0.0105128503411 0.0284322827975 0.00665289283788)
(-0.00952828152536 0.0286840381435 0.00821984301104)
(-0.0184203540273 0.0273275526988 0.00388837365918)
(-0.0169496592743 0.0269199975733 0.00585787997793)
(-0.0153070875885 0.0272317401164 0.00716817202315)
(-0.0221429282875 0.0247401047093 0.00226615391262)
(-0.0220033327068 0.024737038554 0.00437060458341)
(-0.0198966150417 0.0251256160021 0.00526015903181)
(-0.023406487686 0.0217173237665 0.000166595947401)
(-0.0247909884554 0.0220928567685 0.00226107299247)
(-0.02258302069 0.0225363962715 0.00253226409706)
(-0.0216721990586 0.0186099951257 -0.00207193181264)
(-0.0246586415768 0.0191124197315 -0.00030143381703)
(-0.0228172839817 0.0196799927152 -0.000720446995057)
(-0.0169997677487 0.015907117008 -0.00386226341506)
(-0.021137743838 0.016284217079 -0.00274503276864)
(-0.0203290217909 0.0169897277574 -0.00386755050925)
(-0.0102400349987 0.0139201759004 -0.00433379929832)
(-0.0148800157098 0.0140344453427 -0.00431889085141)
(-0.0154501810278 0.014846134319 -0.00610161736117)
(-0.00338720868911 0.012528709979 -0.00235608832025)
(-0.00688067280443 0.0125383610789 -0.00395559690131)
(-0.00882823498656 0.0134639785191 -0.00625466923559)
(-0.00108943452104 0.0114206099531 -0.00048303703071)
(-0.00289390970873 0.0126210481196 -0.00279875323659)
(0.00414765698104 0.0113035533391 -0.00208318728185)
(0.00150038753662 0.00965819266336 -0.000280918435323)
(0.00338305895519 0.0113310141863 -0.00239064865118)
(0.0118481138347 0.0125207318513 -0.0039421003566)
(0.00798524944165 0.0105642471301 -0.00370750091947)
(0.0100966595503 0.012038203974 -0.00572497128445)
(0.0193409281292 0.0142690392929 -0.00320416968845)
(0.016717356681 0.0118057105165 -0.00392892090299)
(0.0174354788367 0.0132374111099 -0.00525775169259)
(0.0244849655428 0.0166412656973 -0.000978441850837)
(0.0235401467429 0.0136549485765 -0.00205284854564)
(0.0228144221086 0.0150920369027 -0.00250479047282)
(0.0263165945177 0.0193531425363 0.00178841041996)
(0.0273653532349 0.0159737819221 0.000844712569547)
(0.0255333320777 0.0174136808147 0.00131903039975)
(0.0247870730069 0.0219678965436 0.0043610325503)
(0.0273776885635 0.0183954076879 0.00387059341904)
(0.0251740269985 0.019868730851 0.00523932771319)
(0.0205353790647 0.0242090591891 0.00633656698219)
(0.0242482191854 0.020507253474 0.00633526495474)
(0.0221217369503 0.0220881612551 0.0084922735848)
(0.0144297903535 0.0259187110053 0.00759806161165)
(0.0186287119798 0.0222611651313 0.00804956459787)
(0.0169653361385 0.0239136343187 0.0107724384072)
(0.00738221475094 0.0269565924913 0.00820614599911)
(0.0115216784342 0.0234447927106 0.0088146444369)
(0.0105256341348 0.0251678833082 0.0120399201706)
(3.06916528778e-06 0.027299127049 0.00837239234137)
(0.00387304652002 0.0240131837139 0.00909775553396)
(0.00355529971062 0.0257928782376 0.0125555065717)
(-0.00737640785193 0.0269530074 0.00820679805994)
(-0.00386929061493 0.0240114337858 0.00909812436915)
(-0.00354626438121 0.0257909267856 0.0125560173854)
(-0.0144250181923 0.0259114569365 0.00759999176411)
(-0.0115184269937 0.0234391810143 0.00881604335583)
(-0.0105171513138 0.025161974793 0.0120417113872)
(-0.0205328231853 0.0241982020372 0.00634011090217)
(-0.0186270583426 0.0222510812033 0.00805293231882)
(-0.0169584958599 0.0239038212816 0.0107767191701)
(-0.024787312254 0.0219541888896 0.00436552366326)
(-0.0242493768211 0.0204930481519 0.00633870522455)
(-0.0221177381542 0.0220744541284 0.00849847568181)
(-0.0263193171132 0.0193383601273 0.00179304322804)
(-0.0273806991815 0.0183784993654 0.00387404962946)
(-0.0251727151911 0.0198523761507 0.0052463569316)
(-0.0244892468887 0.0166276310879 -0.000974534773029)
(-0.02736947897 0.0159564851688 0.000848044977295)
(-0.025534282557 0.0173968192804 0.00132585794812)
(-0.0193456591256 0.0142585635331 -0.00320166020499)
(-0.023544674277 0.0136400174847 -0.00205029921159)
(-0.022816846533 0.0150769423977 -0.0024993948582)
(-0.0118519601659 0.0125149579741 -0.0039406884544)
(-0.0167213523067 0.011795092663 -0.00392740148873)
(-0.0174382081163 0.0132258655767 -0.00525435268202)
(-0.00414998128132 0.0113039356223 -0.00208254561177)
(-0.00798782114647 0.0105591709022 -0.00370634026577)
(-0.0100984554936 0.0120316772434 -0.00572279520742)
(-0.00150210888005 0.0096600845517 -0.00028045039081)
(-0.003384290734 0.0113316855734 -0.0023894614948)
(0.00485507652539 0.00886327075497 -0.00190523207294)
(0.00187144773272 0.0069341421236 -0.000166864874686)
(0.0038564416145 0.00886432839806 -0.00213103196658)
(0.0132415643061 0.00979083317381 -0.00369432146586)
(0.0088706998579 0.00755937769488 -0.00357178093071)
(0.0111923075387 0.00939890386446 -0.00538162509505)
(0.0213089300339 0.0111221993568 -0.00277759976018)
(0.0181577068091 0.00842877186835 -0.00371549032122)
(0.019104525077 0.0103108252928 -0.00469043354716)
(0.0268111550294 0.0129210839739 -0.000229694125256)
(0.0253942617865 0.00971106023279 -0.00164668773331)
(0.0248689383767 0.011708820006 -0.00155834217487)
(0.0287061630357 0.0149734543968 0.00292689556862)
(0.029439266924 0.0113184985617 0.00156342695078)
(0.0277525765612 0.0134538827897 0.00276027150088)
(0.0269703136284 0.0169330328399 0.00584482582347)
(0.0293447686556 0.0129909724942 0.00488999001085)
(0.0272798241661 0.0152965158901 0.0071402831927)
(0.0222908195342 0.0186083339362 0.00804826257042)
(0.0259614481456 0.0144174598614 0.0075969974239)
(0.0239499877785 0.0169478099242 0.0107692890753)
(0.0156180330876 0.0199115103929 0.00926614742312)
(0.0199330445496 0.0156052137015 0.00926951364894)
(0.0183379372289 0.0183209777263 0.0133287416524)
(0.00798787060164 0.0207043221337 0.00970625397176)
(0.0122866911237 0.0164157169636 0.00994755885322)
(0.0113520441334 0.0192608164838 0.0146592433457)
(7.08926904264e-07 0.0209583243661 0.00982348756174)
(0.00411492743312 0.016803891878 0.0101812422202)
(0.00382256839245 0.0197126320927 0.0151964587496)
(-0.00798662530023 0.0207004017833 0.00970736966504)
(-0.00411571624958 0.0168017519736 0.0101820397077)
(-0.00381819552903 0.0197106496378 0.0151970204609)
(-0.0156176884034 0.019902866287 0.00926898391054)
(-0.0122887148056 0.0164090615961 0.00994960649122)
(-0.0113482160241 0.0192545008528 0.0146611854446)
(-0.0222928830814 0.0185948818544 0.0080515266412)
(-0.0199366779814 0.0155932923174 0.00927270894628)
(-0.0183358988216 0.0183094676595 0.013332984402)
(-0.0269741874076 0.0169158285704 0.00584723119075)
(-0.0259670871472 0.0144013397788 0.00759849947088)
(-0.0239506106365 0.0169316175598 0.010773010887)
(-0.0287107632794 0.0149542862201 0.00292905137871)
(-0.0293508278699 0.0129716329883 0.00489076795215)
(-0.0272816650478 0.0152767436816 0.00714343763936)
(-0.0268155369808 0.012902761894 -0.000227719461262)
(-0.0294442909241 0.0112980006801 0.00156373988722)
(-0.0277546812222 0.0134328133924 0.00276325124067)
(-0.0213129129374 0.0111073796721 -0.00277604049533)
(-0.0253980497892 0.00969287670455 -0.00164609668217)
(-0.0248711886438 0.0116895502827 -0.001555491587)
(-0.0132445480215 0.0097811354527 -0.0036930533001)
(-0.0181605631157 0.0084149847829 -0.00371484354449)
(-0.0191066216732 0.0102955012281 -0.00468826594491)
(-0.00485693472628 0.00885990922474 -0.00190424504481)
(-0.00887234648155 0.00755116625256 -0.00357072372408)
(-0.0111935288573 0.00938886164949 -0.00537961828739)
(-0.00187280742465 0.00693251800379 -0.000166026711481)
(-0.00385750746605 0.00886129308807 -0.00212937585585)
(0.00536224378009 0.00560240165274 -0.00183341373245)
(0.00211265964734 0.00359989928296 -0.000125218992783)
(0.00420255415531 0.00559851109352 -0.00202800807194)
(0.0142263690577 0.00617364191594 -0.00359294978607)
(0.00942215531719 0.00392192060306 -0.0035257941102)
(0.0119675052709 0.00593259685122 -0.00522667617371)
(0.0226896783072 0.00699115210891 -0.00258457829435)
(0.0190553182956 0.00436975479261 -0.00363896295356)
(0.0202808482324 0.00649821981398 -0.00440429981179)
(0.028433507244 0.00808971317605 0.000146433342723)
(0.0265406321264 0.00502020452672 -0.00147712810928)
(0.0263010787903 0.0073517360563 -0.00105297956605)
(0.0303626236392 0.00934009403367 0.00352652139301)
(0.0307202386609 0.00583600748456 0.0018986198932)
(0.029292035015 0.00841545327618 0.00355337080465)
(0.0284816992332 0.0105144996518 0.00664216161128)
(0.030547081028 0.00667975177035 0.00537755547703)
(0.0287297255472 0.00953656749966 0.00819214479243)
(0.0234769597488 0.011516285625 0.00881824850242)
(0.026999381814 0.00738242068746 0.00820701302106)
(0.0252069433396 0.0105222865162 0.0120397823848)
(0.0164298209625 0.0122810061133 0.00995092507904)
(0.020726494602 0.0079853872678 0.00971358882551)
(0.0192793959761 0.0113487742986 0.0146669724688)
(0.0083827616453 0.012721152629 0.0104225471017)
(0.0127272963504 0.00837858260175 0.0104243318396)
(0.0118802440548 0.0118767783058 0.0160842031283)
(-1.48664147364e-06 0.0128606642044 0.0105397943662)
(0.00424957187504 0.00856522183553 0.0106508592257)
(0.00398555236826 0.012124746485 0.0166229284604)
(-0.00838659734338 0.0127164495934 0.0104242765339)
(-0.00425560517982 0.00856272628264 0.0106515827586)
(-0.00398569086323 0.0121224075385 0.0166241459176)
(-0.0164353220434 0.0122710882777 0.00995333152696)
(-0.012734871827 0.00837095728434 0.010425878262)
(-0.0118820905535 0.0118695856603 0.0160868368567)
(-0.0234843654434 0.0115014333243 0.00881968177596)
(-0.0207353761528 0.00797277820874 0.00971508050595)
(-0.0192831202358 0.0113361353565 0.0146695625676)
(-0.0284896064215 0.0104958972312 0.00664203623228)
(-0.0270091960677 0.00736590258934 0.00820629451487)
(-0.0252122671099 0.0105052482326 0.0120406795072)
(-0.0303694711269 0.00931920719647 0.00352545646066)
(-0.0305561460449 0.00666024979213 0.00537546934516)
(-0.0287351070556 0.00951592649718 0.00819124509756)
(-0.0284379891139 0.00806931926106 0.000145362666312)
(-0.0307261573823 0.00581520597134 0.00189517893845)
(-0.0292956424332 0.00839297498937 0.00355130623608)
(-0.0226925233634 0.00697409788855 -0.00258489973133)
(-0.0265433660855 0.00500154565327 -0.00147924372353)
(-0.0263029074446 0.00733080646434 -0.00105414367463)
(-0.0142280327529 0.0061614874022 -0.00359251396847)
(-0.0190566767412 0.00435498870125 -0.0036398097456)
(-0.0202818267309 0.00648106033481 -0.00440450495985)
(-0.00536330217401 0.00559609364499 -0.00183250539075)
(-0.00942263548098 0.0039121509513 -0.00352540038445)
(-0.0119678114839 0.00592043994243 -0.00522572698813)
(-0.0021133853015 0.0035956488764 -0.000124329780527)
(-0.00420318853063 0.00559254936352 -0.00202644195825)
(0.00562144353801 0.00190806145543 -0.00181759937053)
(0.00219578239788 -1.57577379823e-05 -0.000116851641095)
(0.00438189843715 0.00190587358098 -0.00200579449343)
(0.014726107049 0.00210756592909 -0.00357180727769)
(0.00960765775717 2.46445429698e-07 -0.0035178182995)
(0.0123627695885 0.00202793042598 -0.00518299814066)
(0.0233873232326 0.00238650256555 -0.00253151276849)
(0.019357165388 1.23351535951e-05 -0.00362374111827)
(0.0208797057233 0.00222477870959 -0.00430380488584)
(0.0292516898303 0.00275581011966 0.000275058441202)
(0.0269236595141 2.0019847558e-05 -0.00143571075259)
(0.0270256198517 0.00251324428934 -0.000864188663104)
(0.0311924146046 0.00317205107508 0.00374965397723)
(0.0311471911643 2.24071114124e-05 0.00199060151997)
(0.0300710103584 0.00286990712862 0.00387287183051)
(0.0292301719459 0.00355540225184 0.00694240688681)
(0.030943071788 1.88957265774e-05 0.00551304446676)
(0.0294567166683 0.00324201941738 0.00862309922036)
(0.0240430189679 0.00387593460155 0.00910235334415)
(0.0273372942768 1.24691613226e-05 0.00837448203444)
(0.0258287953926 0.00356224878152 0.0125571097978)
(0.0168175894183 0.00411472937403 0.0101869955861)