/*--------------------------------*- C++ -*----------------------------------*\
| =========                 |                                                 |
| \\      /  F ield         | OpenFOAM: The Open Source CFD Toolbox           |
|  \\    /   O peration     | Version:  3.0.1                                 |
|   \\  /    A nd           | Web:      www.OpenFOAM.org                      |
|    \\/     M anipulation  |                                                 |
\*---------------------------------------------------------------------------*/
FoamFile
{
    version     2.0;
    format      ascii;
    class       surfaceVectorField;
    location    "3.4";
    object      Uf_0;
}
// * * * * * * * * * * * * * * * * * * * * * * * * * * * * * * * * * * * * * //

dimensions      [0 1 -1 0 0 0 0];

internalField   nonuniform List<vector> 
22672
(
(0.00255597199482 0.000954431108648 -0.00231143697813)
(0.000950962989975 0.00256059974841 -0.00231121327954)
(0.00168566361115 0.00168962053736 -0.00511657190092)
(0.00584223253605 0.000463372841942 -0.0021588091433)
(0.00375201029435 0.00195458510625 -0.00338123442627)
(0.00484971579757 0.0016089246129 -0.00524084491926)
(0.00894778575511 0.00026987062711 -0.00175914064105)
(0.00763111838681 0.0017591898533 -0.00354723234716)
(0.00841885149983 0.00164859816229 -0.00486474039164)
(0.011134795165 0.000361288404155 -0.00126192914475)
(0.0106352195187 0.00197659065083 -0.00321542033656)
(0.011127572602 0.00190148146601 -0.00416359453318)
(0.0119719366384 0.00068527772386 -0.000812880682868)
(0.0123941248349 0.0025762416344 -0.00276045429818)
(0.0126462841183 0.00234566855544 -0.00341337395038)
(0.0113919116813 0.00109207986453 -0.000492351720203)
(0.0124999165692 0.00338092167584 -0.0023543064346)
(0.0125927647208 0.00288406059671 -0.0028008833704)
(0.00964195888574 0.0015031151316 -0.000291024131757)
(0.0112834807759 0.00414226205013 -0.00208210498756)
(0.0113123935745 0.00337279350559 -0.00239229147453)
(0.00692645701391 0.00187248694975 -0.000177427180064)
(0.00884916474056 0.00484769257335 -0.00190473633997)
(0.00885180831692 0.00384475341934 -0.00213216864182)
(0.0036028118876 0.00211220003581 -0.000136064684982)
(0.00559546837318 0.00535274056892 -0.00183374021598)
(0.00559281687946 0.00418940971114 -0.00202906967204)
(-2.19626808805e-07 0.00219441086137 -0.00012767996872)
(0.00191053121894 0.00561047608349 -0.00181893252944)
(0.00190888746652 0.00436773207687 -0.00200741599763)
(-0.00360372440111 0.00211287291597 -0.000136168276092)
(-0.00190963702066 0.00561089146295 -0.00181885607689)
(-0.00190934898637 0.00436792348699 -0.00200735648929)
(-0.00692861281842 0.00187374035826 -0.00017772589142)
(-0.00559553034247 0.00535391458576 -0.00183359082371)
(-0.00559417565667 0.00418992666535 -0.00202899567474)
(-0.00964580935182 0.00150477757852 -0.000291640591101)
(-0.00885086353082 0.00484950459437 -0.00190463680044)
(-0.00885464765113 0.00384551423923 -0.00213227865314)
(-0.0113974388415 0.00109389544117 -0.000493335998449)
(-0.0112871432813 0.00414444197124 -0.00208220668543)
(-0.0113169235649 0.00337362157733 -0.00239278544616)
(-0.0119786566437 0.000686989953044 -0.000814285160728)
(-0.0125053263478 0.00338311638126 -0.00235477740156)
(-0.0125987176644 0.00288474842064 -0.00280187493543)
(-0.0111415302944 0.000362717352361 -0.0012637371004)
(-0.0124005526948 0.00257811493337 -0.00276163506426)
(-0.0126528598686 0.00234603664674 -0.00341522166715)
(-0.00895341569638 0.000271076736092 -0.00176127925439)
(-0.0106410334246 0.00197804729552 -0.00321726268186)
(-0.0111331648759 0.00190158015792 -0.00416614642129)
(-0.00584613853284 0.000464636655958 -0.0021615719657)
(-0.00763541174621 0.00176067744557 -0.00354964018852)
(-0.00842273434719 0.00164884489016 -0.00486794264096)
(-0.0025575891674 0.000955991824897 -0.00231488852815)
(-0.00375440580868 0.00195670191498 -0.00338444616936)
(-0.00485177813978 0.0016097607733 -0.00524524123262)
(-0.000951139678405 0.00256384308799 -0.00231468075024)
(-0.00168572466745 0.00169112741961 -0.00512142590395)
(0.00195154766761 0.00375651586249 -0.00338101072769)
(0.000460587701024 0.0058487572625 -0.00215789633612)
(0.00160631283953 0.00485499270646 -0.00523970511195)
(0.00572323624028 0.00348667227507 -0.00476965763013)
(0.0034847561458 0.00572533009278 -0.00476935262042)
(0.00495459240474 0.00495602756161 -0.00754243237856)
(0.00947378974752 0.0037336846354 -0.00500351204267)
(0.00809465561867 0.00605103728538 -0.00554553406835)
(0.00889013629916 0.00534179030351 -0.00804239760142)
(0.0120862633881 0.00450692205528 -0.00471394548999)
(0.0116496813244 0.00699481737447 -0.0053447848938)
(0.0118491961789 0.00619355862979 -0.00763069400172)
(0.013109494214 0.00564641815277 -0.00430188004991)
(0.0136941682127 0.00848035545274 -0.00483787361232)
(0.0134515298466 0.00742162343909 -0.00692733454165)
(0.012519581149 0.00686221509672 -0.00394405970195)
(0.0139007370604 0.0102070111164 -0.00431909021169)
(0.0134462282516 0.00879328435928 -0.00623616208472)
(0.0105481984967 0.00796808401832 -0.00369581719577)
(0.0125032014567 0.0118177709329 -0.00392625171481)
(0.012021516196 0.0100615517789 -0.00570410766324)
(0.00754719442243 0.00885114683686 -0.00356104937589)
(0.00977558296495 0.0132089235601 -0.00367852868848)
(0.00938475984853 0.011154661383 -0.00536020437628)
(0.003915021968 0.00940053362746 -0.00351660806044)
(0.00616066931032 0.0141911669834 -0.00357857663315)
(0.00592082475476 0.0119272477361 -0.00520622812714)
(1.14163521602e-06 0.0095853197809 -0.00351010863761)
(0.00209941392898 0.0146891903636 -0.00355983838936)
(0.00202051156036 0.012320916887 -0.00516480577172)
(-0.00391320047897 0.0094014673387 -0.00351627862451)
(-0.0020951989215 0.0146896540242 -0.00355952406012)
(-0.00201522361462 0.0123210998495 -0.00516439107767)
(-0.00754664488691 0.00885291321822 -0.00356050173273)
(-0.00615745839959 0.0141925068385 -0.00357776156139)
(-0.00591647944083 0.0119277350683 -0.00520511852756)
(-0.0105495578409 0.00797046139009 -0.00369520289477)
(-0.00977417614055 0.0132110217772 -0.0036772894858)
(-0.00938207890707 0.0111554010986 -0.0053585762019)
(-0.0125230976881 0.00686483146289 -0.00394364808854)
(-0.0125042584057 0.0118202794656 -0.00392480635864)
(-0.0120210688503 0.0100623443759 -0.00570227202706)
(-0.013114732458 0.00564883920339 -0.00430212730508)
(-0.0139042563382 0.0102095457201 -0.00431798824423)
(-0.0134480121089 0.00879383711406 -0.00623477221768)
(-0.0120919464192 0.00450889417994 -0.00471516064572)
(-0.0136993455577 0.00848255008373 -0.00483784316625)
(-0.0134548014811 0.00742169863154 -0.00692720259048)
(-0.00947854054169 0.0037355042088 -0.00500562361599)
(-0.0116547803078 0.0069967027173 -0.00534600077473)
(-0.0118525338766 0.00619330184219 -0.00763204644686)
(-0.00572618208926 0.00348912091803 -0.00477251439218)
(-0.00809841773207 0.0060533743288 -0.00554772757159)
(-0.00889252798557 0.00534196711248 -0.00804504357949)
(-0.00195243773085 0.00376045196663 -0.00338423839146)
(-0.00348660439876 0.00572913885207 -0.00477223859404)
(-0.00495560000543 0.00495760116512 -0.00754617125954)
(-0.000460661156888 0.00585519439475 -0.00216081492184)
(-0.00160603706091 0.00485886496575 -0.00524378281344)
(0.00175774286861 0.00763493274815 -0.00354623822886)
(0.000267753930733 0.00895318754403 -0.00175708580297)
(0.00164749713182 0.00842355680625 -0.00486217304719)
(0.00605268104717 0.00809302568556 -0.00554522905864)
(0.00373381729887 0.00947194388972 -0.00500264045888)
(0.00534345417403 0.00888816543742 -0.00804155088102)
(0.0104213919478 0.00910075371151 -0.00588680691948)
(0.00910649458199 0.010413727897 -0.00588686069369)
(0.00977716679047 0.00977032734449 -0.00873139848505)
(0.0134643428827 0.0107301481802 -0.00546871301612)
(0.0132631319553 0.0121014931837 -0.00549502985917)
(0.0130793267589 0.0112718540484 -0.00814962106623)
(0.0146737616842 0.0127611487772 -0.0048550837741)
(0.0156363674183 0.0143997903232 -0.00468334868857)
(0.0148369358286 0.0132466221562 -0.00712884480935)
(0.0140239321276 0.0148316315273 -0.00430128222455)
(0.0158951154325 0.0169381173269 -0.00384664479347)
(0.0148352818593 0.0153900076175 -0.00608126435273)
(0.0117906713241 0.0166718179237 -0.00390896320752)
(0.0142543457428 0.0192827962322 -0.00318377737915)
(0.0132222597434 0.0173756812863 -0.00523174884023)
(0.00841378042994 0.018109876225 -0.00369605594575)
(0.0111067495548 0.0212488355276 -0.002755405789)
(0.0102954855973 0.0190421563213 -0.00466300246115)
(0.00435600569518 0.0190054398828 -0.00362180696208)
(0.00697397496191 0.0226275112171 -0.00256362347018)
(0.00648200518126 0.0202157917556 -0.0043785485616)
(3.10556542977e-06 0.019306870894 -0.00360925381187)
(0.00237101756959 0.0233241035934 -0.00251429200903)
(0.00221020339973 0.0208131063831 -0.00428199060266)
(-0.00435032333051 0.0190062118792 -0.00362100699699)
(-0.00236343356241 0.0233243243682 -0.00251372366098)
(-0.00220013618376 0.0208131841738 -0.00428121823931)
(-0.00840953875295 0.0181113619374 -0.00369454931446)
(-0.00696740846738 0.0226281758956 -0.0025620636859)
(-0.00647298417639 0.0202159713546 -0.0043764305805)
(-0.0117887858528 0.0166738036866 -0.00390689294967)
(-0.0111022190159 0.0212499004721 -0.00275280308822)
(-0.0102884122147 0.0190424207726 -0.00465960952553)
(-0.0140249310719 0.0148337909627 -0.00429914651433)
(-0.0142528911717 0.0192839474036 -0.00318052015085)
(-0.0132180467913 0.017375789851 -0.00522750238303)
(-0.0146773233253 0.01276318158 -0.0048537041054)
(-0.0158969532909 0.0169392440902 -0.00384367273791)
(-0.0148341810849 0.0153897467813 -0.00607728810569)
(-0.0134691282542 0.0107319832472 -0.00546868329526)
(-0.0156406739448 0.0144008110221 -0.00468171592729)
(-0.0148382192861 0.0132459078337 -0.00712644067197)
(-0.010425796314 0.00910289421137 -0.00588810473033)
(-0.0132680068362 0.0121026446637 -0.00549508151057)
(-0.0130814998372 0.0112710434599 -0.00814926123001)
(-0.00605554257289 0.00809647060789 -0.00554745177346)
(-0.00911039139892 0.0104159377837 -0.0058882390896)
(-0.00977898021737 0.00977036950432 -0.00873280674536)
(-0.00175871132003 0.00764097180946 -0.00354881512443)
(-0.00373590005153 0.00947647132423 -0.00500480426501)
(-0.0053441543886 0.00889028908916 -0.00804415448834)
(-0.000268189543737 0.0089616578921 -0.00175941008271)
(-0.00164727835576 0.00842950519303 -0.00486516919765)
(0.00197615752076 0.0106351450697 -0.003213488033)
(0.000359716226829 0.0111364620607 -0.00125844767087)
(0.0019014881606 0.0111281156359 -0.00415943210458)
(0.00699895808622 0.0116420068598 -0.00534427209393)
(0.00450799491613 0.0120786718818 -0.00471281296288)
(0.00619733417996 0.0118417790172 -0.00762952788841)
(0.0121133556157 0.0132495978498 -0.00549508363338)
(0.010738104723 0.0134493987597 -0.0054694336776)
(0.011282068506 0.0130660009636 -0.0081500662026)
(0.0156748602583 0.0155674513114 -0.00470966553162)
(0.0155846159244 0.0156538673029 -0.00471064615019)
(0.0150532549635 0.0150354413764 -0.00711387454756)
(0.0170757008022 0.0183159968637 -0.00367490970794)
(0.0183356936923 0.0185052706843 -0.00341580929144)
(0.0170299710685 0.0175511475196 -0.00550631437856)
(0.01628037224 0.0210632476551 -0.00272913994807)
(0.0186023720312 0.0215874664107 -0.00206197029838)
(0.0169835182781 0.0202502538054 -0.00385401166788)
(0.0136412564028 0.0234692484083 -0.00203021996063)
(0.016628496882 0.0244018478271 -0.00095925202249)
(0.0150784581595 0.0227356753885 -0.00247992484162)
(0.00969428669515 0.0253219534082 -0.00162297331343)
(0.0129057639561 0.0267253421596 -0.000206104081599)
(0.0116928651746 0.0247882511524 -0.00152952438599)
(0.00500169856022 0.0264674134452 -0.00145610851713)
(0.00807029035403 0.0283459574375 0.000170012931244)
(0.00733230218671 0.0262186973563 -0.00102584440581)
(4.52205222361e-06 0.0268513127408 -0.00141876185813)
(0.00273645645581 0.0291646405086 0.000294016566735)
(0.00249391939144 0.0269426436996 -0.00084334604028)
(-0.00499316134125 0.0264675246812 -0.00145478034989)
(-0.00272692125931 0.0291642921688 0.0002948235035)
(-0.00248077234272 0.0269423385446 -0.000842269773134)
(-0.00968724232471 0.0253221725213 -0.00162031745966)
(-0.00806175554305 0.0283449473864 0.000172338309482)
(-0.00732018081348 0.0262177991703 -0.00102267596628)
(-0.0136369575619 0.0234694135195 -0.0020264302894)
(-0.0128994619304 0.026723796292 -0.000202166457988)
(-0.0116828889949 0.0247868093227 -0.00152416645667)
(-0.0162796414553 0.0210632456666 -0.00272504637443)
(-0.0166257152255 0.0243997494332 -0.000954360666952)
(-0.0150719156553 0.0227335453732 -0.00247310474071)
(-0.0170783665744 0.0183159488899 -0.0036716845598)
(-0.0186034073598 0.0215852487164 -0.00205733768391)
(-0.016980851763 0.0202475508597 -0.00384726716041)
(-0.0156794454414 0.0155676047786 -0.0047081141426)
(-0.0183396687496 0.0185033205199 -0.00341263916494)
(-0.0170304374503 0.0175482428101 -0.00550141958358)
(-0.0121180383056 0.013250638178 -0.00549521586984)
(-0.0155897216295 0.0156527403034 -0.00470932294832)
(-0.0150552000673 0.0150328475507 -0.00711149313154)
(-0.00700232216419 0.0116451304359 -0.00534559158115)
(-0.0107425339972 0.013450119647 -0.00546970897994)
(-0.0112840428493 0.0130647953646 -0.00814988957483)
(-0.00197762437051 0.0106419381941 -0.00321539922329)
(-0.0045107157274 0.0120826310823 -0.00471403705491)
(-0.00619835853828 0.0118434088629 -0.0076308498307)
(-0.000360748428673 0.0111456043216 -0.00126008109008)
(-0.00190164693597 0.011134870108 -0.0041615662919)
(0.00257618638032 0.0123885495707 -0.00275777260075)
(0.000683501531791 0.0119685600234 -0.000808511437083)
(0.00234654479891 0.0126408978455 -0.00340828471694)
(0.00848520451278 0.013679745775 -0.00483797454656)
(0.00564677813086 0.0130967061313 -0.00430126266686)
(0.0074261482251 0.0134383244915 -0.00692705231878)
(0.014413340433 0.0156144330551 -0.00468499619441)
(0.01276867668 0.0146528194502 -0.00485779450578)
(0.0132581783358 0.0148172388011 -0.00713155547058)
(0.0185297579906 0.0183079014978 -0.00341678991001)
(0.0183333075523 0.0170469372964 -0.00367926803537)
(0.0175711329448 0.0170043730472 -0.00550948503618)
(0.0201139562631 0.0214476842966 -0.00180286988188)
(0.0214777313148 0.0200792229373 -0.00180628754393)
(0.0197993853409 0.01976971904 -0.00315814657772)
(0.0191114818039 0.024561704935 -0.000292082372805)
(0.0217086546059 0.0233083878596 0.000165670194982)
(0.0196750286599 0.0227253729504 -0.000718441815946)
(0.0159605226978 0.0272681208562 0.000864863856541)
(0.0193384032161 0.0262155109559 0.00179846990722)
(0.0174004398923 0.0254374988025 0.00133730199421)
(0.0113011590422 0.0293391349149 0.00158688216307)
(0.0149556333338 0.0285993077511 0.0029412743728)
(0.0134375690914 0.0276531001699 0.00278540451564)
(0.00581616252271 0.0306198058226 0.00192013801511)
(0.00931896540482 0.0302521642713 0.00354087710383)
(0.00839466908292 0.0291907289237 0.00357879630383)
(5.05431664515e-06 0.0310496958768 0.00200760192837)
(0.00315250143294 0.0310838830284 0.00375974374628)
(0.00284888632819 0.0299706324499 0.00389187230349)
(-0.00580660574791 0.030618461794 0.00192194216287)
(-0.0031430736335 0.0310828344576 0.00376047672476)
(-0.00283495347031 0.0299696547213 0.00389312436265)
(-0.0112931926116 0.0293365709874 0.00159048931116)
(-0.00931035106729 0.0302489993819 0.00354315059667)
(-0.00838172966485 0.0291878539475 0.00358254150939)
(-0.0159555031505 0.0272645297952 0.000869903164459)
(-0.0149491252834 0.0285942833812 0.00294543156805)
(-0.0134268666024 0.0276485505296 0.00279183025855)
(-0.0191102889593 0.0245575318464 -0.000286651976437)
(-0.0193354115041 0.0262089730722 0.00180383493728)
(-0.0173933499799 0.0254315204993 0.0013455691659)
(-0.0201163290511 0.0214436005737 -0.00179829228906)
(-0.0217093788016 0.0233012506617 0.000171117405832)
(-0.0196719682951 0.0227186305124 -0.000709954794747)
(-0.0185344192121 0.01830463301 -0.00341384797066)
(-0.0214815383003 0.0200726827167 -0.00180194984132)
(-0.0197996618799 0.0197630449009 -0.00315126512979)
(-0.014418508486 0.0156129078007 -0.00468381605842)
(-0.0183385493854 0.0170419737676 -0.00367669860778)
(-0.0175733439427 0.0169986828428 -0.0055051376671)
(-0.00848928357653 0.0136812058832 -0.0048381544537)
(-0.0127734798841 0.0146506039815 -0.00485695507684)
(-0.0132606924628 0.0148136198405 -0.00712970318709)
(-0.0025783595064 0.0123947048314 -0.00275871892169)
(-0.00564994738838 0.0130986277691 -0.00430144505831)
(-0.00742779207007 0.013438328959 -0.00692691511254)
(-0.000684951009189 0.0119764745023 -0.000809373664474)
(-0.00234734186502 0.0126470626474 -0.00340922669743)
(0.00337957700094 0.012489924992 -0.00235200150319)
(0.0010899314994 0.0113852404397 -0.000487509027405)
(0.00288428258394 0.0125829801533 -0.00279625824658)
(0.0102099645615 0.0138818916654 -0.00432108262608)
(0.0068609198418 0.0125045062753 -0.00394459708583)
(0.00879666582604 0.0134294644628 -0.0062381883887)
(0.0169497383902 0.0158679610793 -0.00385206634674)
(0.0148368438312 0.0140014939116 -0.00430709657935)
(0.0154001056374 0.014812096616 -0.00608844825778)
(0.0216109314353 0.018567491937 -0.00206876566928)
(0.0210778547384 0.0162499877264 -0.00273924078676)
(0.0202687792445 0.0169533885341 -0.00386424254565)
(0.0233439429698 0.0216694215834 0.000162252532937)
(0.0245909031847 0.0190741105841 -0.000303894665405)
(0.0227550825647 0.0196389834121 -0.000727897438197)
(0.0220873736666 0.0246860593882 0.00225622247501)
(0.0247264635975 0.0220484608825 0.00225139882827)
(0.0225267111476 0.0224889560027 0.00251649856023)
(0.0183771686312 0.0272669362512 0.00387488042348)
(0.0219481268678 0.024686226187 0.00435630812993)
(0.019850928267 0.0250711649935 0.00523949222574)
(0.0129698854214 0.0292276575319 0.00489526931356)
(0.0169092952727 0.0268618283099 0.00584033589956)
(0.0152757704684 0.0271697308833 0.00714476496454)
(0.00665934837929 0.0304287369546 0.005380482835)
(0.0104909346666 0.0283673321209 0.00663361637318)
(0.00951377958187 0.0286152705536 0.00819537119145)
(4.41650829732e-06 0.0308289846052 0.00551261854268)
(0.00353831204002 0.0291177515628 0.00693059127775)
(0.00322227781538 0.0293442864526 0.00862106499739)
(-0.00665089580785 0.0304259389117 0.00538168515857)
(-0.00353101810794 0.0291161828861 0.00693099077913)
(-0.00321005640915 0.0293426773457 0.00862196537813)
(-0.0129626043171 0.0292221847199 0.00489809285357)
(-0.0104842190729 0.0283624789982 0.00663505845969)
(-0.00950225315677 0.0286104344028 0.00819823054724)
(-0.0183724362913 0.027259180114 0.00387936334087)
(-0.0169043212402 0.0268538082992 0.00584361713276)
(-0.0152660954684 0.0271619991517 0.00715030920855)
(-0.0220861325128 0.0246768094383 0.00226160431955)
(-0.0219462565855 0.0246754359762 0.00436101201571)
(-0.0198445351927 0.0250609302383 0.00524723612205)
(-0.0233460765764 0.0216600453562 0.000167459853568)
(-0.0247276227948 0.0220361110871 0.00225652047727)
(-0.0225238979593 0.0224772724508 0.00252508705523)
(-0.0216154321789 0.0185593465992 -0.00206480047844)
(-0.0245946948506 0.0190620980048 -0.000299227273129)
(-0.02275549527 0.0196274022957 -0.00072005589756)
(-0.0169548993662 0.0158622838462 -0.0038498376262)
(-0.0210828957362 0.0162400207951 -0.00273608098923)
(-0.0202711527429 0.016943254022 -0.00385857598653)
(-0.0102141660558 0.0138800657174 -0.00432024568145)
(-0.0148415201865 0.0139951753938 -0.00430555678286)
(-0.0154029304863 0.0148047754348 -0.00608530106879)
(-0.00338190845528 0.0124935918355 -0.00235209980109)
(-0.0068640290703 0.0125031446421 -0.00394392318742)
(-0.008798567325 0.0134264993697 -0.00623677125001)
(-0.00109159807269 0.0113906629417 -0.000487665389981)
(-0.00288523902762 0.0125868833912 -0.00279609565893)
(0.00414020418744 0.0112720059225 -0.00208010461004)
(0.00150090748104 0.00963317137801 -0.000285516738353)
(0.00337311299061 0.0113007934371 -0.0023881366189)
(0.0118185404423 0.0124849692694 -0.0039306110391)
(0.00796544942832 0.0105350950375 -0.00369739297122)
(0.010063493263 0.0120054806036 -0.00570892660539)
(0.0192913986802 0.0142290747019 -0.00319427101937)
(0.0166746061599 0.0117730709631 -0.00391761918312)
(0.0173831945414 0.0132013904697 -0.00524443636144)
(0.024422912413 0.0165959672354 -0.000974369782881)
(0.0234804190741 0.0136180377812 -0.00204614779129)
(0.0227509622429 0.0150515235267 -0.00249956415446)
(0.0262506957411 0.0193016680895 0.00178525162992)
(0.0272957530424 0.015931480873 0.000843719539152)
(0.0254655226204 0.0173676729073 0.00131484670006)
(0.0247252256551 0.0219108553167 0.00435148448319)
(0.0273091013298 0.0183474801604 0.00386164038999)
(0.0251091726716 0.0198166703144 0.00522645159937)
(0.0204831669745 0.0241474586623 0.00632176360601)
(0.024186374288 0.0204552893715 0.00632049159327)
(0.0220643637427 0.02203101601 0.00847299658226)
(0.0143920616138 0.0258533992944 0.00757868295919)
(0.0185795665731 0.0222054302935 0.00802983102796)
(0.0169200118796 0.0238518239528 0.0107475044381)
(0.00736245285496 0.0268889474308 0.00818372481593)
(0.0114906016099 0.023386396103 0.00879247421655)
(0.0104968006558 0.0251027104925 0.0120105455864)
(2.92114169184e-06 0.0272306871672 0.00834896351421)
(0.00386242760525 0.0239534684708 0.00907436954505)
(0.00354536250681 0.0257259233594 0.0125238152482)
(-0.0073569373499 0.0268853606577 0.00818436408026)
(-0.00385896481753 0.023951719408 0.00907473473549)
(-0.00353662156379 0.0257239615056 0.012524322207)
(-0.0143875639761 0.0258461416108 0.00758058273889)
(-0.0114876351705 0.0233807848271 0.00879385788226)
(-0.0104886081532 0.0250967694621 0.0120123211834)
(-0.0204808422759 0.0241366031586 0.0063252658076)
(-0.0185781581982 0.022195343247 0.00803317262039)
(-0.0169134323601 0.0238419537963 0.0107517441892)
(-0.0247256498014 0.0218971604389 0.00435592817343)
(-0.024187729777 0.0204410958153 0.00632389171273)
(-0.0220605797279 0.0220172446805 0.00847914910865)
(-0.026253550031 0.0192869064021 0.00178983335057)
(-0.0273122618051 0.0183306011056 0.00386504824771)
(-0.0251080214267 0.0198002454128 0.00523341206681)
(-0.0244272857958 0.0165823584553 -0.000970507783918)
(-0.0272999783916 0.0159142232342 0.000847003743416)
(-0.0254665778864 0.0173507415642 0.00132161256703)
(-0.0192961931942 0.0142186266272 -0.00319180014589)
(-0.0234850162433 0.0136031516779 -0.00204363680728)
(-0.0227534578147 0.0150363644704 -0.00249422160309)
(-0.0118224250726 0.0124792226868 -0.00392923428883)
(-0.0166786513789 0.011762497107 -0.00391613453589)
(-0.0173859696208 0.0131897927145 -0.00524108838288)
(-0.00414254125273 0.0112724163368 -0.00207948877631)
(-0.00796804807572 0.0105300616634 -0.00369626556408)
(-0.0100653130481 0.0119989304582 -0.00570680012301)
(-0.0015026295427 0.00963510684533 -0.000285069118662)
(-0.00337434866691 0.0113014882528 -0.00238698569703)
(0.00484495006041 0.00883883791615 -0.00190280509953)
(0.00187004191993 0.00691644680908 -0.000171134952711)
(0.00384477988427 0.00884111790095 -0.00212822787327)
(0.0132079799531 0.00976307817761 -0.00368440111524)
(0.00884790018617 0.00753885640046 -0.00356269687153)
(0.0111555594781 0.00937384452776 -0.00536679389008)
(0.0212546986008 0.0110909523343 -0.00276949595503)
(0.0181110507384 0.00840558298409 -0.00370548772822)
(0.0190474254114 0.0102830455743 -0.00467923281636)
(0.0267439939464 0.0128853887368 -0.000228058469254)
(0.025330105249 0.00968469969758 -0.00164139351234)
(0.0248002837837 0.0116774064758 -0.00155595856916)
(0.0286351856563 0.0149326130192 0.00292010829922)
(0.0293647266521 0.0112880208195 0.00155983479969)
(0.0276793263842 0.0134178850368 0.00275226804089)
(0.0269039078829 0.0168877013097 0.00583064750007)
(0.0292718337302 0.0129563079928 0.00487737552143)
(0.0272099091117 0.0152555223105 0.00712245073651)
(0.0222348408457 0.0185594732925 0.00802855901521)
(0.0258959125104 0.0143799691889 0.00757771997476)
(0.0238879583353 0.0169027355678 0.0107443889075)
(0.0155779103383 0.0198595475489 0.00924362228533)
(0.0198807884884 0.0155653331312 0.00924700588234)
(0.0182889646216 0.0182722550611 0.0132970299425)
(0.00796682671128 0.0206501945249 0.00968311894567)
(0.012253585252 0.016373670876 0.00992416619863)
(0.0113209447832 0.0192091768043 0.0146238112202)
(5.62739892622e-07 0.0209034682322 0.00980014076633)
(0.00410366819157 0.016760698271 0.0101572138481)
(0.00381185967809 0.0196594922089 0.0151590363325)
(-0.0079658654609 0.0206462781846 0.0096842285375)
(-0.00410473653144 0.0167585574367 0.010158013518)
(-0.00380780013168 0.0196574993928 0.0151595921455)
(-0.015577826316 0.0198509064001 0.00924644776376)
(-0.0122558846408 0.0163670181806 0.0099262059957)
(-0.0113174263573 0.0192028285431 0.0146257294883)
(-0.0222371178852 0.0185460319967 0.00803179852552)
(-0.0198846508691 0.0155534182298 0.00925017880724)
(-0.0182871945316 0.018260689604 0.0133012187482)
(-0.0269079482094 0.0168705299751 0.00583301178701)
(-0.0259017252639 0.0143638739411 0.00757918266377)
(-0.0238887928581 0.0168864854403 0.010748054397)
(-0.0286399017323 0.014913495916 0.00292221864055)
(-0.0292780195329 0.0129370214362 0.00487811475731)
(-0.0272119053772 0.0152357023566 0.00712553515641)
(-0.0267484570594 0.0128671265759 -0.000226125279945)
(-0.0293698355199 0.0112675927966 0.00156010795015)
(-0.0276815317435 0.0133967714765 0.00275518716695)
(-0.021258740799 0.0110761946656 -0.00276797119727)
(-0.0253339539905 0.00966659319678 -0.00164083395299)
(-0.0248026033367 0.0116581005073 -0.0015531571858)
(-0.0132110050014 0.00975344058082 -0.00368316581114)
(-0.0181139543014 0.00839187165817 -0.00370486979417)
(-0.019049570661 0.0102677002123 -0.00467711075742)
(-0.00484682558466 0.0088355351526 -0.00190184590643)
(-0.00884957759516 0.00753071748723 -0.00356167019029)
(-0.0111568112559 0.00936381083453 -0.00536483683148)
(-0.00187140546377 0.00691489482493 -0.000170320757605)
(-0.00384585242229 0.00883813811024 -0.00212661567282)
(0.00534987248788 0.00558725366471 -0.00183102672471)
(0.0021098132951 0.00359082457264 -0.00012896346153)
(0.00418932934176 0.00558421397342 -0.00202425363518)
(0.0141895333502 0.00615634864179 -0.00358378348451)
(0.00939730581274 0.00391140190162 -0.00351709756294)
(0.0119278953312 0.00591709787291 -0.00521221005554)
(0.0226315900685 0.00697153269117 -0.00257738528553)
(0.0190059487443 0.0043577680222 -0.00362953267144)
(0.0202199401759 0.00648086548452 -0.00439424485623)
(0.0283621117988 0.00806714654698 0.000146499756599)
(0.0264733568743 0.00500653057846 -0.00147247306364)
(0.0262282439033 0.00733201557681 -0.00105235456007)
(0.0302875710482 0.00931415590411 0.0035171020219)
(0.0306422639079 0.00582008871152 0.00189341999968)
(0.0292144257779 0.00839265271019 0.00354247252854)
(0.0284116977398 0.0104857840023 0.00662444799612)
(0.0304711874205 0.00666162520189 0.00536267760273)
(0.0286559203135 0.00951052984427 0.00817055758862)
(0.0234183203192 0.0114854224668 0.00879616684189)
(0.0269315344043 0.00736285832277 0.00818470775183)
(0.0251415556497 0.0104936933059 0.0120104915394)
(0.0163875165108 0.012248134227 0.00992754979564)
(0.0206720884289 0.00796456523236 0.00969046875171)
(0.0192275002887 0.0113179181966 0.0146315761598)
(0.00836045720796 0.0126868413782 0.0103982611011)
(0.0126927513205 0.00835653916733 0.010400046341)
(0.0118472815892 0.0118440791227 0.0160441959972)
(-1.62060280303e-06 0.0128258667862 0.0105150865998)
(0.00423792041649 0.00854252284365 0.0106256094245)
(0.00397427884258 0.0120911069106 0.0165802582585)
(-0.00836456067976 0.0126821430429 0.0103999909762)
(-0.00424422118946 0.00854002784146 0.0106263318893)
(-0.00397473989226 0.0120887570899 0.0165814745682)
(-0.0163932644488 0.0122382297832 0.00992993703918)
(-0.0127005856428 0.00834892134824 0.010401577846)
(-0.0118494486286 0.011836860798 0.0160468053916)
(-0.0234259182145 0.0114705956866 0.0087975629455)
(-0.020681178032 0.00795198015581 0.00969192050011)
(-0.0192314951026 0.0113052442873 0.0146340963718)
(-0.0284197403675 0.0104672312381 0.00662428563408)
(-0.0269414922612 0.00734637995126 0.00818394808571)
(-0.0251470771507 0.0104766140127 0.0120113200668)
(-0.0302945112238 0.0092933467189 0.00351600406691)
(-0.0304803490234 0.00664219535746 0.0053605636103)
(-0.0286614409085 0.00948986914346 0.00816959977333)
(-0.0283666602772 0.00804684512865 0.000145399277099)
(-0.0306482487976 0.0057993835697 0.00188995620433)
(-0.0292181274048 0.00837016353194 0.00354035968904)
(-0.0226344872661 0.00695457318482 -0.00257773254989)
(-0.0264761418695 0.00498797672694 -0.00147460575705)
(-0.0262301382965 0.00731108337249 -0.00105355672273)
(-0.0141912378054 0.00614428524421 -0.00358337417332)
(-0.0190073497274 0.00434310542989 -0.00363039884027)
(-0.0202209668938 0.00646371779011 -0.00439448504222)
(-0.00535095215672 0.00558103417766 -0.00183014504146)
(-0.00939781768832 0.00390173179012 -0.00351672759024)
(-0.011928234516 0.00590498188931 -0.00521130336619)
(-0.00211054716916 0.00358667397582 -0.000128099719268)
(-0.00418997298682 0.00557833951913 -0.00202273456378)
(0.00560783778975 0.00190291579104 -0.00181503429976)
(0.00219241256745 -1.58062924207e-05 -0.000120347326126)
(0.00436778409962 0.00190102992313 -0.00200121116596)
(0.0146875039685 0.00210169143299 -0.00356284674987)
(0.00958209284966 2.1046936344e-07 -0.00350919425894)
(0.0123215923723 0.00202271333103 -0.00516847925076)
(0.0233271372529 0.00237982396045 -0.00252462044955)
(0.0193068442934 1.23109722475e-05 -0.00361445221878)
(0.0208166877841 0.00221893070962 -0.00429418001285)
(0.0291779844086 0.00274811498583 0.000274447179438)
(0.0268552895103 2.00010448533e-05 -0.0014312252329)
(0.0269505114111 0.00250658710516 -0.000864319940785)
(0.0311151484992 0.00316320904144 0.00373899558051)
(0.0310680203334 2.23897303316e-05 0.00198487600488)
(0.0299910623428 0.00286219428568 0.00386053463516)
(0.0291581876638 0.00354565717538 0.00692293735844)
(0.0308661537019 1.89060571839e-05 0.00549743852698)
(0.0293807735372 0.00323321721631 0.00859968217583)
(0.0239830882621 0.0038654955735 0.00907900966165)
(0.0272686911594 1.25104283598e-05 0.00835114820079)
(0.0257616317467 0.00355258452888 0.0125254517418)