/*--------------------------------*- C++ -*----------------------------------*\
| =========                 |                                                 |
| \\      /  F ield         | OpenFOAM: The Open Source CFD Toolbox           |
|  \\    /   O peration     | Version:  3.0.1                                 |
|   \\  /    A nd           | Web:      www.OpenFOAM.org                      |
|    \\/     M anipulation  |                                                 |
\*---------------------------------------------------------------------------*/
FoamFile
{
    version     2.0;
    format      ascii;
    class       volScalarField;
    location    "6.2";
    object      epsilon_0;
}
// * * * * * * * * * * * * * * * * * * * * * * * * * * * * * * * * * * * * * //

dimensions      [0 2 -3 0 0 0 0];

internalField   nonuniform List<scalar> 
7968
(
0.000134571841109
0.000173681007398
0.000205127786763
0.000223501914336
0.000230476934833
0.000230057124944
0.000225487601425
0.000218879168001
0.000212454647964
0.000207709416862
0.000207695976477
0.000212430602143
0.000218852883499
0.000225465417148
0.000230045955282
0.000230476859164
0.00022351483451
0.000205147909198
0.000173702137674
0.000134584102251
0.000173669739406
0.000323330027264
0.000432164417136
0.000493086531699
0.000515049702915
0.000511520581759
0.000494473617205
0.000472196182351
0.000452699390071
0.000441226855602
0.000441189540619
0.000452607563062
0.000472070576945
0.000494342080967
0.000511412061452
0.000514977277588
0.000493061694235
0.000432174726241
0.000323357481728
0.000173687629599
0.000205104355477
0.000432138636587
0.000596447614421
0.000689115052578
0.000724271181344
0.000720536828388
0.000695823787842
0.000663613450063
0.000635717209717
0.000619592948253
0.000619535027557
0.000635569580344
0.000663402330842
0.000695590728971
0.000720328328401
0.00072411632265
0.000689030012872
0.000596421162313
0.000432149971062
0.00020512165213
0.0002234648596
0.00049303811301
0.00068909445762
0.000800306600062
0.00084266642842
0.000837658059751
0.000807301984249
0.000769489026266
0.000740814613061
0.000725612334983
0.000725554424986
0.000740659846515
0.000769207230505
0.00080697596732
0.000837351996182
0.000842423724565
0.000800148740836
0.000689014022767
0.000493017368057
0.0002234769536
0.000230430422654
0.000515002107765
0.000724268185632
0.000842695412595
0.000885883982944
0.000879525874357
0.000870315989388
0.000849986803841
0.000827674447011
0.000813183404685
0.000813120360514
0.000827514800051
0.000849751333418
0.000870038107716
0.000879214494047
0.000885558032874
0.000842460245811
0.000724123341774
0.000514935882982
0.000230430480109
0.000230020365453
0.000511523897075
0.000720616411005
0.000837796065015
0.000879618561693
0.000906129738563
0.000910279460859
0.000896454478903
0.00087610958969
0.000861280792449
0.000861213622988
0.000875944609765
0.000896223823918
0.00091001449806
0.000905840613211
0.000879312988355
0.000837503347573
0.000720420201072
0.000511420430009
0.000230007373641
0.000225465617206
0.00049454606945
0.00069602330684
0.00080760406654
0.000870522134975
0.000910404662936
0.000920623564097
0.000908228943756
0.000886681207979
0.000870183441948
0.000870115799779
0.000886517951817
0.000908006571048
0.000920377011205
0.000910151820985
0.000870261444568
0.000807299140448
0.000695804569214
0.000494416866999
0.000225437790792
0.000218872969644
0.00047233523611
0.000663923914269
0.000769934680684
0.000850322468708
0.000896731268504
0.000908396337085
0.000894194754716
0.000869486555694
0.000850091520511
0.000850029538118
0.000869342952828
0.000894007596273
0.000908196883321
0.00089653663387
0.000850127145084
0.000769693527375
0.000663737371262
0.000472212807493
0.000218836738235
0.000212449471922
0.000452861522641
0.000636067475268
0.000741187717553
0.000828069924362
0.000876498100354
0.000886990623545
0.000869641911506
0.000840026646299
0.000816234754274
0.000816187148321
0.000839926714489
0.000869527375401
0.000886885479969
0.000876409535489
0.000827991230213
0.000741106439
0.00063597664297
0.000452789054054
0.000212417520823
0.000207691145767
0.000441353752189
0.000619888333072
0.000725914396371
0.000813544442081
0.000861673819084
0.000870527432176
0.00085031467391
0.000816325747915
0.000788157086383
0.000788135921186
0.000816297689274
0.000850310659086
0.00087055974224
0.000861735865977
0.000813618775055
0.000725983770832
0.000619943700873
0.000441370483144
0.000207680140412
0.000207690664092
0.000441260236993
0.000619718858821
0.000725739407818
0.000813357460183
0.00086149287692
0.000870380016024
0.000850226716423
0.000816312994857
0.000788215719707
0.000788233452345
0.000816378151673
0.000850354393621
0.000870568054104
0.00086172059412
0.000813596407851
0.000725966284486
0.000619934684839
0.000441382056819
0.000207714633105
0.000212436284045
0.000452638096253
0.000635658600891
0.000740743591354
0.000827622160939
0.000876082445015
0.000886664596748
0.000869466017414
0.000840034401397
0.000816409254828
0.000816445719129
0.000840142425792
0.000869652904021
0.000886922015919
0.000876382501516
0.000827938650501
0.000741056513403
0.000635952063112
0.000452811722313
0.000212475754353
0.000218862003112
0.000472068663581
0.000663410964762
0.000769211749798
0.00084973626186
0.000896220601329
0.00090801704908
0.000894020728462
0.00086955836267
0.000850376363683
0.00085041813524
0.000869675701059
0.000894213509984
0.000908272963219
0.000896513766035
0.000850051351389
0.0007695759782
0.000663698517143
0.00047223936198
0.000218898916378
0.00022547030111
0.000494314426042
0.000695537889164
0.00080688275783
0.000869922760624
0.000909900843653
0.000920275512404
0.000908108267506
0.000886825252782
0.000870548091636
0.0008705895828
0.00088693646229
0.000908279322965
0.000920488624551
0.000910134441413
0.000870165220827
0.000807151697583
0.000695752569834
0.000494439955512
0.000225491861835
0.000230043822654
0.000511375234942
0.000720249074908
0.000837213003624
0.000879037579204
0.000905663908971
0.00090999289689
0.000896394327202
0.000876301323187
0.000861686475664
0.000861726290183
0.000876402379155
0.000896535777867
0.000910151287646
0.000905818915395
0.000879182217457
0.000837353575115
0.000720365504982
0.000511438958519
0.000230046510253
0.000230468576065
0.000514951867178
0.000724052043745
0.000842303915744
0.000885370596645
0.000879124832714
0.000870096678985
0.00084998297332
0.000827895972672
0.000813592197599
0.000813630891053
0.00082798886884
0.000850098299313
0.000870203884304
0.000879200680569
0.000885405382024
0.000842342103548
0.000724085354672
0.000514962547201
0.000230456875878
0.000223499130264
0.000493062993577
0.000689012383163
0.000800096970865
0.000842365810595
0.000837367124025
0.000807139105509
0.000769539553583
0.000741057357451
0.000726013438786
0.000726050999541
0.000741143495296
0.000769630925502
0.000807201117737
0.000837390328618
0.000842362122094
0.000800087662024
0.000689000149489
0.000493043181729
0.000223480708075
0.000205126981675
0.000432199390402
0.000596452225199
0.000689035206333
0.000724126996968
0.000720396370986
0.000695765741598
0.000663706390663
0.000635990910758
0.000620026055912
0.000620063357944
0.000636072912388
0.000663791261191
0.000695822964328
0.000720416877099
0.000724118416311
0.000689013534981
0.000596426172215
0.000432172206194
0.000205109622797
0.000173680731608
0.000323386183525
0.000432204740113
0.000493083559763
0.000515006740181
0.000511475122766
0.000494467084235
0.000472275251757
0.000452887799003
0.000441516351826
0.000441544785991
0.000452947566004
0.000472335787413
0.000494506542994
0.000511487127742
0.000514996401682
0.000493062139414
0.000432181377176
0.000323365031312
0.000173667824032
0.000134571320264
0.000173700296136
0.000205156040441
0.000223529612475
0.000230499402971
0.000230079079949
0.000225515709538
0.000218926642857
0.000212528918449
0.000207811905524
0.000207821521607
0.000212549198194
0.000218944384127
0.000225523165805
0.000230076233457
0.000230489333336
0.000223516726607
0.000205145522929
0.000173692751587
0.000134564345417
0.000175462441055
0.000281818439904
0.000372182607302
0.00043242902573
0.000464414477799
0.000475401093391
0.000473449260057
0.000465415592416
0.000457339873801
0.000452556530415
0.000452527430872
0.000457269411261
0.000465323374828
0.000473355971186
0.0004753284544
0.000464374859541
0.000432424403609
0.000372203511978
0.000281847831558
0.00017547876448
0.000281801167142
0.000358115445581
0.000435447453437
0.000489191531813
0.000519707357438
0.000532313500862
0.000533295082182
0.000528270194079
0.000522108814711
0.000518090246572
0.000518063270513
0.000522040472308
0.000528175891871
0.000533193501296
0.000532225336623
0.000519647417247
0.000489164708853
0.000435448343134
0.000358132761527
0.000281827010167
0.000372148160062
0.000435438383904
0.000512733515495
0.000568174149558
0.000600716955001
0.000614880113077
0.000616549840011
0.000611309834112
0.000604134173842
0.000599134385003
0.000599107459072
0.000604065660323
0.000611213703822
0.00061644234756
0.000614780085298
0.000600639103307
0.000568125479214
0.000512712058176
0.000435437284444
0.000372165639565
0.000432376202313
0.00048917966022
0.000568174240429
0.000626270815137
0.000661911881075
0.000679370146901
0.000684418349599
0.000683345807573
0.000679050325269
0.000675312794505
0.000675290846664
0.000678995096195
0.00068326403002
0.000684318418357
0.00067926225991
0.000661816047588
0.000626196738913
0.000568123774294
0.00048914998676
0.000432370212918
0.000464362478592
0.000519709676224
0.000600732396964
0.000661926741618
0.000702264564959
0.000727827049158
0.00074358319418
0.000749157974767
0.000747996455015
0.000745273179665
0.000745252677829
0.000747947211168
0.000749091397876
0.00074350580151
0.000727739898119
0.000702159449525
0.000661829496808
0.000600651494274
0.000519646472204
0.00046432280813
0.000475386426535
0.000532355927368
0.000614932004302
0.000679417612812
0.000727850400048
0.000766107680083
0.0007907813501
0.000801759001041
0.000802965965006
0.000800828156918
0.000800807073512
0.000802917460281
0.000801698377548
0.000790716600668
0.00076603573842
0.000727763156638
0.000679308100024
0.000614828172503
0.000532263299046
0.000475311774302
0.000473499755
0.000533394906883
0.000616650518186
0.000684500249737
0.000743635789438
0.000790814218779
0.000821872027467
0.000836187145757
0.000838199632887
0.000835863322356
0.000835841628775
0.000838150127965
0.000836128541833
0.000821814590317
0.000790755256086
0.000743563320933
0.00068440169544
0.000616540656407
0.000533287541954
0.000473398891186
0.00046553732835
0.000528422785397
0.000611452240185
0.000683453515869
0.000749244077228
0.000801842450969
0.000836253103594
0.000851661614627
0.000853662893175
0.000850455281421
0.000850436265477
0.000853623228421
0.000851617667075
0.000836210081079
0.000801801284112
0.000749193831426
0.00068338286512
0.000611362296321
0.000528327801406
0.00046543617014
0.00045749484194
0.000522279388571
0.000604291010838
0.000679164743838
0.000748111497517
0.000803103686608
0.000838343078631
0.000853749540277
0.00085393088869
0.000848646618278
0.00084863570888
0.000853913824033
0.000853737905017
0.000838336292857
0.000803098360399
0.000748099089004
0.000679140020615
0.00060425016147
0.000522231017771
0.000457433177853
0.000452683526648
0.000518229626025
0.000599264067876
0.000675410657709
0.000745388475281
0.000800984552363
0.000836034180095
0.000850592539664
0.000848710772377
0.000841307659124
0.00084131164771
0.000848732376866
0.000850635506091
0.000836088928649
0.00080103879122
0.000745433744873
0.00067544759975
0.000599297496813
0.000518257383945
0.00045270109758
0.000452593757256
0.000518137686821
0.000599174982655
0.000675338181171
0.00074532139642
0.000800920745899
0.000835981228662
0.000850561724308
0.000848713416705
0.000841345427282
0.000841369274975
0.000848782680609
0.000850669046828
0.000836106655572
0.000801043583489
0.000745432189373
0.000675443046577
0.000599289372024
0.000518249295217
0.000452703933811
0.00045728533035
0.000522055041651
0.000604072565558
0.0006789884645
0.000747955648379
0.000802962409676
0.000838228262083
0.000853693070009
0.000853955658676
0.000848753330896
0.000848785970108
0.000854045202347
0.000853827743992
0.000838385273431
0.000803114813542
0.000748097358239
0.000679128358761
0.00060422847698
0.000522208642251
0.000457438498899
0.000465292588538
0.000528139245143
0.000611170536742
0.000683215140068
0.000749051267946
0.000801681832081
0.00083613402666
0.00085161886069
0.00085372456018
0.00085061544052
0.000850648785877
0.000853814376938
0.000851751357327
0.000836285901976
0.00080183043598
0.000749193185745
0.000683361546264
0.000611328123071
0.000528292296025
0.000465439365517
0.000473287548153
0.000533118367012
0.000616364428865
0.000684241168555
0.00074343833234
0.000790664913631
0.000821774940866
0.000836169942312
0.000838290594113
0.000836045052456
0.000836075822642
0.000838371440608
0.000836286145707
0.00082190509501
0.000790792341024
0.000743560905247
0.000684368070683
0.000616493503968
0.000533239048241
0.000473394583546
0.000475240785854
0.000532130877294
0.000614686690222
0.000679171413307
0.000727661792923
0.000765972638158
0.000790703021066
0.000801753688658
0.000803054858479
0.000801007361478
0.000801034782358
0.000803125533216
0.000801851370007
0.000790809042345
0.000766073240988
0.000727754090973
0.000679260790235
0.000614771179973
0.000532203632249
0.000475295804444
0.000464282125543
0.000519552964105
0.000600551022065
0.000661731927862
0.000702079522728
0.000727700689457
0.000743513263903
0.000749155602859
0.000748075931676
0.000745432096378
0.000745457549824
0.000748139693334
0.000749239346239
0.000743598783341
0.000727774936387
0.00070213633715
0.000661780856618
0.000600592055674
0.000519580404561
0.000464293049406
0.000432338900337
0.000489087003135
0.000568059744178
0.000626136641117
0.000661770436735
0.000679249807019
0.000684352108802
0.000683348859892
0.000679130952366
0.000675467278751
0.000675491947419
0.000679190953657
0.000683423210108
0.000684421087611
0.000679299986442
0.000661802501698
0.000626156396865
0.00056806879572
0.000489082665615
0.000432324559853
0.000372128430112
0.000435394540089
0.000512676347089
0.000568094987674
0.00060062064085
0.00061478943187
0.000616496735522
0.000611323798864
0.000604232009755
0.000599312311697
0.000599337377924
0.00060429052281
0.000611391542708
0.000616553350022
0.000614824786038
0.000600635203391
0.000568094655786
0.000512664828592
0.000435372700035
0.000372104965389
0.000281780233792
0.000358102840614
0.000435433596959
0.000489156665198
0.000519648398278
0.000532247971751
0.000533254312453
0.000528287733477
0.000522203202951
0.000518259356215
0.00051828353435
0.000522257055589
0.000528345825769
0.00053329735344
0.000532268046871
0.000519647588126
0.000489142035814
0.000435410719163
0.000358074660984
0.000281755844012
0.000175423194681
0.000281829508391
0.000372204715323
0.00043243158495
0.000464389514979
0.000475364049489
0.000473431759919
0.000465457188479
0.000457460897253
0.0004527544361
0.000452780303287
0.000457515527275
0.00046551316794
0.00047347172163
0.000475382864498
0.000464390344836
0.000432422400354
0.000372191265226
0.000281813540176
0.000175405628702
0.000229164070779
0.00040083782969
0.000547195661849
0.000646083812514
0.000701156212358
0.000724099681869
0.000729822303117
0.00073192553422
0.000737793651001
0.000744472022621
0.000744420816342
0.000737654395618
0.000731727200947
0.000729607840399
0.000723920140733
0.000701045722804
0.000646046273533
0.000547210572543
0.00040087138588
0.000229180928288
0.000400831155275
0.000480058595132
0.000576015673469
0.000647058669634
0.000690642083757
0.000711621265515
0.000718375660221
0.000719285833643
0.000719836604199
0.000720938562678
0.000720898332987
0.000719727701932
0.000719130339259
0.000718205179499
0.000711472867231
0.000690543572032
0.000647016400678
0.000576017226919
0.000480083329559
0.000400872739669
0.000547173614507
0.000576020562914
0.000646240677629
0.000701039682142
0.000735801920158
0.000753141188266
0.000758581170134
0.000757267161606
0.000753883297663
0.000751581012971
0.000751549989799
0.000753799983967
0.000757148796609
0.000758449812082
0.000753018920726
0.000735709454083
0.000700986464227
0.000646222892289
0.000576026745188
0.00054720466693
0.000646042263855
0.000647069725817
0.00070105013123
0.000746083567483
0.000777427109614
0.000796485323639
0.000808423026538
0.000812075514255
0.000811069057405
0.000809262393581
0.00080924195475
0.000811016356238
0.000812003383495
0.000808343167524
0.000796392284647
0.000777339459875
0.000746012531244
0.000701001068748
0.000647039085454
0.000646032401364
0.000701128906777
0.000690677604079
0.000735834064568
0.000777444458571
0.000812159269106
0.000840688317062
0.000858921767597
0.000867437947973
0.000869104307845
0.000868201997931
0.000868187102714
0.000869067840135
0.0008673905903
0.000858870236095
0.000840631069358
0.000812098412678
0.000777360256124
0.000735750316041
0.000690598796091
0.000701057179952
0.000724155318093
0.000711718812064
0.000753214524807
0.000796525453684
0.000840703402245
0.000876699897989
0.000901613277587
0.000914821239616
0.000918803367509
0.000918612878435
0.000918599467161
0.000918772008043
0.000914782707146
0.000901575152001
0.00087666079032
0.00084065147747
0.000796439438848
0.000753103775865
0.000711593177506
0.000724014294312
0.000730029582113
0.000718568791094
0.00075870956013
0.000808480419058
0.000858949978846
0.000901633132307
0.000932289488952
0.000948938431522
0.000954003490334
0.000953712325675
0.00095369884392
0.000953972916579
0.000948900990811
0.000932255771403
0.000901604841836
0.000858912970013
0.000808413644715
0.000758591402953
0.000718417261757
0.000729836591033
0.000732293066467
0.000719569601278
0.000757447070119
0.000812159599187
0.000867488365101
0.000914883143984
0.000949003298799
0.000966842635495
0.000971152094372
0.000969813910118
0.000969804585586
0.000971132104285
0.000966818959834
0.000948982254221
0.000914868615241
0.000867467894701
0.000812110976404
0.000757350146996
0.000719437064207
0.000732107494081
0.000738213122645
0.000720144329487
0.000754077664883
0.000811168073388
0.000869183742568
0.00091892087819
0.000954155161299
0.000971259674927
0.000973564814567
0.000970397175372
0.000970397582421
0.000973570328719
0.000971271882969
0.000954169920158
0.000918935990933
0.000869192084811
0.000811158110767
0.000754040654418
0.000720090094665
0.000738124650978
0.000744792916942
0.000721179255974
0.000751731241545
0.000809345044027
0.000868290539116
0.000918761414741
0.000953920822344
0.00096999459192
0.000970480786375
0.000965718830352
0.000965732593597
0.000970522177587
0.000970058342909
0.000953991487257
0.000918825842099
0.000868346162093
0.000809395154001
0.000751784664385
0.000721248207424
0.000744871549218
0.00074457121917
0.000721011076931
0.000751609023866
0.000809262000797
0.000868227008142
0.000918706703646
0.000953875903316
0.000969971007406
0.000970487536926
0.000965753937523
0.000965781589234
0.000970564661796
0.000970085916044
0.00095400409571
0.000918824631811
0.000868335618437
0.000809377101508
0.000751756165809
0.000721204538146
0.000744816339619
0.000737658861852
0.000719715430222
0.000753762650822
0.00081095819978
0.000869028741687
0.000918791727945
0.000954053398038
0.000971210470608
0.000973590520986
0.000970493400737
0.000970526537118
0.000973681126631
0.000971343368235
0.000954200426294
0.000918929651312
0.000869160894535
0.000811106909292
0.000753961579847
0.000719973405222
0.00073798426119
0.00073159966291
0.000719006045101
0.000757024753449
0.000811880939127
0.000867288781329
0.000914723983519
0.000948882980804
0.000966793209543
0.000971201698183
0.000969955017136
0.000969986588923
0.000971288134734
0.000966919416535
0.000949020809101
0.000914853965842
0.000867416796945
0.000812029430368
0.000757226007925
0.000719262123698
0.000731908978566
0.000729373596222
0.000717991617708
0.000758259676263
0.000808179503018
0.000858735480563
0.000901470702273
0.000932172287075
0.000948893012902
0.000954055831397
0.000953857923166
0.000953885350546
0.000954130143036
0.000948999241984
0.000932286541952
0.000901579163445
0.000858843576091
0.000808304401202
0.000758426290632
0.000718196095889
0.000729600417225
0.000723631414499
0.000711207631261
0.000752787126763
0.000796200864629
0.000840479783139
0.000876537985508
0.000901496838234
0.000914762827804
0.000918824890588
0.000918713886078
0.000918738145478
0.0009188882334
0.000914849125262
0.000901587512465
0.000876622626126
0.000840563440507
0.000796294524789
0.000752901218436
0.00071133598874
0.000723750777382
0.000700741864596
0.000690262349968
0.000735459748168
0.000777129674777
0.000811935397364
0.000840514746994
0.000858794377542
0.000867359180689
0.000869093416191
0.000868262842868
0.000868286055366
0.000869152037756
0.000867434566001
0.000858868932136
0.000840579703467
0.000811994171676
0.000777185319843
0.000735520011236
0.000690317987245
0.000700770164088
0.000645759874795
0.00064675170399
0.000700742245807
0.000745796269256
0.000777172884436
0.000796276982551
0.000808271238439
0.000811981853424
0.000811048930907
0.000809315728713
0.000809340369439
0.000811108910776
0.000812054128928
0.000808335897231
0.000796322111205
0.000777201350722
0.000745817225873
0.000700758204791
0.000646754307023
0.000645733887068
0.000546959295402
0.00057578913233
0.000646001099199
0.000700788642999
0.000735545112617
0.000752899230307
0.000758384553732
0.000757146544885
0.000753856898684
0.000751642009752
0.000751669592287
0.00075392087358
0.000757216725382
0.00075843670361
0.000752923578675
0.000735546394809
0.000700777520793
0.000645981932425
0.000575757935611
0.000546910308201
0.000400664448469
0.000479898343785
0.000575837632241
0.000646841005066
0.000690380790165
0.000711338621687
0.000718117760735
0.000719103295117
0.000719751649158
0.000720946834523
0.000720975628639
0.000719813531455
0.000719162381527
0.000718148949993
0.000711334937088
0.000690350377203
0.000646798401383
0.000575790302784
0.000479847373935
0.000400610012395
0.000229029577396
0.000400719140229
0.000547056005617
0.00064588810667
0.000700893358684
0.000723792303752
0.00072952739493
0.000731710913448
0.000737680196569
0.000744452017823
0.000744486189505
0.000737747277269
0.000731766589251
0.000729547796278
0.000723774995482
0.000700849270643
0.000645834589412
0.000547001321982
0.000400667203906
0.000228986532262
0.000304007387923
0.000571917275643
0.000799705312554
0.000957329050026
0.00105523806377
0.00111290398053
0.00115658060856
0.00120743052356
0.00126412452018
0.00130390124512
0.00130382947323
0.00126391667143
0.00120710384283
0.00115619782253
0.00111256128551
0.00105501957425
0.000957242915112
0.000799708982589
0.00057195336689
0.000304022690414
0.000571943409937
0.000654943073715
0.000787834958374
0.000892131799371
0.00096097994122
0.000999839601815
0.00102220739459
0.00104166686773
0.00106231684392
0.00107728940792
0.00107723255881
0.00106215294191
0.00104142123212
0.0010219343001
0.000999609339751
0.000960842960605
0.000892092219319
0.00078786158553
0.000654993716176
0.000572001669594
0.0007997253332
0.00078786180758
0.000861906646817
0.000922953802272
0.000961856943125
0.000980980449067
0.000987442219049
0.000988448965238
0.000989307390862
0.000991896270375
0.000991859126331
0.000989192141047
0.000988267588123
0.000987242742673
0.000980808239376
0.000961740465905
0.000922908129578
0.000861919185954
0.000787903267168
0.00079978044441
0.000957336906789
0.000892172679915
0.000922976508338
0.000953062076297
0.000975205845177
0.000990689238718
0.00100049662187
0.0010026844449
0.00100108269278
0.000999416391439
0.000999391033925
0.00100101262682
0.00100258608613
0.00100039237598
0.000990608172935
0.000975109175849
0.000952996444757
0.000922952487114
0.000892178606228
0.000957345718687
0.00105527740515
0.000961051872028
0.000961909443834
0.000975227949996
0.000998085305115
0.00101895864243
0.00103301637942
0.00103826245346
0.00103709724369
0.00103452860949
0.00103451221922
0.00103705467144
0.0010382053686
0.00103295646663
0.00101890759292
0.00099802973588
0.000975152080468
0.000961839776645
0.000960999202618
0.00105520700253
0.00111308850663
0.000999998858333
0.000981085967222
0.000990719675168
0.00101896636148
0.0010468379397
0.00106663760561
0.00107484542504
0.00107413199768
0.00107116025967
0.00107114622832
0.00107409559853
0.00107479534307
0.00106658915788
0.00104680406785
0.00101893545551
0.000990678490006
0.000980979285149
0.000999878514992
0.00111291655551
0.00115703112382
0.00102251383972
0.000987626280534
0.00100055581314
0.00103302773239
0.00106665127976
0.0010904555963
0.00109983662012
0.00109834212699
0.00109441887052
0.00109440568364
0.00109830584865
0.00109977987563
0.00109040221599
0.00106662042332
0.00103300530678
0.00100050779995
0.000987501549598
0.0010223509816
0.00115678639627
0.00120808810017
0.00104209699223
0.000988700733289
0.00100276462957
0.00103828440089
0.00107490660884
0.00109992638651
0.00110846049261
0.00110482262367
0.0010992009955
0.00109919577116
0.00110480656728
0.00110843003721
0.00109988956714
0.00107489044619
0.00103827818991
0.00100273553869
0.000988605066657
0.00104197113741
0.00120790121023
0.00126473026205
0.00106273469887
0.000989538557279
0.00100117520811
0.00103715594426
0.00107426556782
0.00109854550825
0.00110497132722
0.00109834433181
0.00109060332176
0.00109061186309
0.00109836484107
0.00110499617478
0.00109856388397
0.00107428555696
0.00103717722388
0.00100119220967
0.000989538645056
0.00106274726048
0.00126476298881
0.00130422093132
0.00107754741858
0.000992015753713
0.000999483215294
0.00103461455391
0.00107134386198
0.00109470076382
0.00109944908479
0.00109071418093
0.00108149033845
0.00108151350785
0.00109077571848
0.00109953656512
0.00109479009978
0.00107142032382
0.00103468496597
0.000999572516955
0.000992137699137
0.00107775621401
0.00130455060027
0.00130382066881
0.00107726066817
0.000991836484547
0.000999360516421
0.00103452654369
0.00107126946207
0.00109464135719
0.00109941897993
0.00109071924578
0.00108152407553
0.00108155936906
0.00109081480834
0.00109955963801
0.001094795615
0.00107140534111
0.00103465469697
0.000999526143299
0.00099206965571
0.00107764842071
0.00130439556487
0.00126365912299
0.00106196679976
0.000989029169325
0.00100084722762
0.00103693078236
0.00107407693282
0.00109839328831
0.00110489218659
0.00109835582103
0.00109068969284
0.00109072939488
0.00109846334898
0.00110504960904
0.00109856442335
0.00107423114469
0.00103708292413
0.00100105605406
0.000989341882978
0.00106245026546
0.00126434373213
0.00120664916851
0.0010410448923
0.000987958562706
0.00100230469111
0.00103797308302
0.00107464772088
0.00109971258359
0.00110834924663
0.00110483893782
0.00109932282195
0.00109935947179
0.00110493965187
0.00110850054527
0.00109987277416
0.00107478943669
0.00103811909524
0.00100251541008
0.00098829059127
0.00104152370099
0.00120728930537
0.00115557010273
0.00102139709062
0.000986804377372
0.0010000326015
0.0010326644287
0.00106635946948
0.00109021325729
0.00109969492591
0.00109833199223
0.00109452413928
0.00109455435271
0.00109841445507
0.00109981675249
0.00109033921515
0.00106647317709
0.00103279015264
0.00100021614715
0.000987089518767
0.00102179249059
0.00115605429514
0.00111185104185
0.000998976083439
0.000980276942039
0.00099019125498
0.00101857441348
0.00104653059181
0.00106637167329
0.00107464918081
0.00107403999879
0.00107116915971
0.00107119436552
0.00107410550066
0.00107473862259
0.0010664637585
0.00104661672417
0.00101867885139
0.000990334583396
0.000980487976222
0.000999247211107
0.00111213179774
0.00105429859851
0.000960178517503
0.000961149726849
0.000974614230455
0.000997630843179
0.00101860265316
0.00103270398297
0.00103799408306
0.00103690942417
0.00103443405777
0.00103445737749
0.00103696914199
0.00103806970543
0.00103277828813
0.00101867667063
0.000997714507006
0.000974716303262
0.000961284717955
0.000960327954521
0.00105440028473
0.000956577069827
0.000891459754502
0.000922298383086
0.000952439293682
0.000974659269268
0.000990250574639
0.00100010007749
0.00100234760472
0.00100083354092
0.00099925693567
0.000999282993608
0.00100089781184
0.00100242358649
0.0010001673588
0.000990308542087
0.000974704606
0.000952493113011
0.000922363919874
0.000891513422058
0.000956560820844
0.000799139071125
0.000787304574967
0.000861325431985
0.000922346380732
0.000961236262295
0.000980375642663
0.000986885492883
0.000987983731333
0.000988947566358
0.000991610516606
0.000991638821888
0.000989015683044
0.000988055945983
0.000986932314222
0.000980392330893
0.000961235722828
0.000922345893019
0.000861326758605
0.000787289288591
0.000799064467763
0.000571522795128
0.000654526153551
0.000787343832187
0.00089153644559
0.000960274556679
0.000999052987889
0.00102140442722
0.00104092176449
0.0010616558801
0.00107671352714
0.00107674192425
0.00106171281173
0.00104096394888
0.00102140472316
0.000999011502993
0.000960209847002
0.000891470236187
0.000787282154469
0.000654461675316
0.000571429060601
0.000303759169161
0.000571550057392
0.000799204323443
0.000956664831524
0.0010543864652
0.001111885963
0.00115547708986
0.00120633189465
0.00126304530437
0.00130285945102
0.00130288838661
0.00126308764713
0.00120633374073
0.0011554158937
0.00111177533236
0.00105425294002
0.000956535510322
0.00079908846766
0.000571448784417
0.000303679423437
0.000405646899554
0.000827591531967
0.00119224421497
0.00146525567441
0.00166608536092
0.00182328965573
0.00197334443476
0.00213260900401
0.00227864601452
0.00236891409769
0.00236883709816
0.00227845616294
0.00213228550604
0.00197292187298
0.00182288305464
0.00166582689729
0.00146518116171
0.00119227749863
0.00082765851731
0.000405665891569
0.000827673051825
0.00091330456143
0.00111020192136
0.00128016515032
0.00140584419373
0.00149263414139
0.00156031445456
0.00162596597696
0.00168653415934
0.00172453868259
0.00172447985755
0.00168636130857
0.00162568943115
0.00155999855873
0.00149238764291
0.00140574295662
0.00128020867134
0.00111032351489
0.00091342302005
0.000827751639495
0.00119232293189
0.0011102562423
0.00119318161329