/*--------------------------------*- C++ -*----------------------------------*\
| =========                 |                                                 |
| \\      /  F ield         | OpenFOAM: The Open Source CFD Toolbox           |
|  \\    /   O peration     | Version:  3.0.1                                 |
|   \\  /    A nd           | Web:      www.OpenFOAM.org                      |
|    \\/     M anipulation  |                                                 |
\*---------------------------------------------------------------------------*/
FoamFile
{
    version     2.0;
    format      ascii;
    class       surfaceVectorField;
    location    "6.2";
    object      Uf_0;
}
// * * * * * * * * * * * * * * * * * * * * * * * * * * * * * * * * * * * * * //

dimensions      [0 1 -1 0 0 0 0];

internalField   nonuniform List<vector> 
22672
(
(0.00430333369771 0.00172602662463 -0.00343214660007)
(0.00172351919165 0.00430662488556 -0.00343168952248)
(0.00282471100073 0.0028279196401 -0.00860996089596)
(0.00939677591874 0.00100416422875 -0.00314543074368)
(0.00642388276993 0.00359247456517 -0.00503485025438)
(0.00819354293883 0.00287854944922 -0.00868592023826)
(0.0138805286946 0.000581791979426 -0.00242200819493)
(0.0120707408955 0.00323309471145 -0.00515700324789)
(0.0133791345694 0.00296514085934 -0.00771685277413)
(0.0167769941185 0.00050026254016 -0.00139162307564)
(0.0162104260201 0.0032462182185 -0.00442801406311)
(0.0169686162914 0.00318107084858 -0.00614269149213)
(0.0174428292126 0.000698984395097 -0.000512552514481)
(0.0183775296641 0.00371340613803 -0.00329471155106)
(0.0186275039261 0.00358468499219 -0.00437925223925)
(0.0162136572848 0.00105314531202 2.93007066212e-05)
(0.0179475374287 0.00435170574875 -0.00249554538272)
(0.0179476959776 0.00399370614241 -0.003122548314)
(0.0134590096519 0.0015289735559 0.0003849022244)
(0.0159350147228 0.00503111571227 -0.00187588770817)
(0.0157604415194 0.00443638853963 -0.00227648604648)
(0.00953443109262 0.00202855582316 0.000524626702267)
(0.0123436901295 0.00573215774504 -0.00146321769757)
(0.0121241191317 0.0049135792304 -0.0018076002459)
(0.00491242528782 0.0024068916245 0.000523626168212)
(0.00770161435858 0.00631733903075 -0.0012889091273)
(0.00753003309763 0.00533971583348 -0.00169535674561)
(9.25041304727e-06 0.00254645169253 0.000504295587017)
(0.00261371601049 0.0066457639361 -0.00125885905337)
(0.00254823607542 0.00558970656056 -0.0017426142786)
(-0.00489478720112 0.0024078496807 0.000523907870638)
(-0.0025922964756 0.00664598577158 -0.00125842311689)
(-0.0025281105085 0.00558984208924 -0.00174197425521)
(-0.00951906312831 0.00203020080305 0.00052502964779)
(-0.00768180450873 0.006317993063 -0.00128775256264)
(-0.007511463895 0.00534005078018 -0.00169374325273)
(-0.0134469696245 0.00153081917622 0.000385403516581)
(-0.0123269552524 0.00573311601063 -0.00146150136503)
(-0.0121084839391 0.00491391126902 -0.00180523472339)
(-0.0162055166499 0.00105478096542 2.96000808711e-05)
(-0.015922577313 0.00503212194894 -0.00187392178319)
(-0.0157488569293 0.0044364732669 -0.00227359824636)
(-0.0174378454778 0.000700614804697 -0.00051230840836)
(-0.0179394289847 0.00435252169088 -0.00249414894437)
(-0.0179402082387 0.00399350529153 -0.00312021342351)
(-0.0167755396287 0.000501878594164 -0.00139185924613)
(-0.0183729554467 0.00371504059296 -0.00329312622932)
(-0.0186230735161 0.00358473259187 -0.0043773637035)
(-0.0138807014721 0.000583261338782 -0.00242324334674)
(-0.0162093161063 0.00324769725265 -0.00442808147411)
(-0.0169669720335 0.00318107831339 -0.00614254931022)
(-0.00939738521052 0.00100575753613 -0.00314733795234)
(-0.0120707411139 0.00323492754179 -0.00515803152749)
(-0.0133783840211 0.00296550064111 -0.00771825501508)
(-0.0043035549844 0.00172773651596 -0.00343453222815)
(-0.00642419710586 0.00359484165842 -0.00503681148202)
(-0.00819315911896 0.00287936591122 -0.0086886818974)
(-0.0017235389011 0.00430949774264 -0.00343407175849)
(-0.00282437131612 0.00282907435075 -0.00861305913024)
(0.0035907582825 0.00642633014943 -0.00503439317679)
(0.00100235202553 0.00939957544551 -0.00314425704562)
(0.00287731722083 0.00819621764386 -0.00868371142855)
(0.00939862275146 0.00612797551823 -0.00704642275859)
(0.00612747195598 0.00939803686831 -0.00704597933503)
(0.00859481480861 0.00859382568949 -0.0116134305011)
(0.0146898525507 0.00622562828994 -0.00716300911608)
(0.0125957531534 0.00962073172565 -0.00792576931617)
(0.0140722152911 0.00910643645836 -0.0116788724425)
(0.0180688862518 0.00680894285449 -0.00633110253853)
(0.0173173627357 0.0103030441234 -0.00729591585242)
(0.0178222267258 0.00995756081713 -0.0104358678029)
(0.0190021198669 0.0077372254986 -0.0052777044193)
(0.0197818920318 0.0115065072441 -0.00605928283623)
(0.0195163115499 0.0111075766033 -0.00872634597038)
(0.0177013242856 0.00872153765225 -0.00440073379752)
(0.0194671389482 0.0128556469978 -0.00493172186237)
(0.0188841820107 0.0122831680849 -0.00720316016291)
(0.014677540645 0.00965269980293 -0.00372400763014)
(0.0172823779024 0.0140795516496 -0.00406442495444)
(0.0165678879363 0.0133401511249 -0.00602466990086)
(0.0103764290667 0.0104648715101 -0.00327675352713)
(0.0133931787716 0.0152210309422 -0.00342116638669)
(0.012749925977 0.0142979471899 -0.00518778188059)
(0.00533922403843 0.0110175195365 -0.00307139434888)
(0.00836569313976 0.0161006937414 -0.00307006391931)
(0.00794367509744 0.0150407468816 -0.00474617194538)
(1.2104728491e-05 0.0112125934368 -0.00302157775728)
(0.00284143019214 0.016573011965 -0.00294950149195)
(0.00269678422675 0.0154434467196 -0.0046001522415)
(-0.0053157781498 0.0110174805511 -0.00307008355016)
(-0.00281441071926 0.016572918139 -0.00294878168866)
(-0.00267025831846 0.0154429874382 -0.00459907350353)
(-0.0103552822262 0.0104649153857 -0.00327428357546)
(-0.0083403808447 0.0161004781308 -0.00306793698382)
(-0.00791867842971 0.0150394457485 -0.00474300470387)
(-0.0146601609275 0.00965290675934 -0.00372082666481)
(-0.0133713882139 0.0152208246483 -0.00341783025668)
(-0.0127280321458 0.0142960222684 -0.00518285250483)
(-0.017688629345 0.00872179884963 -0.00439767080843)
(-0.0172656602039 0.0140793894384 -0.00406052088267)
(-0.0165505244896 0.0133378456254 -0.00601881964484)
(-0.0189939042481 0.0077381167309 -0.00527496676533)
(-0.0194554980244 0.0128554561323 -0.00492823020744)
(-0.0188716104976 0.0122807324621 -0.00719767741616)
(-0.0180649194885 0.00681052453999 -0.0063293484573)
(-0.0197750370136 0.011507649413 -0.0060560118445)
(-0.0195080169117 0.0111061207374 -0.00872160842779)
(-0.0146884981096 0.00622757732064 -0.00716286965486)
(-0.0173144288111 0.0103044747824 -0.00729453901696)
(-0.0178176143898 0.00995667434688 -0.0104332108952)
(-0.00939852853666 0.00613071995629 -0.00704750505718)
(-0.0125948052489 0.00962314399273 -0.00792576286689)
(-0.0140698082971 0.00910655668799 -0.0116781959335)
(-0.00359086165147 0.00643003702376 -0.00503635101236)
(-0.00612745538393 0.00940175092108 -0.00704718635365)
(-0.00859375535435 0.00859511284219 -0.0116145851847)
(-0.00100245906529 0.00940504714477 -0.00314635798516)
(-0.00287698719275 0.00819887654074 -0.00868641662231)
(0.00323243137755 0.0120703910403 -0.00515584320386)
(0.000580457515527 0.013880774038 -0.00242031253529)
(0.00296506268211 0.0133789393881 -0.00771363190938)
(0.00962342270935 0.0125919614763 -0.0079253258926)
(0.00622642689378 0.0146848710758 -0.00716187394341)
(0.0091093775072 0.014067028066 -0.0116778282964)
(0.0155279519715 0.0133937496318 -0.00805867605251)
(0.0133997946784 0.0155199872005 -0.00805861531103)
(0.0150440710059 0.01503625226 -0.0118037889856)
(0.0192908851485 0.0146703214663 -0.00702409615012)
(0.0186359147092 0.0168235223947 -0.00716920373581)
(0.0190315566389 0.0164360901272 -0.0102834176791)
(0.020411284655 0.0162539005333 -0.00571330027929)
(0.0213543762743 0.0186170721447 -0.00564284064088)
(0.0207934935811 0.0181706280396 -0.00823097294167)
(0.0190886854687 0.0177890122985 -0.00459541301929)
(0.0211164068694 0.0204891368864 -0.00421106314143)
(0.0201678968868 0.0199113218088 -0.00631090162969)
(0.0158668564899 0.0191514433987 -0.00376158371099)
(0.018745385574 0.0220961080073 -0.00313549123765)
(0.0176963273441 0.0214269348122 -0.00479474051877)
(0.0112538889602 0.0202892738095 -0.00321447677886)
(0.0145449350379 0.0235296384816 -0.00237197244162)
(0.0136578907226 0.0227338439492 -0.00369565495117)
(0.00580909925211 0.0210401366397 -0.00294817106238)
(0.00910178762323 0.0246003646693 -0.00195874692169)
(0.00854999920347 0.0237058309424 -0.00305489741038)
(1.48335741909e-05 0.0213004207547 -0.00287670542333)
(0.00309477935272 0.0251618924159 -0.00181425036515)
(0.00291329276761 0.0242209170454 -0.00279463161982)
(-0.0057803768621 0.021039712703 -0.00294663512231)
(-0.00306303795424 0.0251615157082 -0.00181345275342)
(-0.00288165054309 0.0242202733007 -0.00279340405249)
(-0.011227986345 0.0202885327528 -0.00321148366503)
(-0.00907194312092 0.0245992979378 -0.00195630135976)
(-0.0085201714908 0.0237039683425 -0.00305122674417)
(-0.0158454454887 0.0191505275879 -0.00375752447454)
(-0.0145191171632 0.0235280785117 -0.0023679175946)
(-0.0136316877393 0.0227309950057 -0.00368981005557)
(-0.0190726370308 0.0177880759089 -0.00459108028168)
(-0.0187253557503 0.0220941713331 -0.00313057796557)
(-0.0176752136628 0.0214234212104 -0.00478760403969)
(-0.0204006821026 0.0162537119829 -0.00570927528662)
(-0.0211020664959 0.0204872246917 -0.00420625175823)
(-0.0201521015145 0.0199077338718 -0.00630373512047)
(-0.0192851233435 0.0146710959132 -0.00702120240416)
(-0.0213457367325 0.0186167409915 -0.00563850647292)
(-0.0207828318597 0.0181680835148 -0.00822465984744)
(-0.0155254241659 0.0133954282241 -0.00805743222899)
(-0.0186316201413 0.0168239124738 -0.00716670226302)
(-0.0190250603272 0.0164343982303 -0.0102791446174)
(-0.0096227378666 0.0125951374634 -0.00792544416336)
(-0.0133980749886 0.0155220198194 -0.0080575968054)
(-0.0150404522159 0.0150360176988 -0.0118015688851)
(-0.00323243893775 0.0120756419624 -0.00515719332644)
(-0.00622613198177 0.0146890133539 -0.00716219741296)
(-0.00910761152637 0.0140686154893 -0.0116775679379)
(-0.000580712877667 0.0138881970656 -0.00242213733393)
(-0.00296459951386 0.0133833618402 -0.00771559274146)
(0.00324624813574 0.0162063214386 -0.00442634327484)
(0.000499600308531 0.0167729844646 -0.00138900486092)
(0.00318168935775 0.0169641893386 -0.00613845931422)
(0.0103072383693 0.0173084361559 -0.00729516336184)
(0.00681075996632 0.0180584205418 -0.00632969974813)
(0.00996188404736 0.0178123325784 -0.0104345407835)
(0.0168336968607 0.0186240943378 -0.00716914299433)
(0.014678098606 0.0192771353355 -0.007024470582)
(0.0164457566526 0.0190189949115 -0.0102836085578)
(0.0209900786436 0.0204079564237 -0.00578794822657)
(0.02042194747 0.0209737761379 -0.00578865179592)
(0.0207360821365 0.0207216444213 -0.00830663858387)
(0.0222484477001 0.0224500312651 -0.00414060350302)
(0.0233889800892 0.0231214854404 -0.00388198896971)
(0.0225785033883 0.0227543097908 -0.00576278670781)
(0.0208177172871 0.0243565378488 -0.00275114135979)
(0.0231630487102 0.025311032117 -0.00209255063403)
(0.0218748762534 0.0247728088293 -0.00339117050204)
(0.0172858826741 0.0259995813774 -0.00174587996829)
(0.0205384887884 0.0271426179501 -0.000721558748186)
(0.0191470421477 0.0265009022855 -0.00151468219994)
(0.0122556367978 0.0273390284799 -0.00111624258444)
(0.0159206786932 0.0287292557642 0.000270846864872)
(0.0147558026272 0.0279535944776 -0.000169379165894)
(0.00632548639897 0.0282061878868 -0.000824826224451)
(0.00995533463495 0.0298914304792 0.000831240833333)
(0.0092352515795 0.0290046465181 0.000639076321079)
(1.68019204814e-05 0.0285033238588 -0.00075099769523)
(0.00338303629341 0.0304973441585 0.00103839405744)
(0.00314700160999 0.0295511398921 0.000973224380554)
(-0.00629285923452 0.0282053209025 -0.000823118990862)
(-0.00334798008818 0.0304965567488 0.00103945504342)
(-0.00311190520759 0.02955023097 0.000974612044132)
(-0.0122259819684 0.0273373760037 -0.00111273528932)
(-0.00992231575612 0.0298891399526 0.000834514223612)
(-0.00920204197387 0.0290020022182 0.000643273250256)
(-0.0172611322011 0.0259972439943 -0.00174097108563)
(-0.0158920941337 0.0287257058223 0.000276226882925)
(-0.0147264541891 0.0279494891692 -0.00016248364846)
(-0.0207988858775 0.0243538455204 -0.00274574944211)
(-0.0205163063079 0.0271382373696 -0.000715209885617)
(-0.0191231392739 0.0264957564157 -0.00150631777168)
(-0.0222358022289 0.0224481191625 -0.00413548294453)
(-0.0231471022815 0.0253067198656 -0.00208643181791)
(-0.0218567192693 0.0247673998295 -0.00338258297433)
(-0.0209828283787 0.0204072747591 -0.00578400633177)
(-0.0233791878218 0.0231188233117 -0.00387639925196)
(-0.0225660788776 0.0227499909042 -0.00575505927652)
(-0.0168302164091 0.0186248073968 -0.00716686683942)
(-0.0204168796248 0.02097218912 -0.00578494443173)
(-0.0207282271719 0.0207184704327 -0.00830089119065)
(-0.0103061120408 0.0173113925528 -0.00729435005499)
(-0.0146759573409 0.0192778341494 -0.0070222235419)
(-0.0164412273205 0.0190177908073 -0.0102799214206)
(-0.00324623532775 0.0162126291643 -0.00442714142044)
(-0.00681039120879 0.0180620044713 -0.00632874170117)
(-0.00995953773986 0.0178137095064 -0.0104328710348)
(-0.000500247424331 0.0167814112847 -0.00139001492062)
(-0.00318115798333 0.0169700177078 -0.00613945116891)
(0.00371438715044 0.0183670498165 -0.0032923613342)
(0.000698742355737 0.0174335459991 -0.000510042332959)
(0.00358639933877 0.0186163705013 -0.00437494801845)
(0.0115119859936 0.0197668001375 -0.00605900696829)
(0.00773943014046 0.0189868564601 -0.00527747036652)
(0.0111132125258 0.0195012056522 -0.00872603390549)
(0.0186290144985 0.0213364464185 -0.00564397938359)
(0.0162626457109 0.0203930055208 -0.00571553559676)
(0.0181819063835 0.0207764841958 -0.00823289801234)
(0.0231399451151 0.0233686069401 -0.00388269253906)
(0.0224651806158 0.0222276530098 -0.00414357293038)
(0.0227703309451 0.0225600078887 -0.00576480710877)
(0.0244923102358 0.0256582799651 -0.00183393610072)
(0.025680108126 0.0244689087031 -0.00183574338028)
(0.024682136719 0.0246621490397 -0.00269978839276)
(0.0229043171569 0.0277886460721 -6.29680224234e-05)
(0.0254044216749 0.0267193071504 0.000393566689812)
(0.023854416676 0.0267713656596 0.000179717583934)
(0.0190017685752 0.0295802883051 0.00129516808498)
(0.0224896278744 0.028565876129 0.00213811627052)
(0.0208333554996 0.0285563801824 0.0024792895104)
(0.0134579073453 0.0310021713359 0.00221833028265)
(0.0174004598924 0.030113241795 0.00344683419885)
(0.0160300812969 0.0300242805441 0.00415987398574)
(0.00694318646648 0.0319133988831 0.00269446111522)
(0.0108604396691 0.031233489158 0.00421716564759)
(0.0100179017849 0.0310688535952 0.00517266093099)
(1.81139341491e-05 0.0322250513583 0.00282884679609)
(0.00368523433857 0.031818418234 0.00452063299563)
(0.00340994973704 0.0316093878958 0.00560399742557)
(-0.00690808240264 0.0319113483438 0.0026970882579)
(-0.0036487583285 0.0318170778958 0.00452186626829)
(-0.00337296656754 0.0316080333978 0.00560567463518)
(-0.0134261815197 0.0309982867437 0.00222347639586)
(-0.0108259831063 0.0312294995442 0.00422095644929)
(-0.00998295159033 0.0310649020791 0.00517773961208)
(-0.0189754415334 0.0295750587238 0.00130198808293)
(-0.0173705368998 0.0301069489358 0.00345302285519)
(-0.0159993051894 0.0300181530177 0.00416801776305)
(-0.0228843500058 0.0277829798943 -5.58922614175e-05)
(-0.0224662722226 0.028557998584 0.00214545372045)
(-0.0208084350711 0.028548850618 0.00248914896748)
(-0.0244788803707 0.0256534704961 -0.00182734812534)
(-0.0253874735755 0.0267112508363 0.000400706861594)
(-0.0238354862113 0.0267635228922 0.000190001801764)
(-0.0231321605386 0.0233652032454 -0.00387733735191)
(-0.0256695780261 0.024462665565 -0.00182905197504)
(-0.02466901099 0.0246553178712 -0.00269055940328)
(-0.0186252284714 0.021334924377 -0.0056403011342)
(-0.0224594282256 0.0222228120859 -0.00413889948706)
(-0.0227619071367 0.0225544632864 -0.00575755272967)
(-0.0115108347709 0.0197680974982 -0.00605661518808)
(-0.0162599260269 0.0203910159103 -0.00571225493428)
(-0.0181769859375 0.020773345608 -0.00822757411866)
(-0.00371470836922 0.0183725515371 -0.00329161520135)
(-0.00773858946242 0.0189884178559 -0.00527541894186)
(-0.0111105594123 0.0195012128788 -0.00872253931778)
(-0.000699578795485 0.0174409374966 -0.000510306633358)
(-0.00358612954975 0.0186218969765 -0.00437423373576)
(0.00435251714565 0.0179341154441 -0.00249515136527)
(0.00105345653495 0.0162021114649 3.10211565375e-05)
(0.00399580677776 0.0179329979795 -0.00312108050167)
(0.0128612294935 0.0194489810583 -0.004933998995)
(0.00872444207368 0.0176841620469 -0.00440240190111)
(0.0122896526347 0.0188663959481 -0.007206015183)
(0.0205015215359 0.021095479641 -0.00421512914356)
(0.0177987514389 0.0190690028742 -0.00460015879363)
(0.0199236965681 0.0201488638604 -0.00631628629698)
(0.0253300756812 0.0231394222018 -0.00209662377161)
(0.0243724214139 0.0207960775162 -0.00275717409742)
(0.0247897421014 0.0218549169483 -0.0033969752726)
(0.0267434025733 0.0253789424915 0.000391759410247)
(0.0278113679291 0.0228798968662 -6.87555305729e-05)
(0.026792066765 0.023832899443 0.000175688472108)
(0.024960283803 0.0273988659553 0.00259465098276)
(0.0274253387824 0.0249350359853 0.00259237806287)
(0.0258200603044 0.0257979818774 0.00356739340197)
(0.0206734741964 0.0290492822171 0.0042897823844)
(0.0242279286039 0.026586674637 0.00467377195613)
(0.022501868432 0.0274329154108 0.00626601429639)
(0.0146139421223 0.0303327592545 0.00544566956379)
(0.0186969172523 0.0279497714355 0.00625258313882)
(0.0172758136039 0.0287482233857 0.00822300535772)
(0.00752725464208 0.0311451589152 0.006043337528)
(0.0116268782001 0.0289339985871 0.00722532650465)
(0.0107727825852 0.0296764083355 0.00938618088868)
(1.82210692776e-05 0.0314200242511 0.00621365246783)
(0.00393483743827 0.0294495403301 0.00752682140316)
(0.00366021374782 0.0301559556803 0.00987791453443)
(-0.00749182863258 0.0311419220122 0.00604573445968)
(-0.00389920876695 0.0294476812998 0.00752760978932)
(-0.00362347263369 0.030154152478 0.00987944984547)
(-0.0145816009374 0.0303265237921 0.00545050290862)
(-0.0115930025598 0.0289283814176 0.00722884322204)
(-0.0107379257317 0.0296711040709 0.00939089467652)
(-0.0206462692475 0.0290406549386 0.00429648849271)
(-0.0186673743935 0.0279408084744 0.00625850453795)
(-0.0172449514906 0.0287398317524 0.00823081388689)
(-0.0249393165888 0.0273891063496 0.00260205284346)
(-0.024204684387 0.0265751776321 0.00468095376947)
(-0.0224766878763 0.027422360137 0.00627587430602)
(-0.0267288959204 0.0253699914257 0.000399003011887)
(-0.0274082015163 0.0249228745106 0.0025997727607)
(-0.0258007731127 0.0257867452899 0.0035779623359)
(-0.0253212892955 0.0231320910525 -0.00209061411019)
(-0.0278005648655 0.0228694000691 -6.15085858239e-05)
(-0.0267786807879 0.0238226642154 0.000185665618594)
(-0.0204966704571 0.0210903663075 -0.00421085328714)
(-0.0243662669116 0.0207870795284 -0.00275216401662)
(-0.0247808903714 0.0218459034992 -0.00338888023561)
(-0.0128591011327 0.0194474372648 -0.00493105868807)
(-0.0177954538883 0.0190634333521 -0.0045963429058)
(-0.0199182091395 0.0201427088142 -0.00630998195715)
(-0.00435221224448 0.0179378675607 -0.00249411037387)
(-0.00872298101124 0.017682953037 -0.00439960428922)
(-0.0122862737243 0.0188640760731 -0.00720142015574)
(-0.00105434302525 0.0162079992003 3.12613378418e-05)
(-0.00399530104792 0.0179372168071 -0.00311927077108)
(0.00503335222011 0.0159198523912 -0.0018762293793)
(0.00153031132899 0.013445818448 0.00038670762988)
(0.00443990896863 0.0157436416926 -0.00227705577028)
(0.014086736009 0.0172637605786 -0.00406856169975)
(0.00965719831059 0.0146612922879 -0.00372711608795)
(0.013348689711 0.0165498282052 -0.00603050963687)
(0.0221099136136 0.0187248604791 -0.0031422037475)
(0.0191627858359 0.0158494703457 -0.0037684330017)
(0.021441266833 0.017678106049 -0.00480364003804)
(0.0271628554061 0.0205157191769 -0.000729305856388)
(0.0260163336248 0.0172677928608 -0.00175467437329)
(0.0265192111441 0.0191287399874 -0.00152465158933)
(0.0285912100386 0.0224650122449 0.00213186312205)
(0.0296040244669 0.0189815390136 0.00128489548751)
(0.0285782578184 0.0208137901856 0.00247000897923)
(0.0266130334068 0.0242023649759 0.00467149903624)
(0.0290770468896 0.0206525335638 0.00428255403891)
(0.027456024031 0.0224819511056 0.00626068455361)
(0.0219875729892 0.0256034855279 0.00663657271055)
(0.0256304679199 0.0219659762878 0.006633990376)
(0.0238755749087 0.0238550057433 0.00924616360855)
(0.0154940691799 0.0266579766857 0.00803224007968)
(0.0197190643913 0.0230296141478 0.00838034479661)
(0.018289389155 0.0249635299537 0.0114136651601)
(0.00794384432984 0.02731734746 0.00870881037981)
(0.0122242655046 0.023735311736 0.00916116071967)
(0.011372045252 0.0257331852375 0.0127489152353)
(1.72382121151e-05 0.0275511777225 0.00884077872466)
(0.00412042590887 0.0241078413635 0.0093582074427)
(0.00385589313516 0.0261395146164 0.0132683085328)
(-0.00791015736077 0.0273131526169 0.00871071855168)
(-0.00408799767263 0.0241056756973 0.00935856565508)
(-0.00382132115887 0.026137413003 0.013269404997)
(-0.0154633242677 0.0266497067676 0.00803684485136)
(-0.0121935267262 0.0237284846859 0.00916351159072)
(-0.0113392555899 0.0257268018816 0.0127530682696)
(-0.0219617860939 0.0255919267272 0.0066429698147)
(-0.0196926380809 0.0230186351809 0.00838421233551)
(-0.0182605066296 0.02495329973 0.011420640934)
(-0.0265931102536 0.0241888856034 0.0046786736867)
(-0.025609631493 0.0219514900154 0.00664033487584)
(-0.0238521030475 0.0238417566234 0.009255018957)
(-0.0285772980308 0.0224517888336 0.00213926116299)
(-0.0290617147491 0.0206365235356 0.00428911562382)
(-0.0274380716266 0.0224673266758 0.00627054707397)
(-0.027154333523 0.0205040642355 -0.000723058492252)
(-0.0295941480337 0.0189665692144 0.00129173563234)
(-0.0285658172642 0.0207997583011 0.00247987512908)
(-0.02210504882 0.018715784394 -0.00313765363528)
(-0.0260107156345 0.0172545083937 -0.00175006748743)
(-0.0265109942407 0.0191159318935 -0.00151670521005)
(-0.0140844483919 0.0172587620837 -0.00406488850695)
(-0.0191595068695 0.0158398994086 -0.00376459360241)
(-0.0214359522424 0.0176683733897 -0.00479705912689)
(-0.00503308535894 0.0159208804994 -0.00187423257751)
(-0.0096555433793 0.0146565728168 -0.00372371519858)
(-0.0133452709179 0.0165442974867 -0.00602497604463)
(-0.00153145709603 0.0134487400584 0.00038770672486)
(-0.00443955996457 0.0157451215253 -0.00227382109781)
(0.00573558932225 0.0123289786748 -0.00146417907877)
(0.00203024217463 0.00952005832003 0.000527174354618)
(0.00491824749149 0.0121077815756 -0.0018098246698)
(0.0152297885944 0.0133776411467 -0.00342698738991)
(0.010470649527 0.0103632407341 -0.00328056290405)
(0.0143083470731 0.0127347997625 -0.00519614206461)
(0.0235446392896 0.0145292290561 -0.00238090362749)
(0.0203018207978 0.0112419390304 -0.00322236045644)
(0.0227498881708 0.013643956878 -0.00370731299866)
(0.0287503645373 0.0159040790189 0.0002595269706)
(0.0273562042152 0.0122448849582 -0.00112627267617)
(0.027973046959 0.014742936258 -0.000182810527524)
(0.0301397296505 0.0173827036874 0.00343558640436)
(0.0310261675033 0.0134465041212 0.00220486214194)
(0.0300472909926 0.0160168770263 0.0041456764898)
(0.027977737911 0.0186787164474 0.00624504537867)
(0.0303612376722 0.0146022651726 0.00543437632697)
(0.0287727171251 0.0172626693893 0.00821226600274)
(0.023052912577 0.0196999588122 0.00837776246206)
(0.0266865336523 0.0154822689331 0.00802528886804)
(0.024985584723 0.0182761150977 0.0114085371336)
(0.0161691684954 0.0204860781225 0.0095092654366)
(0.0205071607659 0.0161558384189 0.00950961983251)
(0.0191123404467 0.0190979649265 0.0137575226978)
(0.00828457703708 0.0209864875324 0.00981055778256)
(0.012678786947 0.0166417954525 0.00997614251979)
(0.011870036689 0.0196907996858 0.0149781094289)
(1.49767395687e-05 0.0211522058123 0.00987599437312)
(0.00425446381855 0.0168985922064 0.0101090192377)
(0.00401253399161 0.0199902595435 0.0154788505969)
(-0.00825552093641 0.0209818588385 0.00981135869413)
(-0.00422718467163 0.0168963859351 0.0101093772281)
(-0.00398209575099 0.0199880021651 0.0154797887826)
(-0.016143087782 0.0204768674401 0.00951087907488)
(-0.0126533577953 0.0166348980379 0.00997739806704)
(-0.0118414655388 0.0196839558393 0.0149811557969)
(-0.0230310672403 0.0196862925137 0.00838157739665)
(-0.0204858971414 0.016144237693 0.00951145980538)
(-0.0190877931165 0.0190866967178 0.0137623808966)
(-0.0279610950738 0.0186618222083 0.00625077681296)
(-0.0266700365401 0.0154660519704 0.00802965523674)
(-0.0249658864122 0.0182607768757 0.0114154718929)
(-0.0301280884508 0.0173651586994 0.00344159009317)
(-0.0303493350623 0.0145837277893 0.00543860485808)
(-0.0287578466006 0.0172450879084 0.00821979707921)
(-0.0287430824193 0.0158877838252 0.000264726637158)
(-0.0310183011629 0.0134281309222 0.00220953366156)
(-0.0300369674327 0.0159991589998 0.00415344143625)
(-0.0235402879682 0.0145157515981 -0.00237700745457)
(-0.0273516088258 0.0122282522376 -0.00112319668939)
(-0.0279662582293 0.0147264547872 -0.000176528905375)
(-0.0152275043579 0.0133686072309 -0.00342342029405)
(-0.0202990057115 0.0112289137034 -0.00321946776158)
(-0.0227454046117 0.0136304780545 -0.00370178895613)
(-0.0057353214044 0.0123263663329 -0.00146177589621)
(-0.0104690748684 0.0103552800785 -0.00327751383688)
(-0.0143053281454 0.0127256434719 -0.00519088139113)
(-0.00203136677761 0.00951944505434 0.000528594205862)
(-0.00491810417863 0.0121054145967 -0.00180601989917)
(0.00632122079675 0.00768834435137 -0.00128920947066)
(0.00240851356162 0.00489579099066 0.000527411906934)
(0.00534458909289 0.00751595287647 -0.0016969481798)
(0.0161103186525 0.00835559353079 -0.00307593597058)
(0.0110235819848 0.00532889643201 -0.00307436303495)
(0.0150518937469 0.00793349379841 -0.00475474709909)
(0.0246159055712 0.00909414226593 -0.00196772950511)
(0.0210527079936 0.00580330314323 -0.00295525118129)
(0.0237225587189 0.00854274101 -0.00306694389792)
(0.0299124702568 0.00994900416068 0.000819062495174)
(0.028222788769 0.00632299759221 -0.000833672225312)
(0.0290244032624 0.00923045397251 0.000625330039211)
(0.0312599161207 0.0108543114048 0.00420365206455)
(0.0319360529228 0.00694224890208 0.00268134751338)
(0.0310919156281 0.0100142118368 0.00515681616727)
(0.0289625694322 0.0116209705166 0.00721461981634)
(0.0311723802346 0.00752655864382 0.00603123188275)
(0.0297010380262 0.0107695278336 0.00937305854164)
(0.0237606695206 0.0122177023886 0.00915714623848)
(0.0273441446395 0.00794348146182 0.00870552602933)
(0.0257560661773 0.0113688559887 0.0127406905137)
(0.0166577064444 0.0126699688441 0.0099764969157)
(0.0210075547995 0.00828201192803 0.00981242934792)
(0.0197067589139 0.0118657736737 0.014976790373)
(0.0085253614759 0.0129468352222 0.0102746039749)
(0.0129570998262 0.00851943440719 0.0102752865425)
(0.0122082140757 0.0122020983906 0.0162547049722)
(1.207184663e-05 0.0130412634937 0.0103424020927)
(0.00433477727691 0.00864414159285 0.0104098819978)
(0.00411306583503 0.0123734886636 0.0167677382088)
(-0.00850219675133 0.0129422458463 0.010275416601)
(-0.00431312614114 0.00864207251142 0.0104102549204)
(-0.00408794468026 0.0123712772448 0.0167685800161)
(-0.0166373983006 0.0126604667531 0.00997797879755)
(-0.0129374165709 0.008512923118 0.0102763828562)
(-0.0121850912553 0.0121952806357 0.016257175566)
(-0.0237442335558 0.0122032636085 0.00915953764548)
(-0.0209918101311 0.00827074837348 0.00981388750943)
(-0.019687537896 0.011854228504 0.0149803257846)
(-0.0289505081343 0.0116027488406 0.00721748328187)
(-0.0273327392206 0.00792768256926 0.00870738046315)
(-0.0257413276977 0.0113530094555 0.0127446479484)
(-0.0312515927733 0.0108345495574 0.00420654842647)
(-0.0311645465192 0.00750803785871 0.00603206778893)
(-0.0296903456464 0.0107508408315 0.0093767812642)
(-0.0299071109224 0.00992998606119 0.000821610335014)
(-0.0319306897492 0.00692311686751 0.00268240251805)
(-0.0310845468721 0.00999465706827 0.00516054087667)
(-0.0246125530463 0.00907780935539 -0.00196565699641)
(-0.0282194259553 0.00630543434508 -0.000833062102265)
(-0.0290195708735 0.00921196507839 0.000628269581196)
(-0.0161085219204 0.0083435843418 -0.00307356130441)
(-0.0210507842606 0.00578883410422 -0.00295424279992)
(-0.0237195089615 0.00852691365757 -0.00306394182314)
(-0.00632101124462 0.00768239202781 -0.0012871437348)
(-0.0110225237255 0.00531908760125 -0.00307270318699)
(-0.0150499226149 0.00792173891844 -0.00475130818775)
(-0.00240923713934 0.00489220657754 0.000528780563781)
(-0.00534465430702 0.00751002303399 -0.00169376551166)
(0.00664942643934 0.0025999892345 -0.00125774165736)
(0.00254830098732 -1.15438478152e-05 0.000508320638861)
(0.0055942091512 0.00253515382873 -0.00174208598088)
(0.0165820829687 0.00283542530038 -0.00295367824566)
(0.0112176068345 2.88355376985e-06 -0.00302305547629)
(0.015453752224 0.00269051446433 -0.00460663690883)
(0.0251763532962 0.00309423694977 -0.00182119390149)
(0.0213113574303 1.3582637198e-05 -0.00288198354642)
(0.0242365693859 0.00291204603579 -0.00280454245471)
(0.0305165027926 0.00338617305182 0.00102861279289)
(0.0285176705605 2.0855937006e-05 -0.000757424649358)
(0.0295694795691 0.00314953717927 0.000961999607287)
(0.0318419908837 0.00369011557109 0.00450892733157)
(0.032244216298 2.59554782773e-05 0.00281880795815)
(0.0316303349762 0.00341501401689 0.00559081196439)
(0.029475238818 0.00393971994568 0.00752213809575)
(0.0314431348011 2.70348008743e-05 0.00620362517141)
(0.0301780958166 0.00366609096316 0.00986628066059)
(0.024129489359 0.0041239279955 0.00936080913878)
(0.02757285209 2.51092829593e-05 0.00884311266556)
(0.0261593118204 0.00386132148963 0.0132641237381)
(0.0169133270931 0.00425526484412 0.0101112189747)
(0.0211697581381 2.00213022734e-05 0.00987888313318)
(0.0200046548068 0.00401651611148 0.0154781522215)
(0.0086513394981 0.00433298833879 0.0104105645653)