/*--------------------------------*- C++ -*----------------------------------*\
| =========                 |                                                 |
| \\      /  F ield         | OpenFOAM: The Open Source CFD Toolbox           |
|  \\    /   O peration     | Version:  3.0.1                                 |
|   \\  /    A nd           | Web:      www.OpenFOAM.org                      |
|    \\/     M anipulation  |                                                 |
\*---------------------------------------------------------------------------*/
FoamFile
{
    version     2.0;
    format      ascii;
    class       surfaceVectorField;
    location    "1.5";
    object      ddt0(Uf);
}
// * * * * * * * * * * * * * * * * * * * * * * * * * * * * * * * * * * * * * //

dimensions      [0 1 -2 0 0 0 0];

internalField   nonuniform List<vector> 
22672
(
(-4.05555200841e-05 -5.40140080691e-05 5.30952713725e-05)
(-5.2340905798e-05 -4.20945927788e-05 5.51999560925e-05)
(-1.49189495954e-05 -1.44594618114e-05 8.00065019796e-05)
(-1.27474227255e-05 -8.23563394818e-05 4.02773045366e-05)
(-6.96517724035e-05 -7.82999598525e-05 -1.0030206335e-05)
(-3.78484784325e-05 -3.64062709314e-05 4.7161319831e-05)
(7.01425401183e-05 -8.13930992597e-05 1.39569060705e-05)
(5.31052742441e-05 -6.72404158414e-05 -6.10648162122e-05)
(3.58861558082e-05 -2.49269395838e-05 -1.99671148065e-05)
(0.000188508931436 -6.2435944828e-05 -1.75027983947e-05)
(0.000184544349544 -2.75281642203e-05 -0.000100544093316)
(0.000133841454474 1.8028918934e-06 -9.64286588699e-05)
(0.000319225216252 -3.02748546927e-05 -5.13589988681e-05)
(0.000331983037588 3.58190921326e-05 -0.000135307846737)
(0.000256932453134 3.80656843589e-05 -0.000173606770625)
(0.000444355334118 7.25415497369e-06 -8.42271211974e-05)
(0.000468362860325 0.000109305054327 -0.000163912287834)
(0.000383388811018 7.69346256339e-05 -0.000243116832117)
(0.000551297290978 4.35581411807e-05 -0.000110986668996)
(0.000579984900341 0.000179763580116 -0.000185501397169)
(0.00050000584548 0.00011274647186 -0.000297021001131)
(0.00062671646163 7.53062884502e-05 -0.000122150600598)
(0.000657211609802 0.000239117624842 -0.00019715717758)
(0.000598248612606 0.000141514041025 -0.000326362156549)
(0.000713263632167 9.2269695192e-05 -0.000125230766539)
(0.000709764162803 0.000283895568503 -0.000194041098778)
(0.000677675268216 0.000159494647838 -0.000383477506552)
(0.00079465145887 0.00010284519261 -0.000114418960703)
(0.000722308258664 0.000287499096107 -0.000192122182292)
(0.000715857935422 0.000162473886521 -0.000382659507722)
(0.000787089816105 9.92587835278e-05 -9.28984237035e-05)
(0.000730107659873 0.000318468889299 -0.000169689326413)
(0.000753936460742 0.000171023377485 -0.000324815726479)
(0.000793281363358 7.04177193721e-05 -7.28068964979e-05)
(0.000740581444477 0.000276104146114 -0.000152679200756)
(0.000793327156943 0.000152596611779 -0.000295676820019)
(0.000771562520616 3.488590265e-05 -3.92362048033e-05)
(0.000715772692626 0.000218016567992 -0.000128964202079)
(0.000793066454504 0.000126016362859 -0.000208509849386)
(0.000745454399024 -3.30931060907e-06 6.42368968959e-06)
(0.000683414027382 0.00015188309217 -9.34177603045e-05)
(0.000777851024229 9.2316652242e-05 -0.000136279938486)
(0.00070521991879 -4.15481474509e-05 5.4391565989e-05)
(0.000648480865965 7.89359157559e-05 -5.18952667529e-05)
(0.000745526874522 5.4050571004e-05 -4.71295328056e-05)
(0.000644947963797 -7.42110393287e-05 9.90603296817e-05)
(0.00060632499153 6.09449192266e-06 -8.90225899943e-06)
(0.000691896399496 1.51867309324e-05 4.79983503268e-05)
(0.000555176798881 -9.47273426917e-05 0.000137298281148)
(0.000550278375522 -5.60943695923e-05 3.42468031859e-05)
(0.000610683432566 -2.03053092908e-05 0.000141915233503)
(0.000423464874346 -9.86560445014e-05 0.000167445337969)
(0.000464769851019 -9.68781178598e-05 7.67143867898e-05)
(0.000490773643841 -4.69544444656e-05 0.000226680322984)
(0.000239538172877 -7.40834792404e-05 0.000181476080726)
(0.000376850317336 -0.000112581639257 0.000126591077738)
(0.000351920668612 -5.97396435562e-05 0.000296242236515)
(0.000155610210773 -8.61339572177e-05 0.000182783280105)
(0.000120974005495 -3.81255928134e-05 0.000326076899234)
(-7.12126772268e-05 -8.01041190985e-05 -7.92552161494e-06)
(-8.02828156087e-05 -2.59835794754e-05 4.44569642385e-05)
(-2.98301743112e-05 -4.38866287542e-05 5.17202889585e-05)
(-2.67754527539e-06 -8.67743350321e-05 -0.000111372327084)
(-7.13075232261e-05 -2.75024094845e-05 -0.000113147918509)
(-3.16738261888e-05 -5.2771049197e-05 -0.000123721341054)
(0.000135269951302 -3.76554894127e-05 -0.000175565815599)
(0.000122801214852 3.48029023614e-05 -0.000199417197011)
(9.70058134218e-05 3.92356108029e-06 -0.000245697089284)
(0.00029513549901 4.75625064952e-05 -0.000218349141658)
(0.000300521927201 0.000143794806791 -0.000243411583215)
(0.000225595088992 9.74366234424e-05 -0.000338585877068)
(0.000449136093788 0.000153855134323 -0.000247861135703)
(0.000475802273659 0.000284930073745 -0.000269324401656)
(0.000367843822769 0.000212360075266 -0.000412501799718)
(0.000577852602493 0.000262136919708 -0.000265186563805)
(0.000618554417664 0.000433648213857 -0.000280564722184)
(0.000501112627087 0.000329970134261 -0.000464628959094)
(0.000670285079753 0.000357257889888 -0.000271671905753)
(0.000716323264128 0.000567771530734 -0.000280918176806)
(0.000610486733219 0.000433835650531 -0.000494210758274)
(0.000723270070411 0.000430932237651 -0.00026904767576)
(0.000765478561609 0.00067351077454 -0.000273090080116)
(0.000687125196192 0.000514009933559 -0.000503159671824)
(0.000744937390949 0.000469422286736 -0.000260932514532)
(0.000771604453871 0.000741488984024 -0.000260721218474)
(0.000730496253865 0.000564125384957 -0.000496632537983)
(0.000732424033471 0.00048353781698 -0.000247392548002)
(0.00074567286107 0.000762973873358 -0.000247376084159)
(0.000744035506147 0.000577669561319 -0.000481298542877)
(0.00072536082908 0.000465162651821 -0.000229470103465)
(0.000706387824321 0.000755897488873 -0.000232068888047)
(0.000743994057377 0.000580533327921 -0.000448903426439)
(0.00069549191683 0.000400580760118 -0.000208836506337)
(0.000657718181123 0.000701177824211 -0.00021725572993)
(0.000733388416641 0.000535655432296 -0.000413124551483)
(0.000657450165528 0.000312619163145 -0.00018314575758)
(0.000599942955392 0.000607061805081 -0.000200173075404)
(0.000706986170063 0.000463640928773 -0.000367517383701)
(0.000620099295591 0.000210040095851 -0.000151736716747)
(0.000547243561913 0.000484810727777 -0.000179794424386)
(0.000674232108679 0.000368940146678 -0.000310006634962)
(0.000583292896527 0.000100315733629 -0.000115189091741)
(0.000503815625638 0.000343953041388 -0.000155310754863)
(0.000636098731064 0.000258224605724 -0.000240051851185)
(0.000542900592227 -4.18994218207e-06 -7.37157854952e-05)
(0.000469390957812 0.000196612222022 -0.000126327109441)
(0.000588342498245 0.000140743298106 -0.000159088172191)
(0.000488785675891 -8.86491191509e-05 -2.63370911723e-05)
(0.000438298005014 6.09205114098e-05 -9.10345866031e-05)
(0.000523420048338 2.91160375644e-05 -6.89356490801e-05)
(0.000405099141447 -0.000141467958372 3.58601265583e-05)
(0.00039289417657 -4.47430510807e-05 -4.57571938064e-05)
(0.000429591002959 -6.21850084599e-05 2.82335404239e-05)
(0.000259544039448 -0.00014438058753 0.000127898277117)
(0.000369560813887 -0.000110052293889 3.29809386335e-05)
(0.000344886100037 -0.000122375818074 0.00014179884789)
(0.000178601156922 -0.000121164053858 0.000167566645783)
(0.000137061943876 -0.000120940984121 0.000294305822873)
(-5.99949907997e-05 2.44651181002e-05 -6.07654326553e-05)
(-8.14369158952e-05 4.83286634823e-05 1.70682059709e-05)
(-1.67421368163e-05 1.20760392423e-05 -1.88368112706e-05)
(6.33613549114e-05 8.36726964753e-05 -0.000201192788436)
(-2.2568333531e-05 9.61973947899e-05 -0.000183492323381)
(3.03569597167e-05 5.55973871122e-05 -0.000252941962992)
(0.000256767393302 0.000202349628908 -0.000267262964627)
(0.000245300355428 0.000210869045623 -0.000273005559396)
(0.000216231969384 0.000167231620162 -0.000377123274715)
(0.000452153764902 0.000363591440481 -0.000294386843213)
(0.000470231743827 0.000380745010783 -0.000295921593406)
(0.000377426179029 0.000328134020047 -0.000442301734089)
(0.000617457373928 0.000543477211229 -0.000302027988138)
(0.000666552368376 0.000583699864295 -0.000293165486957)
(0.000532167248206 0.000515575794057 -0.000476811678775)
(0.000734777706378 0.000714683072411 -0.000296296335185)
(0.000803059348759 0.000787761798223 -0.000275434401264)
(0.000657731742332 0.000701504547274 -0.000487215992908)
(0.000797407487076 0.000856612571158 -0.000282336351169)
(0.000872571992863 0.000965468363726 -0.000251654808424)
(0.00074287325054 0.000861659112558 -0.000479162250788)
(0.00080853292666 0.00095676772212 -0.00026476362283)
(0.000878223204284 0.00109994023201 -0.000226461248944)
(0.000783558211548 0.000982366482972 -0.000459147863007)
(0.000777050360815 0.00100879451423 -0.000247164788101)
(0.000832571505747 0.00118226231251 -0.000204031601304)
(0.000783391519303 0.00105557736185 -0.000433046350241)
(0.000726621131282 0.00101423999077 -0.000232052424205)
(0.000755084415463 0.00121344892483 -0.000186613987077)
(0.000754676092995 0.00108056035776 -0.000425137698425)
(0.000663683813164 0.000971622466169 -0.000219854514512)
(0.000662403095773 0.00118971580908 -0.000174936421201)
(0.000711465755036 0.00106237945762 -0.000396349059959)
(0.000587631857362 0.000881373241941 -0.000208592298997)
(0.000561390164982 0.00111040351055 -0.000167860815483)
(0.000655703507912 0.000994579641193 -0.000358018283524)
(0.00051745496524 0.000752848841496 -0.00019682174221)
(0.000461987706356 0.000987167033063 -0.000163730149258)
(0.000591886396485 0.000884552081042 -0.000333180996621)
(0.000459896197108 0.000595438000005 -0.000183368462502)
(0.000378698835381 0.000825266582447 -0.000161062664898)
(0.000531566708381 0.000738480733802 -0.00030367641081)
(0.000418372416865 0.000420988164409 -0.000166448772562)
(0.000318502033476 0.000635645996173 -0.000158413323513)
(0.000477413558788 0.00056576191328 -0.000267741550101)
(0.000391259205452 0.000246622708994 -0.000143645910549)
(0.000285541599088 0.000433066205414 -0.000153630914194)
(0.000427740093238 0.000379361055303 -0.000223196324454)
(0.000370146909281 9.31575135765e-05 -0.000110454689237)
(0.000277195158074 0.000239785742567 -0.000142308245549)
(0.000377136474678 0.000198892667138 -0.000167696897972)
(0.000336767561379 -2.24137444347e-05 -4.86363817313e-05)
(0.000274576135071 7.9040773056e-05 -0.000115455361866)
(0.000313459464902 4.53666826689e-05 -9.66654905119e-05)
(0.000242616413245 -8.76748787635e-05 7.26493072995e-05)
(0.000316677858132 -3.33649730466e-05 -3.63745501552e-05)
(0.00028071454233 -6.51877298385e-05 1.39608444532e-05)
(0.000175884379005 -9.14486324415e-05 0.000131958008165)
(0.000123048690774 -0.000117370594514 0.000211140211667)
(-2.25709707222e-05 0.000149439938375 -0.000105658684755)
(-6.57409732824e-05 0.000167400558579 -1.64957685873e-05)
(9.23643501458e-06 0.000105041741362 -0.000102530487577)
(0.000171984792216 0.000251779686067 -0.000255305094341)
(5.97590475262e-05 0.000254812570034 -0.000235412894839)
(0.00012501389424 0.000178221416737 -0.000361025488228)
(0.000429169248533 0.000415564453886 -0.000301664188175)
(0.000407318954196 0.000403631591078 -0.000312095900037)
(0.000380655691898 0.000322126332109 -0.000460199080709)
(0.000659903443799 0.000623738442319 -0.00029470023715)
(0.000680929110149 0.000607975935166 -0.000301142716558)
(0.00058121556946 0.000522063846838 -0.000471404264989)
(0.00082922894602 0.000846462507603 -0.000266571900083)
(0.000893057475946 0.000841273265371 -0.000259708683985)
(0.000746460375175 0.000750387054038 -0.000444165967385)
(0.000923632241304 0.00105261635763 -0.000230792874503)
(0.00101427852071 0.00106918480933 -0.000206441698853)
(0.000855496874182 0.000974933039521 -0.000397249178852)
(0.000943311356471 0.00121927421038 -0.000195779706198)
(0.00104542269465 0.00126413833112 -0.000158718447963)
(0.000904410687983 0.00116674896959 -0.000343851086829)
(0.000900712710738 0.00133307986329 -0.000165729227417)
(0.000997605079504 0.00140803594556 -0.000117849910509)
(0.000896540471282 0.00131001271117 -0.000294575772494)
(0.000814084482663 0.00138993370792 -0.000143480800279)
(0.000893580136584 0.00149267864034 -8.85444491941e-05)
(0.000843361222686 0.00139577663078 -0.0002555832338)
(0.000703014973843 0.0013897420847 -0.000129497984073)
(0.000756908866377 0.00151810305635 -7.11400131988e-05)
(0.000761133882595 0.00142433010236 -0.000227016843687)
(0.000580698386443 0.00133241732339 -0.000122942722171)
(0.000604750488288 0.00148606713044 -6.35491440034e-05)
(0.000662180557325 0.00139639616241 -0.000207949939987)
(0.00045713644455 0.00122279575042 -0.000122998665743)
(0.000449396454521 0.0013984719725 -6.48163732927e-05)
(0.000554170316926 0.00131134826717 -0.0001977653796)
(0.000346517950781 0.00106868507217 -0.000127971071946)
(0.000304178047583 0.0012614862157 -7.44394724751e-05)
(0.000446068041971 0.0011768149005 -0.000195198662968)
(0.000260774579779 0.000878774927891 -0.000136107525909)
(0.000184517215963 0.0010818518757 -9.08008093711e-05)
(0.000349575802145 0.000998740796237 -0.000199505498785)
(0.000208401566568 0.000666055810402 -0.000145595465144)
(0.000102017980622 0.000870572904996 -0.000112556581572)
(0.000272017403692 0.000787862612918 -0.000207382828836)
(0.000192359939241 0.000449711289819 -0.000152293249194)
(6.63360989746e-05 0.000642110822711 -0.00013668923615)
(0.000216949814953 0.000560596594809 -0.000213196185363)
(0.000207047604993 0.000253569442045 -0.000147308918178)
(7.96093824927e-05 0.00042036984046 -0.000156415562409)
(0.000182985333575 0.000339854521698 -0.000210423406858)
(0.000231696681017 9.86910757026e-05 -0.00010319353029)
(0.000123409779289 0.000229803328798 -0.000157009917089)
(0.000158461142071 0.000150282446019 -0.00018575664403)
(0.000202787393059 -5.21720668203e-06 2.29341507105e-05)
(0.000235291543906 8.84044137567e-05 -9.05895993934e-05)
(0.000189135316198 1.18090832214e-05 -9.97012006414e-05)
(0.000157158721159 -5.49694805561e-06 8.92517271122e-05)
(9.73156966174e-05 -6.80807340577e-05 0.000112906560966)
(3.70983185985e-05 0.000302042346058 -0.000146249978671)
(-3.65310421682e-05 0.000309282313729 -5.22280475557e-05)
(4.43651382071e-05 0.000234234997575 -0.000186798324889)
(0.000310905264305 0.000432111783937 -0.000292203700534)
(0.000162586482358 0.000421313533692 -0.000273875864987)
(0.000239887677138 0.000328980257806 -0.000450508553993)
(0.00063225317842 0.000616989589879 -0.00031157442842)
(0.000587049214217 0.000582025484638 -0.000331080990257)
(0.000569905252341 0.000486699075097 -0.00051313230297)
(0.000894476817699 0.000841306557728 -0.000266151163393)
(0.000905298139115 0.000791182334972 -0.00028487149603)
(0.000811571643137 0.000698376610945 -0.000463064693079)
(0.00106053547122 0.00107487594071 -0.000199578482754)
(0.001128012715 0.00102251282097 -0.000206029762753)
(0.000985800416058 0.000935950590465 -0.000369969265116)
(0.00112527920459 0.00128660631002 -0.000134367272313)
(0.00122815820519 0.00124577619409 -0.000121824105)
(0.00107390784129 0.00116880177671 -0.000269339190102)
(0.00109467327619 0.00145379878642 -8.07886522736e-05)
(0.00121576576458 0.00143146601523 -5.21151666639e-05)
(0.00108021003044 0.00136824794616 -0.000169766002896)
(0.000992404205928 0.00156455861539 -4.06651322858e-05)
(0.00111117267022 0.00156628290888 1.327255543e-06)
(0.00101716936468 0.00151613168056 -9.32210289145e-05)
(0.000843827836949 0.00161554205427 -1.62036621135e-05)
(0.00094681568635 0.00164217294879 3.41241966133e-05)
(0.000903998067343 0.00160309419003 -4.11482945313e-05)
(0.000670963503687 0.00160857700737 -5.1911731289e-06)
(0.000751196080169 0.00166054294057 4.9784737637e-05)
(0.000761740198275 0.00162871541132 -1.145970211e-05)
(0.000490011276131 0.00154632114975 -5.42279512494e-06)
(0.000542566706932 0.00162434473392 5.22944151653e-05)
(0.000603975102403 0.0015949205987 3.94990455398e-07)
(0.000314349622395 0.00143275851449 -1.62571800243e-05)
(0.000334828998742 0.00153695043776 4.35186859268e-05)
(0.000440326311998 0.00150437060852 -4.36185776432e-06)
(0.000159829501284 0.00127361022479 -3.72692099004e-05)
(0.000143277757535 0.00140278677978 2.25090318769e-05)
(0.000282538701443 0.0013618008878 -2.65009075655e-05)
(4.28661008457e-05 0.00107698271568 -6.7249865034e-05)
(-1.42117001295e-05 0.00122757095633 -1.06857011117e-05)
(0.000145258883612 0.00117386262958 -6.54830885239e-05)
(-2.45225707838e-05 0.000855610952119 -0.000103650352577)
(-0.000120915726628 0.00102046430234 -5.46824313792e-05)
(4.1406043431e-05 0.000951754880679 -0.000114988757267)
(-3.21154245097e-05 0.00062823828172 -0.000140811549365)
(-0.00016181597015 0.000797065058432 -0.000105980912654)
(-2.007885265e-05 0.000713298194768 -0.000174466712079)
(1.71605499222e-05 0.000417983872203 -0.00016611656132)
(-0.000129672400594 0.000577245044729 -0.000155155831797)
(-3.63712111362e-05 0.000481877256422 -0.000227186771072)
(0.000100970413863 0.000245874996996 -0.000144405986192)
(-4.15184917261e-05 0.000384123063079 -0.000183013367338)
(-1.72465658854e-05 0.00028173223721 -0.000253292147977)
(0.000143988029424 0.000118617018473 -2.42720229917e-05)
(0.000136951892478 0.0002340786626 -0.000133602410543)
(8.1437571276e-05 0.00013201433248 -0.00019966189801)
(0.000126604411669 0.00012001051422 4.39689037093e-05)
(6.36782418534e-05 3.35583214724e-05 1.18847072799e-05)
(0.000107705730229 0.000456556107793 -0.000179853933872)
(-1.24444280876e-06 0.000453550548151 -8.655904164e-05)
(8.3426460564e-05 0.000378185219884 -0.000261760085372)
(0.00045814020964 0.000595257245449 -0.000312753154709)
(0.000268272951001 0.000573173136697 -0.000298236193548)
(0.000357928947635 0.000483414602451 -0.000515076845694)
(0.00083671126662 0.000775436999848 -0.000304378057867)
(0.000758609682661 0.000724544602912 -0.00033393284721)
(0.000757738025782 0.000635602578321 -0.000537939555156)
(0.00112449356456 0.00098609095932 -0.000224750095391)
(0.00111371867717 0.000912265729122 -0.000257366736413)
(0.00103770458113 0.000833182859121 -0.000431073318711)
(0.00128457676717 0.00120049309772 -0.000128275384999)
(0.00134227877772 0.00111576937672 -0.000149168509619)
(0.00121948228843 0.00105257865788 -0.000281760834251)
(0.0013144240941 0.00139121142003 -3.95719993512e-05)
(0.00141968738326 0.00130725923334 -4.25678104628e-05)
(0.0012878569715 0.00126638544263 -0.000126089215068)
(0.00123381797803 0.00153891197429 3.00007411527e-05)
(0.00136507015985 0.00146523415956 4.46181012285e-05)
(0.00125252237233 0.00145069732489 6.41169849041e-06)
(0.00107269364722 0.00163381780039 7.61165844421e-05)
(0.00120742853703 0.00157736786017 0.000106024311383)
(0.00113350881827 0.00158720629537 0.000105253286954)
(0.000864735608897 0.00167380764605 0.000100112596364)
(0.000988000189417 0.00163706954216 0.000139096529961)
(0.000959915429422 0.00166597525172 0.000165518099069)
(0.000634925890385 0.00166160046575 0.000107270325931)
(0.000739869354332 0.00164728995154 0.000151642495579)
(0.000758005076952 0.0016865400718 0.000194270636126)
(0.000401139762808 0.00160080341208 0.000101235896217)
(0.000482215031038 0.00161061698656 0.000149435419356)
(0.000543068302695 0.00165054044489 0.000198649364879)
(0.000177055331366 0.00149542290667 8.2284897828e-05)
(0.000229385712777 0.00153168365167 0.00013525948381)
(0.000325894085013 0.00156236758698 0.000181294414724)
(-1.9500130311e-05 0.00134973591841 4.90925406656e-05)
(-2.9665202776e-06 0.00141372038508 0.000106215029569)
(0.000119631755954 0.00142647397444 0.000139224370037)
(-0.000168443132264 0.00117023671495 1.88173254305e-06)
(-0.000194707242685 0.0012618553357 6.10375955141e-05)
(-5.76240970328e-05 0.00124953914368 7.10349106741e-05)
(-0.000250174091439 0.000967557648992 -5.70129914554e-05)
(-0.000324152498028 0.00108287479393 2.80779878154e-07)
(-0.000187138521422 0.00104217854872 -2.00848194094e-05)
(-0.000252384298667 0.000758022297927 -0.000120325195086)
(-0.000371012771146 0.000888498015617 -7.24240229618e-05)
(-0.000254091160741 0.000820558122292 -0.000122903095685)
(-0.000172719758991 0.000561558863678 -0.000172052637815)
(-0.000323365247096 0.000696537321733 -0.000145179526184)
(-0.000252020093825 0.000606039599814 -0.000225866860231)
(-3.53227394925e-05 0.000395487384676 -0.000172209791689)
(-0.000197646332171 0.000524368048604 -0.000195731229553)
(-0.000190583931898 0.000419684174504 -0.00029786566758)
(7.618834741e-05 0.000262679721743 -6.53614838421e-05)
(3.70169716203e-05 0.000384794340392 -0.000164138745179)
(-2.80090685393e-05 0.000276244027232 -0.000277737477554)
(9.09899566874e-05 0.000266773701117 8.10475465808e-07)
(2.75455846067e-05 0.000170126519021 -8.00728918566e-05)
(0.000175885410595 0.000594534941934 -0.000204941301316)
(3.25562426413e-05 0.000586858120747 -0.000115769087068)
(0.000119265925272 0.000518668657752 -0.000320990519696)
(0.00059157519211 0.000722640900052 -0.000319415886049)
(0.000361267579879 0.000695706364743 -0.000309809522567)
(0.00046276759374 0.000620285258945 -0.000553623892178)
(0.00101533738697 0.00087626588819 -0.000286921525756)
(0.000900884506628 0.000820309700626 -0.00032555529313)
(0.000920976541965 0.000750993670668 -0.000539855452247)
(0.00132256256683 0.00105076200658 -0.000181785150641)
(0.00128379792654 0.000965017990705 -0.000224964741974)
(0.00123422066449 0.000914608709859 -0.000386687825638)
(0.0014731768245 0.00122526221039 -6.34609350833e-05)
(0.00151481696808 0.00112381449741 -9.81139426075e-05)
(0.00142257201738 0.00109536262528 -0.00019254106817)
(0.00147270245883 0.00137687091258 4.16222901168e-05)
(0.0015707990937 0.00126791043729 2.34542435981e-05)
(0.00147358963277 0.00127053285277 -1.02160440088e-06)
(0.00134778322522 0.00149196320133 0.000120641671459)
(0.0014805719596 0.0013841700083 0.00012034075681)
(0.00140253159893 0.00142138767845 0.000159368850506)
(0.00113559971482 0.00156294895299 0.000169004256902)
(0.00127916252889 0.00146455167713 0.00018517748659)
(0.00123447014707 0.001533539045 0.000274465827354)
(0.000876631301599 0.00158905015421 0.000190626429176)
(0.00101497108018 0.00150398980126 0.000216001405588)
(0.00100672507662 0.00159698315237 0.000339551055342)
(0.000599144879346 0.00157336273782 0.000193807589004)
(0.000724911786391 0.00150587147163 0.000224803662274)
(0.000750753591145 0.00161095595409 0.000365969388708)
(0.000321467379718 0.00151963523013 0.000183459006949)
(0.00042894321871 0.00147235964629 0.000218878169269)
(0.000484621692051 0.00157610175511 0.000363412094241)
(5.74720036535e-05 0.0014316453297 0.000159189615551)
(0.000141512291161 0.00140812309039 0.000201410235893)
(0.000220740181223 0.00149757700051 0.000335815292667)
(-0.000173653282316 0.00131286092114 0.000118160084417)
(-0.000121923325066 0.00131595855892 0.000167685095518)
(-2.68442306777e-05 0.00138022600194 0.000278327467181)
(-0.000349091073527 0.00116803517547 5.94366428492e-05)
(-0.000339881123444 0.00120080010114 0.000115790485617)
(-0.000237408831579 0.00123132500444 0.000188042540381)
(-0.000444468063334 0.00100463002506 -1.51302516282e-05)
(-0.000487303141416 0.00106616832257 4.47227652138e-05)
(-0.000387736893459 0.00105939359682 6.73333290788e-05)
(-0.000441814483145 0.000834435984055 -9.72783540603e-05)
(-0.000539852445178 0.000920441658514 -4.20095320263e-05)
(-0.000458380170394 0.000877485235473 -7.37604532053e-05)
(-0.000338607203206 0.00067245755007 -0.000168858117922)
(-0.000481225717226 0.00077379341458 -0.000130722522452)
(-0.000439320839871 0.000701270094247 -0.000212586336446)
(-0.000158478433237 0.000531582188471 -0.000187660183043)
(-0.000327272104507 0.000640185475979 -0.00019778425193)
(-0.000340766147466 0.000547560173506 -0.000320926044994)
(1.05569889497e-05 0.000410229076942 -9.79667858714e-05)
(-5.1394574976e-05 0.000526582896134 -0.000181967865658)
(-0.000125262236264 0.000425741991944 -0.000330792623397)
(5.60798497268e-05 0.000419299859829 -3.40469740166e-05)
(-6.38368662097e-06 0.000324706437313 -0.00015426944251)
(0.000232251359108 0.000706464727243 -0.000220637308319)
(5.9772403159e-05 0.000701144508205 -0.000136802021421)
(0.00014752841602 0.00064369211334 -0.00036020599561)
(0.000696458922872 0.000808371244133 -0.000315948929649)
(0.000431114983555 0.000783840252742 -0.000311351874282)
(0.000543999897682 0.000728560190698 -0.000570141475336)
(0.00114955262743 0.00092240139826 -0.000263598509349)
(0.00100353680643 0.000870301334052 -0.000311521952434)
(0.00104534152616 0.000825872895254 -0.000526557903928)
(0.00147427830854 0.00104597815801 -0.00014129353394)
(0.00140251365584 0.000969860956498 -0.000196942918714)
(0.00138360030981 0.000942932739929 -0.000360232661611)
(0.00161337653462 0.00116519733985 -1.11987639261e-05)
(0.0016316815252 0.00106421661297 -5.79024799746e-05)
(0.00157742230199 0.00107004064253 -0.00011794763812)
(0.00158790065525 0.00126606690688 0.000102172710291)
(0.00167107732835 0.00115027738278 7.10858470096e-05)
(0.00161535779013 0.00119249989048 9.75446672781e-05)
(0.00142856167632 0.00134012436671 0.000184876571941)
(0.00155467188353 0.00121726640011 0.000171273457725)
(0.00151716597497 0.001297263724 0.000275352419911)
(0.00117709752022 0.00138267351673 0.000232174635276)
(0.00132217211664 0.00126121943707 0.000235920018382)
(0.00131150439091 0.00137538103019 0.00040095693695)
(0.000879810382472 0.00139374896659 0.000250178638686)
(0.00102669813961 0.0012782298893 0.00026221479011)
(0.00104079623256 0.00141785144717 0.000468445598485)
(0.000566802760739 0.00137637132159 0.00024987424254)
(0.000708191831075 0.00127234416105 0.000267115477401)
(0.000741201181487 0.00142401358009 0.000492513449439)
(0.00025721282742 0.00133381472844 0.000236829398213)
(0.000386908660442 0.00124472950774 0.000258341371807)
(0.00043375476178 0.00139331126079 0.000484087895774)
(-3.51771499311e-05 0.0012695034337 0.000209905715861)
(7.74658527883e-05 0.0012000260496 0.000239109524158)
(0.000133485488266 0.00133096332277 0.000447927003952)
(-0.000290351225069 0.00118663865485 0.000165315496718)
(-0.000204816601165 0.00114033278701 0.000203377473653)
(-0.00014425365777 0.00124221370171 0.000378651695334)
(-0.000484160864935 0.00108812368919 0.000101076607981)
(-0.000438585789074 0.00106984349623 0.000149779698736)
(-0.000377698224715 0.00113459354879 0.00027372418784)
(-0.000589582430702 0.000977729259911 1.78434848158e-05)
(-0.000597534336857 0.000989372381586 7.48827341313e-05)
(-0.00054154631765 0.00101356278189 0.000134000626494)
(-0.00058507429316 0.000861782146763 -7.5453700418e-05)
(-0.000654647752067 0.000902724438418 -1.8550479087e-05)
(-0.000613681616248 0.000887407022331 -2.99270483027e-05)
(-0.000465290723264 0.00074875418643 -0.00015964865646)
(-0.000590462927399 0.000813739972328 -0.00011596200502)
(-0.000581274095785 0.000764872909514 -0.000195924052898)
(-0.000256357604401 0.000646259855794 -0.000192091934544)
(-0.000419762504463 0.000729090694027 -0.000192360767205)
(-0.000454776282161 0.000656917170342 -0.000326767091267)
(-4.60103072469e-05 0.000547718124847 -0.000118048053803)
(-0.000121592495552 0.000651710745551 -0.000187582720311)
(-0.000201307888803 0.00056765138576 -0.00035929897546)
(2.45327987208e-05 0.000560281111876 -5.07845103049e-05)
(-3.41465574234e-05 0.000483926927643 -0.000201652251202)
(0.000270393088899 0.000788746896128 -0.000227516587385)
(7.66609019038e-05 0.000793168976032 -0.000147222595188)
(0.00016615052105 0.000748460236258 -0.000377600520835)
(0.000766127942511 0.000852964960846 -0.000306924897067)
(0.000470917004371 0.000838364096301 -0.000304908923173)
(0.000595794004632 0.000806064424455 -0.00056996346395)
(0.00123939944247 0.000918741308846 -0.0002448663618)
(0.0010601760375 0.000877545681265 -0.000294913970924)
(0.00112357389076 0.000862334301073 -0.000506450545)
(0.00156167399105 0.000984554722398 -0.000113551864748)
(0.0014641123274 0.000917326633652 -0.000175281111711)
(0.00147645259738 0.00092613834738 -0.000303396010023)
(0.00169515126894 0.00104307232577 2.43821309611e-05)
(0.00168795625989 0.000952112540921 -2.95646369969e-05)
(0.00167241898848 0.000992600466805 -6.30597234532e-05)
(0.00165305352301 0.00108960554445 0.000140186594443)
(0.0017168651465 0.000978988367845 0.000101261786447)
(0.00170197140387 0.0010548811945 0.000164830774031)
(0.00147152091528 0.00112037598479 0.000222316904167)
(0.00158526865011 0.000995357568609 0.000200611242563)
(0.0015868456676 0.00110682301726 0.000350364464378)
(0.0011951778733 0.00113358638527 0.000265960173217)
(0.00133566947727 0.00100177888129 0.000263102316392)
(0.00135727711693 0.00114464905642 0.000480964236914)
(0.000874493045746 0.00113029136938 0.000279151628825)
(0.00102392107641 0.000996933047984 0.000284451425173)
(0.00105843439726 0.00116219817015 0.000547662769449)
(0.00054061841896 0.00111332051877 0.000275582606669)
(0.000691813240874 0.000984544700885 0.000285830362002)
(0.000729741732549 0.0011597190283 0.000568849955717)
(0.000212926550908 0.00108515929402 0.000260621497752)
(0.000359273346131 0.000966067341072 0.00027469461581)
(0.000394985354265 0.00113652574672 0.000554699662553)
(-9.42899793989e-05 0.00104857467456 0.00023258128195)
(4.12110801695e-05 0.000944733478514 0.000253917612685)
(7.24231304231e-05 0.00109704189081 0.000511023120532)
(-0.000361079082193 0.00100607690146 0.00018784167567)
(-0.000247254824494 0.000921824714562 0.000217137570416)
(-0.000221491863223 0.00104556066523 0.000433326435048)
(-0.000564085753953 0.000958842725415 0.000123585824886)
(-0.000485863094935 0.000899499254683 0.000164700119077)
(-0.000465669122779 0.000987962040812 0.000321422062194)
(-0.000675423963275 0.000907078979067 3.84887702285e-05)
(-0.000649252243231 0.000876650132004 9.09120682364e-05)
(-0.000635557467639 0.000926610375142 0.000174033403093)
(-0.000671230127306 0.000851578441811 -5.90587836891e-05)
(-0.00070945546251 0.000852366532882 -2.76418164304e-06)