/*--------------------------------*- C++ -*----------------------------------*\
| =========                 |                                                 |
| \\      /  F ield         | OpenFOAM: The Open Source CFD Toolbox           |
|  \\    /   O peration     | Version:  3.0.1                                 |
|   \\  /    A nd           | Web:      www.OpenFOAM.org                      |
|    \\/     M anipulation  |                                                 |
\*---------------------------------------------------------------------------*/
FoamFile
{
    version     2.0;
    format      ascii;
    class       volVectorField;
    location    "8.2";
    object      ddt0(U);
}
// * * * * * * * * * * * * * * * * * * * * * * * * * * * * * * * * * * * * * //

dimensions      [0 1 -2 0 0 0 0];

internalField   nonuniform List<vector> 
7968
(
(-5.20575479136e-05 -2.88578477083e-05 8.32512988322e-05)
(-0.000116202244808 -2.43824902463e-05 6.34115757463e-05)
(-0.000166949556643 -2.07689026165e-05 4.89954303599e-05)
(-0.000213407677977 -1.9641924511e-05 4.10735963695e-05)
(-0.000250811699549 -2.10612094121e-05 3.35019940144e-05)
(-0.000276309725585 -1.69811152664e-05 2.75817781357e-05)
(-0.000288782498626 -1.53437015655e-05 1.93659615423e-05)
(-0.000286376720759 -1.28246136134e-05 1.00204460761e-05)
(-0.000274949518086 -1.01662649258e-05 4.1453190662e-06)
(-0.000253887384756 -7.94397217987e-06 -6.70028379027e-07)
(-0.000227018928097 -6.44355783465e-06 -4.59515174928e-06)
(-0.000195337525912 -5.39499361572e-06 -7.31101722143e-06)
(-0.000161493685293 -5.34806305677e-06 -8.52637020323e-06)
(-0.000131530545152 -6.19662790567e-06 -7.92262777026e-06)
(-0.000104459465789 -6.62922969966e-06 -5.88629551928e-06)
(-8.35461185297e-05 -8.26034838474e-06 -3.36830529146e-06)
(-6.48351562903e-05 -1.03397148324e-05 -1.24450401141e-06)
(-4.81639008707e-05 -1.2142783498e-05 8.17499865645e-07)
(-3.32152049082e-05 -1.56065991084e-05 6.24031067577e-06)
(-7.07625241515e-06 -2.07832915592e-05 1.83282299235e-05)
(-4.59237836517e-05 -6.11277410014e-05 6.62897987445e-05)
(-9.31098904499e-05 -4.80434997514e-05 3.29174288889e-05)
(-0.000155652867267 -3.94350531984e-05 3.5303646387e-05)
(-0.000222856751588 -3.86284557657e-05 4.17424509092e-05)
(-0.000278376814127 -4.22020013596e-05 4.35329134315e-05)
(-0.000313780705902 -4.41061168347e-05 3.87225553787e-05)
(-0.000329029444998 -4.4403839251e-05 2.9582287375e-05)
(-0.000320420211157 -4.26896120943e-05 1.82369137949e-05)
(-0.000293367297202 -3.67913865148e-05 7.43956164335e-06)
(-0.00025368451128 -3.02795421456e-05 -9.2493517728e-07)
(-0.00020797451477 -2.39785440499e-05 -6.64241334617e-06)
(-0.000160339335651 -1.73377300644e-05 -9.31681529055e-06)
(-0.000116196706434 -1.18451581487e-05 -9.55713110603e-06)
(-8.27640555166e-05 -6.64084731431e-06 -8.11702677341e-06)
(-6.04111245986e-05 -7.51126056935e-07 -6.59634778491e-06)
(-5.17330371943e-05 4.4529129955e-06 -6.69071887481e-06)
(-5.0078493178e-05 6.04422453482e-06 -9.6989047528e-06)
(-4.85833820417e-05 2.70625585911e-06 -1.56625219082e-05)
(-4.2711531145e-05 -8.71122950677e-06 -2.05042478832e-05)
(-9.28973335315e-06 -2.96219656189e-05 -2.46356291809e-06)
(-4.71024194454e-05 -0.00010076438134 5.54735861081e-05)
(-8.66520730274e-05 -9.82231914949e-05 4.11235248828e-05)
(-0.000159863614616 -0.000106864117413 6.38060664397e-05)
(-0.000241623808486 -0.000121208688242 7.82351831949e-05)
(-0.000307130044682 -0.000135058007869 7.87738738507e-05)
(-0.000346482641027 -0.000144366414777 6.8794755626e-05)
(-0.000357354273456 -0.000145655249621 5.37218150694e-05)
(-0.000340443053232 -0.000139876864001 3.71152062474e-05)
(-0.000301796349079 -0.000128797549826 2.27322802295e-05)
(-0.000249175563539 -0.000114833360468 1.22323442787e-05)
(-0.000191283585133 -0.000100759894322 6.34703861993e-06)
(-0.000133255622786 -8.64591889219e-05 5.07321820175e-06)
(-8.22507131493e-05 -7.34341933463e-05 7.55966073875e-06)
(-4.54095385314e-05 -6.03666886136e-05 1.24754343003e-05)
(-2.41385324366e-05 -4.62063213964e-05 1.75330153688e-05)
(-2.07471130541e-05 -3.13239925361e-05 2.00226771076e-05)
(-2.8950624292e-05 -1.85813316572e-05 1.63754340357e-05)
(-4.03254775195e-05 -1.09057835439e-05 3.96054569791e-06)
(-4.75704986065e-05 -1.24485032943e-05 -1.72464037908e-05)
(-1.24350637559e-05 -2.88571848477e-05 -1.3655022499e-05)
(-4.39543964601e-05 -0.000139290860806 5.27177213704e-05)
(-8.46490284897e-05 -0.000149943069545 4.94630451001e-05)
(-0.000174417883393 -0.000176053825361 8.04583551412e-05)
(-0.000264934917739 -0.000201521404966 9.11189382122e-05)
(-0.000333901782155 -0.000222752270514 8.20278205657e-05)
(-0.000371339111878 -0.000234872652354 6.34365917429e-05)
(-0.000374890840825 -0.000235741017027 4.27571849708e-05)
(-0.000348575235399 -0.00022636990773 2.30764945186e-05)
(-0.000299847065286 -0.000209029150249 9.10942849149e-06)
(-0.000237714637481 -0.00018833321253 -4.27011050374e-07)
(-0.000171421750909 -0.000167578545045 -4.52591361773e-06)
(-0.000107322320074 -0.000147678653907 -3.32869946421e-06)
(-5.21664744982e-05 -0.000129289582845 2.11973258723e-06)
(-1.28803608127e-05 -0.000110817241802 1.13406216537e-05)
(8.13218119577e-06 -9.10172849736e-05 2.1544632937e-05)
(7.9050278437e-06 -6.96521301404e-05 2.99822907085e-05)
(-7.40677662513e-06 -4.97702825754e-05 3.15325935199e-05)
(-2.94318490346e-05 -3.32890719407e-05 2.00491327347e-05)
(-4.96373459766e-05 -2.39874731271e-05 -8.9741049556e-06)
(-1.51595206792e-05 -2.90474881387e-05 -1.8403433983e-05)
(-4.02945170698e-05 -0.00016724588374 5.01036585161e-05)
(-8.69507287014e-05 -0.000200148576641 5.19248761624e-05)
(-0.000190647889444 -0.000235907030069 8.23613494953e-05)
(-0.000286234912878 -0.000266068768281 8.33611801948e-05)
(-0.00035522710002 -0.000288828704479 6.42106807581e-05)
(-0.000386425513096 -0.000298902244108 3.79254475765e-05)
(-0.000380675925796 -0.000295255857467 1.40405523687e-05)
(-0.000343710042248 -0.000280160435821 -5.84350988832e-06)
(-0.000286409769917 -0.000256157947269 -1.90006239133e-05)
(-0.000218721325874 -0.000229484744394 -2.58370465876e-05)
(-0.000148698721536 -0.000204086224153 -2.70148966744e-05)
(-8.22385817194e-05 -0.000181353776127 -2.30815529157e-05)
(-2.53610593404e-05 -0.000161196181693 -1.43670912224e-05)
(1.50847858846e-05 -0.000141608199624 -1.63797010488e-06)
(3.59318114939e-05 -0.000121035624998 1.2967243228e-05)
(3.35087248412e-05 -9.83817830988e-05 2.6986052928e-05)
(1.22625338468e-05 -7.53604322336e-05 3.45471508724e-05)
(-1.80742113083e-05 -5.41895791621e-05 2.78411695456e-05)
(-5.02867401141e-05 -3.60201630433e-05 -3.26308766043e-06)
(-1.83462759687e-05 -2.85574393824e-05 -2.10217239337e-05)
(-3.74078647049e-05 -0.000186671167178 4.62317815741e-05)
(-9.15731333561e-05 -0.000235769715698 4.87766504706e-05)
(-0.000202924313859 -0.000274487487441 7.32953903266e-05)
(-0.000301302095138 -0.00030362876973 6.51619569189e-05)
(-0.000367170175144 -0.000321780432948 3.77880015829e-05)
(-0.000389617249849 -0.000324847010887 7.48107345372e-06)
(-0.000373654272817 -0.000313948361825 -1.78221575576e-05)
(-0.000327195001157 -0.000292034275932 -3.5839195294e-05)
(-0.000263776208054 -0.000262596446071 -4.50712951793e-05)
(-0.000194010116304 -0.000231910933698 -4.76974643374e-05)
(-0.000124521588377 -0.000204395552384 -4.57881486986e-05)
(-5.96697536686e-05 -0.00018159860914 -4.01090521835e-05)
(-4.09241760326e-06 -0.000163040789826 -3.01629918255e-05)
(3.57720647552e-05 -0.00014633024084 -1.59711011555e-05)
(5.60317374891e-05 -0.000129201627217 1.15696580072e-06)
(5.20604590049e-05 -0.00010929501465 1.93200366274e-05)
(2.70667306397e-05 -8.85678589217e-05 3.10511881148e-05)
(-9.44335952707e-06 -6.66184792921e-05 2.88657956917e-05)
(-5.18084811809e-05 -4.48106338171e-05 -9.26593626334e-07)
(-2.38191688156e-05 -2.78317485594e-05 -2.15556306548e-05)
(-3.62431680107e-05 -0.000195493539782 4.11235515849e-05)
(-9.50185902849e-05 -0.000249208982634 4.13229094644e-05)
(-0.000208531625065 -0.000285276593562 5.89897861775e-05)
(-0.000306731150161 -0.000308564287548 4.42920552028e-05)
(-0.000366944140485 -0.00031920774199 1.30555696051e-05)
(-0.000380381004015 -0.00031440879369 -1.86732409889e-05)
(-0.000355729006091 -0.000297437223418 -4.264905477e-05)
(-0.000301992287256 -0.000270392186667 -5.67920290327e-05)
(-0.000235524500628 -0.000237224164232 -6.09659918259e-05)
(-0.000166912302218 -0.000204396017283 -5.93981932978e-05)
(-0.000101145316785 -0.000176839235124 -5.51657742765e-05)
(-4.07689392952e-05 -0.000155993167549 -4.91519023346e-05)
(1.13041391288e-05 -0.000140727770338 -3.98775737647e-05)
(4.92075217307e-05 -0.000128489354809 -2.63440983006e-05)
(6.83702027739e-05 -0.000116512183215 -9.32823233817e-06)
(6.33114530378e-05 -0.000102011533877 1.07269613461e-05)
(3.51958808546e-05 -8.61835053577e-05 2.48923284884e-05)
(-5.53522471416e-06 -6.75665732872e-05 2.56922811829e-05)
(-5.33512377789e-05 -4.75516285736e-05 -1.19157766868e-06)
(-2.70178603802e-05 -2.61541082926e-05 -2.2915404081e-05)
(-3.54039645589e-05 -0.000192422336139 3.63948374307e-05)
(-9.56081013581e-05 -0.000242069298238 3.10432858645e-05)
(-0.000208064331367 -0.0002706056351 4.30356859175e-05)
(-0.000303522443238 -0.00028527453612 2.40006382537e-05)
(-0.000357609499611 -0.00028740482906 -8.71126500141e-06)
(-0.000362759113167 -0.000275767799414 -3.89813990138e-05)
(-0.0003304634609 -0.000254426818648 -5.97646677255e-05)
(-0.000271071965924 -0.000224787841366 -6.85782349059e-05)
(-0.000203465580413 -0.000191320970618 -6.56140452963e-05)
(-0.000138214859828 -0.000161161346563 -5.58952120695e-05)
(-7.85066186995e-05 -0.000134878427706 -5.05556845087e-05)
(-2.5527823823e-05 -0.000115096533418 -4.84249895336e-05)
(2.15328385769e-05 -0.000103200714772 -4.17917589768e-05)
(5.63125219703e-05 -9.5288061581e-05 -3.07855484136e-05)
(7.37265094642e-05 -8.83368167118e-05 -1.57875106662e-05)
(6.78136107561e-05 -7.97440756132e-05 3.83448836784e-06)
(3.78715601702e-05 -6.94562850228e-05 1.8273805494e-05)
(-5.1084347035e-06 -5.63552007563e-05 2.12092196341e-05)
(-5.42491479533e-05 -4.04729134364e-05 -3.13933268022e-06)
(-3.00357306117e-05 -2.03905001403e-05 -2.59084692239e-05)
(-3.61478742461e-05 -0.000181462497907 3.00833810168e-05)
(-9.54688945773e-05 -0.000217004997471 2.10837560281e-05)
(-0.000203202871992 -0.000234192797283 2.8992073397e-05)
(-0.000294339368219 -0.000239611204734 9.21612099873e-06)
(-0.000342217314921 -0.000234282467265 -2.43686487034e-05)
(-0.000340682233033 -0.000218631718982 -5.19455722877e-05)
(-0.000302430459405 -0.000196557930532 -6.88041814972e-05)
(-0.000239780329103 -0.000168695586586 -7.09942393127e-05)
(-0.000172642504499 -0.000138937155058 -5.83469728442e-05)
(-0.000111968662087 -0.000110012239594 -5.20719001212e-05)
(-6.08122911441e-05 -8.74962950333e-05 -4.48609050294e-05)
(-1.42151911582e-05 -7.20473153069e-05 -4.00504348243e-05)
(2.77561828587e-05 -6.2930977433e-05 -3.71027637065e-05)
(5.89569848942e-05 -5.72188517317e-05 -2.9658159122e-05)
(7.43578458576e-05 -5.31184850141e-05 -1.76695279303e-05)
(6.78194932932e-05 -4.88515306727e-05 4.25847470631e-07)
(3.68739669363e-05 -4.3487308643e-05 1.47233627568e-05)
(-7.33424586631e-06 -3.60488458817e-05 1.84256055667e-05)
(-5.57636174487e-05 -2.72856961857e-05 -4.2730168682e-06)
(-3.26070455107e-05 -1.55474934909e-05 -2.8127051514e-05)
(-3.58760177533e-05 -0.000164683064395 2.70727370629e-05)
(-9.32981861015e-05 -0.000179465408288 1.35445597041e-05)
(-0.000196239830502 -0.000183093435086 1.88441359852e-05)
(-0.000282374930319 -0.000179379858519 -5.75296374443e-07)
(-0.000325100617292 -0.000168545278832 -3.37260935362e-05)
(-0.000319175609718 -0.000152043888086 -5.85147731351e-05)
(-0.000277363538143 -0.000132604841256 -7.23083243628e-05)
(-0.000214678921952 -0.000110449307031 -6.73685820478e-05)
(-0.000146882590878 -8.70951378718e-05 -5.73244713569e-05)
(-9.13114406674e-05 -6.63965266694e-05 -4.54217945184e-05)
(-4.54298359473e-05 -4.88682702631e-05 -3.6900718898e-05)
(-5.05830361686e-06 -3.55780027445e-05 -3.38476322915e-05)
(3.28035667112e-05 -2.64656752043e-05 -3.13239497642e-05)
(6.08568138341e-05 -2.06725046504e-05 -2.63520808303e-05)
(7.40105400018e-05 -1.71470695325e-05 -1.64677413381e-05)
(6.64908019641e-05 -1.54074039746e-05 1.43200590924e-07)
(3.50935868534e-05 -1.37358205883e-05 1.338703668e-05)
(-9.98091681205e-06 -1.17949208766e-05 1.54054719347e-05)
(-5.74536837723e-05 -1.08034474572e-05 -3.91484816224e-06)
(-3.39364925136e-05 -1.07263691186e-05 -2.93967274888e-05)
(-3.57505665291e-05 -0.000140772837973 2.42778209659e-05)
(-9.04188330086e-05 -0.000134126759231 7.86205048298e-06)
(-0.000188453533829 -0.000124340857782 1.29544355362e-05)
(-0.000270243771225 -0.000111772896919 -5.13011926218e-06)
(-0.00030964369296 -9.7005287282e-05 -3.69747901564e-05)
(-0.000301871816021 -8.16342242425e-05 -6.00685755544e-05)
(-0.000259327933587 -6.6632985231e-05 -7.25675086941e-05)
(-0.00019677091279 -5.16760772417e-05 -6.65553927287e-05)
(-0.000130354474951 -3.88575535066e-05 -5.52175838515e-05)
(-7.68399213322e-05 -2.62257664596e-05 -4.25876863186e-05)
(-3.37000091473e-05 -1.42385946701e-05 -3.36812483163e-05)
(3.75009113296e-06 -3.76993982674e-06 -3.04665102653e-05)
(3.83392188675e-05 5.85860187124e-06 -2.86557043856e-05)
(6.4187568389e-05 1.27052435318e-05 -2.29018514146e-05)
(7.49931525842e-05 1.65201014645e-05 -1.32647620561e-05)
(6.5949626e-05 1.6439477774e-05 2.67237583873e-06)
(3.38370957553e-05 1.47792802647e-05 1.51938913794e-05)
(-1.1270756117e-05 1.09799672121e-05 1.64067597537e-05)
(-5.8167012608e-05 4.92736244212e-06 -2.71675778166e-06)
(-3.47385241383e-05 -6.88538223162e-06 -2.98382990664e-05)
(-3.57791918582e-05 -0.000113491315726 2.34946475479e-05)
(-8.71600508954e-05 -8.69104052134e-05 6.26506982593e-06)
(-0.000180370346822 -6.48616558877e-05 1.22978299121e-05)
(-0.00025882257447 -4.47449635771e-05 -4.53053207919e-06)
(-0.000296880043373 -2.64541007806e-05 -3.42441897667e-05)
(-0.000289702102491 -1.2302108944e-05 -5.68661872045e-05)
(-0.000249240539857 -1.66677005847e-06 -6.98612787215e-05)
(-0.000187231368034 5.54228643708e-06 -6.84782314537e-05)
(-0.000123722216497 1.1034331459e-05 -5.25279277587e-05)
(-6.91549194099e-05 1.40172894012e-05 -4.41938026019e-05)
(-2.62122865039e-05 1.98450215933e-05 -3.60239301631e-05)
(1.14862841043e-05 2.78075439563e-05 -3.08925456901e-05)
(4.57888383084e-05 3.6802458393e-05 -2.6456607337e-05)
(6.85637925977e-05 4.30535862215e-05 -1.95496442571e-05)
(7.70156833441e-05 4.61321482003e-05 -8.73714302839e-06)
(6.5731497824e-05 4.38206647084e-05 7.3046629358e-06)
(3.27851093588e-05 3.87505779928e-05 1.97559814647e-05)
(-1.16819267305e-05 2.97313928197e-05 2.10657089949e-05)
(-5.80520950007e-05 1.7502888344e-05 -2.8389775603e-07)
(-3.47280031627e-05 -4.37173312792e-06 -2.91926971454e-05)
(-3.5267811171e-05 -8.54405108981e-05 2.41000967378e-05)
(-8.28407560783e-05 -4.45212649538e-05 7.35804043573e-06)
(-0.00017156151103 -1.27454944836e-05 1.58795846565e-05)
(-0.000246638757952 1.38842296719e-05 6.45548701785e-07)
(-0.000284932144558 3.60810103518e-05 -2.56441576724e-05)
(-0.000280777554468 5.03150435486e-05 -4.80437725228e-05)
(-0.000244777949123 5.82473288851e-05 -6.2428198943e-05)
(-0.000186463235662 6.02018551487e-05 -6.51179739928e-05)
(-0.000124612273757 5.81023177778e-05 -5.72084590054e-05)
(-6.89731255527e-05 5.83555591086e-05 -4.25971879692e-05)
(-2.2019299504e-05 5.787227415e-05 -3.55304726364e-05)
(1.72273408442e-05 6.06881871045e-05 -3.1320807902e-05)
(5.03319380289e-05 6.55850825944e-05 -2.45148310687e-05)
(7.17617862184e-05 6.92915165446e-05 -1.47714319143e-05)
(7.81253738687e-05 6.95407863543e-05 -2.02971560548e-06)
(6.48003948932e-05 6.38851748586e-05 1.40263784002e-05)
(3.14137568537e-05 5.51473541361e-05 2.56354174189e-05)
(-1.12991316129e-05 4.18588676817e-05 2.65328412785e-05)
(-5.709546644e-05 2.4759887575e-05 1.93802055568e-06)
(-3.40528424709e-05 -3.46356482629e-06 -2.79126353681e-05)
(-3.54199019411e-05 -5.85751442897e-05 2.52109311614e-05)
(-7.75479050297e-05 -1.18199063622e-05 1.01086111827e-05)
(-0.000160214720071 2.5794019919e-05 2.2501613972e-05)
(-0.000231662528394 5.76213924578e-05 1.19942678912e-05)
(-0.000271029000487 8.36413073523e-05 -1.12600786262e-05)
(-0.000271784459336 9.95004105304e-05 -3.31016431328e-05)
(-0.000242067536633 0.000106797634752 -4.8668126612e-05)
(-0.000189527413027 0.000106311609677 -5.49594263402e-05)
(-0.000130609381677 0.000100112418643 -5.21438803481e-05)
(-7.43812748508e-05 9.31237095619e-05 -4.50471112221e-05)
(-2.48468380753e-05 8.89007844669e-05 -3.70910566985e-05)
(1.71064499023e-05 8.81233357654e-05 -2.87153464782e-05)
(5.03536141627e-05 8.83783349804e-05 -1.92763849745e-05)
(7.06879748906e-05 8.74486099601e-05 -7.31996193937e-06)
(7.52997428378e-05 8.30240535476e-05 6.58259727722e-06)
(6.06992733557e-05 7.30177777202e-05 2.16978623064e-05)
(2.80314533626e-05 6.00962670685e-05 3.13928395555e-05)
(-1.215271192e-05 4.3725445147e-05 3.03919200252e-05)
(-5.62762467453e-05 2.39860829386e-05 3.95676303843e-06)
(-3.2255469373e-05 -5.09486959343e-06 -2.57733989065e-05)
(-3.54702867752e-05 -3.75052463085e-05 2.71603566119e-05)
(-7.06762779379e-05 7.25331281604e-06 1.217574179e-05)
(-0.000145499520078 4.64779590684e-05 2.93167020369e-05)
(-0.000212207610542 8.1073231822e-05 2.51498188703e-05)
(-0.00025324895257 0.000110081834854 6.37449044098e-06)
(-0.000259645861426 0.000128026803225 -1.31941818251e-05)
(-0.000237364003441 0.000135805983745 -2.87381887534e-05)
(-0.000192000230899 0.000134775032823 -3.77358046447e-05)
(-0.000137265659719 0.000126948975837 -3.89464388841e-05)
(-8.21303618552e-05 0.000117374800504 -3.51575181953e-05)
(-3.17584751488e-05 0.000109269534494 -2.85809629836e-05)
(1.12275121107e-05 0.00010355915284 -1.97966347348e-05)
(4.42867484471e-05 9.87710240637e-05 -9.46851430067e-06)
(6.33811436962e-05 9.27919260725e-05 3.11088330742e-06)
(6.65804156304e-05 8.35434309822e-05 1.63979287134e-05)
(5.13955063293e-05 6.95856917259e-05 2.89183932966e-05)
(2.11766628533e-05 5.3791218958e-05 3.66645050224e-05)
(-1.50484178577e-05 3.59803660801e-05 3.27090775902e-05)
(-5.53458619858e-05 1.68689950702e-05 4.5514011738e-06)
(-2.99654136262e-05 -3.73701479353e-06 -2.23543822925e-05)
(-3.65374149513e-05 -2.21931527602e-05 2.85126581342e-05)
(-6.30529718623e-05 1.20856043792e-05 1.1791041526e-05)
(-0.000127520734277 4.77942755425e-05 3.31479212229e-05)
(-0.000188208738911 8.12312430188e-05 3.67830083799e-05)
(-0.000229427228724 0.000110358518741 2.53841573262e-05)
(-0.000242001967381 0.000129654835373 9.2600509393e-06)
(-0.000228091141873 0.000138120973665 -4.29248180196e-06)
(-0.000191440523066 0.000137489285361 -1.44241533536e-05)
(-0.000142987233116 0.000129263503655 -1.86854098551e-05)
(-9.11752480616e-05 0.000118291366275 -1.79359600639e-05)
(-4.2222131978e-05 0.000107782539601 -1.33067837587e-05)
(-1.05832728919e-07 9.85587197141e-05 -5.49679654473e-06)
(3.17055619501e-05 8.97788438372e-05 4.15116418018e-06)
(4.93025227682e-05 8.01050806023e-05 1.52570815537e-05)
(5.13806262568e-05 6.75871737268e-05 2.53973653069e-05)
(3.72843195686e-05 5.21836480748e-05 3.49194894166e-05)
(1.04995475182e-05 3.58194929798e-05 3.88314508324e-05)
(-2.0228116933e-05 1.98818751886e-05 3.14963021961e-05)
(-5.08337547896e-05 4.72440720412e-06 2.80569551915e-06)
(-2.34993756894e-05 -5.45534961405e-06 -2.40948653618e-05)
(-3.65549663151e-05 -1.18293868807e-05 2.97662384631e-05)
(-5.68678717663e-05 6.23648590561e-06 8.09200673193e-06)
(-0.000108701408189 3.34724842516e-05 3.04113290086e-05)
(-0.000162036968478 6.14478563437e-05 4.16137672153e-05)
(-0.000201782403346 8.6551384916e-05 3.8700035958e-05)
(-0.000218927160893 0.000103712027882 2.87796951638e-05)
(-0.000213241428993 0.000111433810261 1.7381288844e-05)
(-0.000185966924472 0.000110691385871 7.54608445813e-06)
(-0.000145336757172 0.000102784649343 1.58428942696e-06)
(-9.91504779803e-05 9.18921356608e-05 -2.25366296883e-07)
(-5.41540307403e-05 8.08935025154e-05 1.92806316474e-06)
(-1.49558308966e-05 7.06382097684e-05 7.47253647691e-06)
(1.45496130317e-05 6.04589121196e-05 1.4440798037e-05)
(3.07760732279e-05 5.01877704691e-05 2.34921595992e-05)
(3.27128152085e-05 3.82175329942e-05 3.06736742682e-05)
(2.01587904481e-05 2.416871889e-05 3.56621140617e-05)
(-1.45535423604e-06 1.10661712962e-05 3.52895731313e-05)
(-2.51955305618e-05 1.79012523079e-08 2.47210694051e-05)
(-4.63433834735e-05 -7.15076195589e-06 -1.83343597494e-06)
(-1.88847651872e-05 -6.88136526171e-06 -2.24144882216e-05)
(-3.58083227263e-05 -5.37320973186e-06 3.09537735367e-05)
(-5.47815455856e-05 -2.68826818115e-06 1.17214631216e-06)
(-9.33031014772e-05 1.21525415624e-05 1.79388277637e-05)
(-0.000137400751679 2.99683911434e-05 3.24105872725e-05)
(-0.000173366436664 4.69526737646e-05 3.67926420192e-05)
(-0.000191963391704 5.88388755453e-05 3.34526903352e-05)
(-0.000192817278121 6.30806522994e-05 2.6084824297e-05)
(-0.000174241236849 6.14269056162e-05 1.7314832875e-05)
(-0.000142771468721 5.43464854142e-05 1.07160367696e-05)
(-0.000104760809909 4.49408676237e-05 7.42113661002e-06)
(-6.63858436028e-05 3.56621876394e-05 7.59113870831e-06)
(-3.23932551114e-05 2.71517828807e-05 1.06316858516e-05)
(-6.48592403728e-06 1.88082341819e-05 1.50929175472e-05)
(8.05251114814e-06 1.11195236545e-05 2.04571924893e-05)
(1.07270117162e-05 2.75487142514e-06 2.44209781066e-05)
(1.73597691746e-06 -6.21708134405e-06 2.55581168884e-05)
(-1.3638891661e-05 -1.38430956023e-05 2.19127645165e-05)
(-2.86821362598e-05 -1.74841694078e-05 1.14645730701e-05)
(-4.01721841459e-05 -1.55249922011e-05 -8.72589356032e-06)
(-1.42616169935e-05 -4.12338187999e-06 -1.84421038755e-05)
(-3.6664651411e-05 -2.12063392532e-06 3.63310173466e-05)
(-6.08061533302e-05 -7.71857974984e-06 -1.73667944371e-06)
(-8.69560557562e-05 -7.45972510743e-06 -1.44300486196e-06)
(-0.000119621137872 -4.11191359652e-06 6.22800394371e-06)
(-0.000147218195304 4.18264966312e-07 1.07410095745e-05)
(-0.000163037107216 2.20050339227e-06 1.0554002652e-05)
(-0.000168678227498 1.72179330204e-06 7.11942738781e-06)
(-0.000157429525464 -6.75141169999e-07 1.23339584968e-06)
(-0.000135900289984 -6.0674513642e-06 -3.48305328417e-06)
(-0.000108383171252 -1.19302188799e-05 -6.47847596726e-06)
(-7.93266801907e-05 -1.78291179367e-05 -7.7708481561e-06)
(-5.29233212517e-05 -2.32906030825e-05 -7.19419750752e-06)
(-3.153277799e-05 -2.83681142396e-05 -5.37724015389e-06)
(-1.83686303591e-05 -3.08654935621e-05 -3.43570925395e-06)
(-1.37564987375e-05 -3.36475179781e-05 -2.00799515475e-06)
(-1.833912734e-05 -3.52244609982e-05 -1.99314386477e-06)
(-2.55612494883e-05 -3.26517641818e-05 -3.73088625801e-06)
(-3.02618105231e-05 -2.72657318937e-05 -8.46344643222e-06)
(-3.17887524489e-05 -1.67570233948e-05 -1.51814552533e-05)
(-9.14438391413e-06 1.0580508098e-06 -1.10605466018e-05)
(-3.83017482753e-05 4.71042254332e-06 4.85571535881e-05)
(-7.77399006335e-05 6.73036966753e-06 2.77541276545e-05)
(-9.95513339735e-05 6.37483089262e-06 1.63938961248e-05)
(-0.000118803579479 6.51709172648e-06 1.15024173188e-05)
(-0.000133369765624 6.49723334733e-06 7.91463611863e-06)
(-0.000140438401258 1.84805246807e-06 5.89371431813e-06)
(-0.000145630667101 -6.30952651959e-07 1.1696247883e-06)
(-0.000139270655519 -4.07182895811e-06 -3.12590129294e-06)
(-0.00012954830876 -8.41846964329e-06 -7.43374773107e-06)
(-0.000116407535768 -1.23221776825e-05 -1.18060255622e-05)
(-0.000101369103811 -1.51597197298e-05 -1.53010515887e-05)
(-8.59694020631e-05 -1.72777396362e-05 -1.7915830578e-05)
(-6.97705745624e-05 -1.84654088611e-05 -1.94791444738e-05)
(-5.70693752512e-05 -1.74730045142e-05 -2.10419815244e-05)
(-4.75762981427e-05 -1.64993787742e-05 -2.00369573914e-05)
(-4.02746843348e-05 -1.44678840692e-05 -1.74878964351e-05)
(-3.37614512874e-05 -9.90654838967e-06 -1.52167080915e-05)
(-2.75891904599e-05 -6.22262387753e-06 -1.16679305209e-05)
(-2.10794610483e-05 -1.02272708188e-06 -6.41759637829e-06)
(-4.21693617142e-06 6.13588474003e-06 2.8461660715e-06)
(-3.4528378517e-05 -1.0134659769e-05 0.0001716988353)
(-9.85748593812e-05 -3.47361489697e-06 0.000137830085842)
(-0.000172474155664 -2.98055005797e-06 0.000118834614055)
(-0.00024752174648 -8.70690647315e-06 0.000106188973097)
(-0.00030625708369 -1.55838828708e-05 8.89398396219e-05)
(-0.000341075159803 -1.91030352853e-05 6.79907663009e-05)
(-0.000351789057858 -1.90957568091e-05 4.31266886066e-05)
(-0.000337974553759 -1.60810758647e-05 1.76275065441e-05)
(-0.000305723359434 -1.20361346841e-05 -4.56447441258e-06)
(-0.000262496808958 -7.92371120135e-06 -2.27102355544e-05)
(-0.000214251634836 -4.52213620096e-06 -3.59461767191e-05)
(-0.000163728385265 -1.56690615214e-06 -4.36133650994e-05)
(-0.000115604496257 5.72300526876e-07 -4.65182694465e-05)
(-7.75570997303e-05 2.98616118523e-06 -4.5192581281e-05)
(-5.15332430985e-05 6.2229650109e-06 -4.05621674992e-05)
(-3.97367386828e-05 1.08069217128e-05 -3.45924664573e-05)
(-3.99700989178e-05 1.53426976171e-05 -3.13111463612e-05)
(-4.67590090351e-05 1.72413379718e-05 -3.00129794459e-05)
(-4.98239465255e-05 9.90632915979e-06 -2.54922338688e-05)
(-2.36523766775e-05 -9.97374604797e-06 -7.94581684066e-06)
(-1.66996270727e-05 -4.27264624104e-05 0.000144638060473)
(-0.000101537270786 -6.26857493631e-05 0.000165510400687)
(-0.000202070632128 -8.25830747363e-05 0.000189346938296)
(-0.000293322487899 -0.000103704797836 0.000194872536312)
(-0.000359909307817 -0.000120499476945 0.000182059032829)
(-0.00039628616737 -0.000130123405836 0.000155566666358)
(-0.000401896721522 -0.000131962321507 0.000121707009271)
(-0.000378485289787 -0.000126893407081 8.60715784472e-05)
(-0.000332237646549 -0.000117246908417 5.47120097329e-05)
(-0.000270983326174 -0.000106773172195 3.033145219e-05)
(-0.000203507788894 -9.65667962388e-05 1.44094133261e-05)
(-0.000135884657847 -8.61340962377e-05 9.00198347177e-06)
(-7.45856647265e-05 -7.67813326177e-05 9.55727160523e-06)
(-2.75291804534e-05 -6.61672202688e-05 1.52553709195e-05)
(2.37819413391e-06 -5.3649310056e-05 2.25543743482e-05)
(1.38458769416e-05 -3.86432237295e-05 2.71289244137e-05)
(9.29866296358e-06 -2.27645612435e-05 2.45936645585e-05)
(-6.23161590191e-06 -9.57139656571e-06 1.16354625812e-05)
(-2.63125986087e-05 -5.35255964247e-06 -1.2672483335e-05)
(-2.20546164889e-05 -1.61129816109e-05 -3.90220702211e-05)
(-1.2998525007e-05 -0.000102916553502 0.000133611298388)
(-0.000115354278135 -0.000147628336229 0.0001992453989)
(-0.000226418617573 -0.000178502640702 0.000234660041849)
(-0.000322152272224 -0.000205280516683 0.00023557278277)
(-0.000389576598432 -0.000226176631197 0.000211105983595)
(-0.000424000992101 -0.00023888266243 0.000173355957848)
(-0.000424999989722 -0.000242300965123 0.000130540260954)
(-0.000395584629389 -0.000237512603635 8.93028487933e-05)
(-0.000342443833903 -0.000225506649393 5.4642335693e-05)
(-0.000273860543888 -0.000210679320662 2.9724198133e-05)
(-0.000198608333426 -0.000194769513865 1.57476617432e-05)
(-0.00012400299596 -0.000178116169288 1.38896317637e-05)
(-5.64735601763e-05 -0.000161442001104 1.95767986204e-05)
(-3.79154249434e-06 -0.000142827616313 3.21906548509e-05)
(3.02716899618e-05 -0.000122137350102 4.71360376969e-05)
(4.42455383632e-05 -9.90646529285e-05 5.90847096563e-05)
(4.00399964008e-05 -7.51192413842e-05 6.1960860776e-05)
(2.14873193367e-05 -5.283018042e-05 4.88256625299e-05)
(-8.33526439434e-06 -3.62445589123e-05 1.14044764309e-05)
(-1.97239599307e-05 -2.55500874264e-05 -4.91973811807e-05)
(-1.76267746553e-05 -0.000167311760335 0.000130703320023)
(-0.000134247206229 -0.000225599140291 0.000211099169593)
(-0.000251563846975 -0.000259641703394 0.000242085140127)
(-0.000349240715134 -0.00028761540805 0.000228068034863)
(-0.000413814555293 -0.000308412800548 0.000189189038444)
(-0.000442759092718 -0.000320343453174 0.000138464983666)
(-0.000437619849613 -0.000322828573876 8.70606151283e-05)
(-0.000401324008649 -0.00031620365176 4.22330084198e-05)
(-0.000342075675868 -0.000302354783639 7.53518435633e-06)
(-0.000269459768333 -0.000284347959367 -1.45350947181e-05)
(-0.000190666553175 -0.000264469467359 -2.42963653734e-05)
(-0.000112698776528 -0.000243620792327 -2.13938354646e-05)
(-4.15439231264e-05 -0.000222395181493 -9.38593979539e-06)
(1.52090325769e-05 -0.000199804370888 1.08939774594e-05)
(5.29690850591e-05 -0.00017531867797 3.55182768682e-05)
(7.00296067371e-05 -0.000148447382142 5.82243994967e-05)
(6.65894772999e-05 -0.000120706067497 7.15763902466e-05)
(4.5389786994e-05 -9.39527656333e-05 6.71655787664e-05)
(8.38026041989e-06 -7.02941120839e-05 2.8603755682e-05)
(-1.4800283407e-05 -4.40868216614e-05 -5.01027070083e-05)
(-2.37381496935e-05 -0.000219275050473 0.000123509647159)
(-0.000151392840331 -0.000283696604403 0.000203584487793)
(-0.00027318104294 -0.000316572668352 0.000223703625684)
(-0.000371422086884 -0.000340663371373 0.000194949434127)
(-0.0004320095821 -0.000357036286757 0.000140301923163)
(-0.000454698504765 -0.000365220544894 7.75489890782e-05)
(-0.000441887437213 -0.000364138930655 2.01340274976e-05)
(-0.000399070584445 -0.000354183426588 -2.57076547295e-05)
(-0.000334853941926 -0.00033798400878 -5.70227165508e-05)
(-0.000258130854993 -0.000317278119501 -7.41915016802e-05)
(-0.000176753141767 -0.000294656082999 -7.85931224335e-05)
(-9.71209301501e-05 -0.000271622456939 -7.07830136717e-05)
(-2.48499130284e-05 -0.00024874410432 -5.32720917935e-05)
(3.34621352496e-05 -0.00022570541556 -2.63098143553e-05)
(7.37486193035e-05 -0.000201212761299 6.75943313722e-06)
(9.28068177368e-05 -0.000175260454919 3.97534751047e-05)
(8.9628483071e-05 -0.000148637907676 6.42175536168e-05)
(6.56118468041e-05 -0.000121622900541 6.87746001607e-05)
(2.23924457775e-05 -9.48397410923e-05 3.51951475026e-05)
(-9.67141755794e-06 -5.88881542112e-05 -5.01861039248e-05)
(-2.79934133799e-05 -0.00025081907082 0.000109436676552)
(-0.000162492978778 -0.000315774347267 0.000182944337707)
(-0.000288017915377 -0.000344841426925 0.000191250124595)
(-0.000386343924054 -0.000362627044866 0.000148887818744)
(-0.00044332806765 -0.000372847412985 8.16466991608e-05)