/*--------------------------------*- C++ -*----------------------------------*\
| =========                 |                                                 |
| \\      /  F ield         | OpenFOAM: The Open Source CFD Toolbox           |
|  \\    /   O peration     | Version:  3.0.1                                 |
|   \\  /    A nd           | Web:      www.OpenFOAM.org                      |
|    \\/     M anipulation  |                                                 |
\*---------------------------------------------------------------------------*/
FoamFile
{
    version     2.0;
    format      ascii;
    class       volScalarField;
    location    "8.2";
    object      epsilon_0;
}
// * * * * * * * * * * * * * * * * * * * * * * * * * * * * * * * * * * * * * //

dimensions      [0 2 -3 0 0 0 0];

internalField   nonuniform List<scalar> 
7968
(
5.59722233913e-05
7.13064839331e-05
8.49480532666e-05
9.41191938349e-05
9.95359918846e-05
0.000102365426863
0.000103373225519
0.000103420847003
0.000103139066608
0.000102665209872
0.000102355266109
0.000102420582819
0.00010242028327
0.000102081113458
0.000100787406436
9.78168613082e-05
9.23863666957e-05
8.36278463611e-05
7.06848134136e-05
5.58240875738e-05
7.1252770894e-05
0.000143528046867
0.000204107836228
0.000247071153776
0.000275188544247
0.00029113772336
0.000298353812278
0.000299773567199
0.000298180739477
0.000295694472039
0.000293562917537
0.000291956564661
0.000289826155806
0.000285378721961
0.000276357300914
0.000260315861164
0.000234327796343
0.000195244945793
0.000139279534429
7.08290498162e-05
8.4753294345e-05
0.000204263512675
0.000305580574566
0.000378591018193
0.000427395817634
0.000456327571834
0.000470272872911
0.000473984509003
0.000471926980471
0.000467526638398
0.000462763997162
0.000457940253538
0.000451807701821
0.000441782884712
0.000424376403239
0.000395688096186
0.000351305706728
0.000286428155326
0.000194957551168
8.4007623623e-05
9.39983457693e-05
0.000247667304359
0.000379294306521
0.000474885426646
0.000539236404519
0.000577614550197
0.000596208321472
0.000601199374994
0.000598500690036
0.000592782454679
0.000584929591783
0.000576061834691
0.000566282150925
0.00055184123011
0.000528278989345
0.000490558592797
0.000433063117554
0.000349792736622
0.00023324315814
9.27924654368e-05
9.97310093194e-05
0.000276562946148
0.000429652755882
0.000541136626377
0.000615902370976
0.000660227261942
0.000683769342569
0.000692512557541
0.00068999673575
0.000681657425699
0.000670971879904
0.000658950801054
0.000644343586544
0.00062361333562
0.000594557765759
0.000551347251112
0.000485705664375
0.000390472451726
0.00025758513914
9.78535778312e-05
0.000102789373466
0.000293829287386
0.000460914871453
0.00058255284901
0.000663590628232
0.000714892116596
0.000742404955465
0.00074963900307
0.000744129609407
0.000732684166902
0.000719602682624
0.000706080281664
0.000690494962137
0.00066851385715
0.000634781396193
0.000585222021925
0.00051523779593
0.000413313815638
0.000270975122507
0.000100341614478
0.00010401614304
0.000302608683234
0.000477752858861
0.000605045628742
0.000690670912755
0.000746917064712
0.000773135794232
0.000777055829474
0.000767886682231
0.000753455448685
0.000738597504041
0.000724599412955
0.000709548758643
0.000688489188417
0.000655006179713
0.00060268147284
0.000528224798953
0.00042337647363
0.000276553388611
0.000101345146153
0.000104079153487
0.000305694705662
0.000484702731468
0.000614486635324
0.000704730011565
0.000760353421663
0.000783701749156
0.000783929341511
0.000771325880354
0.000754467822615
0.000738524414236
0.000724763271776
0.000710980827902
0.00069175004675
0.000660074862585
0.000608645160119
0.000531192344758
0.000425407474569
0.000277372203718
0.000101704506678
0.000103757458051
0.000305763228376
0.000486023473034
0.000616358420788
0.000708430084874
0.000762294071339
0.000782782149934
0.000779948180159
0.000764792278254
0.000746317689622
0.00072989955788
0.000716732140251
0.000704297883122
0.000686885309587
0.000657180316377
0.000607486746953
0.000530763834585
0.000423577015759
0.000275955601485
0.000101530534875
0.000103389962965
0.000304864470354
0.00048495687957
0.000614796404325
0.000706715440113
0.000758891057852
0.000777411707836
0.00077278735213
0.000756307346412
0.000737119725047
0.000720637315095
0.000708041574766
0.000696598510083
0.00068040852647
0.000652088566335
0.000603832820967
0.000528323797551
0.000420944063097
0.00027420349201
0.000101139859966
0.000103256549489
0.000304199455341
0.000483279286869
0.0006119155883
0.000702509064961
0.000753669541356
0.000771530686992
0.000766635312159
0.000750205216288
0.000731238176422
0.000715011106368
0.000702682522635
0.000691542251041
0.00067570262352
0.000647874304249
0.000600321915823
0.000525705058079
0.000419036381961
0.000273149296231
0.000100820130464
0.00010352672251
0.00030382504455
0.00048110776396
0.000607989353003
0.000696239544813
0.000747124500454
0.000765628078084
0.00076190577304
0.000746788021174
0.000728900200889
0.000713265183189
0.000700879762448
0.000689289285577
0.000672915949337
0.000644698550877
0.000597115311279
0.000523018169631
0.00041789884577
0.000272947650306
0.000100827882879
0.000103818841808
0.000302571763411
0.000476888027194
0.000601331273454
0.000685747614333
0.000736621637082
0.000756657185244
0.000755196832862
0.000742332743475
0.000726163309436
0.000711380231118
0.000698888062815
0.000686512421357
0.000669096212917
0.000639987820011
0.000592050865693
0.000518598745076
0.000416033724434
0.000272567777008
0.000100828665639
0.000103671714816
0.000298490147565
0.000467698579046
0.000588333859795
0.000666951599584
0.000717134843561
0.000738889997265
0.000740246527601
0.000730267281802
0.000716314183766
0.000702720000561
0.00069035230809
0.000677265542369
0.000658823755205
0.000628932777917
0.000581116880245
0.00051014925029
0.000410787510936
0.00027011419518
0.000100262583386
0.000102356020418
0.000289099799048
0.000449679506152
0.000564115334984
0.000638068121476
0.000682714267693
0.000705116876636
0.000709125101471
0.00070223139551
0.000690874881267
0.000678921792994
0.00066718591427
0.000653940796984
0.000635138295573
0.000605448133754
0.000559417559039
0.000493999807164
0.000398541561943
0.00026329140776
9.87331360324e-05
9.92488802567e-05
0.00027179538112
0.000418632285598
0.000523258430623
0.000591294730491
0.000629635830899
0.000648476096858
0.000653899850825
0.000649734158174
0.000641138066896
0.000631307814718
0.000620944429473
0.000608599104653
0.000590891338486
0.000563643438502
0.00052417622982
0.000463858959754
0.000375143072504
0.000249379787648
9.60507380187e-05
9.35533019276e-05
0.000243576249122
0.000370020681169
0.000459976192319
0.000518794151873
0.000552240239196
0.000566910411392
0.000569298001789
0.000565788389455
0.000559718016636
0.000552404004478
0.000544339270013
0.000535040053786
0.000522093691851
0.000500896206661
0.000466576283276
0.000413659761104
0.000335974334113
0.000225618912436
9.10742541474e-05
8.44244341392e-05
0.000201459243999
0.000299290652796
0.000368544986456
0.00041368748622
0.000439365042321
0.000450711808479
0.000452659528614
0.000449633681155
0.000444907948125
0.00044024392367
0.000435769841971
0.000430147327
0.00042095687172
0.00040495882199
0.000378404466694
0.000337040478623
0.000276014321564
0.000188971348365
8.26131175628e-05
7.10799549135e-05
0.000142229618125
0.000201221149698
0.000242528855975
0.000269148535078
0.000283802797843
0.000289990591716
0.000290783546086
0.000288900585567
0.000286353889208
0.000284195626607
0.000282481597193
0.000280255161415
0.000275820747724
0.000267062823783
0.000251626445255
0.00022667073602
0.000189321990983
0.000135686472435
6.99554044463e-05
5.59162638385e-05
7.11655433182e-05
8.46996904139e-05
9.37809723026e-05
9.904732256e-05
0.000101792341806
0.000102796445851
0.000102979847304
0.000102778027318
0.000102365082992
0.00010200307091
0.000101817603235
0.000101611195065
0.000100928725736
9.936290022e-05
9.62221753438e-05
9.09069559711e-05
8.23549685946e-05
6.97638145452e-05
5.54970473603e-05
7.02402956618e-05
0.000134894170804
0.000192116251045
0.000234755676114
0.000264130256693
0.000282420395653
0.000292107648342
0.000295552409696
0.00029518083515
0.000293239213045
0.000290952126444
0.000288551078428
0.000285133142728
0.000278845709017
0.000267788629322
0.000249987948355
0.000223093348336
0.00018452256488
0.000131763044024
6.97456664725e-05
0.000134955759907
0.000177178435466
0.00023017747033
0.000272923970565
0.000303672207214
0.000323460684733
0.00033435910663
0.000338752871731
0.000338994227137
0.00033701016641
0.000333964381481
0.000330077198703
0.000324690541514
0.000316417037528
0.000303475405674
0.00028392500919
0.00025583177854
0.00021770887603
0.000170106603079
0.000131583281282
0.000192266327716
0.000230487935844
0.000293120868397
0.000345682064331
0.000384359854059
0.000409638042359
0.000423666132832
0.000429249269026
0.000429248884567
0.000426014937582
0.00042104789337
0.000414745026848
0.000406482293615
0.000394746901315
0.000377442213221
0.000352334715978
0.000317412961014
0.000271593426039
0.000217046135727
0.000184177216664
0.000235262264462
0.000273846403192
0.000346423547867
0.000408272057757
0.000454137315133
0.000484194449693
0.000500801838941
0.00050716954339
0.000506702009216
0.000502036300498
0.000494918214061
0.00048602944844
0.000474944013341
0.000460103759813
0.000439022457246
0.0004091556477
0.000368273292521
0.000315411929177
0.000253707241386
0.000222020940802
0.000265358557224
0.000305563160652
0.000386353022053
0.000455550958696
0.000506876537148
0.000540479542567
0.000559266694323
0.000566127541366
0.000564504406244
0.000557894549862
0.000548720998311
0.000537840414243
0.000524604835283
0.000507082692795
0.000482937597712
0.000449683878767
0.000404588305351
0.000346545213395
0.000279251608803
0.000247260171804
0.000284714379701
0.00032668140785
0.000413398177466
0.000487709948815
0.000542735684303
0.000579163500937
0.000598627224852
0.000604201377042
0.000600396791828
0.000591539181451
0.000580581692435
0.000568531790763
0.000554550451712
0.000536252936219
0.000510614238545
0.000474927836765
0.000427272933171
0.000366068633887
0.000295155032786
0.00026246831006
0.000295754610266
0.000339214633483
0.000429657853756
0.000507048969084
0.000564471613065
0.000601930074223
0.000620237512478
0.000623438308625
0.000616973773126
0.000605891699169
0.000593562440626
0.000581076413414
0.000567396973399
0.000549704207188
0.000524407225241
0.000488214343709
0.00043911230586
0.000376409315973
0.000303630257357
0.000270193152906
0.000300913724159
0.000345490365342
0.000437861476962
0.000516675720325
0.000575290590003
0.000612041635401
0.000628280364684
0.000628799913507
0.000619782507128
0.000606841751458
0.000593631460838
0.000581246737536
0.000568451064445
0.000552072006304
0.000528092809943
0.000492764317096
0.000443591664579
0.000380444068614
0.00030704134444
0.000272625199899
0.000302393380943
0.000347770084062
0.000440783569765
0.000519860903249
0.000578425601719
0.000613827653369
0.000627976280906
0.000626220912405
0.000615263202763
0.000601078444383
0.000587460666876
0.00057545335527
0.000563644772189
0.000548635271258
0.000526150191014
0.000492154312215
0.000443845827498
0.0003808876703
0.000307603836399
0.00027245687396
0.000302138013491
0.000347874126295
0.000440661964714
0.000519298146588
0.000577088931243
0.000611213660018
0.000623879825839
0.000620742705986
0.000608757203462
0.000594034021466
0.000580383434401
0.000568784800268
0.000557712296622
0.000543674827014
0.000522306421058
0.0004894529958
0.000442144645722
0.000379838971463
0.000306981789809
0.000271435468824
0.000301496089887
0.000346851881265
0.000438772110214
0.000516422358388
0.000573250389681
0.000606575559877
0.000618681587998
0.00061526036418
0.000603242149881
0.000588662257791
0.000575247582682
0.000563927493888
0.000553160264265
0.000539498827224
0.000518627866598
0.000486418696871
0.000439864461478
0.000378305325241
0.000306062034965
0.000270533045205
0.000300527866657
0.000344769114576
0.000435260119323
0.000511504645263
0.000567246773488
0.000600293998782
0.000612760074686
0.000610102879198
0.000598966303657
0.000585129798511
0.000572163386542
0.000560963051369
0.000550069723042
0.000536209568778
0.000515239071262
0.000483178948605
0.000437102638686
0.000376325954752
0.00030487655454
0.000269903642227
0.000297899229933
0.000340703985014
0.000429137427179
0.000503563313329
0.000557764723616
0.000590757359662
0.000604216234043
0.000603115396427
0.000593584714453
0.000580992836272
0.000568697257433
0.000557583815594
0.000546329645837
0.000531933180335
0.000510525980959
0.000478383291685
0.000432758662857
0.000372986476432
0.000302611558218
0.000268648890532
0.000291871793893
0.000333032335856
0.000418500536883
0.000490380471718
0.000542297679829
0.000574923609534
0.000589512509707
0.000590361798719
0.000582904125254
0.000571966792777
0.00056062797996
0.00054976106901
0.000538203662032
0.00052329530676
0.000501534557143
0.000469545323249
0.000424865337401
0.000366598610208
0.000297782054953
0.000265032564102
0.000280398148597
0.000319732699569
0.000400938985087
0.000469193247953
0.000518291962024
0.000549337318326
0.000564527290635
0.000567217929514
0.000561976540576
0.000552977235258
0.000542940172038
0.000532686681512
0.000521222281612
0.000506256361042
0.000484727430067
0.000453670308967
0.000410906398425
0.000354857460173
0.000288469822752
0.000256939976329
0.000261212593704
0.000298687558563
0.000374009050333
0.000437238504493
0.000482768355379
0.000511198502993
0.000525758400521
0.000529635061861
0.000526381125491
0.000519419295537
0.000511021697324
0.000501899219001
0.000491228404922
0.000477068125682
0.000456836753742
0.000428056626185
0.000388065197503
0.000335281995693
0.000272544741931
0.000241901096845
0.000231945555331
0.00026795737043
0.000335685857735
0.000392279363143
0.000433072404321
0.00045862910741
0.000471603101453
0.000475445628187
0.000473545766285
0.000468493611912
0.000461982879588
0.000454552912256
0.000445563264752
0.000433381281037
0.000415731675015
0.000389978051442
0.000353724235184
0.000305574182541
0.000247915992025
0.000217589772056
0.000190255530281
0.000226323212786
0.000285207147677
0.000333725342955
0.000368527446853
0.000390392241114
0.000401680774974
0.000405340333789
0.000404253867643
0.000400731759693
0.000396170812449
0.000390883791123
0.000384150369044
0.000374459866941
0.000359783010943
0.000337847863576
0.000306499546342
0.000264316709633
0.000212899199475
0.000181315588562
0.000134256252988
0.000174997053696
0.000225597855184
0.000265742330257
0.000294007887467
0.000311629195306
0.000320814041286
0.000324028817815
0.000323642876528
0.000321519829079
0.000318725226254
0.000315422547368
0.00031090537811
0.000303843426837
0.000292484503454
0.000274885911572
0.000249044249891
0.000213282295366
0.000167781924666
0.000130330273131
7.00950356428e-05
0.000134036772721
0.000189823808994
0.000230757073703
0.000258420686118
0.000275185587167
0.000283668194994
0.000286238171019
0.000285479587812
0.000283475349728
0.00028127685308
0.000279017685019
0.000275889714984
0.000270323966534
0.000260234152871
0.000243681891221
0.000218368382376
0.000181580833543
0.00013044058789
6.90472430062e-05
8.43338233015e-05
0.000197017555564
0.000300690251206
0.000380341554102
0.000436666799662
0.000472517701596
0.000491802988582
0.000498959443518
0.000498340903793
0.000493532758204
0.000486764161981
0.000478581961634
0.000467948460876
0.000452450327568
0.00042896926183
0.000394035268356
0.000344054575228
0.000275414211334
0.000185059990788
8.26477288629e-05
0.000197260877555
0.000242245774452
0.000312669862885
0.000372285650227
0.000416511162632
0.000445587290419
0.000461713811199
0.000467951934785
0.000467485655876
0.000463015116172
0.000456268910965
0.000447761516556
0.000436837844696
0.000421901087273
0.000400802547456
0.000371284735212
0.000331453809053
0.000280533185639
0.000221274727172
0.000184690746726
0.000301274715427
0.000313393988766
0.000382979425596
0.000446144002431
0.00049454529701
0.000526982653374
0.000545090136222
0.000551849856213
0.000550569043399
0.000544263918574
0.000534982497724
0.000523480225105
0.000509194361631
0.000490565347534
0.000465482945966
0.000431810226568
0.000388168983743
0.000335107356972
0.000278768173254
0.00027423271416
0.000381825792643
0.000374199126539
0.000447429801
0.000516301096047
0.000569726738542
0.000605567260658
0.000625197645111
0.000631907736677
0.000629041129977
0.000620225265396
0.000608010664316
0.000593465171872
0.000576069310778
0.000554114847873
0.000525571675255
0.00048801755932
0.000440216822377
0.000383393571528
0.000325875232562
0.000340189247757
0.000439793826402
0.000420132897746
0.000497704530838
0.000571696954479
0.000629053354663
0.000667140771359
0.000687097096699
0.000691841525381
0.000685867000843
0.000673689708502
0.000658495949709
0.000641648192343
0.000622526575562
0.000599122093878
0.000568706797262
0.000528741127998
0.000478231133791
0.000418542904549
0.000359297778918
0.000384745003184
0.000478032682951
0.000451442316082
0.000532616883056
0.00061022131458
0.000669890928326
0.00070860939592
0.000726573209513
0.000727365353513
0.000716856961941
0.000700691453609
0.000682686175852
0.000664433578361
0.000645114943534
0.000622222919885
0.000592411162187
0.000552492842177
0.000501028267084
0.000440084920678
0.000379864508745
0.000411493517545
0.000500376483243
0.000470303063014
0.000553815581903
0.000633308830508
0.000693760395664
0.000730936126324
0.000744923040535
0.000740313574709
0.000724550205407
0.000704342500602
0.000684034155475
0.000665308675629
0.000647089880383
0.000626290255872
0.000598957605224
0.000561218443954
0.000510968468416
0.000450249551578
0.000390112174296
0.000424723846675
0.000511160145248
0.000479743429846
0.000564293909582
0.000644160704394
0.000703758743206
0.000738000667528
0.000747141403909
0.000737010089496
0.00071637374088
0.000692790775021
0.000670942751367
0.000652460070139
0.00063600744412
0.000617997476289
0.000593924261954
0.000559397499501
0.000511663292637
0.000452471908806
0.000393275833741
0.000428943242788
0.000514588863193
0.000482890881104
0.000567405905071
0.000646692606613
0.000704348518487
0.000735318198629
0.000740160553343
0.000725628389308
0.00070141992118
0.000675613148617
0.000653016901827
0.00063511260979
0.000620345710489
0.000604841349553
0.000583744621807
0.000552303722416
0.000507370415987
0.000450434972464
0.000392520819547
0.000428302267593
0.000514064691037
0.000482327038018
0.000565989611653
0.000643977968651
0.00069966727678
0.000728079081193
0.000730080600195
0.000712966494997
0.000686900469892
0.000660136911705
0.000637439949106
0.000620124936026
0.000606498365782
0.000592604633013
0.000573489539089
0.00054426526587
0.000501588206681
0.000446692040403
0.000390236568194
0.000425874586612
0.000511559553105
0.00047956790351
0.000561806345039
0.000638199560168
0.000692365465148
0.000719446483793
0.00072044780891
0.000702774261383
0.000676581534809
0.000650002160944
0.000627655475765
0.000610746929213
0.000597553214154
0.000584199021855
0.000565838211119
0.00053766366302
0.000496326229033
0.000442909774615
0.000387757500781
0.000423376185288
0.000507269916949
0.000474808124866
0.000555169628539
0.0006297999431
0.000682995847575
0.000710017865217
0.000711822998501
0.00069548920322
0.000670717161718
0.000645276724285
0.000623598833097
0.000606867586188
0.000593445479722
0.000579666259387
0.000560945270597
0.000532725844889
0.000491818391169
0.00043927783346
0.000385188606268
0.000421043771724
0.000499598395737
0.000466925634023
0.000544958751626
0.000617577668977
0.000670035910635
0.000697884493671
0.000701934464352
0.000688528655061
0.000666493763622
0.00064302576232
0.00062233988341
0.000605677354724
0.000591576834767
0.000576701815867
0.000556843036312
0.000527805714282
0.000486700980004
0.000434629664702
0.000381474306871
0.000417480241297
0.000485644982923
0.000453815908031
0.000529018554853
0.000599311782514
0.000650588066269
0.00067939458525
0.000686458278629
0.000677036694145
0.000658740776809
0.00063800076521
0.00061874360148
0.000602294048787
0.000587428868513
0.00057124628445
0.000549983897731
0.0005198580989
0.000478448603141
0.000426819943973
0.000374673126271
0.000409970833509
0.000461772690132
0.000432870489243
0.000504675437249
0.000571959851556
0.000621365299645
0.000650599376346
0.000660483751644
0.000655282136733
0.000641188466081
0.000623726669969
0.000606444341386
0.000590662095165
0.000575448099187
0.00055831297901
0.000535982396625
0.000505168913824
0.000463945859112
0.000413346265979
0.00036230359101
0.000395036060047
0.000424091713881
0.000401482562852
0.000469444582062
0.000532956595529
0.000579979145938
0.000608481966835
0.000620192255819
0.00061856946144
0.000608477576028
0.000594493112435
0.000579687249197
0.000565259941124
0.000550509423619
0.000533313058609
0.00051087165242
0.000480429237196
0.000440357859864
0.000391474424431
0.000341714758444
0.000368785778274
0.000368848051843
0.000357622409432
0.000421820279223
0.000480983666618
0.000524917293851
0.000552028334438
0.00056416915948
0.000565001546464
0.000558223629369
0.000547575569604
0.000535582270341
0.000523221037092
0.000509925025401
0.00049385662735
0.0004725561018
0.000443824220628
0.000405919834722
0.000359233970698
0.000310565627492
0.000327147347543
0.000292690637261
0.000300744013369
0.000362591076948
0.000417583977655
0.000458092138658
0.00048334490619
0.000495339607194
0.000497365755877
0.000492968702843
0.000485239031043
0.000476155771808
0.000466380504651
0.000455384870517
0.000441517984043
0.000422600201037
0.000396364705195
0.000361048987693
0.000316468319849
0.000267553498985
0.000265925606598
0.000193542416944
0.000234500230662
0.000298932172886
0.000352284421349
0.000390530630679
0.000414250970272
0.000425911072392
0.000428778795739
0.000426161869353
0.000420766995561
0.000414256241043
0.000407089743433
0.000398579220762
0.000387108408386
0.000370549128498
0.00034654572722
0.000312931208841
0.000268382311597
0.000214772558536
0.000181268706791
8.38053353847e-05
0.000193043285923
0.000291343144963
0.000365042012877
0.000415518229287
0.00044610766075
0.000461089838338
0.00046513334085
0.000462659974105
0.000457142987392
0.000450638067562
0.000443623512281
0.000435017571646
0.000422546640137
0.000403132905074
0.000373278440962
0.000329175721431
0.00026666463854
0.00018157371683
8.13866873155e-05
9.96732543393e-05
0.000271272447441
0.000430564778012
0.00055425318805
0.000642683996459
0.000699272813195
0.000729387805871
0.000739648098241
0.000736791984658
0.000726400816819
0.000712020572889
0.000694787973288
0.000673504193727
0.000644991905297
0.000604844973155
0.000548302383066
0.000470844870935
0.000368409740683
0.000237931812764
9.434049323e-05
0.000271946973995
0.000330375653547
0.000428982954487
0.000514111531538
0.000578324246342
0.000621098329904
0.00064491291491
0.000653746156501
0.000651998723582
0.000643502017937
0.000630814438823
0.000614901931363
0.000595096432101
0.00056939306016
0.00053512922147
0.000489624782052
0.000431037808789
0.000359476570007
0.000280096954705
0.000237222022902
0.000432062337773
0.000430289763226
0.000521253100779
0.000606937273354
0.000674227020038
0.000720200130457
0.000746119301789
0.000755425761314
0.000752513862637
0.000741564215678
0.000725541572145
0.00070573933466
0.000681642735917
0.000651268126371
0.000612093470362
0.000561819180488
0.000499483847266
0.00042726146699
0.000355401124954
0.000365264748472
0.000557457306384
0.00051725602277
0.000608754060739
0.000699392114128
0.000771683805457
0.000821129788205
0.000848326759228
0.000856177627224
0.000849769506889
0.000834450616897
0.000813957649189
0.000790064988939
0.000762193114267
0.000728094723322
0.00068522303129
0.000630957473462
0.000564413108161
0.000488916130879
0.000418105557064
0.000460403915026
0.000648705324806
0.000583861698909
0.000678330746689
0.000773954541701
0.000850295517443
0.000901705318704
0.000926529576226
0.000928481336916
0.000914964556749
0.000893020404822
0.00086736070849
0.000840261223014
0.00081091103521
0.000776495191483
0.000733508896045
0.000678398377237
0.000610343159385
0.000532925422707
0.000462004290527
0.000523926354141
0.000709203173244
0.000629602723711
0.000727122172326
0.000826291044975
0.000905012369953
0.000954121921803
0.000971512813171
0.000963168515048
0.000939384333062
0.000909169290737
0.000878314906333
0.000849447529025
0.000821409708486
0.000790300178093
0.000751296570998
0.00070002233588
0.000634077108457
0.000557342226995
0.000487187447626
0.000559985713042
0.000744259441379
0.000657006667131
0.000756545512591
0.000857333651149
0.00093532279667
0.000977885859053
0.000984052503068
0.000962564459005
0.000927000296336
0.000888329784879
0.000853256391663
0.000824372637859
0.00079996651909
0.000774924946548
0.000742941607771
0.000698403663541
0.000638359745863
0.000564921976613
0.000496961714776
0.000574815141272
0.000760446927803
0.000670154578463
0.000770336203255
0.000870874269854
0.000945028305868
0.000979007014691
0.000972907572951
0.00093832375533
0.000892008296811
0.000846442662081
0.000808682668843
0.000780945296121
0.000760973848444
0.00074267309064
0.000718544470538
0.000681881567593
0.000628977669998
0.000561072998287
0.000496309609862
0.000575784372167
0.000764405042905
0.000673518947084
0.000773037768574
0.000871594660058
0.000940971385364
0.000966980277021
0.000950627182513
0.000905933126308
0.000851996681895
0.000802084005872
0.000763105308036
0.000736718958629
0.000720249807463
0.000707236950163
0.000689545885442
0.000659788242155
0.000613499632454
0.000551257078368
0.000490298128934
0.000569851351045
0.000761549726934
0.000670931985892
0.000768829073732
0.000864727592596
0.000929996101939
0.00095037342457
0.000927572218879
0.000877123164293
0.000819349049887
0.000767658534559
0.000728585177127
0.000703258695483
0.000688752387912
0.000678652294871
0.000664771883836
0.000639521571444
0.000598013648211
0.000540348730483
0.000482970048299
0.000562236201623
0.000755036759697
0.000664729667295
0.000760381331091
0.000853681304261
0.000916324819618
0.000934206714116
0.000909356293816
0.000857678622374
0.000799584870516
0.000748203889468
0.000709711405646
0.000684947688877
0.000670915795668
0.000661416977439
0.000648583116667
0.00062505410388
0.000585950266399
0.000531192169355
0.00047659978211
0.000555784941124
0.000745378407262
0.000655360263988
0.000748310858767
0.000839252166074
0.000900886464532
0.000919436551546
0.000896817539198
0.000848108529889
0.000792711231453
0.000743224749445
0.00070565827109
0.000680893330275
0.000666056830063
0.000655233256022
0.000641080350879
0.000616774914224
0.000577819922777
0.000524247244822
0.000471456961436
0.000550816200215
0.000730421490196
0.000641391249588
0.000731184195649
0.000819576861836
0.000881325097121
0.000903171253836
0.0008865412605
0.000844586422593
0.000794604610468
0.000748410490233
0.00071205094193
0.000686772017857
0.000670041852548
0.000656363869259
0.000639100983845
0.000612154417299
0.000571624841179
0.000517856541918
0.000466053468485
0.00054529145059
0.000705948498486
0.000619994755839
0.000706161356643
0.000791436043096
0.000853093578825
0.000879641300818
0.000871490046409
0.000839127550346
0.0007969647061
0.00075565653944
0.000721119355716
0.000695191848716
0.000675877253504
0.000658421040506
0.000637069791744
0.000606557398014
0.000563523143365
0.000508810605311
0.000457561113041
0.000535235929698
0.000666617084993
0.000587720281972
0.000669941148219
0.00075152782726
0.000811685258106
0.00084240665084
0.000842995702873
0.000821125781292
0.000788129188248
0.000753109251394
0.000721590373979
0.000695725741987
0.000674203201602
0.000653197831956
0.000627981398339
0.000594099143014
0.000548599536747
0.000493139280152
0.000442356471234
0.000515399709619
0.000606846836892
0.000541263629822
0.000619680693311
0.000697110142873
0.000754624782103
0.000787236888738
0.000794636409656
0.000782062382741
0.000758019051312
0.000729932049399
0.000702627715429
0.000678269595461
0.00065601929698
0.000632955279658
0.000605300662315
0.000569215023191
0.000522434499524
0.000467457898846
0.000416815671624
0.000480021999464
0.000521565459762
0.000478356394452
0.00055419944067
0.000627443706823
0.000682041723119
0.000714246893917
0.000725461618377
0.000719638192491
0.000703029894866
0.000681501580692
0.000659059258077
0.000637570231127
0.000616492189594
0.000593546192033
0.000565550948547
0.000529238221872
0.000483332578171
0.000429444174453
0.000378022612796
0.000423386471248
0.000406518748963
0.000398994788698
0.000475674621533
0.00054595125223
0.000597828571253
0.000629036259724
0.000641531376026
0.000639505925464
0.000628201044627
0.000612245474103
0.000594670469729
0.000576937774187
0.000558567064264
0.000537721555932
0.000511551676659
0.000477255951862
0.000433112109553
0.000379773456081
0.000324874747954
0.00034009686639
0.000259088326684
0.000309096539516
0.000395261422006
0.000467439020762
0.000519000193209
0.000549936717405
0.000563248433593
0.000563455166097
0.000555455005174
0.000543363211184
0.000529867676386
0.00051598744322
0.00050106980877
0.000483136092142
0.000459353373426
0.000426771466687
0.000382880770191
0.000326558299569
0.000261020874171
0.000225548448581
9.77021752036e-05
0.000258047402588
0.000403215731716
0.000512252873474
0.000586429856473
0.00062996773339
0.000648968033928
0.000650636919382
0.000642047487838
0.000628811062592
0.000614359394489
0.000599718958675
0.000583632658313
0.000562973843886
0.000533472943668
0.000490217520707
0.00042810613474
0.000341846328446
0.000226219723285
9.16585505218e-05
0.000122248035242
0.000379554438126
0.000615175546407
0.000799477582358
0.000933484745844
0.00102093158536
0.0010685513458
0.0010854269595
0.00108111389225
0.00106364616147
0.00103833511119
0.00100719378523
0.000968905282262
0.000919200043754
0.000852081819807
0.000761533781631
0.0006426479028
0.000491789687805
0.000306527988391
0.000107874144988
0.000381080638129
0.000459398933255
0.000599567392691
0.000723434976291
0.00081953398405
0.000885881307478
0.000924839458316
0.000941219030395