/*--------------------------------*- C++ -*----------------------------------*\
| =========                 |                                                 |
| \\      /  F ield         | OpenFOAM: The Open Source CFD Toolbox           |
|  \\    /   O peration     | Version:  3.0.1                                 |
|   \\  /    A nd           | Web:      www.OpenFOAM.org                      |
|    \\/     M anipulation  |                                                 |
\*---------------------------------------------------------------------------*/
FoamFile
{
    version     2.0;
    format      ascii;
    class       volScalarField;
    location    "8.2";
    object      k;
}
// * * * * * * * * * * * * * * * * * * * * * * * * * * * * * * * * * * * * * //

dimensions      [0 2 -2 0 0 0 0];

internalField   nonuniform List<scalar> 
7968
(
0.000228801690197
0.000268974383926
0.000302345666652
0.000323779674258
0.000336105522111
0.000342459353428
0.000344708613907
0.000344815904065
0.000344183917661
0.000343119947897
0.000342416900445
0.000342552330276
0.00034254356554
0.000341776642112
0.000338872298135
0.000332165791507
0.000319733536614
0.000299160299424
0.000267387658928
0.00022839530903
0.000268835449124
0.000429089020873
0.000542776847545
0.00061659145801
0.000662593001719
0.000687986451004
0.000699318520995
0.000701525525098
0.000699012079287
0.000695083399771
0.000691694651832
0.000689123695522
0.00068572434956
0.000678650248477
0.000664230372374
0.000638228130916
0.000594962424414
0.000526759927185
0.000420468604939
0.000267757610108
0.000301873763144
0.000543056839458
0.000710521564016
0.000819717972442
0.000888805961463
0.000928521018075
0.000947358619396
0.000952324744218
0.000949530388172
0.000943563910579
0.000937078506558
0.000930484614884
0.000922089781133
0.000908333347866
0.000884250774472
0.000843873212423
0.000779463168594
0.000680202794017
0.000526238331003
0.000300077504566
0.000323492355067
0.000617589789025
0.000820735468457
0.000953522309375
0.00103790691967
0.00108663573352
0.0011098463941
0.00111601093935
0.00111262028173
0.00110544781834
0.00109557649943
0.00108438613302
0.00107199312423
0.00105361005931
0.00102332468417
0.000973938424916
0.000896192940127
0.000777197489571
0.000593104396137
0.000320682097031
0.000336545274799
0.000664804973494
0.000891941414483
0.00104035002366
0.00113417891148
0.0011880070606
0.00121609546889
0.0012264009935
0.00122335572953
0.00121338280872
0.001200562756
0.00118607580029
0.0011683881379
0.00114310719186
0.00110723081934
0.00105283400052
0.000967437672909
0.000836359161001
0.000633703428507
0.000332252206312
0.000343409413691
0.000692238155254
0.000934753576653
0.00109283692518
0.00119204838279
0.00125276040258
0.00128468285541
0.00129295313967
0.00128651131793
0.00127316375192
0.00125783729541
0.00124191216359
0.00122347123073
0.0011972858852
0.00115659032118
0.00109549433572
0.0010062394132
0.000868648564238
0.000655473174899
0.000337861923329
0.000346146282517
0.000705983946535
0.000957413619824
0.00112081861819
0.00122428283431
0.0012898950399
0.0013198688576
0.00132423642997
0.00131366891704
0.00129700858695
0.00127975368876
0.00126340458004
0.00124575131353
0.00122090687004
0.00118093676559
0.00111711540857
0.00102301885497
0.000882648204276
0.000664414116237
0.000340109895999
0.000346288927124
0.000710783739584
0.00096668471273
0.00113244773202
0.00124082144893
0.00130528011606
0.00133180349851
0.00133194170134
0.00131746717656
0.00129802463021
0.00127950792554
0.00126342840494
0.00124726612599
0.00122461283638
0.00118689647303
0.0011243735549
0.0010267765159
0.000885410940911
0.000665690438775
0.000340912547995
0.000345575167211
0.000710885700157
0.000968429231897
0.00113472155315
0.0012451172125
0.00130743808007
0.00133067633115
0.00132731793373
0.00130988247729
0.00128850616015
0.00126936082041
0.00125390869735
0.00123927516625
0.00121871552147
0.00118329401026
0.0011228397816
0.00102615006635
0.00088280793244
0.000663384460968
0.000340518665214
0.000344755997167
0.000709479476616
0.000966987576296
0.00113276313875
0.00124304955161
0.00130347100536
0.00132449314207
0.00131907439056
0.0013000548057
0.00127776505429
0.00125846052503
0.00124361258152
0.00123009270727
0.00121091815402
0.00117706336733
0.00111823896558
0.00102292924213
0.000879091884898
0.000660540981168
0.000339638354051
0.000344457733345
0.000708429021544
0.00096472138307
0.00112917312837
0.00123804782334
0.00129741059074
0.00131772233064
0.00131197605417
0.0012929609781
0.00127086681297
0.0012518106735
0.00123724005618
0.0012240466733
0.00120524628959
0.00117191081027
0.00111383348524
0.00101949163257
0.000876392933016
0.000658822827482
0.000338916346503
0.000345056097383
0.000707825097184
0.000961788564924
0.00112428748481
0.00123060785831
0.00128982111966
0.00131092689227
0.00130651395911
0.00128897877405
0.00126811225396
0.001249735611
0.00123509081489
0.00122135440412
0.00120189640196
0.0011680428301
0.00110982919221
0.00101598419069
0.000874782147786
0.000658486029375
0.000338930572245
0.000345704557242
0.000705851581008
0.000956112422879
0.00111601141402
0.00121815293775
0.00127764503818
0.00130061559039
0.00129879593782
0.0012838261159
0.00126493035053
0.00124753947724
0.00123276193758
0.00121808316954
0.00119734972449
0.00116234538834
0.00110353848655
0.00101024107327
0.000872168661566
0.00065787336868
0.000338932212915
0.000345372596246
0.00069945996055
0.000943742528561
0.00109981482071
0.00119573185371
0.00125495641709
0.00128013234247
0.0012815737373
0.00126987410658
0.00125348277731
0.00123742373337
0.00122274101854
0.00120715603501
0.00118509177918
0.00114894055668
0.00108991804724
0.000999223394879
0.000864824956659
0.000653925185058
0.000337660519855
0.000342433150453
0.00068467753687
0.00091929342219
0.00106936146758
0.00116091099296
0.00121441777564
0.00124077758741
0.00124537293881
0.00123715816128
0.00122364322718
0.00120935669325
0.00119526944962
0.00117931619216
0.00115654663831
0.0011201783779
0.00106261642956
0.000978029944475
0.000847560194902
0.000642873603956
0.0003342104846
0.000335449522693
0.000657034500854
0.000876422488165
0.00101702060681
0.00110339630079
0.00115057867804
0.00117335844938
0.00117980962058
0.00117468742009
0.00116418679595
0.00115214363429
0.00113940286648
0.00112417319546
0.00110220320157
0.00106799393892
0.00101750237276
0.000937839608599
0.00081406044762
0.000620026663175
0.000328127177573
0.000322462258474
0.000610678637664
0.000807129374794
0.000933208004867
0.00101118215116
0.00105418051976
0.00107272859537
0.00107567067198
0.00107115388293
0.0010633837375
0.00105400659378
0.00104363982382
0.00103164408764
0.00101487870473
0.000987179025568
0.000941525382292
0.000868894520683
0.000756360687637
0.000579980666751
0.000316682576889
0.000301087815256
0.000538011231541
0.000700610868304
0.000804963692061
0.000869449845271
0.000905062475263
0.000920549309462
0.000923148136118
0.000918961805109
0.000912435833001
0.000905972577445
0.000899756374233
0.000891944459355
0.00087915121519
0.000856702314383
0.000818805644911
0.000757970729105
0.000663441744035
0.000515315991513
0.000296726064904
0.000268400172662
0.000426470067308
0.000537585339451
0.000608912537307
0.000652723643893
0.000676208287248
0.000685983706654
0.000687199529439
0.000684184466784
0.000680108099576
0.00067663755037
0.000673870359169
0.000670290328731
0.000663175557652
0.000649042917702
0.000623768631125
0.000581793815194
0.000515957655701
0.000413153767093
0.000265539854914
0.000228649992635
0.000268619267828
0.000301750617815
0.000322993083788
0.000334992056345
0.000341162288026
0.000343402382528
0.000343803301572
0.000343346463722
0.000342416219805
0.000341596847498
0.000341169449172
0.000340698889224
0.000339164097418
0.000335640059476
0.000328517823896
0.000316287417982
0.000296099866406
0.000265048630018
0.000227499268767
0.000266278129672
0.000411665950285
0.000521272294614
0.000595908161181
0.000644706775889
0.000674177819792
0.000689524261436
0.000694926240024
0.000694320699043
0.000691236620725
0.000687593312328
0.000683757411179
0.000678300842939
0.000668248177729
0.000650416356217
0.000621212238733
0.000575759499225
0.000507252796734
0.00040516258774
0.000265008749868
0.000411792483831
0.000911147883284
0.00120115307352
0.00139851340269
0.00153001453357
0.00161140338176
0.0016553618664
0.00167290340204
0.00167357833579
0.00166479122651
0.00165109000367
0.0016335204259
0.00160987005644
0.00157499883311
0.00152143200956
0.00143980397404
0.00131826681505
0.00114051312578
0.000877330340499
0.000404794026058
0.000521545325713
0.00120116092537
0.00159321462265
0.0018629057066
0.0020448394658
0.00215859355602
0.0022202831425
0.00224452656787
0.0022443004051
0.00222964007599
0.00220723515142
0.00217888488163
0.00214189220491
0.00208984666937
0.00201271478321
0.00189810070098
0.00173083138076
0.00149050520216
0.00113961857535
0.000506617186291
0.000596769490846
0.00140014564042
0.00186508743601
0.00218625733622
0.00240348921652
0.00253891387196
0.00261114365983
0.00263764934472
0.00263464578032
0.0026131196997
0.0025823286299
0.00254474360033
0.00249709317191
0.00243327182536
0.00234034930499
0.00220366489813
0.00200553108436
0.00172263544111
0.00131189108936
0.000573894113877
0.000646714231889
0.00153495006779
0.00205154493448
0.00240861885191
0.00264915997486
0.00279718064281
0.0028737374756
0.00289631735472
0.00288464918085
0.00285430019445
0.0028156891824
0.00277223732544
0.00272062818001
0.00265146866096
0.00254949581064
0.00240012556951
0.00218304849031
0.00187271170788
0.00142241946277
0.000616631872032
0.000677842837838
0.00162124812696
0.00217213253445
0.00255216895967
0.00280599376985
0.00295895823867
0.00303086970459
0.00304454976644
0.00302216027615
0.00298211912595
0.00293650568787
0.00288937084225
0.00283698824008
0.00276832396274
0.00266692002773
0.00251325635537
0.00228682111815
0.00196132848706
0.00148772444205
0.00064166742208
0.000695283053676
0.00167153154038
0.00224281571325
0.00263544667845
0.00289524570837
0.00304459369285
0.00310764091247
0.0031095265544
0.00307526150856
0.0030257334672
0.00297446567161
0.0029258445724
0.00287562119721
0.00281133432706
0.00271480452646
0.00256481943076
0.00233695911757
0.00200558482147
0.00152095631838
0.000654181284162
0.000703355923048
0.00169659652297
0.00227792559015
0.00267529208582
0.00293430565716
0.00307699270567
0.00312946543581
0.00311924348337
0.00307394925732
0.00301648696245
0.00296133969433
0.00291290686493
0.00286637128013
0.00280813006173
0.00271858360459
0.00257515795789
0.00235278143888
0.00202088384524
0.00153338358933
0.000658071504682
0.00070565443646
0.00170569466586
0.00229012051387
0.00268748976371
0.00294232920681
0.00307756711594
0.00312050466261
0.00310044143275
0.00304694394334
0.00298414101993
0.00292702435932
0.00287972189191
0.00283680279771
0.00278407106508
0.00270105837404
0.00256430637058
0.0023479102453
0.00202005263352
0.00153440796007
0.000657767761923
0.000705244882076
0.00170577894918
0.00228898755275
0.00268402060719
0.00293381681476
0.00306311304489
0.0030996832415
0.0030738072244
0.00301598293507
0.00295083192935
0.00289338045198
0.00284740637082
0.00280703639449
0.00275785289058
0.00267919705944
0.00254731764151
0.00233598463288
0.00201332890498
0.00153091312895
0.000656093099062
0.000704226409945
0.0017007571161
0.00227988653606
0.00267082890599
0.00291702541916
0.00304329153826
0.00307770200268
0.00305068526771
0.00299268726061
0.00292806072066
0.00287148276503
0.00282647214025
0.00278704509554
0.00273896040552
0.00266184438271
0.00253219137728
0.00232389768378
0.00200510369544
0.00152643546397
0.000654615072843
0.000702693410583
0.00169105108848
0.00226363387599
0.00264926787573
0.00289341687896
0.00301968365739
0.00305610081282
0.0030323925536
0.00297801134437
0.00291639402015
0.0028616085371
0.00281706481312
0.0027769924329
0.0027276993341
0.00264946635247
0.00251949622355
0.00231219406344
0.00199566125609
0.00152114222168
0.00065358601302
0.000698559175527
0.00167354528847
0.00223639711894
0.00261552857297
0.00285754046094
0.00298578646901
0.00302740277232
0.00301057733839
0.00296286317338
0.00290632606503
0.00285424325158
0.00281001248968
0.00276829903056
0.0027161803707
0.00263501689218
0.0025030810174
0.00229562194219
0.00198111400877
0.00151196830311
0.000651554720594
0.000689070231194
0.00164218543937
0.00219012978599
0.00255967900559
0.00279777459871
0.0029282811797
0.00297661763824
0.00296880971684
0.00292995672977
0.00288021532617
0.00283192579346
0.0027884501783
0.00274490130962
0.00268949645787
0.00260498416952
0.00247098944548
0.00226367702209
0.00195382172631
0.00149302745966
0.000645695882422
0.000670851091981
0.00158863374033
0.00211365031696
0.00246803530958
0.00269768595137
0.00282917902628
0.00288377390109
0.00288531022141
0.00285622719658
0.00281448901827
0.00277122934762
0.00272962952371
0.00268528988537
0.002627695364
0.00254127050557
0.00240714432236
0.00220256975224
0.00190245837945
0.00145611804398
0.000632487715054
0.000639841279668
0.00150280015121
0.00199369117878
0.00232517208461
0.00254149694425
0.00266790270686
0.00272650311292
0.00273600523636
0.00271638137156
0.0026831755519
0.00264615335827
0.00260812549257
0.00256512728802
0.00250789334791
0.00242280805088
0.00229189154507
0.00209772867861
0.00181364323183
0.00139106668387
0.000607554010207
0.00059104652868
0.00137242338094
0.00181454245901
0.00211283279231
0.00230832570562
0.00242425610326
0.00248030348514
0.00249504276436
0.00248396703672
0.00245921592968
0.00242947837048
0.00239703563196
0.00235803510011
0.00230421384935
0.00222560145235
0.00210676233046
0.00193000493083
0.00167111587721
0.00128528054235
0.000566118162151
0.000517831599839
0.00118131415242
0.00155580532569
0.00180766481442
0.00197259248866
0.00207106273427
0.00212001535722
0.00213476507402
0.00212843196229
0.00211125850025
0.00208958125673
0.00206493630057
0.00203426389636
0.00199088366264
0.00192532153797
0.00182513380456
0.00167490037945
0.00145341353458
0.00112165722932
0.00050127692264
0.000410334882092
0.000901189547587
0.00118062439411
0.00136696042305
0.00148790073684
0.0015598244981
0.00159596580985
0.00160776866094
0.00160496175658
0.00159491755171
0.00158193449292
0.00156687586373
0.00154727250876
0.00151804335563
0.00147184723043
0.00139927723377
0.00128827726748
0.001121978727
0.000870015168131
0.000402183010341
0.000265909239596
0.000409887071672
0.000517045823051
0.000589011474507
0.000635233825183
0.000662431414218
0.000675965496504
0.000680017184662
0.000678774552261
0.000675547486217
0.000672002879129
0.000668355837197
0.000663314906782
0.000654335075946
0.000637924701215
0.000610556005691
0.000567478219049
0.00050176946977
0.000402412080204
0.00026322596688
0.000300911595828
0.000530203007979
0.000703023505325
0.000822374301086
0.000901768757519
0.000950534319431
0.000976258578216
0.000985712905556
0.000984877901592
0.000978489519582
0.000969462431287
0.000958495656277
0.000944168575039
0.000923126034856
0.000890821576921
0.000841686945933
0.000768818459589
0.000662715310328
0.00050828777907
0.000296828111198
0.000530642266189
0.00123573115014
0.00164869600768
0.00193561780222
0.00213095237285
0.00225426145555
0.00232176450445
0.002348402735
0.0023475493552
0.00233002022807
0.00230275445137
0.00226798627826
0.00222322221863
0.00216185133472
0.00207397115625
0.00194721302725
0.00176669426795
0.00151268418174
0.0011489609514
0.000507610051566
0.000703936843369
0.00164899579031
0.00219214427724
0.00257243520803
0.00283442297164
0.00300122150559
0.0030926042883
0.00312774217566
0.00312419368252
0.00309687944927
0.00305574501575
0.00300435618365
0.00293965283928
0.00285302351776
0.00273164398309
0.0025594631029
0.00231796158996
0.0019833750604
0.00150935639051
0.000660806341353
0.000824514664071
0.00193857482655
0.00257567752727
0.00302200809279
0.0033296054164
0.00352412739537
0.00362791874586
0.00366420954651
0.00365296652848
0.00361350042161
0.00355884532578
0.0034939705829
0.00341530466491
0.00331203795901
0.0031698912556
0.00296899191944
0.00268792127301
0.00229962517209
0.00175016251507
0.000762998787143
0.000906070374714
0.00213887954964
0.00284391431682
0.00333651209938
0.00367351394605
0.00388278602469
0.00398808083177
0.00401416067768
0.00398776837568
0.00393260178178
0.00386455932422
0.00378999450969
0.00370482991989
0.00359660710163
0.00344617026048
0.00323032479269
0.00292665727231
0.00250488153499
0.00190575865498
0.000828282542075
0.000957917005242
0.00226940321783
0.00302003878583
0.00354186736756
0.00389432301209
0.0041062356449
0.00420134193713
0.00420839101181
0.00416075222655
0.00408725405287
0.00400644954142
0.00392576850036
0.00384024172116
0.00373523555507
0.00358884305851
0.00337370875096
0.00306158578606
0.00262334168421
0.00199633715956
0.000866234597044
0.000987573231934
0.002346318568
0.00312393857496
0.00366080148213
0.00401769719909
0.00422183269231
0.00429804627131
0.00427997898207
0.00420823630026
0.00411626246602
0.00402472885115
0.00394152979807
0.00386058154182
0.00376488461247
0.00363021120309
0.00342596642732
0.00311908482735
0.00267724306492
0.00203939729584
0.00088466266432
0.00100172207431
0.0023844894152
0.00317479034023
0.0037160870596
0.00406856296487
0.00425902899297
0.00431298968952
0.00426982561984
0.00417592543961
0.00406840158408
0.00396931742286
0.00388639647922
0.00381249479191
0.00372863424028
0.00360837160395
0.00341911669658
0.00312415832662
0.00268841188915
0.00205131642318
0.000890448321525
0.00100618592882
0.00239712040888
0.00319026283069
0.003729773536
0.00407302178955
0.00424864562255
0.00428334563335
0.00422043009431
0.00411023640888
0.00399220022663
0.00388900886665
0.00380778519231
0.0037404984562
0.00366703345799
0.00355955118404
0.00338403311311
0.00310201549089
0.00267723507715
0.00204648317504
0.000889489655142
0.00100547430074
0.00239446755659
0.00318418659093
0.00371804914077
0.0040524822456
0.00421686267268
0.00423908479855
0.00416465873291
0.00404588914014
0.00392308018617
0.00381881575183
0.00373953013296
0.00367659055533
0.00360954916268
0.00351022211924
0.00334414053115
0.00307219487844
0.00265739167411
0.00203533415983
0.000886058251845
0.00100216252698
0.00238253287433
0.00316499198308
0.00369191489582
0.00402004224566
0.00417896828266
0.0041970117191
0.00412011000015
0.00400059165891
0.00387832214045
0.00377529951343
0.00369746478496
0.00363598555699
0.00357072078014
0.00347401981813
0.0033119250834
0.0030455873533
0.00263786452711
0.00202376032261
0.000882536660241
0.000996500830155
0.00236233018747
0.00313430218227
0.00365348728476
0.00397828365465
0.00413772277214
0.00415975007165
0.00408893148425
0.00397576593373
0.00385859325043
0.00375856605314
0.00368146946635
0.00361872038922
0.00355100773404
0.00345188249912
0.00328866382739
0.00302354387929
0.00261982746707
0.0020123896779
0.000879257576669
0.000986371472253
0.00232980662505
0.00308689686443
0.00359640436245
0.0039192318116
0.00408337891806
0.00411607347254
0.00405869394466
0.00395806879135
0.00385002233079
0.00375468120328
0.00367799991473
0.00361204303091
0.00353884658229
0.00343367098808
0.00326558946224
0.00299864583876
0.00259723230658
0.00199687337616
0.000874272569807
0.000967859489551
0.00227669866126
0.00301203470426
0.00350838154409
0.00382684882694
0.00399628130963
0.00404346033754
0.00400464345319
0.00392130675456
0.00382587754821
0.00373722034045
0.00366155449737
0.00359195280307
0.00351227919862
0.00339977081472
0.00322530013788
0.00295623753879
0.00255827738168
0.0019687626272
0.000863750810543
0.000935814476215
0.00219164152689
0.00289483746943
0.00337100158098
0.00367988866892
0.00385217461592
0.0039131550587
0.00389430444672
0.00383048496844
0.00375008230357
0.00367040182442
0.0035975744432
0.00352601390542
0.00344141491819
0.00332295793312
0.00314413558499
0.00287652310712
0.00248822922756
0.00191653863124
0.000842641814522
0.000884122047462
0.00206108613597
0.00271806420264
0.00316418110545
0.00345686485864
0.00362532815624
0.0036953799899
0.00369364490559
0.00364849034679
0.00358394573584
0.00351532507323
0.00344819116029
0.00337810183871
0.00329246122082
0.00317267698872
0.00299585673399
0.00273773663921
0.00236835307171
0.00182612736169
0.000804879174833
0.000805501168489
0.00186925812935
0.00246234389881
0.00286582015032
0.00313245274169
0.00328925958256
0.00336025812759
0.00337024824042
0.00334067676431
0.00329147535726
0.00323551255277
0.00317736347416
0.00311336214104
0.00303256607259
0.00291882740957
0.00275448515542
0.00251706248635
0.00217806252704
0.00168100016012
0.000743075598417
0.000690327731436
0.00159585906622
0.00210326866038
0.00244844188643
0.00267680081393
0.00281263377096
0.00287709178509
0.00289071423441
0.00287220461171
0.00283699365401
0.0027948326096
0.00274889672039
0.00269630362498
0.00262814630925
0.00253148849455
0.00239035194734
0.00218551584941
0.00189161713127
0.00145975615133
0.000647175212123
0.000523849741551
0.00120439177095
0.00159343827389
0.00185654882247
0.00202907562393
0.00213148405874
0.00218097954274
0.00219343945426
0.00218294926103
0.00216059199013
0.00213320280751
0.00210284516243
0.00206692751688
0.00201866742758
0.00194823706489
0.00184306578971
0.00168763073435
0.0014608702141
0.00112434634083
0.000501204505203
0.000299636636845
0.000522946545739
0.000688200473821
0.00079992305623
0.000872098065179
0.000914399005628
0.000934740674508
0.0009401552133
0.000936758068914
0.000929223141181
0.000920309812289
0.00091066072422
0.00089877918714
0.000881464131546
0.000854207808619
0.000811454724887
0.000746168678364
0.000648383755095
0.000501771672841
0.00029377446885
0.00033654685744
0.000656513202313
0.000893449610769
0.00105737924503
0.00116717032796
0.00123482801038
0.00127012395668
0.00128207021733
0.00127879472427
0.00126673436215
0.00124992186677
0.0012296082514
0.00120428430697
0.0011699535524
0.00112077307429
0.00104965676548
0.000948166833587
0.000804949053902
0.00060125999267
0.000324296676766
0.000657604566258
0.00158348464383
0.00212741887619
0.00251103138155
0.00277629363206
0.00294589609051
0.00303920533267
0.00307500459902
0.00307090615193
0.00304147885896
0.00299642363264
0.00293947216726
0.00286797301719
0.00277351875473
0.00264363926963
0.00246306474399
0.00221442158395
0.00187591784787
0.00140676770008
0.00060005890917
0.000895517397374
0.00212809871665
0.0028357638676
0.00333805955016
0.00368940914426
0.00391575576959
0.00404004637967
0.00408579320881
0.0040763233129
0.0040319094403
0.00396652761521
0.00388596327728
0.00378704954936
0.00365851739871
0.0034839172525
0.00324356769322
0.00291580097839
0.00247458601942
0.00186717459772
0.000800334130535
0.00106143474242
0.0025151755751
0.00334198939931
0.00392737868038
0.0043356500092
0.00459600333264
0.00473413582847
0.00477524615099
0.0047494570841
0.0046841857996
0.00459775006591
0.00449819475913
0.00438140153153
0.00423343643807
0.00403504310397
0.00376125556138
0.00338567743961
0.00287860875674
0.00217745626103
0.000934005761612
0.00117441362122
0.00278635587971
0.00370038167599
0.00434344485952
0.00478814083996
0.00506530059008
0.00519572518118
0.00521186383597
0.00515503463024
0.0050606465821
0.00495143211498
0.00483757462854
0.00471376680447
0.00456312338431
0.00436152080873
0.00407783736424
0.00368089809182
0.00313628278391
0.00237541696541
0.0010181085991
0.00124642952827
0.00296427755025
0.00393717949791
0.00461647608974
0.00508122522231
0.00535221707749
0.00545214283274
0.00542491668229
0.00532473600385
0.00519529932009
0.00506369657119
0.0049414597882
0.00482182293528
0.00468339185615
0.00449648287444
0.00422592666314
0.00383174037886
0.00327452878952
0.00248382798252
0.00106428996863
0.00128723889818
0.00306850927492
0.00407592043425
0.00477398706589
0.00524042869417
0.00548575615433
0.0055394351181
0.00545790241564
0.00530897348942
0.00514426479652
0.00499433367222
0.00487046464638
0.00476379086859
0.0046482245903
0.00448824543076
0.00424358617815
0.00387141600081
0.00332179458131
0.00252509094246
0.00108292443512
0.00130587174235
0.0031182148421
0.00414098430024
0.00484381045771
0.00529669765499
0.00550757912821
0.00551146308504
0.00537663759764
0.00518349469836
0.00498982130756
0.00482762874349
0.00470664830763
0.00461599484701
0.00452580616409
0.00439603376858
0.00418212519233
0.00383819864131
0.00330986025195
0.0025225835348
0.00108402708213
0.00131040090815
0.00313118616631
0.00415576881281
0.00485254239706
0.0052869234478
0.00546603671467
0.00542892235495
0.00525333679468
0.00502850616499
0.00481582124911
0.00464717892175
0.00453017569141
0.00445233928227
0.00438216367128
0.00427711312836
0.00409012156474
0.00377251276139
0.00326743501694
0.002497752876
0.00107643477622
0.00130710503323
0.00312177179164
0.00413984963243
0.00482626573223
0.00524452080123
0.00540146191776
0.00533887868974
0.0051401881781
0.0048991265566
0.00467799593768
0.00450771560709
0.00439402272582
0.0043233196241
0.0042639729217
0.00417322672327
0.00400343246081
0.00370460746334
0.00321865269826
0.00246734977215
0.00106669686928
0.00129958372555
0.00309866476242
0.00410534061018
0.0047811563534
0.00518931292341
0.00533675500796
0.00526628809811
0.00506265361863
0.00481989928484
0.00459938584228
0.00443085854663
0.00431899692011
0.00424976834189
0.0041921951363
0.00410476711853
0.00394091719801
0.00365111567313
0.00317732192569
0.00244083147248
0.00105841769104
0.00128839844668
0.00306373406334
0.00405497403333
0.00472065367015
0.00512525117885
0.00527597460511
0.00521481160173
0.00502327524162
0.00479167449762
0.00457915749181
0.0044146231539
0.00430280074548
0.0042300294149
0.00416647701022
0.00407278626101
0.00390467763841
0.00361459336206
0.00314577059633
0.00241958928869
0.00105202611909
0.00127101117574
0.00301191997289
0.00398198068414
0.00463504493846
0.00504013443885
0.00520480117649
0.00516838234962
0.00500472926379
0.00479623902322
0.00459842845325
0.00443978621468
0.00432636562756
0.00424571984401
0.00416989456115
0.00406253858892
0.00388246417465
0.00358502713302
0.00311582059105
0.0023977455092
0.00104493539875
0.00124235785078
0.00293247982639
0.00387214646511
0.0045061967147
0.00490951433559
0.00509367183476
0.00509259770392
0.00496903614799
0.00479389536188
0.00461758361367
0.00446767261308
0.00435242860278
0.00426146678584
0.00416997444726
0.00404525395445
0.00384979409329
0.00354172306533
0.00307067924213
0.00236340326345
0.00103202534016
0.00119566885659
0.00281089546831
0.00370673991089
0.00431323366998
0.00470565821108
0.00490608639753
0.00494154280458
0.00486215850447
0.0047259892873
0.00457683258445
0.00444046359272
0.00432638360346
0.0042269219318
0.00412113116562
0.00398064916736
0.00377170682513
0.00345505975785
0.00298767314967
0.00230019641305
0.00100634733836
0.0011229838729
0.00263035209318
0.00346475826217
0.00403243880282
0.00440326382517
0.00460786430521
0.00467093325634
0.00463067592334
0.00453254463668
0.0044130778774
0.00429503835092
0.00418794069095
0.0040861796986
0.0039727727243
0.00382361828672
0.00360823068833
0.00329271833129
0.00284307403594
0.00218952773014
0.000959726039375
0.00101505149612
0.00237215176091
0.00312395934267
0.00363784637602
0.00397662721184
0.00417011601611
0.00424603632416
0.0042335296241
0.00416707859658
0.00407593381381
0.00397915711207
0.00388496438918
0.00378930123503
0.00367847492692
0.00353184969846
0.003323125376
0.00302684794512
0.00261110173625
0.00201086177754
0.000882629496758
0.000859602179268
0.00201276093028
0.002656971817
0.00309819652526
0.00339022654715
0.00355996389892
0.00363239434335
0.00363371811037
0.00359038565605
0.00352453104188
0.00345042016031
0.00337438236471
0.00329329909856
0.00319657012933
0.00306704655282
0.00288423778045
0.00262557952644
0.00226262007511
0.00173949693638
0.000762651164744
0.000636531202957
0.00150827567339
0.00200688289954
0.00234639192216
0.00256888004885
0.00269797991049
0.00275461548252
0.00275945979625
0.00273204100105
0.00268815025289
0.00263806265983
0.00258573292326
0.00252855272381
0.00245820185349
0.00236178232283
0.00222365674881
0.00202532527566
0.00174275769882
0.00133199824483
0.000579919689604
0.000332043143843
0.000634819777839
0.00085492868569
0.00100289687931
0.00109756655719
0.00115126979831
0.00117430487014
0.00117628545427
0.00116584824518
0.00114968535847
0.00113190591494
0.00111375312092
0.00109365355574
0.0010676038292
0.00102989263618
0.000973361724497
0.000889224659955
0.000765284638485
0.000581079108955
0.000318054952405
0.00038583789451
0.000821455954448
0.00113359067267
0.00135018267533
0.0014973689603
0.001589716989
0.0016389828135
0.00165636122392
0.00165209002434
0.0016343191505
0.00160831866184
0.00157599226614
0.00153575338225
0.00148269642073
0.00140949794084
0.00130762815441
0.00116752486628
0.000976568828656
0.000712337620789
0.000354761801759
0.000823658361384
0.00202161884684
0.00272852773423
0.00323691465188
0.00359624534966
0.00383154364303
0.00396499638724
0.00401953283173
0.00401754711257
0.00397783320837
0.00391324027507
0.00382908878019
0.00372241601138
0.00358251232413
0.00339327849365
0.00313608403852
0.0027911154305
0.00233561497647
0.00172649830774
0.000709973180691
0.00113715760127
0.00272905076001
0.00364919237159
0.00431423700107
0.00478853332616
0.00510106913188
0.00527744900322
0.00534370666331
0.00533180879429
0.0052699541125
0.00517663314484
0.00506033042285
0.00491670193802
0.00473163379189
0.00448458254218
0.00414897140048
0.00369879873286
0.00310693251801
0.0023165822056
0.000966471645353
0.00135601627784
0.00324053436325
0.00431777663803
0.00509220059225
0.00564497638707
0.00600359867144
0.00619125138996
0.0062394126405
0.00619411003582
0.00609548388673
0.0059687871569
0.00582576384708
0.0056605725544
0.00545480367796
0.00518205039521
0.00481115243825
0.00430558653529
0.00363000389206
0.00271792745045
0.00113732410065
0.00150656972881
0.00360488644458
0.0047984417083
0.00565336802268
0.00625742873126
0.00662764589405
0.0067834052205
0.00677426499327
0.00666625058889
0.00651331198649
0.00634835240717
0.00618571560578
0.00601762710279
0.00581900160051
0.00555548323332
0.00518688689086
0.00466896967986
0.00395525409529
0.00296932284359
0.00124230268904
0.00160328317515