/*--------------------------------*- C++ -*----------------------------------*\
| =========                 |                                                 |
| \\      /  F ield         | OpenFOAM: The Open Source CFD Toolbox           |
|  \\    /   O peration     | Version:  3.0.1                                 |
|   \\  /    A nd           | Web:      www.OpenFOAM.org                      |
|    \\/     M anipulation  |                                                 |
\*---------------------------------------------------------------------------*/
FoamFile
{
    version     2.0;
    format      ascii;
    class       volScalarField;
    location    "9.8";
    object      p_rgh;
}
// * * * * * * * * * * * * * * * * * * * * * * * * * * * * * * * * * * * * * //

dimensions      [1 -1 -2 0 0 0 0];

internalField   nonuniform List<scalar> 
7968
(
4891.42784512
4891.4239492
4891.39017364
4891.34428504
4891.29967899
4891.26227861
4891.23699038
4891.22318816
4891.21483504
4891.20649857
4891.19583537
4891.18262038
4891.16940477
4891.16166569
4891.16571267
4891.18150304
4891.20982014
4891.24134383
4891.26631145
4891.26720202
4891.42594239
4891.43729857
4891.41154971
4891.36882999
4891.324059
4891.28716842
4891.26174401
4891.24813459
4891.24035316
4891.23229122
4891.22159029
4891.20804777
4891.19414863
4891.18558422
4891.18920591
4891.20607568
4891.23292167
4891.2610984
4891.2779584
4891.26410699
4891.39821353
4891.41758135
4891.39435539
4891.35083761
4891.30352133
4891.26473344
4891.23845944
4891.22447967
4891.21643262
4891.20801869
4891.19694773
4891.18303974
4891.1687913
4891.1602749
4891.1647598
4891.18347652
4891.21277577
4891.24149927
4891.25568976
4891.23417535
4891.36118923
4891.38389514
4891.3597595
4891.31509488
4891.26906326
4891.23545257
4891.21617328
4891.20886754
4891.20526499
4891.1987689
4891.18740152
4891.17104211
4891.15192994
4891.13654951
4891.13402108
4891.14752055
4891.17535269
4891.20473659
4891.21942691
4891.19463048
4891.32677096
4891.34974911
4891.32279878
4891.279267
4891.24061105
4891.21836991
4891.2112642
4891.21471371
4891.21849141
4891.21565264
4891.20411906
4891.18372223
4891.15665661
4891.13009359
4891.11529524
4891.11765243
4891.13818891
4891.16605756
4891.18305863
4891.15775047
4891.30180108
4891.32442096
4891.29527766
4891.25679634
4891.22963576
4891.22153533
4891.2290474
4891.24556277
4891.25867089
4891.2606084
4891.24899766
4891.22356915
4891.18643744
4891.14602759
4891.1162667
4891.10485043
4891.11438843
4891.13712436
4891.15599818
4891.13096665
4891.28853102
4891.31119467
4891.28106995
4891.24962438
4891.23500623
4891.24185484
4891.26531731
4891.29635772
4891.32032833
4891.32791962
4891.31636133
4891.28543116
4891.23671358
4891.18075968
4891.13443796
4891.10827467
4891.10589067
4891.12177267
4891.14154191
4891.11631165
4891.28705618
4891.31000751
4891.27957726
4891.25505534
4891.25164638
4891.27199636
4891.31010718
4891.355077
4891.38957528
4891.40489032
4891.39431877
4891.35576115
4891.29610569
4891.22509372
4891.16320684
4891.1233647
4891.11007864
4891.11938146
4891.13947957
4891.11382328
4891.29102964
4891.31451411
4891.28403566
4891.26425655
4891.26861891
4891.29861237
4891.34752245
4891.40270767
4891.45152735
4891.47649889
4891.4670719
4891.42067341
4891.3454107
4891.2628314
4891.18935726
4891.1395468
4891.11849345
4891.1232305
4891.14338339
4891.11714595
4891.29495548
4891.31868706
4891.28821898
4891.27062802
4891.2788959
4891.31380136
4891.36832794
4891.42921971
4891.48718419
4891.51660285
4891.50764206
4891.45879598
4891.37518194
4891.28362524
4891.20449953
4891.14961909
4891.12463721
4891.12714649
4891.14728922
4891.1207625
4891.29635118
4891.32009399
4891.28967771
4891.27213373
4891.28040771
4891.31532954
4891.36985518
4891.43071768
4891.48864149
4891.51802869
4891.50905606
4891.46021358
4891.37662868
4891.28516115
4891.20607096
4891.15121556
4891.12625561
4891.12872951
4891.14881351
4891.12228425
4891.29511144
4891.31864527
4891.2883112
4891.26867184
4891.27314389
4891.30323943
4891.35220684
4891.4073756
4891.45611982
4891.48097586
4891.4715068
4891.42512817
4891.34995035
4891.26754617
4891.19412392
4891.14434613
4891.12329339
4891.12790907
4891.14787842
4891.12159198
4891.29363166
4891.31667974
4891.28648268
4891.26225665
4891.25911506
4891.27974584
4891.31808459
4891.36316795
4891.39770752
4891.41293631
4891.40232205
4891.36379008
4891.30411426
4891.23309681
4891.17118851
4891.13128847
4891.11790243
4891.12696146
4891.14674679
4891.12098336
4891.297267
4891.31999712
4891.29022021
4891.25924749
4891.24510781
4891.25246237
4891.27640302
4891.30778798
4891.33193943
4891.33958282
4891.32795759
4891.29687995
4891.2480165
4891.19189165
4891.14537546
4891.1189931
4891.11634941
4891.13184378
4891.1511972
4891.12586715
4891.31215954
4891.33487809
4891.30617131
4891.26831544
4891.24180978
4891.23438261
4891.24255368
4891.25959906
4891.27302278
4891.27506175
4891.26338415
4891.23778101
4891.20040416
4891.15969241
4891.12959186
4891.11781275
4891.12694945
4891.14917547
4891.16759622
4891.14248754
4891.33833814
4891.36146853
4891.33495091
4891.29210556
4891.25420753
4891.23273132
4891.22636471
4891.23044822
4891.23463913
4891.23196944
4891.22040334
4891.19982978
4891.17247437
4891.14554099
4891.13031058
4891.13219612
4891.15222117
4891.17954233
4891.19613093
4891.17073442
4891.37362098
4891.39646368
4891.37270024
4891.32869457
4891.28344331
4891.25064602
4891.23215751
4891.2255515
4891.22244099
4891.21618457
4891.2048382
4891.1883218
4891.16889046
4891.1530648
4891.15001803
4891.16295657
4891.19023159
4891.21910402
4891.23345811
4891.2086663
4891.41116894
4891.43069762
4891.40774488
4891.36479633
4891.31821655
4891.28025558
4891.25481744
4891.24158586
4891.23408254
4891.22595908
4891.21494591
4891.20088959
4891.18628576
4891.17724281
4891.18112903
4891.1992456
4891.22802016
4891.25630992
4891.27028146
4891.24880297
4891.43944988
4891.45076398
4891.42519122
4891.38292751
4891.33878578
4891.30268345
4891.2780831
4891.26521528
4891.25796828
4891.25020418
4891.23956799
4891.22587623
4891.21160212
4891.20248314
4891.20550453
4891.22181909
4891.24823916
4891.27608732
4891.29284975
4891.27910159
4891.44167429
4891.43776645
4891.40410884
4891.35864835
4891.31468927
4891.27809273
4891.25355041
4891.24040887
4891.2325352
4891.22446736
4891.21386559
4891.20051426
4891.18695739
4891.17869452
4891.18214509
4891.19733988
4891.22520924
4891.25638221
4891.28114522
4891.28195307
4891.40418596
4891.38628188
4891.34362465
4891.29334999
4891.24967031
4891.21670882
4891.19491844
4891.18416583
4891.1782517
4891.17102604
4891.16040614
4891.14625828
4891.13086642
4891.11994619
4891.12034368
4891.13421387
4891.1603944
4891.19615908
4891.22952014
4891.24382637
4891.38816888
4891.38117682
4891.34325762
4891.29739801
4891.25986648
4891.23324321
4891.21676849
4891.20932764
4891.20501904
4891.19845681
4891.18796978
4891.17334552
4891.156687
4891.14268184
4891.13799562
4891.14561543
4891.16532524
4891.19598071
4891.22391176
4891.2271442
4891.35146438
4891.34958995
4891.30602765
4891.25735794
4891.22029879
4891.19733885
4891.18593443
4891.1828134
4891.18118579
4891.1757821
4891.16500557
4891.14875784
4891.12892644
4891.11059933
4891.10115563
4891.10516804
4891.12424047
4891.15718899
4891.18999769
4891.18825554
4891.3102908
4891.31296688
4891.26634905
4891.22003132
4891.19160163
4891.18045991
4891.18143551
4891.18803907
4891.19240355
4891.18968244
4891.17862316
4891.15914618
4891.1326976
4891.10441957
4891.08259864
4891.07552443
4891.08605257
4891.11611379
4891.15111616
4891.14461102
4891.27743755
4891.28605136
4891.23941935
4891.20154504
4891.18815514
4891.19576287
4891.21416591
4891.23510119
4891.24906033
4891.25086364
4891.23957583
4891.21500753
4891.17817288
4891.13492991
4891.09597035
4891.07061142
4891.06645197
4891.08798786
4891.12219445
4891.10936079
4891.25609233
4891.27051569
4891.22708747
4891.20082845
4891.20633706
4891.23391216
4891.27246264
4891.3103935
4891.33594965
4891.34355936
4891.33234496
4891.30179154
4891.25237884
4891.19085136
4891.13118494
4891.08595946
4891.06355999
4891.07426901
4891.10485817
4891.08583824
4891.24671295
4891.26596615
4891.22723333
4891.21338006
4891.23687329
4891.28511839
4891.34422722
4891.39995279
4891.43835545
4891.45268732
4891.44186553
4891.40496288
4891.34187844
4891.26089225
4891.17943523
4891.11378037
4891.07475381
4891.07315985
4891.09899728
4891.07486864
4891.24829254
4891.27055446
4891.23618754
4891.23236773
4891.27087011
4891.33680791
4891.41383669
4891.48601547
4891.53604245
4891.5539589
4891.54292349
4891.5041638
4891.42941626
4891.33041484
4891.22941522
4891.14566925
4891.09202086
4891.08079545
4891.10265553
4891.07543154
4891.25460581
4891.27828259
4891.24669933
4891.24927095
4891.2979749
4891.37591556
4891.46553981
4891.54903231
4891.59920264
4891.61781817
4891.60716895
4891.5666559
4891.49278042
4891.38295267
4891.26801833
4891.17172528
4891.10802588
4891.09038005
4891.10964168
4891.08103675
4891.25968034
4891.28382703
4891.253622
4891.2590979
4891.31266162
4891.39638895
4891.49224736
4891.58062829
4891.63028632
4891.65064802
4891.64043706
4891.59736654
4891.5213772
4891.41041937
4891.28870246
4891.18623821
4891.11763192
4891.09691732
4891.11494622
4891.08576465
4891.26115524
4891.28529086
4891.25513505
4891.26056133
4891.31413423
4891.39785995
4891.49369528
4891.58204791
4891.63169929
4891.65204523
4891.64182655
4891.59876663
4891.52281513
4891.41185904
4891.29022504
4891.18781889
4891.11924274
4891.09857819
4891.11654741
4891.08737962
4891.25893136
4891.28260561
4891.25107446
4891.25363842
4891.30247255
4891.38050367
4891.47012927
4891.55354461
4891.60367585
4891.62224397
4891.61155367
4891.57103779
4891.4972652
4891.38746118
4891.27273006
4891.17658909
4891.11299328
4891.09533293
4891.1144125
4891.08578119
4891.25516071
4891.27753544
4891.24329901
4891.2396366
4891.2784456
4891.34470319
4891.42192868
4891.49413989
4891.54409917
4891.56200229
4891.55089207
4891.51200631
4891.4372991
4891.3383719
4891.23748129
4891.15381101
4891.10023943
4891.08884103
4891.11037977
4891.08309265
4891.2556236
4891.2750003
4891.23669601
4891.22329023
4891.24729738
4891.29616075
4891.35580969
4891.41188748
4891.45044415
4891.46472638
4891.4537832
4891.41669831
4891.35342172
4891.27228183
4891.19068138
4891.12490239
4891.08577103
4891.0838769
4891.10926395
4891.08503481
4891.26674915
4891.28127131
4891.23843088
4891.21287867
4891.21909478
4891.24745809
4891.2867861
4891.32531523
4891.35118936
4891.35881967
4891.34745101
4891.31665542
4891.26693895
4891.20508397
4891.14508872
4891.09958211
4891.07696711
4891.08712481
4891.11718264
4891.09804703
4891.28947878
4891.29820381
4891.2521415
4891.21508478
4891.20250564
4891.21092836
4891.23017368
4891.25181564
4891.26621476
4891.26814704
4891.25674191
4891.23192743
4891.19475042
4891.151147
4891.11181809
4891.08604715
4891.08144035
4891.1023718
4891.13607084
4891.12313262
4891.3232647
4891.32602906
4891.27983157
4891.23436971
4891.20686685
4891.19656485
4891.19841194
4891.20578806
4891.2106777
4891.20818809
4891.19709637
4891.17742789
4891.15064801
4891.12196657
4891.09971938
4891.09210014
4891.10199083
4891.13140062
4891.16597891
4891.15939131
4891.36499903
4891.36313716
4891.31983809
4891.27190231
4891.23581462
4891.21380881
4891.20335555
4891.201095
4891.2000677
4891.19498384
4891.18423217
4891.16780942
4891.14759199
4891.12875075
4891.11873362
4891.12207917
4891.14044608
4891.17281488
4891.2053415
4891.20357294
4891.40207689
4891.39503737
4891.35720222
4891.31189585
4891.27521087
4891.24955805
4891.23412441
4891.22761203
4891.22387693
4891.21762282
4891.20715933
4891.19236089
4891.17520118
4891.16058153
4891.15524264
4891.1622114
4891.18131392
4891.21153848
4891.23934621
4891.24255108
4891.41833468
4891.40035997
4891.35775312
4891.30797854
4891.26515173
4891.23314409
4891.21226365
4891.20225383
4891.19684247
4891.18993115
4891.17938114
4891.16505749
4891.14924388
4891.1377104
4891.13742703
4891.15063369
4891.17617651
4891.21147726
4891.24455335
4891.25863439
4891.36137068
4891.33115537
4891.28385678
4891.23146384
4891.18743725
4891.15413669
4891.13221463
4891.11985648
4891.11110807
4891.10166313
4891.09067441
4891.07825472
4891.06577749
4891.05726058
4891.05848173
4891.0728734
4891.09964038
4891.13776983
4891.17558427
4891.20151069
4891.33296358
4891.32398927
4891.28649029
4891.24453402
4891.21234886
4891.19021107
4891.17755846
4891.17056134
4891.16403589
4891.15549429
4891.14470312
4891.13186592
4891.11761594
4891.10464975
4891.09734876
4891.10015734
4891.115013
4891.14184486
4891.1686114
4891.17320095
4891.29176193
4891.29367284
4891.24234615
4891.19198923
4891.15603014
4891.13650331
4891.1290253
4891.12798836
4891.12611993
4891.11995661
4891.10857336
4891.09214025
4891.07234723
4891.05299373
4891.04100578
4891.04249669
4891.06089134
4891.09570285
4891.13522448
4891.13004819
4891.24854468
4891.26105254
4891.20092331
4891.15008255
4891.12349143
4891.1214289
4891.13049328
4891.14214173
4891.14852493
4891.14613035
4891.13406858
4891.11271989
4891.08355947
4891.05151242
4891.02422388
4891.00937984
4891.01858469
4891.05313597
4891.10060024
4891.08456592
4891.21555232
4891.23939669
4891.1747919
4891.13324592
4891.12611313
4891.14408514
4891.17296661
4891.2000225
4891.216406
4891.21854013
4891.20602069
4891.1788908
4891.13887811
4891.09076164
4891.04353617
4891.00914435
4891.00077137
4891.02609835
4891.07708332
4891.04922962
4891.19398328
4891.22873502
4891.16546779
4891.14052752
4891.15364564
4891.19422698
4891.24311343
4891.28523098
4891.31121737
4891.31769129
4891.30434538
4891.27100607
4891.21918013
4891.15528252
4891.08925871
4891.0337763
4891.00628059
4891.01535553
4891.06484504
4891.02566554
4891.18420286
4891.22685125
4891.16863926
4891.16040122
4891.19383412
4891.25547405
4891.32395131
4891.3812274
4891.41714869
4891.42842351
4891.41395525
4891.37288691
4891.30752207
4891.227077
4891.14364841
4891.06966841
4891.02263736
4891.01734139
4891.0620273
4891.014462
4891.18424932
4891.23130182
4891.17919175
4891.18428609
4891.23441133
4891.31327273
4891.39849306
4891.4697825
4891.51659589
4891.53388275
4891.51905341
4891.47011133
4891.39051997
4891.29379262
4891.19473092
4891.10566038
4891.0434794
4891.02581819
4891.0649987
4891.01312378
4891.18799432
4891.23683258
4891.19003884
4891.204217
4891.26584355
4891.35634233
4891.45315826
4891.53536225
4891.59214484
4891.61472751
4891.59983206
4891.54596231
4891.45468396
4891.34449962
4891.23320437
4891.13342911
4891.06099587
4891.03520717
4891.06954534
4891.01602044
4891.190993
4891.24058841
4891.19684374
4891.21552531
4891.28285108
4891.37894972
4891.48159168
4891.56960508
4891.63210005
4891.65758491
4891.64260274
4891.58591743
4891.48981764
4891.37224223
4891.2541645
4891.14859352
4891.07114931
4891.04144095
4891.0732016
4891.01896028
4891.19248464
4891.24211977
4891.19840402
4891.21713602
4891.28451491
4891.38066808
4891.48340236
4891.57151871
4891.63410487
4891.65965182
4891.64466529
4891.5879688
4891.491761
4891.37411943
4891.25599398
4891.15044824
4891.07304634
4891.0432252
4891.07493544
4891.02074432
4891.19234272
4891.24137644
4891.19474728
4891.20904122
4891.27097524
4891.36181521
4891.45896277
4891.54144504
4891.5984384
4891.62111812
4891.60620617
4891.55223711
4891.46070414
4891.35027864
4891.23878209
4891.13894799
4891.06661199
4891.04081962
4891.07471747
4891.02122582
4891.19140629
4891.23870718
4891.18707311
4891.19232406
4891.24299479
4891.32258029
4891.40859911
4891.48052821
4891.52778112
4891.54518535
4891.53036089
4891.48126927
4891.40115237
4891.30374873
4891.20415522
4891.11488484
4891.05269136
4891.03498394
4891.07331716
4891.0214515
4891.19380291
4891.23662366
4891.17911257
4891.17135144
4891.20549405
4891.26811189
4891.33784237
4891.39627725
4891.43299002
4891.44448469
4891.42982338
4891.38807718
4891.32178457
4891.24042377
4891.15633812
4891.08214665
4891.03511981
4891.02930708
4891.07304875
4891.02540616
4891.2053031
4891.23998956
4891.17788938
4891.15392284
4891.16791242
4891.20939309
4891.25941332
4891.30268219
4891.3293963
4891.33599799
4891.32223674
4891.28824567
4891.23563508
4891.17106681
4891.10463094
4891.04898319
4891.02111441
4891.02957884
4891.07803304
4891.03871769
4891.22832384
4891.2522049
4891.18874747
4891.14839821
4891.14222209
4891.1609773
4891.19071768
4891.21869155
4891.23579792
4891.2381216
4891.22524089
4891.19758933
4891.15689336
4891.1085067
4891.06113167
4891.02643824
4891.01747936
4891.0419186
4891.091922
4891.06390526
4891.26235002
4891.27496743
4891.21558759
4891.16611658
4891.14071591
4891.13956091
4891.14958683
4891.16215577
4891.16929662
4891.16710202
4891.15492621
4891.13326223
4891.10356023
4891.07101072
4891.04337397
4891.02794042
4891.03626372
4891.06990116
4891.11648356
4891.10022122
4891.30622643
4891.30816237
4891.2572925
4891.208159
4891.17355334
4891.15529218
4891.14902549
4891.14906572
4891.14799968
4891.14213282
4891.13072884
4891.11403723
4891.09366082
4891.07350402
4891.06079762
4891.06135818
4891.07877941
4891.11271452
4891.15156297
4891.14614903
4891.34775273
4891.3387822
4891.30130628
4891.26023478
4891.2293178
4891.20891443
4891.19731023
4891.191013
4891.18508829
4891.1770252
4891.16630555
4891.15314142
4891.1383065
4891.12434909
4891.11621467
4891.11816508
4891.13219802
4891.15833907
4891.18497841
4891.18927444
4891.37613051
4891.34583282
4891.2987444
4891.24723401
4891.20457207
4891.17262497
4891.15193971
4891.14043447
4891.13224624
4891.12314405
4891.11220795
4891.09955675
4891.08650496
4891.07690607
4891.07712947
4891.09052268
4891.11641689
4891.15388319
4891.19117066
4891.21690505
4891.29391916
4891.2551825
4891.20894437
4891.15375067
4891.10520055
4891.0673083
4891.04002645
4891.02084138
4891.0051133
4890.99086416
4890.97892373
4890.969895
4890.96386567
4890.96206437
4890.97002507
4890.99016864
4891.02185475
4891.06340017
4891.10054238
4891.13492326
4891.25677072
4891.2443803
4891.20365674
4891.15300092
4891.10800007
4891.07368083
4891.04751504
4891.02626637
4891.00679767
4890.9906251
4890.97869137
4890.97194888
4890.96982968
4890.97146752
4890.97932679
4890.99621522
4891.0229594
4891.05939608
4891.08987764
4891.09856471
4891.21663519
4891.21057168
4891.16035443
4891.0986981
4891.05136775
4891.02285072
4891.00939355
4891.00596595
4891.00061548
4890.99126508
4890.97861261
4890.96324024
4890.946128
4890.93095276
4890.92667642
4890.93881678
4890.96896033
4891.01373994
4891.05398356
4891.05669234
4891.17060059
4891.1688776
4891.10804376
4891.04276658
4891.00608491
4891.00903888
4891.02462117
4891.04156672
4891.05021295
4891.04753721
4891.03377108
4891.00967573
4890.977618
4890.94213589
4890.91149492
4890.89672042
4890.91354338
4890.96175442
4891.01088983
4891.00889696
4891.13325589
4891.13454428
4891.06962475
4891.016288
4891.01338561
4891.04613182
4891.08902457
4891.12496644
4891.14455232
4891.14628115
4891.13009007
4891.09643901
4891.04962243
4890.9956657
4890.94228346
4890.90045979
4890.88887015
4890.92348294
4890.97608955
4890.96958081
4891.10616547
4891.10936437
4891.04957139
4891.02368117
4891.0528972
4891.11673136
4891.18468311
4891.23538751
4891.2618434
4891.26436095
4891.24389758
4891.20045171
4891.13805801
4891.06635724
4890.99510646
4890.93302965
4890.89534886
4890.90306548
4890.95030603
4890.94089497
4891.08992407
4891.09259375
4891.04518517
4891.04833906
4891.10719966
4891.20072481
4891.29198787
4891.35633518
4891.38851525
4891.39105526
4891.36516191
4891.30993266
4891.22977279
4891.13935482
4891.05104747
4890.97343035
4890.91582524
4890.89863388
4890.9325113
4890.92352504
4891.08303494
4891.08257817
4891.05146419
4891.0768142
4891.16057951
4891.27727672
4891.38762603
4891.46403395
4891.50301461
4891.50785117
4891.47838518
4891.41213275
4891.31419698
4891.20609185
4891.10224629
4891.01109018
4890.93874438
4890.90299623
4890.92043369
4890.9151711
4891.0806984
4891.07648478
4891.05871858
4891.09941336
4891.20109256
4891.33285165
4891.45621011
4891.54081535
4891.58523008
4891.59224225
4891.56128195
4891.48935458
4891.3791287
4891.25760212
4891.14182134
4891.03999972
4890.95684557
4890.90808807
4890.912007
4890.91139806
4891.0803595
4891.07402279
4891.06373121
4891.11251906
4891.22300633
4891.36135855
4891.49128261
4891.58073233
4891.62880609
4891.637046
4891.6049851
4891.53074505
4891.41486387
4891.28647797
4891.16415958
4891.05642623
4890.96690715
4890.91169173
4890.90785368
4890.91022825
4891.0821344
4891.07581423
4891.06571539
4891.11450915
4891.22528964
4891.3638881
4891.49407601
4891.5838955
4891.63233624
4891.6407315
4891.60878118
4891.53450016
4891.41830067
4891.2895267
4891.16683679
4891.05883001
4890.9694008
4890.91398021
4890.9099843
4890.91224757
4891.0859382
4891.08190846
4891.06458879
4891.10544009
4891.20798536
4891.34087036
4891.46527592
4891.55093452
4891.59643562
4891.60396087
4891.57303752
4891.50091168
4891.38968558
4891.26686727
4891.14983372
4891.04712178
4890.96361725
4890.91476862
4890.9181984
4890.91728151
4891.09150097
4891.0911796
4891.06093336
4891.08656688
4891.17174438
4891.29071019
4891.40345582
4891.48185502
4891.52271717
4891.52859394
4891.49942047
4891.43254518
4891.33260961
4891.22181369
4891.11560252
4891.0227788
4890.94993225
4890.91367973
4890.93018523
4890.92447103
4891.10101176
4891.10392732
4891.05787762
4891.06175378
4891.12188528
4891.21821833
4891.31316034
4891.38069471
4891.41554024
4891.41920805
4891.39307737
4891.33542922
4891.25213667
4891.15870632
4891.0677857
4890.98857431
4890.93069479
4890.91258364
4890.94507254
4890.93556749
4891.11917899
4891.12308854
4891.06453969
4891.04059128
4891.070306
4891.13599882
4891.20675569
4891.26049679
4891.28866831
4891.29144865
4891.26968781
4891.22490431
4891.160571
4891.08687923
4891.01384561
4890.95088044
4890.91284944
4890.919445
4890.96490607
4890.95501565
4891.14764844
4891.14933037
4891.08607013
4891.03462162
4891.03308229
4891.06607209
4891.11038318
4891.14792653
4891.16862641
4891.17060682
4891.15341192
4891.11863604
4891.0705576
4891.01612568
4890.962425
4890.92031469
4890.90811913
4890.94130488
4890.99207837
4890.98513017
4891.18585033
4891.18435217
4891.12547577
4891.06164367
4891.02663368
4891.03034753
4891.04679905
4891.06415907
4891.07348803
4891.07115471
4891.05711
4891.03240889
4890.99958551
4890.96397134
4890.93328322
4890.91793061
4890.93353095
4890.98006864
4891.0280614
4891.02548687
4891.23233012
4891.22634119
4891.17730659
4891.11845727
4891.07181432
4891.04484894
4891.03285306
4891.03039377
4891.02575085
4891.01691115
4891.00423656
4890.98861493
4890.97078465
4890.95481233
4890.94949796
4890.96017043
4890.98864179
4891.03227113
4891.0714614
4891.07377493
4891.27272216
4891.2602073
4891.22011425
4891.17111623
4891.12870028
4891.09473122
4891.06987153
4891.04999537
4891.0319984
4891.01636629
4891.00458801
4890.99756043
4890.99452548
4890.99482141
4891.00111343
4891.01641381
4891.04225287
4891.07752251
4891.10715478
4891.11551284
4891.30972131
4891.2708737
4891.22521387
4891.1715541
4891.12498248
4891.08816956
4891.0619872
4891.0438932
4891.02905844
4891.01549721
4891.00382324
4890.99452548
4890.98772246
4890.9847234
4890.99131601
4891.00980163
4891.04003286
4891.08076469
4891.1170451
4891.15147065
4891.26525649
4891.22716335
4891.17921744
4891.11322973
4891.05194153
4891.0002916
4890.96025014
4890.92964279
4890.90499189
4890.88432921
4890.87011435
4890.86396756
4890.86518903
4890.87548766
4890.89757863
4890.93256385
4890.97704012
4891.03182355
4891.07081084
4891.10593782
4891.2284051
4891.1930938
4891.1407064
4891.06487814
4890.99327187
4890.92888362
4890.87634112
4890.82614219
4890.78184017
4890.77102331
4890.75924576
4890.74889806
4890.76865229
4890.79354435
4890.82972495
4890.87754829
4890.93263787
4890.99308269
4891.03700853
4891.069703
4891.18738272
4891.14680981
4891.08457164
4890.99773817
4890.9059055
4890.85848229
4890.83402424
4890.82468064
4890.81585592
4890.80378528
4890.78882624
4890.77166146
4890.75543703
4890.74718015
4890.75480803
4890.79380028
4890.8652077
4890.93655733
4890.98924938
4891.02583688
4891.12915853
4891.08032909
4891.00670022
4890.88232693
4890.84596012
4890.85037047
4890.87328998
4890.89040878
4890.90344315
4890.90308568
4890.88592213
4890.86063157
4890.8204368
4890.77848473
4890.74506753
4890.73286542
4890.76041481
4890.8583111
4890.92279208
4890.96652768
4891.07971299
4891.01730594
4890.91744167
4890.84194444
4890.85901959
4890.91707983
4890.98213387
4891.03080009
4891.05582356
4891.05659013
4891.03279552
4890.98505634
4890.92404824
4890.85786944
4890.79323762
4890.74205491
4890.72662653
4890.78233792
4890.85980404
4890.91447373
4891.03851765
4890.96230094
4890.87682825
4890.85382728
4890.92008673
4891.0267132
4891.1205799
4891.18031529
4891.20448132
4891.19896286
4891.16586574
4891.10487132
4891.02473844
4890.93927798
4890.85757986
4890.7832815
4890.7323715
4890.739947
4890.80236444
4890.87096209
4891.00990878
4890.9182603
4890.85926299
4890.8862437
4891.00271877
4891.14924379
4891.27113881
4891.34177805
4891.36316076
4891.34850391
4891.30285973
4891.22327967
4891.11881305
4891.0131469
4890.91553878
4890.82834493
4890.75306099
4890.72046084
4890.75387754
4890.8390194
4890.99219738
4890.88124243
4890.85904492
4890.92586269
4891.08141005
4891.2572901
4891.40130171
4891.481234
4891.50541707
4891.4895654
4891.43628506
4891.33788671
4891.20450926
4891.07802906
4890.96671164
4890.86853063
4890.77578661
4890.71596567
4890.71687942
4890.81763546
4890.98266425
4890.85901968
4890.86516476
4890.95580007
4891.14086807
4891.33452567
4891.49245288
4891.57435175
4891.59535796
4891.57792757
4891.52467722
4891.42513811
4891.27254194
4891.12961126
4891.0072417
4890.90005916
4890.7962982
4890.71674298
4890.69146975
4890.80469951
4890.97928101
4890.85926705
4890.87007292
4890.97265383
4891.17345654
4891.37280119
4891.53675383
4891.61965719
4891.63805316
4891.61980923
4891.56900156
4891.47064752
4891.3105938
4891.16007377
4891.03121266
4890.91867806
4890.80073375
4890.71939733
4890.67860844
4890.79926942
4890.98140533
4890.86160597
4890.8724725
4890.97502707
4891.17703087
4891.37676117
4891.5409436
4891.62415288
4891.64285621
4891.625337
4891.57509557
4891.47695126
4891.31614957
4891.16477535
4891.03513952
4890.92200064
4890.80383205
4890.72241274
4890.68146962
4890.80182498
4890.98878518
4890.86786071
4890.87226273
4890.96291797
4891.15124349
4891.34726769
4891.50663128
4891.58985207
4891.61244246
4891.59624508
4891.54434241
4891.44468685
4891.28984951
4891.14395416
4891.0188981
4890.90974856
4890.80210421
4890.72547452
4890.69973
4890.81198855
4891.00198678
4890.89369447
4890.87030762
4890.93774004
4891.09746155
4891.27860202
4891.42735291
4891.51059726
4891.53908996
4891.52613992
4891.47387581
4891.37484703
4891.23593104
4891.10249144
4890.98612869
4890.88449451
4890.78819391
4890.72973786
4890.7294557
4890.82890098
4891.02246046
4890.93078434
4890.87378731
4890.90253741
4891.0228653
4891.17624409
4891.30732421
4891.38418174
4891.41265374
4891.40103897
4891.35538194
4891.26634045
4891.15333467
4891.04131261
4890.93867534
4890.84826547
4890.77345359
4890.73769692
4890.76932614
4890.85317844
4891.05316217
4890.97675973
4890.89848741
4890.87426722
4890.9418244
4891.05378082
4891.15310744
4891.22036031
4891.24768741
4891.24145977
4891.20305429
4891.14068636
4891.05667609
4890.96751452
4890.88246443
4890.80651113
4890.75471796
4890.76075802
4890.81955335
4890.88707233
4891.09573882
4891.03407359
4890.94060802
4890.86780413
4890.88112647
4890.94137175
4891.00913698
4891.06072015
4891.08784773
4891.08903559
4891.06311797
4891.01278664
4890.94899527
4890.88317577
4890.81886462
4890.76656825
4890.75005983
4890.8048708
4890.87793559
4890.93169096
4891.14590393
4891.09752568
4891.02527152
4890.91023968
4890.87315416
4890.87290786
4890.89843364
4890.92021206
4890.93475151
4890.93347856
4890.91635419
4890.88708792
4890.84536167
4890.80359103
4890.77122516
4890.7582975
4890.78550082
4890.87910243
4890.94111577
4890.98419302
4891.20446723
4891.1639515
4891.10420035
4891.01819291
4890.93488452
4890.88379824
4890.86075092
4890.85306154
4890.8458495
4890.83450564
4890.81962492
4890.80232441
4890.78499229
4890.77556549
4890.78374709
4890.8195596
4890.88760972
4890.95650347
4891.00790998
4891.04351635
4891.24562317
4891.21017175
4891.15882624
4891.08592425
4891.01510322
4890.95306663
4890.90266337
4890.85766103
4890.81513634
4890.8057005
4890.79203651
4890.78499563
4890.80027951
4890.82210382
4890.85556845
4890.90076613
4890.9534214
4891.01281124
4891.05519652
4891.08721441
4891.28227254
4891.2441482
4891.19696629
4891.13230048
4891.07346491
4891.02358897
4890.9854167
4890.95649539
4890.93326309
4890.91422611
4890.90082413
4890.89399156
4890.89379201
4890.90212626
4890.92192906
4890.95451886
4890.99649116
4891.05081593
4891.08834425
4891.12295342
4891.31066922
4891.27146895
4891.2230111
4891.15276722
4891.08678806
4891.02920884
4890.98531302
4890.95504709
4890.93379179
4890.91135807
4890.8936612
4890.88518641
4890.8814587
4890.89105113
4890.91729879
4890.95900192
4891.01080415
4891.06974347
4891.11159677
4891.14814962
4891.27294379
4891.19327716
4891.12634849
4891.02104365
4890.91610332
4890.81671914
4890.72537012
4890.62689941
4890.55652027
4890.54361129
4890.53522329
4890.53059736
4890.57971018
4890.64014747
4890.70711693
4890.7911972
4890.88156587
4890.97306575
4891.03327185
4891.10980285
4891.23058447
4891.13136349
4891.05828729
4890.93653443
4890.52962232
4889.63922854
4889.65499874
4889.91559613
4890.06848895
4890.15461401
4890.15491988
4890.05501605
4889.85916625
4889.60523716
4889.68563214
4890.44344358
4890.79018369
4890.90072279
4890.97059759
4891.06389598
4891.17080522
4891.03663975
4890.94693947
4890.17198645
4889.70576817
4890.63256935
4890.676226
4890.72628153
4890.75496013
4890.75512946
4890.72959295
4890.67938364
4890.61385211
4890.54663897
4890.46351342
4889.67987769
4890.12462715
4890.78129819
4890.87161781
4890.9988784
4891.11833941
4890.94511561
4890.53221411
4889.65627272
4890.6562866
4890.76931753
4890.87477275
4890.95115244
4890.99447742
4890.99957538
4890.96005216
4890.87190042
4890.7895065
4890.70030238
4890.59104876
4890.50847808
4889.72164129
4890.44391699
4890.76935219