/*--------------------------------*- C++ -*----------------------------------*\
| =========                 |                                                 |
| \\      /  F ield         | OpenFOAM: The Open Source CFD Toolbox           |
|  \\    /   O peration     | Version:  3.0.1                                 |
|   \\  /    A nd           | Web:      www.OpenFOAM.org                      |
|    \\/     M anipulation  |                                                 |
\*---------------------------------------------------------------------------*/
FoamFile
{
    version     2.0;
    format      ascii;
    class       volVectorField;
    location    "9.8";
    object      U_0;
}
// * * * * * * * * * * * * * * * * * * * * * * * * * * * * * * * * * * * * * //

dimensions      [0 1 -1 0 0 0 0];

internalField   nonuniform List<vector> 
7968
(
(0.000930033185402 0.000834991718724 -0.00138113102229)
(0.00348452421522 0.00035259207645 -0.0016219138104)
(0.00673041196309 0.000137395159515 -0.00153344776053)
(0.00925042953264 0.000122786121038 -0.00114221419459)
(0.0108990839157 0.000339589229348 -0.000682227270273)
(0.0109767232288 0.000736909840425 -0.000240518047517)
(0.0101666111298 0.00101836157814 -1.38027008756e-05)
(0.00837821436846 0.00135631152239 0.000190657602159)
(0.00581351442503 0.00163568472107 0.000307219681767)
(0.00282771465019 0.00179124306301 0.000348519100638)
(-0.00030693369533 0.00180687467441 0.000358620024658)
(-0.00337287807286 0.0016803101425 0.000338623734243)
(-0.00610760645807 0.0014224958055 0.000246988710305)
(-0.00813939994086 0.00109073719343 6.32961119303e-05)
(-0.00920697440617 0.000766813050487 -0.000186949747121)
(-0.00940778908186 0.000443863468345 -0.000541868894325)
(-0.00814205563172 0.000186398055715 -0.00103165835611)
(-0.00595310406509 0.000202666048302 -0.0014201255388)
(-0.00304539968279 0.000414398471772 -0.00151610100114)
(-0.000785094800149 0.000880421319748 -0.00128374404391)
(0.000457317345775 0.003196180652 -0.00161172040448)
(0.00335722953782 0.00305300708215 -0.00398794161143)
(0.00710063331408 0.00325602487106 -0.00462964700264)
(0.00987406803601 0.00378450144812 -0.0044131191908)
(0.0114572195145 0.00459562801281 -0.00389975557288)
(0.0115366274712 0.00547508679459 -0.00334258561287)
(0.010544336293 0.00613974946639 -0.00291858034668)
(0.00859438626698 0.00672983872658 -0.00256043373846)
(0.00592782137446 0.00718518546972 -0.00232649370313)
(0.00288564967312 0.00744374912531 -0.00222307206078)
(-0.000291158795101 0.00746773567175 -0.00220283914002)
(-0.00341635925846 0.00725120480572 -0.00226444822403)
(-0.00625217898714 0.00682419304095 -0.002458321377)
(-0.0084459991632 0.00624635901793 -0.0027908526178)
(-0.00970356296602 0.00557716376766 -0.00320963069466)
(-0.00993161684504 0.00474840156486 -0.00372463669284)
(-0.00870743950083 0.00394064987309 -0.00424663748848)
(-0.00629278679543 0.00341709690908 -0.00447383043927)
(-0.00289961690039 0.00320779236418 -0.00385782742709)
(-0.000303723857618 0.00332316681842 -0.00151845718429)
(0.000247410398646 0.00623721841978 -0.00153048935493)
(0.00356901608486 0.00658313896039 -0.00462693405088)
(0.00772538547542 0.00719801144082 -0.00519785751454)
(0.0107026442973 0.00816564797952 -0.00470694405456)
(0.0122728245071 0.00940128487621 -0.00391985307983)
(0.0122761898868 0.0106431051662 -0.00317167948156)
(0.0110947650284 0.0116354835701 -0.00262851670242)
(0.00895170281004 0.0124682236493 -0.00224494847187)
(0.00613105855067 0.0130990564593 -0.0020187334616)
(0.00296986325499 0.0134489210752 -0.0019229137702)
(-0.000319245094567 0.0134899471765 -0.00190209075908)
(-0.00357354022451 0.0132129437748 -0.00195673155698)
(-0.00657784782648 0.0126308416157 -0.00214562384473)
(-0.00897308607031 0.0118167389615 -0.00250407758589)
(-0.0104253252506 0.0108305771018 -0.0030292046128)
(-0.0107317013162 0.00963394148076 -0.00373980871313)
(-0.00951640512401 0.00839809069221 -0.00451733303601)
(-0.00690078776552 0.00743189789468 -0.00501587372913)
(-0.003100404469 0.0068096416998 -0.00447669733185)
(-9.04010224297e-05 0.00643164335383 -0.00142921592758)
(0.000234738985841 0.00856877082691 -0.0011465655829)
(0.00409933486289 0.00915399829692 -0.00441709367686)
(0.00869825082284 0.00997263986286 -0.00471525173067)
(0.0118936461589 0.0111581488952 -0.00386944952225)
(0.0134506496595 0.0125828597831 -0.00272311688396)
(0.0133009002191 0.0139885155491 -0.00175068055648)
(0.0118770098074 0.0151522237099 -0.00107985511589)
(0.00947289864697 0.0161320951375 -0.000650984782694)
(0.00642937642433 0.0168731737556 -0.000432205742216)
(0.00308600293242 0.0172935788263 -0.000357550258374)
(-0.000370163203531 0.0173495166529 -0.000335234996336)
(-0.00381861671274 0.0170281472218 -0.000365106724482)
(-0.00706396139155 0.0163519759272 -0.000543160330566)
(-0.00973654035767 0.0153941369512 -0.000946125950429)
(-0.0114408793126 0.0142320288363 -0.00159406897304)
(-0.0118984059216 0.0128617888719 -0.00252835521291)
(-0.0106943773072 0.0114364041999 -0.00365985775675)
(-0.00785981389133 0.0102493587834 -0.00450872221784)
(-0.00362082412069 0.00942525503484 -0.004245561327)
(-7.12905878751e-05 0.00880695114648 -0.00103398363543)
(0.000471066200702 0.0100274907414 -0.000682606230686)
(0.00491282549625 0.010552444193 -0.00390977493862)
(0.00993804197559 0.0113601736218 -0.00394308805464)
(0.0133198440574 0.0125317929326 -0.00274158612943)
(0.0148794274735 0.0139558065424 -0.00128294255455)
(0.0145590607303 0.0153482020272 -4.21093447179e-05)
(0.0128861203553 0.0165064529796 0.00086269062958)
(0.0101969074728 0.0174946773177 0.00146855148465)
(0.00687887394343 0.0182624542786 0.00178887033584)
(0.00326867692956 0.0187134787818 0.00191048925848)
(-0.000458572999056 0.018786497004 0.00194179134249)
(-0.00419756511241 0.0184616891292 0.00187999994327)
(-0.0077507690966 0.0177708629299 0.00160597875807)
(-0.0107334479339 0.0167989340722 0.00102454592481)
(-0.0127008127533 0.015629509883 0.00013419036312)
(-0.01332713144 0.014261921531 -0.00107081299918)
(-0.0121197172946 0.0128267395425 -0.00250527288284)
(-0.00909494990203 0.0116475727718 -0.00371131632572)
(-0.0044314968081 0.0108344119951 -0.00371248990122)
(-0.00030522891415 0.0102772077719 -0.000549081391831)
(0.00084359841451 0.00996815594258 -0.000281267242256)
(0.00577265418588 0.0104866186532 -0.00337951689088)
(0.0111611548804 0.0112155025683 -0.00321906632486)
(0.0147038523075 0.0122320960948 -0.00179173085856)
(0.0162563652284 0.0134815646285 -6.51720188906e-05)
(0.0157292587831 0.0146642761156 0.00139362171953)
(0.013824904978 0.0156862444543 0.00244290853831)
(0.0108768125463 0.0165866209614 0.00314768584906)
(0.00730187898027 0.0173094131706 0.00352373496047)
(0.00344519223922 0.0177533572438 0.00367068025507)
(-0.000532646877152 0.0178382923895 0.00371640984225)
(-0.00454700926407 0.0175387987866 0.00365278119671)
(-0.00840106265994 0.0169041345004 0.00332822187007)
(-0.0116790814543 0.0160182281273 0.00263441731882)
(-0.0138922302162 0.0149706655933 0.0015819486058)
(-0.0147092636379 0.0137884597966 0.000162891648413)
(-0.0135149372426 0.0125165741492 -0.00154401059054)
(-0.010317156132 0.0114846376126 -0.00297535808754)
(-0.00528811589696 0.0107423657229 -0.00317035994307)
(-0.000668083526819 0.010193575822 -0.00014354322574)
(0.00114301353765 0.00904861787765 -5.01453754049e-05)
(0.00643956856241 0.00938198301575 -0.00296307023067)
(0.0121479187235 0.00991366014487 -0.00268600629113)
(0.0158549466349 0.0106766019565 -0.00113212602624)
(0.0174056032361 0.0116616769787 0.000830174503778)
(0.0167455104094 0.0125954744538 0.00243890252689)
(0.0146686509524 0.0134260743927 0.00360221801002)
(0.0115044751834 0.0141861029489 0.00440144458063)
(0.00770560952543 0.0148302683773 0.00484255613806)
(0.0036250717266 0.0152266235056 0.00504054288624)
(-0.000590922407823 0.0153137328016 0.00510366372973)
(-0.00486128602125 0.0150739460917 0.00501068243431)
(-0.00898741438893 0.0145239973807 0.00462594478941)
(-0.0125298554942 0.0137775816001 0.00382843897489)
(-0.0149418014152 0.0129136816468 0.00264630418425)
(-0.0158867166789 0.0119633710067 0.00106983345807)
(-0.0146935230445 0.0109425656058 -0.000880154185436)
(-0.0113154430478 0.0101540056044 -0.00243989626435)
(-0.00596104948475 0.00960116225921 -0.00274744729075)
(-0.00097276001529 0.00924190360938 9.33388448806e-05)
(0.00147523991955 0.00716353582025 0.000141758459924)
(0.00702073558975 0.00733555777112 -0.00262153481033)
(0.0129623891172 0.00766560649053 -0.00231660547747)
(0.0168059171056 0.00815563027972 -0.0007224506201)
(0.0183634312115 0.00883530203085 0.00141379115699)
(0.0176159087811 0.00948513646153 0.00312208863812)
(0.0154165960625 0.0100721110959 0.00437556522667)
(0.0120888117534 0.0106375402246 0.00528090518457)
(0.00805727951571 0.0110630860728 0.00587524327408)
(0.00377277890121 0.0114037140719 0.00593104328826)
(-0.000630862831363 0.0115015690457 0.00594420472461)
(-0.00510925605992 0.0112713061878 0.00608758915565)
(-0.00952132890958 0.0109420657134 0.00556793776193)
(-0.0132821246944 0.0103952004274 0.004651552259)
(-0.0158488850916 0.00977689603697 0.00336428964057)
(-0.0168841845366 0.00910478187354 0.00167789532577)
(-0.0156819178856 0.00838041154325 -0.000454183292744)
(-0.0121547575593 0.00786212757489 -0.00206866148445)
(-0.00655525753126 0.00750544266014 -0.00240295607502)
(-0.00131344406159 0.0073126113534 0.000283172559674)
(0.00173939415208 0.00454617832508 0.000244918812651)
(0.00745594545584 0.00461829836394 -0.00241139511515)
(0.0135542279782 0.00478734862441 -0.00211250529692)
(0.0174943285536 0.00504447037168 -0.000533065356381)
(0.0190693648262 0.00543354565653 0.0016943028641)
(0.0182719716007 0.00580315626208 0.00344911678381)
(0.0160064304417 0.00613981117302 0.00475446638359)
(0.0124919872558 0.00645148374074 0.00580590368848)
(0.00836080679694 0.00675808076126 0.00588203224764)
(0.00387221057541 0.00696425092737 0.00585088476127)
(-0.000683178312149 0.007020739946 0.00589284932994)
(-0.00537102978712 0.00689799726681 0.00599198744905)
(-0.00988646300519 0.00665897581057 0.00609478167244)
(-0.0138694530317 0.0063716714158 0.00508878379065)
(-0.0165358615102 0.00601033403908 0.00373475093873)
(-0.0176270706993 0.00562325352314 0.00199229090821)
(-0.0164090892513 0.00519815741073 -0.000246764821256)
(-0.0127768941787 0.00491903549265 -0.00186199636191)
(-0.00700657992459 0.00472949248191 -0.00219194509497)
(-0.00158904399144 0.00464348838625 0.000382993983171)
(0.00187711200717 0.00156086613228 0.000274354859575)
(0.00768784810183 0.00157888436875 -0.00233103469584)
(0.0138569689092 0.00162679749729 -0.00204009207818)
(0.0178502256755 0.00169934442861 -0.000487503205206)
(0.0194397049053 0.00181870735042 0.00177350362752)
(0.0186233808358 0.00193118260443 0.00353797055157)
(0.0163231522969 0.00203369449739 0.00487361016597)
(0.0127159766611 0.00211967767071 0.00590719394547)
(0.00851682703121 0.00221420392327 0.00580003047568)
(0.00393210306448 0.00227915615525 0.00583100313126)
(-0.000736973997485 0.00229658987113 0.00588753386486)
(-0.00553137248641 0.00225135883303 0.00592851076636)
(-0.0101850194082 0.00220044752527 0.00596340480737)
(-0.014171642865 0.00211577703885 0.00524656948409)
(-0.0169091229537 0.00200260315216 0.00385081219133)
(-0.0180189798591 0.00188444627096 0.00209342498741)
(-0.0167875447374 0.00175361949612 -0.000189833150108)
(-0.0130996936067 0.00167491017715 -0.00178633640518)
(-0.00724806391709 0.00162193567462 -0.00211082804584)
(-0.0017337501604 0.00159982904835 0.000411765627762)
(0.00187617236382 -0.00153076718764 0.000273679506719)
(0.00768492939804 -0.00155049291075 -0.00233133954838)
(0.0138525707664 -0.00160935053248 -0.00204172056559)
(0.0178448399142 -0.00169741709822 -0.000490081116283)
(0.0194332445457 -0.00183595387639 0.00176974319933)
(0.0186160871476 -0.00196656263145 0.00353258115266)
(0.0163153906579 -0.00208770245117 0.0048668131739)
(0.0127078781372 -0.00219265365522 0.00589962034417)
(0.00851054057634 -0.00230074681811 0.00579198891199)
(0.00392889150205 -0.00237611690714 0.00582248429961)
(-0.000737130145687 -0.00239626943131 0.00587879091623)
(-0.00552798221921 -0.00234595139952 0.0059193918275)
(-0.0101780413914 -0.00228453534012 0.00595511063984)
(-0.0141637981858 -0.00218513355532 0.00523739149415)
(-0.0169003467307 -0.00205185390222 0.00384363990696)
(-0.0180100765901 -0.0019118511075 0.00208854425287)
(-0.01677880586 -0.00175421753628 -0.000192000348261)
(-0.013092175823 -0.00165222390863 -0.00178629034444)
(-0.00724299266982 -0.00158168616405 -0.00210898068508)
(-0.00173213890893 -0.0015555668506 0.000412108333993)
(0.00173671500626 -0.00451117704067 0.000244258512079)
(0.00744722830504 -0.00458425242315 -0.00241079726319)
(0.0135415201501 -0.00476200501104 -0.00211550489683)
(0.0174785955839 -0.00503212114381 -0.000539212623849)
(0.0190505784916 -0.00543672590111 0.00168462719319)
(0.018250796054 -0.00582062789551 0.0034347767764)
(0.0159839070769 -0.00617207489934 0.004736335099)
(0.012469621082 -0.00649936868013 0.00578324281528)
(0.00834273845172 -0.00681731289599 0.00585886353933)
(0.00386300595961 -0.00703209680936 0.00582510301057)
(-0.000683158213391 -0.00709057853234 0.00586633295196)
(-0.00536070279808 -0.0069632519687 0.0059654831723)
(-0.0098648625363 -0.00671322023235 0.00607420488579)
(-0.0138469155349 -0.00641442578871 0.00506459659414)
(-0.0165110943332 -0.0060379345342 0.00371542645406)
(-0.0176020019136 -0.0056341060886 0.00197890260707)
(-0.0163847204152 -0.00518800246466 -0.000253016286752)
(-0.0127564299049 -0.00488984582485 -0.0018618219085)
(-0.00699209200797 -0.00468652146931 -0.00218677499819)
(-0.00158464297005 -0.00459706678389 0.000384898866743)
(0.0014716086251 -0.00712494403757 0.00014278048793)
(0.00700746330543 -0.00729534385824 -0.00261885218361)
(0.0129442349992 -0.00762952770553 -0.00231863741777)
(0.0167825893647 -0.00812759113615 -0.000729181721632)
(0.0183360988747 -0.00881595978669 0.00140257152513)
(0.0175849484064 -0.00947274073676 0.00310527696979)
(0.0153833674287 -0.0100671828263 0.00435408299323)
(0.0120555864564 -0.0106406237021 0.00525424016444)
(0.00802961174908 -0.011073206289 0.0058413574509)
(0.00375802222489 -0.0114158506851 0.00589519028376)
(-0.00062942311732 -0.011513918535 0.00590645359171)
(-0.00509310247309 -0.011282468366 0.00604653922983)
(-0.00949440940214 -0.0109458084296 0.00553357462915)
(-0.0132497963793 -0.0103924839265 0.00462205449277)
(-0.0158139747386 -0.009767843443 0.00334028795434)
(-0.0168484577554 -0.00908779556649 0.0016607386404)
(-0.0156466583234 -0.00835210045216 -0.000462700238381)
(-0.0121246924956 -0.00782263841361 -0.00206831818214)
(-0.00653379142324 -0.00745863672811 -0.00239499521117)
(-0.00130747235218 -0.0072651364383 0.000287326949617)
(0.00113929130194 -0.00900906323191 -4.74523656956e-05)
(0.00642490582411 -0.00933838347748 -0.00295773681492)
(0.0121269752383 -0.00986950190629 -0.00268576349933)
(0.0158285588558 -0.0106337342357 -0.00113704980564)
(0.0173757555867 -0.0116201591714 0.000821746960227)
(0.0167117086177 -0.012553484478 0.00242668583026)
(0.0146320735915 -0.0133836548976 0.00358613050575)
(0.0114684656428 -0.0141436485984 0.00438016545034)
(0.00767677170001 -0.0147871838083 0.00481467549416)
(0.00361045333272 -0.0151823489114 0.00500797538662)
(-0.000587658012358 -0.0152679909919 0.0050701047078)
(-0.00484271500032 -0.015026702589 0.00498019417693)
(-0.00895908058484 -0.0144758635919 0.00459977973929)
(-0.0124961912677 -0.0137301293362 0.0038056203258)
(-0.0149052409446 -0.0128676285096 0.00262670405702)
(-0.0158482418138 -0.0119175286369 0.00105472471423)
(-0.0146540774207 -0.0108948596835 -0.000887842891779)
(-0.0112812485827 -0.0101042942072 -0.0024383943042)
(-0.00593700920519 -0.00955133431283 -0.00273767271513)
(-0.000966389946013 -0.00919487597946 9.88970371792e-05)
(0.000838482375507 -0.00992914586672 -0.000278966186031)
(0.00576004783589 -0.0104427276391 -0.00337267659682)
(0.0111431598924 -0.011166903539 -0.00321597101491)
(0.014680637962 -0.0121791549185 -0.00179295335723)
(0.0162302341409 -0.0134247054174 -6.84070864916e-05)
(0.0156995358969 -0.0146023937988 0.00138912364436)
(0.0137924718623 -0.0156189663957 0.0024365004447)
(0.0108446827702 -0.0165143004041 0.00313801611876)
(0.0072763138408 -0.0172325426678 0.00350924437784)
(0.00343269871617 -0.0176730553049 0.00365239908816)
(-0.000528976519462 -0.0177561880001 0.00369762015289)
(-0.00452946135943 -0.0174567979693 0.00363704208835)
(-0.00837562919194 -0.0168236482824 0.00331617962176)
(-0.0116500403182 -0.0159414416418 0.00262334495086)
(-0.0138603803345 -0.0148987360172 0.00157123689203)
(-0.0146748374459 -0.0137211430638 0.00015384728176)
(-0.0134791086657 -0.0124537313606 -0.00154810839634)
(-0.0102861089873 -0.0114270893727 -0.00297148357672)
(-0.00526645552013 -0.0106906929286 -0.00316007197214)
(-0.000660538221256 -0.0101471074314 -0.000139973786242)
(0.000472908824379 -0.00999429268823 -0.000675568322792)
(0.00490854144632 -0.010513987451 -0.00390105304846)
(0.00992897390548 -0.0113132731087 -0.00393651677742)
(0.0133045974142 -0.0124758976508 -0.00273729277626)
(0.0148603239613 -0.0138923138078 -0.0012797081568)
(0.0145358501812 -0.0152775696521 -3.89237278146e-05)
(0.0128602631329 -0.0164290337987 0.000865397865692)
(0.010171028908 -0.0174111588092 0.00146964032379)
(0.00685853035056 -0.0181733591604 0.00178688801502)
(0.00325957015332 -0.0186201605675 0.00190580019106)
(-0.000453882861105 -0.01869111762 0.00193692918793)
(-0.00418113983112 -0.0183665793325 0.00187748435579)
(-0.00772828944881 -0.0176774509277 0.00160607117387)
(-0.0107088618211 -0.0167085019171 0.00102426419131)
(-0.0126744441476 -0.0155438481822 0.000132961098729)
(-0.0132996084044 -0.014182762967 -0.00107111905921)
(-0.0120929056668 -0.0127564794114 -0.00250233907159)
(-0.00907428931724 -0.0115884884208 -0.00370322913026)
(-0.00441994634454 -0.0107861608127 -0.00370025367653)
(-0.000306553975898 -0.0102359159606 -0.000541323678035)
(0.000236000794584 -0.0085476486422 -0.00114103991447)
(0.00410152602453 -0.00912439903182 -0.00441053798476)
(0.00869750270243 -0.00993259129033 -0.00470677299877)
(0.0118865584812 -0.0111066020754 -0.00386052935759)
(0.0134386833607 -0.0125218013205 -0.00271313070744)
(0.0132836343914 -0.0139197247572 -0.00174112765079)
(0.0118571453111 -0.015077350616 -0.00107103959875)
(0.00945318475686 -0.0160522691834 -0.000643426704674)
(0.00641496869795 -0.0167885036507 -0.000426449303967)
(0.00308149382728 -0.0172049203737 -0.000352994644843)
(-0.000363077105441 -0.0172585374027 -0.000330308599553)
(-0.00380174400526 -0.0169366399136 -0.000358328179643)
(-0.00704236473152 -0.0162608994384 -0.000534117886512)
(-0.00971455916741 -0.0153041583664 -0.000936672044714)
(-0.0114191665959 -0.0141456409443 -0.00158486673683)
(-0.0118786848388 -0.012782882175 -0.00251813189087)
(-0.0106775145138 -0.0113683158905 -0.00364917710719)
(-0.00785004425815 -0.0101958103517 -0.00449761094513)
(-0.003618348731 -0.0093851075895 -0.00423559825779)
(-7.32256061502e-05 -0.00877803168177 -0.0010307202464)
(0.000250413983114 -0.00622610509861 -0.0015249741031)
(0.00357647772326 -0.00656456430953 -0.0046217913315)
(0.00773232210068 -0.00716950441383 -0.00518875324649)
(0.0107040218383 -0.00812570822042 -0.00469466560453)
(0.0122680782331 -0.00935106003613 -0.00390447550617)
(0.0122648721942 -0.0105840233218 -0.0031556722957)
(0.0110805123609 -0.0115700566921 -0.00261391876591)
(0.0089377290261 -0.0123979557331 -0.00223280072067)
(0.00612197545136 -0.0130247232311 -0.00200846789862)
(0.00296941010947 -0.013371245811 -0.00191340757296)
(-0.000310133983641 -0.0134100455737 -0.00189183221691)
(-0.00355631841691 -0.013132127263 -0.0019445829836)
(-0.00655694331909 -0.0125500303228 -0.00213058593254)
(-0.00895317432031 -0.0117370525268 -0.00248681850863)
(-0.0104081201208 -0.0107549277122 -0.00301079894235)
(-0.0107197074383 -0.00956742676767 -0.00372131283118)
(-0.00951040285674 -0.00834328562127 -0.0045020775356)
(-0.00690132919343 -0.00739076997453 -0.00500373958264)
(-0.00310575637696 -0.00678079565921 -0.00446943526824)
(-9.53875830936e-05 -0.00641137926702 -0.00142856203215)
(0.000460667523115 -0.00319472046603 -0.00161037286287)
(0.00336637950738 -0.00304718508559 -0.00398548446332)
(0.00711082995403 -0.00324301814417 -0.00462353711703)
(0.00988080827779 -0.00376318114764 -0.00440301047066)
(0.0114587757644 -0.00456677396131 -0.00388353276111)
(0.0115303387365 -0.00543940260703 -0.00332406577464)
(0.0105344023749 -0.0060993250659 -0.00290116370689)
(0.00858466742791 -0.00668535939753 -0.00254545065597)
(0.00592326106519 -0.0071371634851 -0.00231274648838)
(0.00288900234153 -0.0073932771501 -0.00220941686764)
(-0.000279453347359 -0.00741558363414 -0.00218788338885)
(-0.00339785824172 -0.00719806744829 -0.00224747999834)
(-0.00623114653617 -0.00677107705339 -0.00243819942307)
(-0.00842786113757 -0.00619456423668 -0.00276851255331)
(-0.00969094159068 -0.00552833947938 -0.00318719490729)
(-0.00992658479068 -0.00470714437256 -0.00370407560661)
(-0.0087085584739 -0.00390765790372 -0.00423298070969)
(-0.00629850139713 -0.0033930343781 -0.00446479542599)
(-0.00290781348493 -0.00319063632103 -0.00385464990398)
(-0.000308730792208 -0.00330943943158 -0.00152043051219)
(0.000927397939118 -0.000835056495376 -0.00137952335088)
(0.00348500825319 -0.000352383304492 -0.00162308264412)
(0.00673319948112 -0.000134980862708 -0.00153245334471)
(0.00925048883331 -0.000117448955689 -0.00113907448709)
(0.0108952417582 -0.000331607156166 -0.000676145438315)
(0.0109673142702 -0.000725558356483 -0.000233780368248)
(0.0101556074419 -0.00100542094509 -7.9502728699e-06)
(0.00836936315464 -0.00134149807846 0.000194934016615)
(0.00581068687074 -0.00161955273197 0.000310668016195)
(0.00283283065741 -0.00177427527754 0.000351514750982)
(-0.000293425370262 -0.00178924796032 0.000362328976792)
(-0.00335239031375 -0.00166205611413 0.000344251652898)
(-0.00608383623252 -0.00140403326089 0.000255472891638)
(-0.00811717443827 -0.00107263251518 7.420614541e-05)
(-0.00918943515102 -0.000748831367849 -0.000176506828722)
(-0.00939572717646 -0.000431260839447 -0.000530113249729)
(-0.00813649402806 -0.000175582724917 -0.0010251729066)
(-0.005949572432 -0.000194349284361 -0.00141551779422)
(-0.00304194066968 -0.000406558052407 -0.00151129670532)
(-0.000781823308479 -0.000871283641583 -0.00127390615598)
(0.00183279359247 0.00174132198844 -0.00693308661746)
(0.00537551434798 0.00253145440149 -0.00783221783322)
(0.0084012855155 0.00317111652768 -0.00766102161275)
(0.0104712332713 0.00380614938975 -0.00691854531865)
(0.0114887785358 0.00443883476108 -0.00595019857087)
(0.011275818455 0.00494055890211 -0.00505685223748)
(0.0101793649923 0.00528324363815 -0.00434880820885)
(0.00824185260583 0.00554870084139 -0.00376496972752)
(0.00567778346011 0.0057365633227 -0.00341063083734)
(0.00278909210122 0.00583758815698 -0.00327310528764)
(-0.000216783324345 0.0058459388908 -0.0032361494506)
(-0.00318736665476 0.00575803570882 -0.00329448060997)
(-0.0059188887295 0.00557837265483 -0.00356447248729)
(-0.00809823942303 0.00531417991177 -0.00408485141519)
(-0.00946721227921 0.00496713692649 -0.00476369846094)
(-0.00996424089574 0.00450207452501 -0.00560258095168)
(-0.00930834357395 0.00387803001755 -0.0065548636362)
(-0.0075911493419 0.00325182906325 -0.00730601880613)
(-0.00492206657158 0.00260831084152 -0.00749344042945)
(-0.00169903875388 0.00178823742757 -0.00662712265601)
(0.00266284915529 0.00508064683413 -0.00782821039843)
(0.0061939751798 0.00582775234181 -0.00965109197159)
(0.0088098413824 0.00666522418216 -0.0095267888472)
(0.0104929794649 0.00766219542107 -0.00860445995868)
(0.0111895548275 0.00870864614238 -0.00741979073212)
(0.010891397268 0.00964463960821 -0.00627712464061)
(0.00973044621876 0.010375865249 -0.00534728120332)
(0.00784395549672 0.0109550236724 -0.00464041740201)
(0.00543287308638 0.0113762276003 -0.00418946928453)
(0.00272079301048 0.0116103193721 -0.00397993899944)
(-0.0001152122882 0.0116410016961 -0.00393997631078)
(-0.00291762608144 0.0114601358014 -0.00406843503498)
(-0.00549896857546 0.0110731494729 -0.00444316749794)
(-0.00761816045537 0.0105040661926 -0.00509252167994)
(-0.00904525472211 0.00977463626371 -0.00597597706038)
(-0.00963133232039 0.00886244499852 -0.00706454625859)
(-0.00925094526269 0.00783275010265 -0.00821768817827)
(-0.0079023667867 0.00684812829846 -0.0091316285323)
(-0.00562987149771 0.0060101845774 -0.00926266280625)
(-0.00246431170462 0.00521622783575 -0.00747624209563)
(0.00331914420437 0.00787672012487 -0.00767800262213)
(0.00705356868023 0.00822301565309 -0.00954766577253)
(0.00968608922132 0.00907930200167 -0.00900455335175)
(0.0112125232051 0.0101882965704 -0.00755149764975)
(0.0117067456587 0.0113724044585 -0.00584622267038)
(0.0112271948839 0.0124635665392 -0.00426791590637)
(0.00990245337505 0.013360129391 -0.00303195696495)
(0.00791487363733 0.0140701008576 -0.00216086894765)
(0.00546756721171 0.014589143341 -0.00163048229897)
(0.00274410650178 0.0148908063432 -0.0013784562078)
(-0.000103822353491 0.0149438303196 -0.00132997077838)
(-0.0029310092203 0.0147357162675 -0.00148879529788)
(-0.00556462440006 0.0142781570514 -0.00194046896815)
(-0.00779124540418 0.0135917287891 -0.00275488929658)
(-0.00938100008094 0.0127018539349 -0.0039413913529)
(-0.0101412278629 0.0116200029357 -0.00546451539335)
(-0.00994204986353 0.0104441502544 -0.00712715029544)
(-0.00873488552006 0.00934527095857 -0.00855946326737)
(-0.00644341076534 0.00849205759448 -0.00910468660111)
(-0.00308637938973 0.00811196439585 -0.00727653708397)
(0.00396249259237 0.00973163655574 -0.00696275253926)
(0.00805852489989 0.00970774682568 -0.00865666384587)
(0.0108030867286 0.010418306283 -0.00758365736607)
(0.012212720059 0.011418460491 -0.00553676142498)
(0.0124717614777 0.0124838522495 -0.00332038526711)
(0.0117346382081 0.01346333842 -0.00135006399209)
(0.0102053030893 0.0142914248047 0.00014421344086)
(0.008087155556 0.0149645229834 0.00115189148692)
(0.00556669636925 0.0154754951464 0.00174026248115)
(0.00279368943712 0.0157856526844 0.00201647214139)
(-0.000105117618664 0.0158581742342 0.00207567729258)
(-0.00300024875054 0.0156755863335 0.00190948405924)
(-0.005732990146 0.0152473670284 0.00140670793702)
(-0.00810590872678 0.014604142948 0.000455258774886)
(-0.0099046110127 0.013774799328 -0.000992638851387)
(-0.0109120995478 0.0127866807906 -0.00291040937545)
(-0.0109319464398 0.0117184139349 -0.00507745683669)
(-0.00982766732699 0.0107254216409 -0.0070931708202)
(-0.00742370753588 0.010022424927 -0.00816007519046)
(-0.00370640574599 0.0100287091407 -0.0065010107926)
(0.0045998088247 0.0105515804832 -0.00603398158113)
(0.00910644153242 0.0102336945235 -0.00751297637344)
(0.0119897588866 0.0107539741244 -0.00591596692839)
(0.0132772405421 0.0115259007159 -0.00335359957868)
(0.0133020749476 0.0123603149326 -0.000684145738067)
(0.0123565881143 0.0131845626487 0.00160168700375)
(0.0106709045838 0.0139242008453 0.0032790902258)
(0.00842316018555 0.0145524540674 0.00438517121798)
(0.00578592619999 0.0150483864331 0.00502412993788)
(0.00289737415911 0.0153644100999 0.00532709800646)
(-0.000127214753034 0.0154557693659 0.0054017862687)
(-0.00316342183211 0.0153009357423 0.00523311651012)
(-0.00605358181903 0.0149091473366 0.00468422711038)
(-0.00859438532805 0.0143147199669 0.00362100175775)
(-0.0105639428061 0.0135594406686 0.00197780124506)
(-0.0117671060636 0.0127060736232 -0.000255733977874)
(-0.0119998916869 0.0118476509979 -0.00287341582955)
(-0.0110055420284 0.0110749811304 -0.00539187895037)
(-0.00845930483705 0.0105618173215 -0.00696750456024)
(-0.00433096200393 0.0108723521672 -0.00550950161786)
(0.00508957525807 0.0102002204123 -0.00519537882476)
(0.0100367607226 0.00979770729531 -0.00641452642638)
(0.0130749169488 0.0101384303219 -0.00437139445892)
(0.0142474221976 0.0106512440271 -0.00140823994014)
(0.0141142623743 0.0112720827552 0.00158176278553)
(0.0130273499125 0.0119462274596 0.0040710160672)
(0.011208707689 0.0125781652016 0.00587072753923)
(0.00883949948265 0.0131408013214 0.00706079694511)
(0.00607479551071 0.0136084666923 0.0077589763147)
(0.00303977311545 0.0139242680746 0.0081023761122)
(-0.000150832409668 0.0140316029879 0.00820242541013)
(-0.00336485374542 0.0139060685582 0.00803592052447)
(-0.00643739192713 0.0135630454186 0.00744416502414)
(-0.00915542159229 0.013037032649 0.00627528730524)
(-0.0112853813994 0.0123755788096 0.00446989339537)
(-0.0126286433661 0.0116508537712 0.0020120446526)
(-0.01299985664 0.0109789288423 -0.000921841859147)
(-0.0121011643422 0.0104485067708 -0.00383306692834)
(-0.00938822064907 0.0101096357363 -0.00584019661669)
(-0.00481406119315 0.0105061809896 -0.00463165232941)
(0.00543733699272 0.00898955546735 -0.00451656186126)
(0.0107663018008 0.00852371577346 -0.0055144745671)
(0.0139579746791 0.00869602715509 -0.00316014324082)
(0.0150516035972 0.00899199808584 6.55046231559e-05)
(0.0148240578294 0.009439901972 0.00324099265597)
(0.013639153345 0.00995763176852 0.00584942298346)
(0.0117271139544 0.0104671945123 0.0077288189948)
(0.0092625861766 0.0109429295139 0.00899608596905)
(0.00638431548784 0.0113679173062 0.00977147370525)
(0.00320334573771 0.0116772939136 0.0101772175608)
(-0.000161443749648 0.0117919550579 0.0103144950718)
(-0.00355596295216 0.0116820424646 0.0101513823261)
(-0.00680537811598 0.0113886574303 0.0095199133198)
(-0.00969072848755 0.0109518145569 0.00825733322662)
(-0.0119603605411 0.010407546524 0.00631484710113)
(-0.0134102012051 0.00982484010733 0.00369178418159)
(-0.0138553807564 0.00930977088197 0.000558406340371)
(-0.0130111330308 0.00897756525857 -0.00261827429986)
(-0.0101305191154 0.0087984057257 -0.00493200091489)
(-0.00516395898396 0.00925735660252 -0.00394061942261)
(0.00570117049024 0.00696309798168 -0.00397071865768)
(0.011332370013 0.00655051354009 -0.00483961142895)
(0.0146368909857 0.00661303654336 -0.00231970039511)
(0.0156762947006 0.00676244637673 0.00104045315543)