/*--------------------------------*- C++ -*----------------------------------*\
| =========                 |                                                 |
| \\      /  F ield         | OpenFOAM: The Open Source CFD Toolbox           |
|  \\    /   O peration     | Version:  3.0.1                                 |
|   \\  /    A nd           | Web:      www.OpenFOAM.org                      |
|    \\/     M anipulation  |                                                 |
\*---------------------------------------------------------------------------*/
FoamFile
{
    version     2.0;
    format      ascii;
    class       surfaceScalarField;
    location    "10";
    object      alphaPhi;
}
// * * * * * * * * * * * * * * * * * * * * * * * * * * * * * * * * * * * * * //

dimensions      [0 3 -1 0 0 0 0];

internalField   nonuniform List<scalar> 
22672
(
5.49045054345e-06
5.00591156948e-06
-1.04963712051e-05
1.31182749556e-05
4.22192123912e-06
-1.18497697527e-05
2.03734654731e-05
4.19017036854e-06
-1.14453843473e-05
2.55587155408e-05
4.78905758167e-06
-9.97433001989e-06
2.77067503793e-05
6.01004010341e-06
-8.15809409987e-06
2.66558569115e-05
7.53141888595e-06
-6.48054036534e-06
2.33066688699e-05
8.65301132504e-06
-5.30383412772e-06
1.78605477825e-05
9.75573569258e-06
-4.30962195317e-06
1.09400081908e-05
1.06359905582e-05
-3.71545617397e-06
3.29408371489e-06
1.11371815465e-05
-3.49126167559e-06
-4.46368042462e-06
1.11874234323e-05
-3.4296649583e-06
-1.1718220645e-05
1.07758438592e-05
-3.52131123729e-06
-1.77042978193e-05
9.95790623378e-06
-3.9718387339e-06
-2.17269677716e-05
8.87863101341e-06
-4.85597286044e-06
-2.33926235355e-05
7.6972034906e-06
-6.03156146705e-06
-2.21953376486e-05
6.33642417111e-06
-7.53372720095e-06
-1.78984959395e-05
5.06642530932e-06
-9.3632883181e-06
-1.15310869554e-05
4.47603646548e-06
-1.08434702304e-05
-4.75137155885e-06
4.49703601643e-06
-1.12767752705e-05
5.22446780926e-06
-9.97584575593e-06
4.73976683741e-06
1.20960886777e-05
-1.18299669975e-05
1.34516517202e-05
1.23739676731e-05
-1.6863950178e-05
2.16188654597e-05
1.33975004064e-05
-1.73745682216e-05
2.70491534774e-05
1.52439953955e-05
-1.58852495695e-05
2.90434062082e-05
1.77647785538e-05
-1.37490040219e-05
2.78304632973e-05
2.03753370922e-05
-1.16309853774e-05
2.40318749494e-05
2.23998310187e-05
-9.94824111848e-06
1.82554055879e-05
2.41488783849e-05
-8.61668094605e-06
1.1151099988e-05
2.54947592367e-05
-7.75446803779e-06
3.39098367675e-06
2.62553104259e-05
-7.35801679863e-06
-4.48432470157e-06
2.63424087728e-05
-7.27968237075e-06
-1.19281920659e-05
2.57359181454e-05
-7.51621433108e-06
-1.82360859751e-05
2.44940590066e-05
-8.22826950499e-06
-2.26859142052e-05
2.27840340701e-05
-9.45558653811e-06
-2.46637065319e-05
2.07533155058e-05
-1.10783280448e-05
-2.35299237268e-05
1.82773232155e-05
-1.30746895449e-05
-1.90324437872e-05
1.57519260217e-05
-1.51830010617e-05
-1.17948005136e-05
1.39121393108e-05
-1.66737669424e-05
-3.9666185639e-06
1.28708306733e-05
-1.62019918112e-05
1.25141257379e-05
-1.12562971229e-05
4.72487965189e-06
1.88325997663e-05
-1.14613990801e-05
1.45007904923e-05
1.99951755823e-05
-1.73971424206e-05
2.34129720462e-05
2.17630053925e-05
-1.72777126687e-05
2.90677948893e-05
2.43953894161e-05
-1.48062415079e-05
3.09282742853e-05
2.76297379471e-05
-1.17254578946e-05
2.93709099729e-05
3.08104245404e-05
-8.8777399833e-06
2.51143183811e-05
3.33680890647e-05
-6.7116816578e-06
1.89199699932e-05
3.55236979446e-05
-5.18048296364e-06
1.1495102327e-05
3.71714313413e-05
-4.25181281966e-06
3.46531814258e-06
3.81091822104e-05
-3.82409442048e-06
-4.69310338698e-06
3.82372630747e-05
-3.73644036052e-06
-1.24888811119e-05
3.75254594873e-05
-3.9937730038e-06
-1.92458239376e-05
3.60257348837e-05
-4.77474578621e-06
-2.41788468681e-05
3.39215952334e-05
-6.20455336372e-06
-2.65065982247e-05
3.13695087219e-05
-8.28845511902e-06
-2.55060695742e-05
2.82965853324e-05
-1.1019802381e-05
-2.07775109106e-05
2.50582314826e-05
-1.40348823868e-05
-1.28051618759e-05
2.24258725754e-05
-1.64861036464e-05
-3.93461914507e-06
2.06425555982e-05
-1.66422856345e-05
1.93939478459e-05
-1.08144444821e-05
5.32877551603e-06
2.35377529814e-05
-1.0033949461e-05
1.63588220232e-05
2.49206272754e-05
-1.59555224869e-05
2.60600621347e-05
2.69185617088e-05
-1.48568221108e-05
3.19387011803e-05
2.97755971091e-05
-1.12588717286e-05
3.35448286982e-05
3.31831140892e-05
-7.1595262728e-06
3.14693975756e-05
3.64900511154e-05
-3.60421665176e-06
2.66249287151e-05
3.92166306544e-05
-1.00409231843e-06
1.98722727271e-05
4.15454243875e-05
7.30913049512e-07
1.19840216433e-05
4.33513923609e-05
1.70827679307e-06
3.55151591091e-06
4.44052454546e-05
2.13643116777e-06
-5.02517164175e-06
4.45748129559e-05
2.23912668984e-06
-1.33243179128e-05
4.38180289498e-05
2.00656466789e-06
-2.0688149222e-05
4.22004243266e-05
1.18912674802e-06
-2.62469613037e-05
3.99226001493e-05
-4.42211107348e-07
-2.90999111936e-05
3.71789096179e-05
-2.95646896756e-06
-2.83492140854e-05
3.39492494092e-05
-6.40337743864e-06
-2.33884945284e-05
3.05214804922e-05
-1.04239865066e-05
-1.46305339459e-05
2.76500742391e-05
-1.39821802753e-05
-4.51786923035e-06
2.56391231402e-05
-1.51092462648e-05
2.41740652566e-05
-9.298000691e-06
6.58024485361e-06
2.52218618704e-05
-8.26438059829e-06
1.8893439543e-05
2.64851232943e-05
-1.38777159794e-05
2.93034750289e-05
2.83484366663e-05
-1.1839935368e-05
3.53532021526e-05
3.09476840561e-05
-7.22183868273e-06
3.66986365221e-05
3.40839269688e-05
-2.24627126005e-06
3.41207493728e-05
3.70872054604e-05
1.98070909392e-06
2.8657726794e-05
3.96363433933e-05
5.04328706515e-06
2.12588655884e-05
4.18634497228e-05
7.08081530073e-06
1.27372826952e-05
4.36472327047e-05
8.22572462558e-06
3.67383435226e-06
4.47337458125e-05
8.73493215476e-06
-5.56160759988e-06
4.4942184123e-05
8.86805627133e-06
-1.456376951e-05
4.42154963972e-05
8.60467999126e-06
-2.26539130546e-05
4.26539710664e-05
7.63658029421e-06
-2.8890799964e-05
4.04723802383e-05
5.68708709639e-06
-3.22658500963e-05
3.78754976577e-05
2.67844091059e-06
-3.17697816432e-05
3.48985305482e-05
-1.44537047585e-06
-2.66265628966e-05
3.1707429966e-05
-6.32918862492e-06
-1.71550039911e-05
2.90741935739e-05
-1.08956967084e-05
-5.76205276749e-06
2.71855205717e-05
-1.29393634791e-05
2.58349260094e-05
-7.42293267544e-06
8.04520192652e-06
2.3884323791e-05
-6.70768870121e-06
2.14505001498e-05
2.4929290255e-05
-1.18494905966e-05
3.24297086519e-05
2.643281521e-05
-9.06361151955e-06
3.86059997442e-05
2.84964178942e-05
-3.72504880001e-06
3.96610355439e-05
3.11022727159e-05
1.92659444376e-06
3.6580405832e-05
3.35709324783e-05
6.59687772501e-06
3.05430140676e-05
3.5723087557e-05
9.95062233683e-06
2.25521274335e-05
3.76722340326e-05
1.21820781919e-05
1.3448379088e-05
3.93001571881e-05
1.34508018479e-05
3.80547050469e-06
4.034262891e-05
1.40340058159e-05
-6.04399933784e-06
4.05756715635e-05
1.42159649819e-05
-1.57152535628e-05
3.99253170434e-05
1.39614177182e-05
-2.45036436584e-05
3.85422409036e-05
1.29001036869e-05
-3.13870157511e-05
3.66364918005e-05
1.07192410716e-05
-3.52762847645e-05
3.44106894803e-05
7.35405510184e-06
-3.50558369689e-05
3.19186446726e-05
2.75941520257e-06
-2.97688391601e-05
2.92237657992e-05
-2.80335532124e-06
-1.97071717174e-05
2.71009918628e-05
-8.08848326807e-06
-7.21052997576e-06
2.55488615354e-05
-1.0859994272e-05
2.4433378205e-05
-5.80900157047e-06
9.1935348092e-06
2.02526622497e-05
-5.56188725367e-06
2.347466733e-05
2.08598765899e-05
-1.02117509894e-05
3.49651930996e-05
2.18813030678e-05
-6.93903435615e-06
4.12996126796e-05
2.33253483349e-05
-1.16337142337e-06
4.21853544148e-05
2.52643362244e-05
4.95217202139e-06
3.87412446958e-05
2.71010409677e-05
9.91397607225e-06
3.22536492571e-05
2.87404769174e-05
1.34701791427e-05
2.37554376576e-05
3.02850137567e-05
1.58854048409e-05
1.41427302942e-05
3.15998750369e-05
1.7312963975e-05
3.96387026444e-06
3.24926623835e-05
1.80288036185e-05
-6.46884118968e-06
3.27304441495e-05
1.82779192132e-05
-1.67420098291e-05
3.2199720534e-05
1.79987487773e-05
-2.61626840302e-05
3.11295503894e-05
1.68333492487e-05
-3.35989555709e-05
2.96307132896e-05
1.44420325393e-05
-3.78907404225e-05
2.7913493576e-05
1.07889601224e-05
-3.78373466381e-05
2.60272004706e-05
5.83802781374e-06
-3.23583593164e-05
2.3976436783e-05
-2.31680890689e-07
-2.17561683287e-05
2.24561163757e-05
-5.95733461285e-06
-8.37307731988e-06
2.1368563073e-05
-9.20280623716e-06
2.06986060181e-05
-4.63832227599e-06
1.02788385436e-05
1.46089715007e-05
-4.63515450213e-06
2.51892087669e-05
1.48910029872e-05
-8.94150045338e-06
3.70590622845e-05
1.54744874886e-05
-5.46305928836e-06
4.35460460972e-05
1.63325458188e-05
5.05800864988e-07
4.432683261e-05
1.757791349e-05
6.90561573682e-06
4.06332492347e-05
1.8759789855e-05
1.20348106166e-05
3.38072597019e-05
1.98244469e-05
1.57419922982e-05
2.48734631209e-05
2.08556822359e-05
1.83630989387e-05
1.4700414276e-05
2.16675108185e-05
2.01053841017e-05
4.08521183489e-06
2.22896673947e-05
2.0818170758e-05
-6.75271438713e-06
2.24876358222e-05
2.10807120923e-05
-1.76552444232e-05
2.21086342729e-05
2.09935989935e-05
-2.76501879015e-05
2.15323992937e-05
1.95920800521e-05
-3.55414655905e-05
2.05487053435e-05
1.6973270355e-05
-4.01383618621e-05
1.94178040251e-05
1.30925677401e-05
-4.01937053471e-05
1.81861911193e-05
7.89633270581e-06
-3.45376017319e-05
1.68330187163e-05
1.48729377544e-06
-2.35216113988e-05
1.59083648376e-05
-4.46825778695e-06
-9.48592768157e-06
1.52608041382e-05
-7.92794033784e-06
1.49314717406e-05
-3.71880866639e-06
1.11155382096e-05
7.61374165675e-06
-4.12030646981e-06
2.64570620438e-05
7.71683493953e-06
-8.16736214206e-06
3.8586797233e-05
7.96821839958e-06
-4.62345994738e-06
4.51977695967e-05
8.3470987623e-06
1.37446071309e-06
4.59363005101e-05
8.93797063741e-06
7.90139528281e-06
4.21006943884e-05
9.49613734393e-06
1.30992374777e-05
3.50275772294e-05
1.00014605933e-05
1.68960773164e-05
2.56441546413e-05
1.04535220781e-05
1.9785552316e-05
1.51510765455e-05
1.09040010677e-05
2.12565553263e-05
4.13988941633e-06
1.123792581e-05
2.20628971889e-05
-7.11164171537e-06
1.13355754867e-05
2.24035647351e-05
-1.83196703783e-05
1.11221857886e-05
2.21944574476e-05
-2.88079427974e-05
1.07995026551e-05
2.12211539748e-05
-3.70495941499e-05
1.0419529551e-05
1.83708124436e-05
-4.18405744524e-05
9.86250943798e-06
1.43462581249e-05
-4.19502501417e-05
9.27393851988e-06
9.02191052878e-06
-3.6158267983e-05
8.61982784079e-06
2.42119098977e-06
-2.48502336853e-05
8.20610738337e-06
-3.60579333469e-06
-1.03579764394e-05
7.92005857827e-06
-7.15152572267e-06
7.7927917334e-06
-3.21931135836e-06
1.15610363763e-05
2.13111666779e-08
-3.96861028198e-06
2.71193758481e-05
1.8764882396e-08
-7.86025038172e-06
3.93780549794e-05
5.0031500234e-09
-4.29548910727e-06
4.60593092665e-05
-1.43914302364e-08
1.68022687213e-06
4.67934840561e-05
-3.8954444303e-08
8.24273745527e-06
4.29004081223e-05
-6.20702247531e-08
1.34512656153e-05
3.56923517381e-05
-8.56249528899e-08
1.72951181062e-05
2.60395222087e-05
-1.09581876084e-07
2.02159035729e-05
1.54087114331e-05
-1.26311457978e-07
2.16610889004e-05
4.15233718982e-06
-1.39275841121e-07
2.26335406117e-05
-7.38598926584e-06
-1.4257380849e-07
2.30164448982e-05
-1.88425805721e-05
-1.35969392165e-07
2.27147238771e-05
-2.9500106098e-05
-1.22730808317e-07
2.15797423847e-05
-3.78878636917e-05
-1.04660199122e-07
1.89119320645e-05
-4.27537105496e-05
-7.93801754892e-08
1.48077196911e-05
-4.28730985197e-05
-5.20303518314e-08
9.44533934377e-06
-3.70063436854e-05
-1.81071451894e-08
2.77116303574e-06
-2.55521273067e-05
1.09867137209e-08
-3.25911135854e-06
-1.08248206032e-05
3.30041852539e-08
-6.84026563686e-06
3.85320080859e-08
-3.07057610663e-06
1.15563002029e-05
-7.56411874928e-06
-3.97086686881e-06
2.71098681823e-05
-7.6714881255e-06
-7.86331328672e-06
3.93653361783e-05
-7.94778794533e-06
-4.30269100791e-06
4.60438614179e-05
-8.36294118113e-06
1.67001804423e-06
4.67752872399e-05
-8.9985310635e-06
8.22814309529e-06
4.28804565573e-05
-9.59825099503e-06
1.34309989544e-05
3.5671860041e-05
-1.01461631591e-05
1.72691158146e-05
2.60209558093e-05
-1.06424232556e-05
2.01837202077e-05
1.53964275371e-05
-1.11235261607e-05
2.16217124944e-05
4.14824035404e-06
-1.14801776143e-05
2.25890560634e-05
-7.3812475739e-06
-1.15832103143e-05
2.29700943699e-05
-1.88284299511e-05
-1.13574813003e-05
2.26686720092e-05
-2.94811374579e-05
-1.10081469737e-05
2.15381076409e-05
-3.78658722113e-05
-1.05964223152e-05
1.88764823601e-05
-4.27307900024e-05
-9.99453035687e-06
1.47800516259e-05
-4.28507552804e-05
-9.35754293171e-06
9.42546005999e-06
-3.69854593673e-05
-8.64310654813e-06
2.75968573837e-06
-2.5535892577e-05
-8.17578802285e-06
-3.26280857831e-06
-1.08164960661e-05
-7.85000137147e-06
-6.83640555471e-06
-7.71229532213e-06
-3.06568425829e-06
1.11013681715e-05
-1.45465689626e-05
-4.11891582217e-06
2.64292569984e-05
-1.48289594234e-05
-8.17042184546e-06
3.85494693011e-05
-1.5429195398e-05
-4.63881398238e-06
4.51523538048e-05
-1.63147534498e-05
1.34892803386e-06
4.588301333e-05
-1.75919452962e-05
7.86274865445e-06
4.20428009429e-05
-1.88018793664e-05
1.30438319047e-05
3.4968653818e-05
-1.98960113227e-05
1.68239812646e-05
2.55912630953e-05
-2.09583878288e-05
1.96933352369e-05
1.51162829879e-05
-2.17936237218e-05
2.11450532403e-05
4.12875518222e-06
-2.24274685455e-05
2.19347923959e-05
-7.09690915766e-06
-2.26280608108e-05
2.22704902379e-05
-1.82764367769e-05
-2.22431352812e-05
2.20651631406e-05
-2.87506392709e-05
-2.16434957457e-05
2.11095377345e-05
-3.69870274126e-05
-2.06346041959e-05
1.8274556915e-05
-4.17758784849e-05
-1.94761933483e-05
1.42704978643e-05
-4.18872106178e-05
-1.82131265085e-05
8.96689700978e-06
-3.61001902005e-05
-1.68186349976e-05
2.3884888104e-06
-2.48046976582e-05
-1.5855305926e-05
-3.61599310394e-06
-1.03342734117e-05
-1.51807462947e-05
-7.13969611719e-06
-1.48450591212e-05
-3.20152511793e-06
1.02576019949e-05
-2.01807738587e-05
-4.62339659926e-06
2.51479828464e-05
-2.07811829596e-05
-8.93816324994e-06
3.70039141382e-05
-2.1807979692e-05
-5.47713463644e-06
4.34789162309e-05
-2.32651567908e-05
4.7537154316e-07
4.42481975516e-05
-2.52185481923e-05
6.85733088123e-06
4.05472343962e-05
-2.70651277697e-05
1.1964207286e-05
3.37194005082e-05
-2.87153930974e-05
1.56472065496e-05
2.47928055253e-05
-3.02715762867e-05
1.82397693866e-05
1.46460151941e-05
-3.15952567754e-05
1.9948405516e-05
4.06926054097e-06
-3.24886054218e-05
2.06378723088e-05
-6.72844679131e-06
-3.27240067001e-05
2.08936350197e-05
-1.75966919861e-05
-3.21884125866e-05
2.08135082631e-05
-2.7571615383e-05
-3.11069233386e-05
1.94383398045e-05
-3.54530679715e-05
-2.96002840057e-05
1.68471205833e-05
-4.0046057438e-05
-2.78757169014e-05
1.2992497555e-05
-4.01024271733e-05
-2.59788884251e-05
7.82211215693e-06
-3.4452457567e-05
-2.39104980554e-05
1.44187188327e-06
-2.34540073873e-05
-2.23727008648e-05
-4.4810759292e-06
-9.45129643812e-06
-2.1275326251e-05
-7.9081492658e-06
-2.06078624704e-05
-3.68851038434e-06
9.17036918806e-06
-2.38090575308e-05
-5.54208610499e-06
2.34271306389e-05
-2.48403472783e-05
-1.01975981408e-05
3.49012642989e-05
-2.633794728e-05
-6.94419931968e-06
4.12237651952e-05
-2.83991445541e-05
-1.18848011496e-06
4.20979910812e-05
-3.10031391661e-05
4.91034331676e-06
3.86451973345e-05
-3.34655175817e-05
9.85318189934e-06
3.21558721966e-05
-3.56112897926e-05
1.33852169944e-05
2.36691588201e-05
-3.75546753544e-05
1.57698037518e-05
1.40859518776e-05
-3.91762788087e-05
1.71642172047e-05
3.95110516869e-06
-4.02123380316e-05
1.78585660054e-05
-6.43693160626e-06
-4.0441107494e-05
1.81051243218e-05
-1.66779384674e-05
-3.97893764053e-05
1.78419594395e-05
-2.60792829147e-05
-3.84066707234e-05
1.6701081844e-05
-3.35056284282e-05
-3.65061969082e-05
1.43322467953e-05
-3.77918574628e-05
-3.42876999931e-05
1.06981963356e-05
-3.77360333928e-05
-3.18013023202e-05
5.76656922704e-06
-3.22615891583e-05
-2.91090407823e-05
-2.75924880035e-07
-2.16791650473e-05
-2.69889716482e-05
-5.96617512961e-06
-8.33464190618e-06
-2.54436912305e-05
-9.17617639469e-06
-2.43414168666e-05
-4.60110831959e-06
8.02312283102e-06
-2.51457970261e-05
-6.68638346062e-06
2.14086608186e-05
-2.63992267408e-05
-1.18266670006e-05
3.23722532664e-05
-2.82455542126e-05
-9.05595756385e-06
3.85373785763e-05
-3.08281432099e-05
-3.73615234844e-06
3.95823543626e-05
-3.39500517844e-05
1.90193641329e-06
3.6493360373e-05
-3.69379252686e-05
6.5614125216e-06
3.0454195375e-05
-3.94716080057e-05
9.89948216226e-06
2.24744094238e-05
-4.16845906216e-05
1.21096969936e-05
1.33987210231e-05
-4.34555844591e-05
1.33549869791e-05
3.79611304447e-06
-4.45325418589e-05
1.39228029198e-05
-6.01307557818e-06
-4.47363826569e-05
1.41044536233e-05
-1.56556571056e-05
-4.40105893087e-05
1.38637845191e-05
-2.44291877106e-05
-4.24536633082e-05
1.28205132084e-05
-3.13046036487e-05
-4.02809457933e-05
1.06501526788e-05
-3.51876221778e-05
-3.76961820901e-05
7.29148409241e-06
-3.4963123558e-05
-3.47326263388e-05
2.70680387372e-06
-2.96791832509e-05
-3.15573892639e-05
-2.83561604056e-06
-1.96366249388e-05
-2.89449910006e-05
-8.0865613339e-06
-7.17399371474e-06
-2.70781909208e-05
-1.08281494242e-05
-2.57401107917e-05
-5.77532229834e-06
6.57640027333e-06
-2.34833136606e-05
-8.23888731934e-06
1.88732443167e-05
-2.48469775287e-05
-1.3849088406e-05
2.92663615293e-05
-2.68207133776e-05
-1.18179635973e-05
3.53020902292e-05
-2.96517133164e-05
-7.21214491947e-06
3.66358115183e-05
-3.3037621801e-05
-2.24616570989e-06
3.40492911019e-05
-3.63256056706e-05
1.97418054967e-06
2.85839843374e-05
-3.90359869281e-05
5.02968750358e-06
2.11948356401e-05
-4.13508853485e-05
7.05544311346e-06
1.26979376328e-05
-4.31438509122e-05
8.18516096104e-06
3.66971400416e-06
-4.41877510228e-05
8.68342690136e-06
-5.53098719666e-06
-4.43524699944e-05
8.81678025411e-06
-1.45089778764e-05
-4.35960106708e-05
8.56340239971e-06
-2.25881648439e-05
-4.1981361396e-05
7.60687427587e-06
-2.8819797677e-05
-3.97083230918e-05
5.65899672125e-06
-3.2190951678e-05
-3.69745286309e-05
2.64948270441e-06
-3.16948927645e-05
-3.37617216743e-05
-1.46698621627e-06
-2.65603940823e-05
-3.03582556477e-05
-6.3336576451e-06
-1.7110091766e-05
-2.75195625115e-05
-1.08757551821e-05
-5.74812190872e-06
-2.55395631898e-05
-1.29006184639e-05
-2.4100050415e-05
-7.38820443389e-06
5.33271821372e-06
-1.87999566444e-05
-1.00160745399e-05
1.63578006097e-05
-1.99427753404e-05
-1.59292860096e-05
2.60439168347e-05
-2.1683994638e-05
-1.48228267588e-05
3.19066753707e-05
-2.42869026389e-05
-1.12275586039e-05
3.34985344403e-05
-2.74962195745e-05
-7.13327231062e-06
3.14127026259e-05
-3.06559397893e-05
-3.58386504777e-06
2.65662173693e-05
-3.31985863275e-05
-9.90915753579e-07
1.98233557174e-05
-3.53422974677e-05
7.34275850276e-07
1.19574812301e-05
-3.69792773229e-05
1.70130033409e-06
3.55548988545e-06
-3.79083478899e-05
2.12258412531e-06
-4.99164660438e-06
-3.80311394871e-05
2.22579868958e-06
-1.32704000059e-05
-3.73176977591e-05
2.00043079728e-06
-2.06264583455e-05
-3.58180449348e-05
1.19273004358e-06
-2.61844471578e-05
-3.37156799776e-05
-4.34669226937e-07
-2.90398592637e-05
-3.11718761337e-05
-2.94725952337e-06
-2.82959186874e-05
-2.81193261995e-05
-6.38635915869e-06
-2.33487217899e-05
-2.49091448168e-05
-1.03963333006e-05
-1.46111995226e-05
-2.23126961656e-05
-1.39444133392e-05
-4.51651711401e-06
-2.05627458676e-05
-1.50715210178e-05
-1.93391293136e-05
-9.27745743299e-06
4.73777009907e-06
-1.20866724357e-05
-1.14510549825e-05
1.45171300222e-05
-1.23480318331e-05
-1.73741028441e-05
2.34178934094e-05
-1.33488542739e-05
-1.72359045347e-05
2.90556682269e-05
-1.51693986318e-05
-1.47552347322e-05
3.08984973788e-05
-1.76670179385e-05
-1.16720731554e-05
2.93285962447e-05
-2.02573324361e-05
-8.82870918816e-06
2.50696173838e-05
-2.22682761442e-05
-6.67132692674e-06
1.88847049304e-05
-2.40063620747e-05
-5.1510274479e-06
1.14799218732e-05
-2.53427476055e-05
-4.23174506523e-06
3.47641999339e-06
-2.60962459493e-05
-3.80860307211e-06
-4.65694884531e-06
-2.61785735591e-05
-3.71920402132e-06
-1.24353004571e-05
-2.55696446412e-05
-3.96971124548e-06
-1.91869387431e-05
-2.43273187117e-05
-4.73910043671e-06
-2.41235741626e-05
-2.26195754822e-05
-6.15948497381e-06
-2.64615681708e-05
-2.059689442e-05
-8.23700713866e-06
-2.54762141102e-05
-1.81421920444e-05
-1.09625105569e-05
-2.07648877564e-05
-1.5642451356e-05
-1.39780459488e-05
-1.28096954013e-05
-1.38321972634e-05
-1.64357188742e-05
-3.94692793297e-06
-1.28164470723e-05
-1.66090916953e-05
-1.24765289767e-05
-1.08095390374e-05
4.75581273159e-06
-5.0077157033e-06
-1.1834764512e-05
1.34752195151e-05
-4.21774385483e-06
-1.68496993257e-05
2.16358232932e-05
-4.1739824834e-06
-1.7335468264e-05
2.70524312448e-05
-4.75868374929e-06
-1.58273628556e-05
2.90280057688e-05
-5.9669999775e-06
-1.36755753446e-05
2.78001155081e-05
-7.47558046493e-06
-1.15538596863e-05
2.39982993235e-05
-8.58940782371e-06
-9.87704914546e-06
1.82315619707e-05
-9.68474556388e-06
-8.55488788017e-06
1.11463689099e-05
-1.05588793975e-05
-7.69867244953e-06
3.4099184189e-06
-1.1055984013e-05
-7.30381427416e-06
-4.44374499937e-06
-1.11034199486e-05
-7.22149702172e-06
-1.18731205997e-05
-1.06899510545e-05
-7.45032764798e-06
-1.81792577731e-05
-9.87174293772e-06
-8.14945092996e-06
-2.26384499943e-05
-8.79420613305e-06
-9.3661923478e-06
-2.46333846348e-05
-7.61643085053e-06
-1.09855460855e-05
-2.35184405955e-05
-6.27104642806e-06
-1.29861075498e-05
-1.90363174295e-05
-5.01362961277e-06
-1.5110969158e-05
-1.1810443703e-05
-4.43728610074e-06
-1.66208104622e-05
-3.98283814083e-06
-4.46724149609e-06
-1.61768303966e-05
-5.19696263759e-06
-1.12624232686e-05
5.48848716652e-06
-1.04961831906e-05
1.3122502922e-05
-1.18517353332e-05
2.03734256e-05
-1.14249074784e-05
2.55476767375e-05
-9.93297163847e-06
2.76807141397e-05
-8.10003511998e-06
2.66214041876e-05
-6.41626709609e-06
2.32736216272e-05
-5.24162341341e-06
1.78406509186e-05
-4.25177687381e-06
1.09400170614e-05
-3.65824560642e-06
3.31732238048e-06
-3.4332930653e-06
-4.41878133897e-06
-3.36732297041e-06
-1.16579308133e-05
-3.45081053277e-06
-1.76396393017e-05
-3.8900446278e-06
-2.16695665358e-05
-4.76429091103e-06
-2.33462347461e-05
-5.93977738728e-06
-2.21683569575e-05
-7.44894213479e-06
-1.78828188086e-05
-9.29918854781e-06
-1.15208300152e-05
-1.07992969396e-05
-4.74299126436e-06
-1.12450995734e-05
-9.93994958839e-06
9.0417605748e-06
8.55622993811e-06
-2.8094372649e-05
1.75830083686e-05
1.03983997723e-05
-3.07894366653e-05
2.39437101739e-05
1.21888511558e-05
-2.99949587383e-05
2.76787503825e-05
1.41576657761e-05
-2.78670548112e-05
2.85888711239e-05
1.61640668214e-05
-2.5232294533e-05
2.68991370763e-05
1.78649658993e-05
-2.26557786914e-05
2.29904486034e-05
1.91243275931e-05
-2.05194730454e-05
1.73866561405e-05
2.01108886675e-05
-1.8816713128e-05
1.06515101045e-05
2.08269521082e-05
-1.78072540755e-05
3.35666973746e-06
2.12242454026e-05
-1.74206555395e-05
-4.05372410993e-06
2.12724715909e-05
-1.72917353371e-05
-1.11244953672e-05
2.09561408569e-05
-1.74066750478e-05
-1.72550203039e-05
2.02909614648e-05
-1.81322737584e-05
-2.18076620171e-05
1.9316334416e-05
-1.96196690937e-05
-2.42580022468e-05
1.80538579939e-05
-2.16350847961e-05
-2.41718143183e-05
1.64291973158e-05
-2.4049123061e-05
-2.13601760297e-05
1.4457619276e-05
-2.66325597412e-05
-1.59323480112e-05
1.25190127784e-05
-2.87903255511e-05
-8.29988827377e-06
1.07255734948e-05
-2.96348190991e-05
8.78289319607e-06
-2.70586254063e-05
1.10344813729e-05
1.65090927796e-05
-3.08173311593e-05
1.91056055785e-05
1.78506692624e-05
-3.23873694774e-05
2.44234489219e-05
1.99950697512e-05
-3.04986569269e-05
2.72564463384e-05
2.26277076112e-05
-2.71883129765e-05
2.76826002886e-05
2.53927500769e-05
-2.34038570333e-05
2.58323064253e-05
2.78782082008e-05
-1.97939372924e-05
2.19744865345e-05
2.98558308318e-05
-1.68219350813e-05
1.6629178921e-05
3.14153677484e-05
-1.45758614711e-05
1.02864731942e-05
3.25543852205e-05
-1.31391965628e-05
3.40034793209e-06
3.3209220523e-05
-1.24568691161e-05
-3.60781228931e-06
3.33206162208e-05
-1.23196682065e-05
-1.02987671569e-05
3.28617122557e-05
-1.27308409411e-05
-1.61678211499e-05
3.18500794322e-05
-1.39183401456e-05
-2.06680538917e-05
3.03347619527e-05
-1.59737872838e-05
-2.32673877718e-05
2.83658904654e-05
-1.87910329514e-05
-2.36045425757e-05
2.59235379681e-05
-2.22318850961e-05
-2.16097643415e-05
2.3188724474e-05
-2.59088982855e-05
-1.71774520884e-05
2.05851268364e-05
-2.91722095577e-05
-1.00576788136e-05
1.84459698719e-05
-3.10421765663e-05
1.69970759167e-05
-2.95281713735e-05
1.28742349436e-05
2.22825311225e-05
-3.01090961122e-05
2.13072593758e-05
2.26209490919e-05
-3.06004748914e-05
2.63694278302e-05
2.45312372374e-05
-2.68760778627e-05
2.87518812329e-05
2.70917545457e-05
-2.16527676367e-05
2.86927200457e-05
2.97810954327e-05
-1.60546648487e-05
2.64127644022e-05
3.22394050211e-05
-1.09589974962e-05
2.22542714785e-05
3.42665878249e-05
-6.96395524741e-06
1.67525260893e-05
3.58994219929e-05
-4.16279647719e-06
1.03564172874e-05
3.71304895027e-05
-2.43180981943e-06
3.44634849907e-06
3.78735903718e-05
-1.57839664512e-06
-3.60170616381e-06
3.80394523107e-05
-1.40722346712e-06
-1.03833153928e-05
3.75891896184e-05
-1.93964283914e-06
-1.644284309e-05
3.65497633242e-05
-3.41490833671e-06
-2.12587475331e-05
3.4987598607e-05
-6.04149417452e-06
-2.42666686689e-05
3.29697216016e-05
-9.88437486764e-06
-2.50601989872e-05
3.05039330247e-05
-1.48066786993e-05
-2.34635529945e-05
2.78156965696e-05
-2.0258513412e-05
-1.92574082877e-05
2.52774690186e-05
-2.53846050249e-05
-1.17947692849e-05
2.33836686158e-05
-2.90426397959e-05
2.29797214022e-05
-2.85918769951e-05
1.48635823698e-05
2.54779924593e-05
-2.80930174069e-05
2.3963701197e-05
2.49751084169e-05
-2.7409828735e-05
2.89398740478e-05
2.64689825514e-05
-2.17707688012e-05
3.08407314094e-05
2.85695995603e-05
-1.46376020802e-05
3.01649015646e-05
3.07999774345e-05
-7.50260432615e-06
2.73184362896e-05
3.28783094438e-05
-1.39667871087e-06
2.27811264068e-05
3.46973548294e-05
3.1024319121e-06
1.70580701707e-05
3.62173121776e-05
6.13606567984e-06
1.05286229746e-05
3.74066998769e-05
7.96150503746e-06
3.5096349461e-06
3.81624693928e-05
8.86653456868e-06
-3.66978494208e-06
3.83797393173e-05
9.07825410548e-06
-1.06401535838e-05
3.80076720143e-05
8.55844576606e-06
-1.6980085045e-05
3.70679162643e-05
7.01089735932e-06
-2.2201049235e-05
3.56347709524e-05
4.13157061484e-06
-2.57783069148e-05
3.37869462009e-05
-1.96448549267e-07
-2.7147016913e-05
3.16514427305e-05
-6.18219079455e-06
-2.5990651222e-05
2.93817282226e-05
-1.31463981213e-05
-2.18463513192e-05
2.72881514753e-05
-2.01371773151e-05
-1.37223824826e-05
2.58159354613e-05
-2.56654978785e-05
2.62914172576e-05
-2.63320976356e-05
1.68786756013e-05
2.59522505814e-05
-2.5617337904e-05
2.67377745945e-05
2.50077246266e-05
-2.37694573256e-05
3.16327490182e-05
2.60307219282e-05
-1.62966770416e-05
3.30638600315e-05
2.75200425326e-05
-7.60342102186e-06
3.18259741381e-05
2.91849078605e-05
6.06656408946e-07
2.85650256074e-05
3.09254754531e-05
7.19446530307e-06
2.37005051725e-05
3.25108937462e-05
1.20942443709e-05
1.77034847521e-05
3.39016417049e-05
1.53934858973e-05
1.09144150527e-05
3.50497329602e-05
1.73717453096e-05
3.6165193174e-06
3.58195764155e-05
1.83757080226e-05
-3.87276042082e-06
3.60815262594e-05
1.86555372508e-05
-1.11862978639e-05
3.57771295077e-05
1.81487492343e-05
-1.79021753396e-05
3.49370436498e-05
1.64833186001e-05
-2.35308648893e-05
3.36468042596e-05
1.33037308824e-05
-2.75262620222e-05
3.2005433584e-05
8.45533693963e-06
-2.94116664674e-05
3.0160231709e-05
1.93123023361e-06
-2.86823786363e-05
2.83928283933e-05
-6.06959234271e-06
-2.45907107221e-05
2.68627490602e-05
-1.45619771445e-05
-1.57047586084e-05
2.58533828858e-05
-2.1862776332e-05
2.67856588629e-05
-2.36219488898e-05
1.8559152381e-05
2.39177222671e-05
-2.32323347364e-05
2.92092739669e-05
2.28160124774e-05
-2.03079252248e-05
3.40714995273e-05
2.34104731962e-05
-1.13056167697e-05
3.51119770464e-05
2.43150646563e-05
-1.56057700817e-06
3.35452850945e-05
2.55325362089e-05
7.14562940926e-06
2.99474127411e-05
2.68889025391e-05
1.42312944022e-05
2.47993435083e-05
2.81982992851e-05
1.94112581346e-05
1.85316154355e-05
2.94101889906e-05
2.29412326872e-05
1.14329182877e-05
3.04692632591e-05
2.51299463314e-05
3.7701601011e-06
3.12164690274e-05
2.62998527613e-05
-4.12160635592e-06
3.1504037929e-05
2.6685203175e-05
-1.18502915458e-05
3.1273857738e-05
2.61933607489e-05
-1.89798063634e-05
3.05600543941e-05
2.44065938184e-05
-2.50100087286e-05
2.94579493918e-05
2.09382839325e-05
-2.9379028548e-05
2.80704920067e-05
1.56580012183e-05
-3.157310809e-05
2.65557694421e-05
8.55794147522e-06
-3.11876584706e-05
2.51656005204e-05
3.84067893055e-08
-2.70739088844e-05
2.41922603734e-05
-9.5317585574e-06
-1.73754389543e-05
2.35942310899e-05
-1.82993244412e-05
2.46831589392e-05
-2.10819558612e-05
1.98245151823e-05
1.9753008093e-05
-2.12217083274e-05
3.11680637713e-05
1.86984169739e-05
-1.74377284924e-05
3.60498541691e-05
1.8970549374e-05
-7.38092647274e-06
3.68552200286e-05
1.94570485978e-05
2.88925215495e-06
3.5059977251e-05
2.0297578649e-05
1.19823442814e-05
3.12417995032e-05
2.1298871289e-05
1.93221550625e-05
2.58860594329e-05
2.23098087481e-05
2.47143786685e-05
1.93909994274e-05
2.32891557075e-05
2.85014683281e-05
1.2003295227e-05
2.42023710836e-05
3.09675340763e-05
3.9667573232e-06
2.49122094677e-05
3.23695786616e-05
-4.34220570366e-06
2.51929101313e-05
3.28979909995e-05
-1.24789355787e-05
2.4975958307e-05
3.24333630706e-05
-2.00081352352e-05
2.43917098569e-05
3.05308797751e-05
-2.64042463723e-05
2.35198329645e-05
2.677624545e-05
-3.10768636994e-05
2.2434581166e-05
2.10974719792e-05
-3.34993187667e-05
2.12726891974e-05
1.35435471748e-05
-3.32652314557e-05
2.02592662765e-05
4.44055101764e-06
-2.90867394372e-05
1.96578124282e-05
-5.60139268567e-06
-1.86601267492e-05
1.93571429115e-05
-1.53923424675e-05
2.03933278083e-05
-1.90086311568e-05
2.07952684581e-05
1.39832267993e-05
-1.96606416158e-05
3.26695364593e-05
1.31822129797e-05
-1.52995910374e-05
3.75776231123e-05
1.3269625989e-05
-4.67023946817e-06
3.8227315958e-05
1.34993921527e-05
5.81374277774e-06