/*--------------------------------*- C++ -*----------------------------------*\
| =========                 |                                                 |
| \\      /  F ield         | OpenFOAM: The Open Source CFD Toolbox           |
|  \\    /   O peration     | Version:  3.0.1                                 |
|   \\  /    A nd           | Web:      www.OpenFOAM.org                      |
|    \\/     M anipulation  |                                                 |
\*---------------------------------------------------------------------------*/
FoamFile
{
    version     2.0;
    format      ascii;
    class       volScalarField;
    location    "10";
    object      p;
}
// * * * * * * * * * * * * * * * * * * * * * * * * * * * * * * * * * * * * * //

dimensions      [1 -1 -2 0 0 0 0];

internalField   nonuniform List<scalar> 
7968
(
4702.21658911
4702.21955424
4702.21838406
4702.21554412
4702.21039254
4702.20321055
4702.19519341
4702.18643206
4702.17719828
4702.1673028
4702.15695193
4702.14648232
4702.13566229
4702.12585523
4702.11713001
4702.10983214
4702.10400803
4702.09924137
4702.09628595
4702.09396443
4702.22013483
4702.22695898
4702.22767374
4702.22605648
4702.22079246
4702.21373465
4702.20528425
4702.19616498
4702.18663457
4702.17661177
4702.16620187
4702.15569023
4702.14493763
4702.13521217
4702.12664533
4702.119267
4702.11302583
4702.10703948
4702.10261513
4702.0977397
4702.22259122
4702.23158936
4702.2339615
4702.23310284
4702.22757225
4702.21937119
4702.20959635
4702.19912292
4702.1884327
4702.17765225
4702.1669331
4702.15651582
4702.14629034
4702.13724966
4702.12937995
4702.12254033
4702.11645845
4702.10988067
4702.10443663
4702.09851024
4702.22599517
4702.236698
4702.23995779
4702.23911696
4702.23279644
4702.22314156
4702.21174692
4702.19981828
4702.18784614
4702.17612788
4702.16500504
4702.15463872
4702.14493372
4702.13647238
4702.12934017
4702.12321284
4702.11761126
4702.11113258
4702.10533126
4702.09883381
4702.22964701
4702.24096829
4702.24405975
4702.2424977
4702.23494851
4702.22367289
4702.21057123
4702.19707525
4702.18392575
4702.17144815
4702.15988426
4702.14938988
4702.13993344
4702.13202721
4702.1255913
4702.12016749
4702.11525985
4702.10944748
4702.10415245
4702.09784271
4702.2340513
4702.24554414
4702.24782702
4702.24501586
4702.23592433
4702.22287098
4702.20808934
4702.19308098
4702.17877944
4702.16552243
4702.15350729
4702.14285268
4702.13356708
4702.12604468
4702.12016934
4702.11554897
4702.11143849
4702.10662185
4702.10235327
4702.09632109
4702.23947347
4702.2508226
4702.25199607
4702.24775352
4702.23714376
4702.22235457
4702.2059763
4702.1896963
4702.17445084
4702.16052403
4702.14806572
4702.13715341
4702.12781769
4702.12042439
4702.11489366
4702.11085181
4702.10750534
4702.10369532
4702.10042819
4702.09510403
4702.24569827
4702.25696998
4702.25699404
4702.25139411
4702.23922898
4702.22305435
4702.20540852
4702.18813969
4702.17217808
4702.15771576
4702.14482
4702.13350171
4702.12385671
4702.11631047
4702.11081651
4702.10706251
4702.10426368
4702.10128619
4702.0989567
4702.09417912
4702.25249883
4702.26377249
4702.26284174
4702.25617561
4702.24275453
4702.22541591
4702.20676415
4702.18871813
4702.17224654
4702.15753483
4702.14425707
4702.13225444
4702.12185688
4702.1139507
4702.10826143
4702.10450781
4702.10193244
4702.09931761
4702.09784617
4702.09351567
4702.25947653
4702.27080123
4702.26928315
4702.26191441
4702.24761903
4702.22943708
4702.2100152
4702.19133054
4702.17445327
4702.15941903
4702.1456383
4702.1330254
4702.12172144
4702.11316509
4702.10711071
4702.10310408
4702.10047333
4702.09805245
4702.09682308
4702.09286089
4702.26640959
4702.27776782
4702.27604692
4702.26834721
4702.2536342
4702.23495822
4702.21498347
4702.19571048
4702.17825064
4702.16261269
4702.1482113
4702.13502315
4702.12300992
4702.11382053
4702.10723244
4702.10270726
4702.09969893
4702.09706496
4702.09572975
4702.09203697
4702.27306954
4702.28445748
4702.28292569
4702.2752553
4702.26059719
4702.24178133
4702.22147857
4702.20167118
4702.18338225
4702.16683465
4702.15173386
4702.13794512
4702.12541077
4702.1157413
4702.10838427
4702.10318503
4702.09951205
4702.09631496
4702.09461932
4702.09098503
4702.27935863
4702.29079544
4702.28981911
4702.28260896
4702.26832398
4702.24969326
4702.22932311
4702.2091541
4702.19021336
4702.17269602
4702.15672537
4702.14227172
4702.12951088
4702.1190713
4702.11080495
4702.104611
4702.09996116
4702.09579665
4702.09350716
4702.08975993
4702.28526593
4702.2967897
4702.29657373
4702.29011742
4702.27658047
4702.2583656
4702.23822819
4702.21794439
4702.19859207
4702.18045987
4702.16371005
4702.14854123
4702.1350739
4702.12364716
4702.11432219
4702.10697775
4702.10120407
4702.0961488
4702.09277109
4702.08881713
4702.29073826
4702.30232519
4702.30285783
4702.29727005
4702.28450958
4702.26715752
4702.24764716
4702.2275948
4702.2081179
4702.18958668
4702.17222643
4702.15625711
4702.14186517
4702.1293114
4702.11877488
4702.11010623
4702.10301631
4702.09675577
4702.09243968
4702.08827335
4702.29570047
4702.30698995
4702.30802783
4702.30321786
4702.29138673
4702.27506484
4702.25639516
4702.23694423
4702.21767683
4702.19900565
4702.18118756
4702.16448215
4702.14914605
4702.1353569
4702.12356428
4702.11348151
4702.10516394
4702.09768901
4702.09238067
4702.08834302
4702.29973649
4702.31024562
4702.31122485
4702.30681871
4702.29579105
4702.2805414
4702.26293616
4702.24434762
4702.22553616
4702.20701791
4702.18896883
4702.17168171
4702.15547422
4702.14052061
4702.1276354
4702.11636662
4702.10691689
4702.09843555
4702.09245121
4702.08828525
4702.30226889
4702.31092723
4702.31088549
4702.30629258
4702.29586938
4702.28175266
4702.26540431
4702.24790246
4702.22998669
4702.21193688
4702.19390213
4702.17622013
4702.15931702
4702.1435635
4702.12951537
4702.11724106
4702.1069589
4702.09786467
4702.09178453
4702.08777556
4702.30389434
4702.31021103
4702.30855118
4702.30320095
4702.29310635
4702.27998316
4702.26482497
4702.24852611
4702.2315986
4702.21412982
4702.19628604
4702.1784241
4702.16105438
4702.14467116
4702.12977833
4702.11681791
4702.10609004
4702.09696857
4702.09102131
4702.08742166
4702.30277689
4702.30528435
4702.30177671
4702.29524881
4702.28499739
4702.27219764
4702.25769438
4702.2421392
4702.22566421
4702.20858557
4702.19110185
4702.17355822
4702.15647902
4702.14039359
4702.12568487
4702.11289426
4702.10246443
4702.09393676
4702.08845019
4702.08517835
4206.80464915
4206.80607603
4206.8033625
4206.79986294
4206.79511932
4206.78922192
4206.78229945
4206.77450541
4206.7658289
4206.75627927
4206.74581159
4206.73472712
4206.72323364
4206.71219584
4206.70236438
4206.6941345
4206.68799204
4206.68394364
4206.68262007
4206.68207365
4206.80576436
4206.81043988
4206.80780307
4206.80552961
4206.80269447
4206.79920064
4206.7944843
4206.78848677
4206.78105121
4206.77202414
4206.76151654
4206.74986438
4206.73748951
4206.72506601
4206.71353866
4206.70339687
4206.69535292
4206.68979535
4206.68809524
4206.68536589
4206.80624534
4206.81156891
4206.80741697
4206.80524938
4206.80315814
4206.80031364
4206.79607408
4206.79034781
4206.78302809
4206.77395666
4206.76324127
4206.75124821
4206.73842991
4206.72540834
4206.71325182
4206.70232818
4206.6935082
4206.68767885
4206.68749229
4206.68528479
4206.80861159
4206.81573329
4206.81183054
4206.81051371
4206.80925166
4206.80689939
4206.80278506
4206.79680054
4206.78928058
4206.77995482
4206.76883413
4206.75631485
4206.74288535
4206.72948607
4206.71670235
4206.70493496
4206.69510933
4206.68844463
4206.68832697
4206.68553241
4206.81245659
4206.821852
4206.81869269
4206.81818947
4206.81770136
4206.81582164
4206.81187655
4206.80581813
4206.79781746
4206.78790482
4206.77632
4206.76345129
4206.74974793
4206.7355853
4206.7218257
4206.70904699
4206.69807579
4206.6904475
4206.68963152
4206.68550677
4206.81774361
4206.82951298
4206.82697194
4206.8269263
4206.82687236
4206.82525617
4206.82117986
4206.81494788
4206.80666352
4206.79636977
4206.78436269
4206.77103312
4206.75679063
4206.74195375
4206.72747202
4206.7137416
4206.70160299
4206.6930895
4206.69143833
4206.68561867
4206.82413654
4206.83800331
4206.83587932
4206.83591869
4206.83589782
4206.83423992
4206.82994921
4206.82351759
4206.8150183
4206.80440439
4206.79197078
4206.77812962
4206.76328655
4206.74778112
4206.73252763
4206.71801848
4206.70512968
4206.69577907
4206.69331467
4206.6859192
4206.83143285
4206.84695159
4206.84502513
4206.84484721
4206.84473255
4206.84274709
4206.83817408
4206.83158099
4206.82289318
4206.81189537
4206.79897445
4206.78459612
4206.76915542
4206.75294234
4206.73691314
4206.72172575
4206.70831474
4206.6983622
4206.69507814
4206.68640024
4206.83909735
4206.85572598
4206.85382658
4206.85317755
4206.85277842
4206.85044663
4206.84552673
4206.83865957
4206.82951769
4206.81763909
4206.80400585
4206.78923317
4206.77357824
4206.75680849
4206.74018801
4206.72450441
4206.710694
4206.70062953
4206.69639687
4206.68686852
4206.84662236
4206.86377916
4206.8617675
4206.86064717
4206.85983065
4206.85706441
4206.85168032
4206.84432428
4206.83442275
4206.82180101
4206.80749047
4206.79208063
4206.77599562
4206.75906084
4206.74200505
4206.72596567
4206.71185109
4206.70162924
4206.69710458
4206.68690397
4206.85367157
4206.87077153
4206.86853843
4206.86704151
4206.86573889
4206.86245441
4206.85648748
4206.84850214
4206.83790446
4206.82459662
4206.80961956
4206.79359075
4206.77697767
4206.75969791
4206.74232308
4206.72600624
4206.71166002
4206.70123014
4206.69653459
4206.68627547
4206.86007523
4206.8765516
4206.87400521
4206.87226674
4206.87039617
4206.86651812
4206.85987745
4206.85116119
4206.84004794
4206.8261176
4206.81047266
4206.79387532
4206.77678725
4206.75885313
4206.74125545
4206.72470492
4206.71018761
4206.69955926
4206.69472323
4206.68502716
4206.86581328
4206.88113088
4206.87815358
4206.87611166
4206.87368126
4206.86917875
4206.86182854
4206.85227546
4206.84048995
4206.82628833
4206.81013652
4206.79294484
4206.77509393
4206.75680768
4206.73894547
4206.72220165
4206.707559
4206.6966895
4206.69164049
4206.6831816
4206.87098631
4206.88470371
4206.88116928
4206.87867145
4206.87548532
4206.87043902
4206.86240611
4206.85199709
4206.83937922
4206.82455966
4206.80798438
4206.79028254
4206.7719824
4206.75355121
4206.73558523
4206.71881663
4206.70419185
4206.69303683
4206.68864747
4206.68142559
4206.87581503
4206.88755745
4206.88330914
4206.88018008
4206.87627775
4206.87040545
4206.86170219
4206.8505682
4206.8372375
4206.82181977
4206.80476752
4206.786669
4206.76808996
4206.74956163
4206.73155058
4206.71495384
4206.70045268
4206.6894232
4206.68568972
4206.67996435
4206.88026503
4206.88976699
4206.88469408
4206.88068085
4206.87576685
4206.86892613
4206.85959593
4206.84786155
4206.83405688
4206.81825955
4206.80089521
4206.78253165
4206.76376689
4206.74520285
4206.72730696
4206.7109019
4206.69659636
4206.68629879
4206.68299815
4206.67871304
4206.88447535
4206.89175926
4206.88583342
4206.88072269
4206.87462037
4206.86675386
4206.85665683
4206.84438284
4206.83044227
4206.8144461
4206.79690958
4206.77839662
4206.75953898
4206.74107507
4206.72320352
4206.70710885
4206.69370643
4206.68390289
4206.68096068
4206.67792465
4206.88835698
4206.89375508
4206.88742738
4206.88133809
4206.87415337
4206.86541246
4206.85474648
4206.84218055
4206.82785957
4206.81166318
4206.79398432
4206.77541388
4206.75659224
4206.73815718
4206.72070288
4206.70502366
4206.69222844
4206.68280406
4206.6797124
4206.67724889
4206.89216763
4206.89668527
4206.89167306
4206.88547899
4206.87749227
4206.86790677
4206.85654307
4206.84343092
4206.8287596
4206.81246853
4206.79478487
4206.77622
4206.75742276
4206.7391059
4206.72186462
4206.70655524
4206.6940853
4206.6846842
4206.68023461
4206.67722141
4206.89387705
4206.89496755
4206.88991309
4206.88268149
4206.8729271
4206.86126464
4206.84796787
4206.83333944
4206.81786757
4206.80136992
4206.78400426
4206.76617941
4206.74848762
4206.73156935
4206.71545673
4206.70179904
4206.69075408
4206.68232643
4206.67758453
4206.67535712
3711.39749312
3711.39825324
3711.39478979
3711.39079231
3711.38596119
3711.38033052
3711.37386442
3711.36652368
3711.35816515
3711.34869581
3711.33807028
3711.32655266
3711.31470265
3711.30274181
3711.29220469
3711.28344995
3711.27717912
3711.27356439
3711.27294973
3711.27317939
3711.39730855
3711.40553073
3711.40398713
3711.40182316
3711.39964094
3711.39692894
3711.39314292
3711.38793146
3711.38099289
3711.37215735
3711.36163038
3711.34972948
3711.33695687
3711.32394906
3711.31133678
3711.30017917
3711.29108147
3711.28491025
3711.28180138
3711.27660702
3711.39674985
3711.40787661
3711.40470444
3711.40132077
3711.39915954
3711.39713978
3711.39418565
3711.38969323
3711.38327685
3711.37477125
3711.36420422
3711.35194436
3711.33853281
3711.32464338
3711.31117074
3711.29906003
3711.28954343
3711.28379508
3711.2820868
3711.27605804
3711.398464
3711.41235118
3711.40825436
3711.40419022
3711.40221131
3711.40065877
3711.39807394
3711.39374171
3711.38717641
3711.37836157
3711.36744835
3711.35483355
3711.34107747
3711.32643327
3711.31217955
3711.29917261
3711.28909955
3711.28363719
3711.28305323
3711.27601847
3711.40236302
3711.41931443
3711.41536947
3711.41142752
3711.40993627
3711.40881556
3711.31043111
3711.30464007
3711.36091635
3711.3573889
3711.35167446
3711.34415619
3711.40448312
3711.41398812
3711.3171359
3711.30284506
3711.29177829
3711.28569573
3711.28498552
3711.27600953
3711.40818927
3711.42804965
3711.42474095
3711.42111765
3711.41996948
3711.13873486
3710.81711813
3710.99383877
3711.23453011
3711.24921339
3711.26166841
3711.2722858
3711.53483292
3711.79796549
3711.56452847
3711.3087747
3711.29637669
3711.28920119
3711.28759334
3711.27635464
3711.41543975
3711.43779152
3711.43516883
3711.4316912
3711.32846832
3710.53884022
3710.22798059
3710.73765246
3711.1638396
3711.17945321
3711.19278608
3711.2042444
3711.6615007
3712.29815142
3712.12796576
3711.40277553
3711.30127329
3711.29312438
3711.29036095
3711.27710815
3711.42368891
3711.44780682
3711.44582919
3711.4422637
3711.17805544
3710.12446784
3709.96826338
3710.66719997
3711.18898109
3711.19061923
3711.18989477
3711.18723682
3711.74117251
3712.57863927
3712.56689698
3711.56350175
3711.30567333
3711.29663288
3711.29288457
3711.27811982
3711.43230909
3711.45747104
3711.45595336
3711.45211655
3711.12097915
3710.02729092
3709.91899888
3710.6780103
3711.22742236
3711.21910801
3711.2083273
3711.19551413
3711.77570929
3712.6716462
3712.69928424
3711.63876338
3711.30898236
3711.29909763
3711.29462146
3711.27899933
3711.44064388
3711.46628562
3711.46487628
3711.46066906
3711.12365905
3710.01203908
3709.90259642
3710.67442585
3711.23288116
3711.2240589
3711.21266088
3711.19922472
3711.78873626
3712.69914035
3712.72599929
3711.64636823
3711.31069253
3711.30018675
3711.29498307
3711.27917032
3711.44828921
3711.47386185
3711.47223364
3711.46759205
3711.12463704
3709.99501096
3709.88429321
3710.66884281
3711.23621768
3711.22672163
3711.21466956
3711.20063383
3711.79954593
3712.72459216
3712.75072112
3711.65207908
3711.31062541
3711.29973388
3711.29416624
3711.27843314
3711.45505698
3711.4800121
3711.47787045
3711.4727435
3711.12378404
3709.97609545
3709.86400462
3710.66119098
3711.23734161
3711.22711346
3711.21444106
3711.19985158
3711.80824789
3712.74802831
3712.77368163
3711.65601769
3711.30885777
3711.29774754
3711.29214498
3711.27686385
3711.46094805
3711.48475317
3711.48180517
3711.47613858
3711.20905463
3710.1131225
3709.98142777
3710.74666782
3711.29776907
3711.27678308
3711.25351927
3711.22847772
3711.80699289
3712.69471162
3712.66894005
3711.58062016
3711.30554727
3711.29446094
3711.289251
3711.27460421
3711.46613122
3711.4882639
3711.48428545
3711.47804464
3711.38702941
3710.60952986
3710.37244439
3710.9692129
3711.41229823
3711.37577958
3711.33707036
3711.29671149
3711.75464307
3712.41953053
3712.20970274
3711.40854251
3711.30114647
3711.29032009
3711.28534455
3711.27242217
3711.47093904
3711.49076289
3711.48573468
3711.47883041
3711.4736179
3711.21460896
3710.97022343
3711.23473163
3711.48496977
3711.44741891
3711.40774618
3711.36649786
3711.61479473
3711.87486029
3711.59790069
3711.31191587
3711.29633766
3711.28600343
3711.28137503
3711.27047057
3711.47557449
3711.4925109
3711.48665543
3711.47903605
3711.47291173
3711.4665694
3711.36594184
3711.38515824
3711.45131679
3711.43077051
3711.40815412
3711.38400578
3711.43991276
3711.44161475
3711.32472854
3711.30676701
3711.29190541
3711.28174662
3711.27773556
3711.26897308
3711.48022516
3711.49402664
3711.48787206
3711.47983133
3711.47278526
3711.46546394
3711.45660115
3711.44558727
3711.43216757
3711.4164967
3711.39883704
3711.37970237
3711.35974972
3711.33973118
3711.3205296
3711.30317565
3711.2883708
3711.27864348
3711.27481054
3711.26799366
3711.48508026
3711.49595476
3711.49032622
3711.48270298
3711.47515134
3711.46692868
3711.457194
3711.44550799
3711.43172068
3711.41578166
3711.3979494
3711.37864013
3711.35852267
3711.33841927
3711.319279
3711.30205625
3711.28770694
3711.27761046
3711.27303101
3711.26735406
3711.49005018
3711.49782979
3711.49344692
3711.4869658
3711.47925467
3711.47013258
3711.4593095
3711.44662572
3711.43203766
3711.41549538
3711.39734188
3711.3780322
3711.35817905
3711.33853491
3711.31994581
3711.30324235
3711.28896441
3711.27850829
3711.27268843
3711.26751337
3711.4930115
3711.49354542
3711.4875385
3711.4794938
3711.46929968
3711.45743852
3711.44419728
3711.42976908
3711.41425717
3711.39763366
3711.37992802
3711.36145695
3711.34282638
3711.32476876
3711.30797388
3711.2931994
3711.28131942
3711.27249329
3711.26765204
3711.26517601
3215.98680202
3215.98624849
3215.98305541
3215.97954764
3215.9757488
3215.97136084
3215.96613098
3215.95976761
3215.95195985
3215.94250111
3215.93142499
3215.91899923
3215.90577204
3215.89253988
3215.88045475
3215.86975571
3215.86238268
3215.85851734
3215.85802459
3215.86020653
3215.98447888
3215.99266029
3215.99152774
3215.98931244
3215.98782601
3215.98617563
3215.98364632
3215.97962372
3215.97357659
3215.96521509
3215.9546012
3215.9421065
3215.92831651
3215.91402364
3215.90017182
3215.88767798
3215.87763566
3215.87109991
3215.86717389
3215.86271352
3215.98377399
3215.99535942
3215.99460644
3215.99173686
3215.99033737
3215.98908488
3215.98688433
3215.98308501
3215.9771951
3215.96892442
3215.95831288
3215.94573173
3215.93175054
3215.91711739
3215.90271205
3215.88952293
3215.87870646
3215.87173397
3215.86763349
3215.86217658
3215.98596812
3215.9997418
3215.99894923
3215.9953288
3215.99360662
3215.81983248
3215.57918902
3215.68958298
3215.83271551
3215.84711514
3215.85923908
3215.86945395
3216.03349001
3216.22141952
3216.05022128
3215.8896981
3215.87850728
3215.87181636
3215.86850517
3215.86227148
3215.9913365
3216.00757718
3216.00713599
3216.00314696
3215.59384594
3214.74298902
3214.52872455
3215.08099962
3215.50029129
3215.54949592
3215.59659459
3215.64193294
3216.11150259
3216.86592487
3216.91835355
3216.24349596
3215.88153348
3215.87451644
3215.87111838
3215.86281343
3215.99906463
3216.01777054
3216.01768757
3215.83003934
3214.39102941
3213.4654666
3213.8377985
3214.72264812
3215.2633059
3215.30674289
3215.34825895
3215.38817141
3216.00837294
3217.2138749
3217.99853992
3217.3484007
3216.04411735
3215.87870317
3215.87480679
3215.86407452
3216.00840749
3216.02937054
3216.02943332
3215.30855729
3213.21032969
3212.963103
3213.59064339
3214.51402533
3215.08182963
3215.11070454
3215.13785735
3215.1635729
3215.83779405
3217.21122467
3218.43529772
3218.54386926
3216.54386719
3215.88333786
3215.87882797
3215.86606476
3216.01855856
3216.04139673
3216.04147296
3214.83627868
3212.744393
3212.87919532
3213.51111514
3214.45462394
3215.03035536
3215.0400228
3215.04827988
3215.05538776
3215.74962684
3217.20774128
3218.54846684
3219.10752226
3217.04734466
3215.88748972
3215.88276401
3215.86842247
3216.02872895
3216.05291092
3216.05295271
3214.6923274
3212.65240843
3212.86432801
3213.50526065
3214.46297885
3215.0431393
3215.04193649
3215.03965329
3215.03642952
3215.73844044
3217.2302715
3218.61131979
3219.26491641
3217.22445907
3215.89042132
3215.8851701
3215.87030742
3216.03829678
3216.06318371
3216.06309186
3214.67992683
3212.60933886
3212.82857513
3213.48241711
3214.45636698
3215.04591236
3215.04403417
3215.04122619
3215.03759669
3215.75066582
3217.26683485
3218.66919635
3219.32935429
3217.24954116
3215.8917274
3215.88610595
3215.87113086
3216.04684928
3216.07176503
3216.07143173
3214.66574553
3212.56452518
3212.79109743
3213.45786498
3214.44844342
3215.04762437
3215.04511536
3215.04166957
3215.03740733
3215.76139326
3217.30187937
3218.72539009
3219.39203296
3217.27277749
3215.89121926
3215.88527294
3215.87059383
3216.0541515
3216.07843257
3216.07775739
3214.64959746
3212.51780323
3212.75175954
3213.43149908
3214.43911252
3215.04819482
3215.04513899
3215.04099791
3215.03587136
3215.77059806
3217.33541246
3218.7801192
3219.45311189
3217.29427186
3215.888971
3215.8827338
3215.8685309
3216.06017682
3216.08322197
3216.08211196
3214.82902495
3212.64517742
3212.83028363
3213.52378217
3214.54298493
3215.15058319
3215.13540168
3215.118898
3215.10133235
3215.82821861
3217.38152499
3218.80064346
3219.37316671
3217.13054391
3215.88518316
3215.87875798
3215.86521299
3216.06509556
3216.08641532
3216.08485326
3215.39423028
3213.268421
3213.10616635
3213.81184881
3214.82524073
3215.4101125
3215.37171901
3215.3317265
3215.29047603
3215.97476722
3217.43590131
3218.72310243
3218.79580912
3216.5841642
3215.8803432
3215.87378789
3215.86105472
3216.06924352
3216.08847639
3216.08640129
3215.92280851
3214.53865674
3213.7490681
3214.23317619
3215.21203071
3215.75165737
3215.69214362
3215.63087519
3215.56824369
3216.17631946
3217.45604448
3218.26153884
3217.49879749
3216.05012228
3215.87497118
3215.86859943
3215.8574391
3216.07306503
3216.08996194
3216.08727058
3216.07905864
3215.70338684
3214.98913592
3214.97214725
3215.65623785
3216.0611166
3215.99029625
3215.91752291
3215.84324872
3216.27436097
3217.05469617
3217.06180576
3216.2862858
3215.8810254
3215.86984222
3215.86377519
3215.85464771
3216.07701982
3216.0914723
3216.08820445
3216.0800793
3216.07287963
3215.89892859
3215.7179677
3215.93467935
3216.0914066
3216.05280741
3216.01205805
3215.96964578
3216.11412384
3216.30395609
3216.08702326
3215.89321848
3215.8771727
3215.86583577
3215.8597671
3215.85279408
3216.08219024
3216.09387497
3216.09023549
3216.08268952
3216.07547255
3216.0675306
3216.05793717
3216.04620751
3216.03220803
3216.0154414
3215.99655806
3215.97596511
3215.95433532
3215.9325152
3215.91146419
3215.8922967
3215.87603727
3215.86411833
3215.85769521
3215.85197159
3216.08746971
3216.09529982
3216.09104882
3216.0842116
3216.07678749
3216.0682172
3216.05804268
3216.04587929
3216.03144334
3216.01457923
3215.99553318
3215.97481137
3215.95311416
3215.93131874
3215.91047088
3215.89157909
3215.87566104
3215.86380717
3215.85708882
3215.85215175
3216.0926287
3216.09170689
3216.08547331
3216.07722862
3216.06726073
3216.05579977
3216.04304459
3216.02899313
3216.01353316
3215.99649588
3215.97791643
3215.95811043
3215.93771763
3215.91755785
3215.89859296
3215.88178611
3215.86801737
3215.85789712
3215.8524739
3215.85028893
2720.57699355
2720.57568753
2720.57429715
2720.5721936
2720.57028646
2720.56773918
2720.56411174
2720.55892835
2720.55177079
2720.5423777
2720.53073282
2720.51709817
2720.50209132
2720.48662974
2720.47184378
2720.45916078
2720.44960737
2720.44435503
2720.44257017
2720.44656811
2720.57293156
2720.57510446
2720.57410662
2720.57187387
2720.57126584
2720.57067848
2720.56919897
2720.56601589
2720.56042814
2720.55205049
2720.54095234
2720.52760677
2720.51272082
2720.49720686
2720.48215544
2720.4684943
2720.45767912
2720.45100081
2720.44708803
2720.44808495
2720.57401199
2720.57734003
2720.57813656
2720.5760061
2720.57561341
2720.40557803
2720.16884494
2720.27702012
2720.4180713
2720.43273585
2720.44479617
2720.45468702
2720.61546669
2720.79965266
2720.63115916
2720.4729469
2720.46115034
2720.45292317
2720.44747379
2720.44826495
2720.57788307
2720.58159435
2720.58311368
2720.5699391
2719.86148587
2719.14128353
2719.07017358
2719.55389597
2719.94045641
2719.99908478
2720.05543252
2720.10989207
2720.55599679
2721.28009517
2721.54860526
2721.08954122
2720.47125681
2720.4536154
2720.44813276
2720.44890734
2720.58606427
2720.59044839
2720.59224014
2719.83368422
2718.22994546
2717.85022049
2718.27445753
2718.97625342
2719.43974764
2719.49706625
2719.55251316
2719.60636268
2720.18265366
2721.34309512
2722.40266159
2722.48911907
2721.1217527
2720.45744608
2720.45188385
2720.45006166
2720.5968551
2720.60213172
2720.41765858
2718.30003037
2717.17069606
2717.32048664
2717.71119121
2718.41865161
2718.90099013
2718.95082129
2718.99922766
2719.04632945
2719.68679997
2721.06611822
2722.47499411
2723.44959997
2722.60853714
2720.62271146
2720.45702572
2720.45211637
2720.60924888
2720.61551998
2719.89447668
2717.17188499
2716.84804564
2716.95870793
2717.31735942
2718.01167649
2718.49015341
2718.52776171
2718.56458767
2718.60057689
2719.26646904
2720.77979847
2722.44010574
2723.71630934
2723.84623789
2721.12619868
2720.46149825
2720.45453754
2720.62214795
2720.6294327
2719.42694454
2716.83559869
2716.72848543
2716.81965172
2717.1644803
2717.8461873
2718.31233469
2718.33358967
2718.35525837
2718.37716619
2719.04549793
2720.61978787
2722.41393419
2723.85156474
2724.31886219
2721.62643792
2720.46563315
2720.45693888
2720.63461674
2720.64274801
2719.28758047
2716.77580209
2716.69966682
2716.79117039
2717.13805156
2717.82074681
2718.28427028
2718.29648839
2718.31035234
2718.32510193
2718.99646266
2720.59893987
2722.44265812
2723.93195445
2724.45766852
2721.80037977
2720.46919338
2720.45868312
2720.64599655
2720.65458142
2719.27709143
2716.72976751
2716.66074953
2716.76049159
2717.11715268
2717.81105755
2718.28152236
2718.29293008
2718.30646004
2718.32132081
2719.00280584
2720.63133602
2722.50403707
2724.01239913
2724.53605362
2721.82492092
2720.47049479
2720.45878438
2720.65586184
2720.66439956
2719.26462512
2716.68193184
2716.62006608
2716.72821853
2717.09495488
2717.80176856
2718.28009972
2718.29094309
2718.30376321
2718.31791897
2719.00893223
2720.66308112
2722.56392413
2724.09147631
2724.61284298
2721.84755729
2720.46944069
2720.45668038
2720.66389111
2720.67190218
2719.24990661
2716.63206292
2716.5774022
2716.69420993
2717.07137866
2717.79277284
2718.2799577
2718.29048869
2718.30235725
2718.31488868
2719.01482462
2720.69352679
2722.62341324
2724.16957378
2724.68824363
2721.86846003
2720.46630741
2720.45251502
2720.6700759
2720.67723402
2719.43326425
2716.71542735
2716.65285638
2716.78600022
2717.17921204
2717.92247153
2718.41605762
2718.41515729
2718.41489768
2718.4147506
2719.11386025
2720.7920173
2722.69665152
2724.19790256
2724.64187579
2721.70132193
2720.46146894
2720.44739371
2720.67449675
2720.68072996
2720.00286018
2717.17600235
2716.93863115
2717.10623099
2717.52918863
2718.30432625
2718.80218961
2718.77892328
2718.75493376
2718.73024045
2719.41003624
2721.02620678
2722.78159853
2724.09449271
2724.16790019
2721.15102975
2720.45566306
2720.44239528
2720.67751093
2720.68297547
2720.52954736
2718.42330963
2717.40530312
2717.62486155
2718.09225058
2718.89373718
2719.3832029
2719.33504882
2719.28575862
2719.23539505
2719.87001421
2721.34136031
2722.82144565
2723.80693097
2722.82013729
2720.61940098
2720.44933972
2720.43847822
2720.67976621
2720.68472006
2720.68402336
2720.00778791
2718.52388256
2718.280211
2718.78528873
2719.57928727
2720.03152767
2719.96201236
2719.8908656
2719.81843517
2720.3687552
2721.60258555
2722.70840912
2722.73193186
2721.17203751
2720.45195528
2720.44313928
2720.4354044
2720.68165546
2720.68662858
2720.68549112
2720.66834906
2720.0051329
2719.52025798
2719.65050628
2720.22505807
2720.58006926
2720.49932348
2720.41635638
2720.33178883
2720.7296745
2721.47335923
2721.71656729
2721.18428089
2720.47029264
2720.44665264
2720.43824679
2720.43376755
2720.68684658
2720.69024424
2720.68801717
2720.68088342
2720.67434824
2720.497774
2720.31323113
2720.53213321
2720.69018699
2720.65017554
2720.60736799
2720.56259663
2720.70736619
2720.89801231
2720.67551357
2720.47651508
2720.45819498
2720.44442316
2720.43629229
2720.43333408
2720.69023253
2720.69235089
2720.68807857
2720.68089446
2720.67396441
2720.66592707
2720.65612171
2720.64401173
2720.62910974
2720.61129851
2720.5907129
2720.56803968
2720.54399082
2720.5196361
2720.49619817
2720.47476916
2720.4566722
2720.44338786
2720.435755
2720.43337095
2720.69696384
2720.69481539
2720.68960037
2720.68169656
2720.67228298
2720.66132547
2720.64901202
2720.63510369
2720.61939018
2720.60162759
2720.58169659
2720.55974035
2720.53658191
2720.51319835
2720.49082049
2720.47064358
2720.45387761
2720.4417701
2720.43468702
2720.4326075
2225.16993335
2225.16706774
2225.16915819
2225.1691897
2225.17018531
2225.17018244
2225.16870409
2225.16501438
2225.15859215
2225.14919126
2225.13677988
2225.12160943
2225.10427427
2225.08567966
2225.06668952
2225.05120544
2225.03836067
2225.03059222
2225.02688803
2225.03273398
2225.1629684
2225.15257281
2225.15287969
2225.15103555
2225.15166653
2225.15214429
2225.05988548
2225.05457808
2225.1079617
2225.10418736
2225.09741266
2225.08831845
2225.14329584
2225.1504534
2225.05760489
2225.04250905
2225.03115821
2225.02507381
2225.02204363
2225.03231836
2225.16724334
2225.15445379
2225.15749335
2225.15653658
2224.76245613
2224.22120015
2224.17308066
2224.40650272
2224.64971469
2224.69887013
2224.74527591
2224.78952074
2225.08161637
2225.51223479
2225.74577461
2225.38884653
2225.03882973
2225.02922423
2225.02281691
2225.03438496
2225.17418283
2225.15888812
2225.16324504
2224.43619296
2223.34901736
2222.88548686
2223.14474007
2223.64587884
2223.99949393
2224.05671363
2224.11154015
2224.16438678
2224.62671309
2225.56509732
2226.44799243
2226.47649496
2225.66836544
2225.03170468
2225.02418072
2225.03543845
2225.18656049
2225.16868793
2224.75271813
2222.88781236
2222.1612971
2222.13544823
2222.30856657
2222.7823939
2223.14657471
2223.20377558
2223.25905855
2223.31253044
2223.84505896
2225.02761704
2226.32662683
2227.3259238
2227.0840417
2225.40100245