/*--------------------------------*- C++ -*----------------------------------*\
| =========                 |                                                 |
| \\      /  F ield         | OpenFOAM: The Open Source CFD Toolbox           |
|  \\    /   O peration     | Version:  3.0.1                                 |
|   \\  /    A nd           | Web:      www.OpenFOAM.org                      |
|    \\/     M anipulation  |                                                 |
\*---------------------------------------------------------------------------*/
FoamFile
{
    version     2.0;
    format      ascii;
    class       volVectorField;
    location    "1";
    object      ddt0(rho,U);
}
// * * * * * * * * * * * * * * * * * * * * * * * * * * * * * * * * * * * * * //

dimensions      [1 -2 -2 0 0 0 0];

internalField   nonuniform List<vector> 
7968
(
(0.234755890111 0.247738784984 -0.445110948471)
(0.662966117565 0.235319025592 -0.410666995319)
(1.06480394285 0.237880232256 -0.375232876131)
(1.37108886857 0.251436313622 -0.32382359912)
(1.52532612554 0.277163733389 -0.258664475622)
(1.49038800818 0.309038122562 -0.189451973653)
(1.25968198028 0.34335460637 -0.123209587589)
(0.842839363136 0.374320061869 -0.0669153999058)
(0.298342739057 0.405588912121 -0.00876268935826)
(-0.320525078463 0.418074923225 0.00878116974555)
(-0.968399022397 0.420628865906 0.00232352813274)
(-1.55535722801 0.413063885733 -0.0286179948682)
(-2.04577476039 0.384323136379 -0.108493119618)
(-2.38845308941 0.360204592851 -0.184813570544)
(-2.51914303689 0.334093176192 -0.271607110769)
(-2.42739803773 0.310400479594 -0.365734057832)
(-2.10967294587 0.292058879889 -0.457008009246)
(-1.60732526355 0.272276017778 -0.539278012585)
(-0.99692498755 0.267425858223 -0.596099708934)
(-0.365680754769 0.298211756126 -0.631740804822)
(0.223980321066 0.691495834861 -0.407138850347)
(0.65875775219 0.681068560782 -0.457264550751)
(1.09614136089 0.710793207411 -0.462040475281)
(1.43619761186 0.774206884396 -0.428378172791)
(1.61493803337 0.862552183393 -0.366479090282)
(1.59195065631 0.961303347772 -0.288641480984)
(1.3589872394 1.05703199563 -0.20941794886)
(0.932964483603 1.1387521863 -0.139760773766)
(0.359548792825 1.20785683163 -0.0874352641371)
(-0.301259819006 1.2405928937 -0.0641664222417)
(-0.983255481011 1.24529520636 -0.071631286217)
(-1.61391921717 1.22284408498 -0.109263754624)
(-2.13027602802 1.16352270817 -0.177480651037)
(-2.47691788554 1.09986810753 -0.263576429213)
(-2.61015235362 1.0283892903 -0.363127364188)
(-2.50919941719 0.957766294238 -0.467119789691)
(-2.18260458339 0.896259328067 -0.559919805486)
(-1.65888592819 0.847020699943 -0.618875049427)
(-0.990853247109 0.829493714796 -0.62495011562)
(-0.34036786204 0.855912014909 -0.569393490904)
(0.225561507182 1.0843579119 -0.36503827495)
(0.688851302836 1.10588800749 -0.457010420982)
(1.17817865695 1.1846320024 -0.471441997134)
(1.55887229738 1.31539598207 -0.429543798637)
(1.76048541457 1.47768091794 -0.351035198242)
(1.74038945663 1.64607919864 -0.253250175512)
(1.49246743885 1.80100100867 -0.153523138184)
(1.03979103637 1.92751145396 -0.0676109875048)
(0.429461769476 2.01740907704 -0.00735398006015)
(-0.274787454957 2.06373998937 0.0203802877249)
(-0.99887007256 2.066146452 0.0114666907138)
(-1.6689638686 2.02689300515 -0.0327513891137)
(-2.21548262394 1.95084569515 -0.107849478787)
(-2.57943691897 1.85060136537 -0.206694550603)
(-2.71987613651 1.73529171582 -0.321685978806)
(-2.61449550824 1.61351725643 -0.441099160468)
(-2.26515758942 1.50220468925 -0.546357526153)
(-1.70257902189 1.41994675688 -0.615372292785)
(-1.00030711007 1.37862505536 -0.613764441018)
(-0.336917565726 1.36501565727 -0.510231275153)
(0.238603082865 1.38106282903 -0.308304958332)
(0.752043686667 1.4335189331 -0.422354186859)
(1.3096514571 1.55112262535 -0.430502190999)
(1.7391751557 1.7291708516 -0.360561167295)
(1.96122891393 1.94069188523 -0.246632034657)
(1.93574916458 2.15343296785 -0.114071291164)
(1.66262266616 2.34474723596 0.0131618835368)
(1.16914499138 2.49920075933 0.118919373352)
(0.509815377434 2.60541272929 0.191715085836)
(-0.246065273757 2.65942505662 0.2239788515)
(-1.02155562931 2.66151383726 0.211269495079)
(-1.7376424749 2.61286132309 0.156903558185)
(-2.32003908313 2.5221941425 0.0662288721689)
(-2.70877777409 2.40057244687 -0.0506073206871)
(-2.86352607271 2.25855418379 -0.186662975397)
(-2.75630173799 2.10747161157 -0.330189576702)
(-2.38599839642 1.96403363485 -0.461314925949)
(-1.78511205812 1.84621707301 -0.551403951026)
(-1.03356657259 1.77297488545 -0.554249710771)
(-0.341070385922 1.73685425666 -0.429186032315)
(0.263231228758 1.52041896445 -0.239206227694)
(0.839267633391 1.59682548957 -0.362801827989)
(1.47173849107 1.73698439643 -0.356886849662)
(1.95150959261 1.93781225665 -0.251844827081)
(2.19150486436 2.16816964929 -0.0977931433964)
(2.15446163017 2.39582614881 0.0687103846054)
(1.84982540781 2.59734107334 0.221791140122)
(1.31083585666 2.75784971345 0.344747491498)
(0.596905199722 2.8671848063 0.426651585582)
(-0.215737537438 2.92267809046 0.460641779597)
(-1.04687826439 2.92484145993 0.442696941365)
(-1.81341073462 2.87508258703 0.377826001947)
(-2.43527183463 2.78258178784 0.273580739961)
(-2.85155323977 2.65767181558 0.139677651484)
(-3.02060394951 2.51112009837 -0.0150336691928)
(-2.91448265073 2.35375633204 -0.181984076244)
(-2.52839524671 2.2001979925 -0.338847662294)
(-1.88866209289 2.06892450429 -0.452268128262)
(-1.08451002908 1.97754420329 -0.46453576359)
(-0.354713989066 1.9244951179 -0.332701656224)
(0.296472324401 1.47121798351 -0.167997502381)
(0.939169920971 1.56119674216 -0.29020462503)
(1.64337318618 1.70628155923 -0.265045899199)
(2.16909874866 1.90535766337 -0.126313727054)
(2.42139542211 2.12574077687 0.0622312344922)
(2.36974522588 2.34190077695 0.255374307714)
(2.0310523492 2.53091881939 0.425982465323)
(1.44468084029 2.67946186749 0.559369293133)
(0.678506113903 2.78098052574 0.64601428072)
(-0.187075537755 2.83376037172 0.680704171954)
(-1.07039684934 2.83677682378 0.657710095555)
(-1.8832400553 2.79290092346 0.584982785578)
(-2.54207534763 2.71036607316 0.470003599623)
(-2.985206186 2.59739313217 0.324473248107)
(-3.17106690374 2.46493527231 0.156315838286)
(-3.06857287897 2.31949052855 -0.0259899941848)
(-2.66865160153 2.17550403264 -0.203515190735)
(-1.99797146966 2.04969507052 -0.33734369753)
(-1.14603405857 1.95458366462 -0.360805793594)
(-0.373652129973 1.89360791125 -0.232260695603)
(0.331312803327 1.22915800487 -0.102239696505)
(1.03739503051 1.31891735309 -0.216138956128)
(1.80346301385 1.4542246336 -0.171559326644)
(2.36568150288 1.62985245722 -0.00478232507671)
(2.6266051244 1.82171129193 0.209165043388)
(2.56086963176 2.00805739229 0.419762930982)
(2.19012055696 2.1682029451 0.599852962564)
(1.5632569485 2.2950654995 0.738435050443)
(0.752737494975 2.3823708222 0.826536466483)
(-0.159522392177 2.4292047465 0.861055145214)
(-1.08848550529 2.43366673833 0.835670270415)
(-1.94154634382 2.39972842824 0.758823695724)
(-2.63311433616 2.33281383851 0.637107226579)
(-3.09947397669 2.2401592645 0.484378972601)
(-3.29951503108 2.13089441295 0.309492537889)
(-3.20261120779 2.01227680951 0.117212973576)
(-2.7931630073 1.89158570551 -0.0735314807738)
(-2.0965445966 1.78230823457 -0.223322702708)
(-1.20623172293 1.69768889767 -0.258205222943)
(-0.395137479444 1.63833176138 -0.137647025246)
(0.362302469187 0.809477912627 -0.048625466597)
(1.12370852378 0.88849795052 -0.150330354386)
(1.93775326217 1.00075725974 -0.0890389731274)
(2.52818440211 1.13864053427 0.098982457379)
(2.79535354638 1.28997142517 0.329737549561)
(2.71509429875 1.43313416684 0.550355307019)
(2.31858108478 1.55591296476 0.735237284749)
(1.65971277813 1.65389882937 0.875408742264)
(0.813346370765 1.72165329894 0.962667762515)
(-0.13561101253 1.75871163909 0.995921597923)
(-1.10033169857 1.76337086027 0.969778116476)
(-1.98506509669 1.73976039702 0.892529870638)
(-2.70287897984 1.69131721774 0.76871792808)
(-3.18838889343 1.62531593632 0.612710998798)
(-3.39853910715 1.54608270232 0.435087777145)
(-3.30507202182 1.46071046981 0.23617116885)
(-2.892102887 1.3769659867 0.0359222993749)
(-2.17768035006 1.28858619601 -0.12407161538)
(-1.25732458703 1.22182430654 -0.168422451571)
(-0.414989929465 1.17397437053 -0.0566131169681)
(0.388232332909 0.252572064504 -0.0125565142513)
(1.19002819066 0.310719428355 -0.103239298785)
(2.03588671607 0.389044166867 -0.0292200483515)
(2.6455186486 0.482705043314 0.172054975319)
(2.91603295435 0.584259289856 0.412649770729)
(2.82511383985 0.678945936277 0.638237805583)
(2.4106594524 0.760397061073 0.823894982354)
(1.72934523558 0.824889132459 0.963591459158)
(0.857972605137 0.86854910957 1.0458789419)
(-0.117577831158 0.894408580161 1.07637022353)
(-1.10752063462 0.898265658255 1.05102165131)
(-2.0140124024 0.884452386858 0.977311990568)
(-2.74818678622 0.855370489112 0.85470841813)
(-3.24543371304 0.816900304439 0.700908785183)
(-3.46338047319 0.770241942103 0.523640389301)
(-3.36883190664 0.71839372699 0.319992039847)
(-2.95904627226 0.663506128722 0.104641037518)
(-2.2387944406 0.612788786916 -0.0524742309783)
(-1.29460696802 0.571254460513 -0.102252418957)
(-0.429930927553 0.543488192717 0.00148042566553)
(0.404372703287 -0.38670127091 0.00024880302142)
(1.23020963203 -0.360160858553 -0.08207182855)
(2.09436709725 -0.320019331283 -0.000203665347401)
(2.71507359399 -0.273571091077 0.207839798494)
(2.98703670295 -0.225228203132 0.452704066032)
(2.8896145506 -0.180609828096 0.680319526173)
(2.464162553 -0.142777651012 0.865597156839)
(1.76818368515 -0.113487097513 1.00281558852)
(0.883369774488 -0.0951932717092 1.08039060072)
(-0.10546093858 -0.0824496016606 1.10863690173)
(-1.11009501745 -0.0815927616003 1.08468372747)
(-2.0280904314 -0.086725357176 1.01211685352)
(-2.77083142557 -0.0978436329369 0.892412636319)
(-3.27402995155 -0.11048925061 0.74189528725)
(-3.49661176017 -0.125197648629 0.566555608897)
(-3.40987638064 -0.142507574178 0.364483766807)
(-2.99337216235 -0.168163040809 0.157817768099)
(-2.26107757084 -0.18188059263 -0.0134257158363)
(-1.31280504977 -0.197405582717 -0.0677727754682)
(-0.437488170619 -0.201116698972 0.0374314935359)
(0.408145987907 -1.0492185452 -0.0169848577425)
(1.24239670667 -1.05365256415 -0.0920717487206)
(2.11244690437 -1.05199472767 -0.00752092295309)
(2.73483757302 -1.05387001455 0.200853316067)
(3.00603160107 -1.05863433283 0.444846805725)
(2.90652557573 -1.06454573565 0.67096868303)
(2.4777270552 -1.07064861611 0.8539739717)
(1.7774173476 -1.07618607497 0.988520418253)
(0.88966746854 -1.08143296294 1.06414934102)
(-0.103369947832 -1.08310795152 1.09153247184)
(-1.11143606632 -1.08498848092 1.06616154487)
(-2.03025266596 -1.08244805725 0.991329752647)
(-2.77230253204 -1.07523659922 0.871817197911)
(-3.27333242422 -1.06288300672 0.72254557173)
(-3.49578267997 -1.04706694824 0.551010883899)
(-3.41162614058 -1.03092573208 0.354599156243)
(-2.99732940724 -1.01930496092 0.152230419495)
(-2.26546650771 -1.01048423184 -0.0200062199675)
(-1.31714539346 -1.00457926174 -0.0748654188561)
(-0.439245944874 -0.986411411786 0.0300161165137)
(0.404906729462 -1.66456075249 -0.0537881743424)
(1.23232473696 -1.69783131764 -0.131569198589)
(2.09107565766 -1.73318378623 -0.0498999500299)
(2.70671876905 -1.7811425889 0.152744634511)
(2.97550572765 -1.83645381751 0.391042992093)
(2.87737778876 -1.88891162055 0.612154156351)
(2.45291019933 -1.93553975702 0.791377960003)
(1.75804732125 -1.97184938953 0.924074054782)
(0.877190182525 -1.99778678473 0.999354642848)
(-0.108338415908 -2.0095718428 1.02442051076)
(-1.10900210986 -2.0103866681 0.99636766999)
(-2.01823581209 -1.99870408227 0.918219592237)
(-2.75156037148 -1.9733897833 0.797029882454)
(-3.2464532625 -1.93835892038 0.649700552214)
(-3.46590279412 -1.89662834011 0.482918301476)
(-3.3837973855 -1.85460606984 0.293936936585)
(-2.97526620759 -1.81604983876 0.0971525822086)
(-2.25031236625 -1.78577242477 -0.0707421741561)
(-1.30966873732 -1.76161451419 -0.12224690481)
(-0.43641648977 -1.72445630593 -0.0106586360896)
(0.391180001499 -2.16405414242 -0.115320764965)
(1.19728481785 -2.2235480288 -0.198581768849)
(2.03299071174 -2.29246482391 -0.125010534706)
(2.63356179013 -2.38158666274 0.0655461414816)
(2.89947570901 -2.48129507415 0.293597344408)
(2.80804500755 -2.57448010981 0.507087362243)
(2.39554817771 -2.65411909761 0.680967952499)
(1.71591252965 -2.71519082379 0.810276030658)
(0.852686681328 -2.75529269589 0.884284616012)
(-0.115315518349 -2.77190101588 0.912682424075)
(-1.10014213158 -2.7686490952 0.881941834275)
(-1.99311453945 -2.74539738382 0.800746127345)
(-2.71216829215 -2.7046991157 0.679954448542)
(-3.1970677994 -2.65092756301 0.536595886141)
(-3.41373449357 -2.59169726803 0.375718105356)
(-3.33388857282 -2.5315782734 0.194270452078)
(-2.93311228596 -2.47609396035 0.00251184665587)
(-2.21969366916 -2.42943993817 -0.158018926898)
(-1.29058799945 -2.39185909952 -0.204544012336)
(-0.427447659552 -2.34237952292 -0.0867543248931)
(0.371179379866 -2.49645326027 -0.194502889812)
(1.14213124353 -2.5726327206 -0.286976462747)
(1.94253896758 -2.66698293888 -0.226023627595)
(2.5227806872 -2.78928752623 -0.0523429172431)
(2.785427145 -2.92358754074 0.159880023108)
(2.70578696344 -3.05025540999 0.363511564382)
(2.31309111649 -3.15493225374 0.53240508946)
(1.65757268307 -3.23358282692 0.659326625751)
(0.821129921443 -3.28143903937 0.735120815665)
(-0.121084350249 -3.29913923756 0.764339909172)
(-1.08201908211 -3.29011127259 0.733964820698)
(-1.95399306858 -3.25630169367 0.653913745441)
(-2.65707393968 -3.20340540659 0.536970431443)
(-3.13368793108 -3.13854929733 0.398430962968)
(-3.34819824633 -3.06934296115 0.243016702696)
(-3.27128084166 -2.99949683144 0.0650839492069)
(-2.87850932918 -2.9327918987 -0.120850056947)
(-2.17683761309 -2.87466554522 -0.273722000015)
(-1.26496549892 -2.82894993969 -0.31416293478)
(-0.417185848017 -2.77537658655 -0.189718667483)
(0.347126690668 -2.6216122824 -0.285554108826)
(1.07412378711 -2.70315588267 -0.388651013331)
(1.82918857896 -2.81108856192 -0.343781391561)
(2.38341050991 -2.95672849104 -0.193329413102)
(2.64216518125 -3.11457593845 -0.00317764442161)
(2.57832631684 -3.26469926473 0.188391945656)
(2.21311807682 -3.38696303993 0.350615122757)
(1.59000660833 -3.47643393784 0.475549361969)
(0.787619386699 -3.52782805346 0.553759470461)
(-0.123460878634 -3.54701820254 0.585173247998)
(-1.05674261449 -3.532343737 0.559104197825)
(-1.90596405587 -3.4906260257 0.48409683804)
(-2.59423403733 -3.43142531037 0.373294452397)
(-3.06311709002 -3.36176297944 0.240068017901)
(-3.27604829546 -3.2874697111 0.0872374638357)
(-3.19996879354 -3.21232869102 -0.0882693056112)
(-2.81328246578 -3.13835467518 -0.267591317211)
(-2.12666662752 -3.07170471096 -0.410506460617)
(-1.23634068112 -3.02396154699 -0.443766651545)
(-0.406484265014 -2.97302784224 -0.313067316973)
(0.324145709297 -2.51905260416 -0.383361503529)
(1.00287445669 -2.59186078237 -0.493141635684)
(1.70201602084 -2.70011616549 -0.465433207619)
(2.22523404967 -2.85108629771 -0.343767633042)
(2.47997563022 -3.01894272837 -0.180188113159)
(2.43364679316 -3.17663779178 -0.00883174654655)
(2.10062288371 -3.30813140352 0.142368665439)
(1.51598967967 -3.40369836434 0.263048357534)
(0.750309242849 -3.45798047845 0.340081836583)
(-0.12506493681 -3.47687911469 0.376932985975)
(-1.02435151583 -3.46040905303 0.357487462974)
(-1.85143127635 -3.41618006847 0.290807400109)
(-2.52667506618 -3.35525822106 0.187666385046)
(-2.98870400786 -3.28536378984 0.0588292242916)
(-3.19900683209 -3.20999745129 -0.0917456032119)
(-3.12367416638 -3.13336075097 -0.260743235452)
(-2.74173507432 -3.05603283925 -0.427881573959)
(-2.07181434897 -2.98817968063 -0.556289540157)
(-1.21034598506 -2.94496362493 -0.581265073703)
(-0.398201168288 -2.90354632492 -0.446466401608)
(0.307114361193 -2.19201155907 -0.475893684338)
(0.939388225687 -2.24486387089 -0.58452085598)
(1.58085650986 -2.33604761662 -0.571312266522)
(2.06861463152 -2.46975949278 -0.480959487285)
(2.31715828811 -2.62486670391 -0.34989782252)
(2.28729858129 -2.77244816076 -0.205267461799)
(1.98303019795 -2.89745161045 -0.0686827680156)
(1.43747173589 -2.98833186737 0.0453317661906)
(0.712980934074 -3.04140215517 0.122000135092)
(-0.125596129624 -3.06014911774 0.158906120066)
(-0.994050971228 -3.04587833755 0.147545501054)
(-1.79784806305 -3.00689680451 0.0912019119329)
(-2.46044329432 -2.95130926984 -0.00621376714988)
(-2.91573530919 -2.88741918828 -0.128657098426)
(-3.12328107049 -2.81764675153 -0.272272483666)
(-3.04649829085 -2.74487695688 -0.429334789371)
(-2.67075311296 -2.67334900671 -0.579650894568)
(-2.02317068326 -2.61660525863 -0.689785809475)
(-1.19095781988 -2.58771860585 -0.707296444893)
(-0.394546817255 -2.56511204192 -0.57934787976)
(0.298920494481 -1.67263945749 -0.55369352236)
(0.895573137925 -1.70078585632 -0.645479048023)
(1.48432656867 -1.75427753748 -0.639819928879)
(1.93760181735 -1.84766206686 -0.574756943126)
(2.17480184608 -1.96318608924 -0.473128176732)
(2.1557263568 -2.07930323817 -0.353897520928)
(1.87817039715 -2.17898709993 -0.235436879623)
(1.36620955347 -2.25280580101 -0.133327860077)
(0.674966968531 -2.29643156852 -0.0607174841424)
(-0.129819531185 -2.31527624803 -0.0230979544341)
(-0.96823630379 -2.30543359247 -0.0308713412927)
(-1.7520977718 -2.27629588087 -0.0809285196387)
(-2.4021201559 -2.23283255754 -0.166592364601)
(-2.85092484849 -2.18183797249 -0.280231368305)
(-3.05389996782 -2.12625708381 -0.413694662157)
(-2.9781784064 -2.06947221021 -0.55696755518)
(-2.61430836565 -2.01994882274 -0.689219850815)
(-1.99092699056 -1.98704482119 -0.783990282946)
(-1.18819595172 -1.98492499911 -0.800629644699)
(-0.399499355047 -1.9914853442 -0.693207453379)
(0.299545740585 -1.0312205654 -0.608046013368)
(0.879958836324 -1.0250410446 -0.652233938031)
(1.4351770938 -1.03408713571 -0.637491089936)
(1.85477244696 -1.07180574878 -0.578365002284)
(2.0758707238 -1.12987745318 -0.488653896333)
(2.05821418492 -1.19386385142 -0.38295761241)
(1.79501365782 -1.25418983876 -0.277689783494)
(1.30754648418 -1.30184709776 -0.18531771385)
(0.642757910345 -1.331090311 -0.117971975175)
(-0.13610358265 -1.34458761959 -0.0821312584013)
(-0.950498919876 -1.34081580542 -0.0872552787524)
(-1.71651969721 -1.32451211493 -0.131596356974)
(-2.35581083077 -1.29844961444 -0.210814087148)
(-2.79973506727 -1.26775579123 -0.317427044406)
(-3.00356788124 -1.23567333075 -0.44452891472)
(-2.93478059799 -1.20742931879 -0.579818628494)
(-2.58567922316 -1.18700453241 -0.70524140438)
(-1.9891668748 -1.18373306392 -0.799421399066)
(-1.21142054687 -1.20639953405 -0.831674522413)
(-0.415923393436 -1.24421379523 -0.776113225604)
(0.320334373597 -0.372569919876 -0.647355220312)
(0.899741396449 -0.355714257434 -0.593767221555)
(1.42317991063 -0.348837443564 -0.53498384169)
(1.81437552771 -0.35398478916 -0.453699274268)
(2.01719989994 -0.369305672508 -0.355520318428)
(1.99226770282 -0.389258789201 -0.253530484691)
(1.73317191317 -0.410815683418 -0.156423810083)
(1.26101537873 -0.429262095585 -0.0730846816509)
(0.618496015289 -0.441720938399 -0.0116542964201)
(-0.135117560199 -0.447498165112 0.0224646545311)
(-0.92589236918 -0.446482201873 0.0197782645566)
(-1.67391981348 -0.440176558149 -0.018074392964)
(-2.30230000521 -0.42977016035 -0.0894944112755)
(-2.743252438 -0.417541348959 -0.189179236991)
(-2.95078820323 -0.40603361104 -0.31033148821)
(-2.89165392203 -0.396734551196 -0.44248569753)
(-2.56230206677 -0.392633603265 -0.575446918905)
(-1.99495693102 -0.397565836889 -0.690313464006)
(-1.24845953172 -0.413618116128 -0.774850276442)
(-0.443815359211 -0.441754537008 -0.841383914758)
(0.276543504991 0.291462495058 -1.40893935145)
(0.761323545744 0.307514506608 -1.34023858156)
(1.20207066375 0.338905487684 -1.25318404565)
(1.53193840162 0.381264264282 -1.11770148105)
(1.69611666088 0.427882061436 -0.936284197114)
(1.65706631271 0.473026482052 -0.732734676146)
(1.40715335172 0.512301085498 -0.53193571401)
(0.974771643776 0.543060541026 -0.359339092497)
(0.383103631641 0.554893628454 -0.225841953727)
(-0.310483770532 0.563831057774 -0.169955537225)
(-1.01754014873 0.562661750458 -0.189925642395)
(-1.6863816296 0.551629346694 -0.286811107576)
(-2.22770232063 0.542081668472 -0.470478018998)
(-2.5814725866 0.517529464654 -0.695261873568)
(-2.7321067385 0.486577023929 -0.956814245573)
(-2.64683726495 0.453741915005 -1.23421803031)
(-2.32415324199 0.419091801626 -1.49693724603)
(-1.79771494739 0.385490955284 -1.71870306092)
(-1.12776097641 0.366747847265 -1.87116763937)
(-0.411835905392 0.365693405888 -1.96397529987)
(0.302833499241 0.796563501602 -1.32843997187)
(0.80407389235 0.822281340892 -1.36751561458)
(1.26352701982 0.892180369092 -1.31787558705)
(1.60871133186 0.998875406763 -1.196309541)
(1.78164358672 1.12127507146 -1.01507266199)
(1.74481819639 1.24166488064 -0.796490297201)
(1.48826007334 1.34662868098 -0.573716694176)
(1.0319825901 1.42902963541 -0.379116803143)
(0.417175270725 1.47492920389 -0.237573668731)
(-0.294256194436 1.50048359475 -0.172488903961)
(-1.02848954152 1.50095228345 -0.193271104956)
(-1.71324451692 1.47729049182 -0.298865051917)
(-2.27347862326 1.44071743536 -0.484239728284)
(-2.65079412114 1.37547534259 -0.726589694582)
(-2.80867413359 1.29678479539 -1.00674689011)
(-2.72433144085 1.21106885033 -1.29760714571)
(-2.40069704381 1.12544732058 -1.56409112886)
(-1.86527268312 1.04967324358 -1.76181679675)
(-1.18633403554 1.00832547435 -1.85934775474)
(-0.448689124937 1.0044227582 -1.83322752569)
(0.33749443047 1.23008091763 -1.22400969902)
(0.880393960287 1.27586227723 -1.30312608861)
(1.37817520615 1.38336344383 -1.2485438044)
(1.74868285042 1.54606305186 -1.09528547307)
(1.92872802578 1.7329152037 -0.870470932795)
(1.88360483922 1.91615018711 -0.606901829678)
(1.6071601544 2.07632425129 -0.344480984806)
(1.12221331864 2.20141900651 -0.119106949871)
(0.475067225969 2.28418927524 0.0407157601938)
(-0.270015739718 2.32547241545 0.11166053972)
(-1.03895303876 2.32552922827 0.0880681961409)
(-1.75375552387 2.28686138058 -0.0295258328687)
(-2.33940858145 2.2157173669 -0.233611987008)
(-2.73698879376 2.11631177477 -0.502053806823)
(-2.90666858714 1.99724671903 -0.811764889838)
(-2.82661197148 1.8679846353 -1.13333805647)
(-2.49806393558 1.74146050869 -1.42800867594)
(-1.94529144485 1.63546586973 -1.65052940191)
(-1.24268137174 1.57276341563 -1.74868017059)
(-0.476427955554 1.5497221724 -1.67112164902)
(0.381232064993 1.54725111362 -1.07361798346)
(0.990197888512 1.60835975698 -1.1741139083)
(1.54490253294 1.74263465317 -1.0893063541)
(1.95072058328 1.94220616228 -0.870618398822)
(2.13771035469 2.17044620962 -0.569868834242)
(2.07724990533 2.39429100196 -0.236675123453)
(1.76993952999 2.59285723988 0.0811952594483)
(1.24378324214 2.74854398165 0.345560085698)
(0.55013037829 2.85361698604 0.527037180318)
(-0.24181628005 2.90543406937 0.605901897068)
(-1.05593117436 2.90656631181 0.57535508863)
(-1.81258367026 2.85926297272 0.438075709637)
(-2.43326798678 2.7697104258 0.206150307558)
(-2.85740035508 2.64709421434 -0.0973967028679)
(-3.04431656366 2.50149260916 -0.449041378424)
(-2.97015614041 2.34433944781 -0.818074307281)
(-2.63328975409 2.19209780585 -1.16231813057)
(-2.05497705294 2.06473848295 -1.42850715686)
(-1.31505548492 1.98513837291 -1.54469857625)
(-0.506714283417 1.94872428975 -1.44474023154)
(0.428325706773 1.69330296736 -0.883245273045)
(1.11616151922 1.7651271857 -0.992216106004)
(1.73726649127 1.91031922549 -0.865848081454)
(2.18308140471 2.12125622504 -0.570705113281)
(2.37719394711 2.36162963131 -0.187076807897)
(2.30022416184 2.59985489617 0.219211116556)
(1.95825520213 2.81185979207 0.591739454682)
(1.38398833014 2.980119235 0.892780497473)
(0.636643860128 3.09527603628 1.09425873298)
(-0.209935955626 3.1530549243 1.17800779283)
(-1.07676492972 3.15518294344 1.13886483611)
(-1.88186280487 3.10552414707 0.981889203031)
(-2.5425966438 3.01023051816 0.720992120272)
(-2.996282634 2.88058270434 0.381965232401)
(-3.20184412543 2.72746996511 -0.0110327096682)
(-3.13340826741 2.56423376422 -0.427518293516)
(-2.78583468825 2.4067822506 -0.823560900846)
(-2.17744096852 2.27506237369 -1.13635340132)
(-1.39401185005 2.18978520925 -1.27545164634)
(-0.537317228124 2.14647553499 -1.16664241209)
(0.476527145346 1.6362572765 -0.675997980292)
(1.24320635856 1.71355072506 -0.7787009168)
(1.92996228302 1.8546383612 -0.607415020424)
(2.41590041479 2.05446176233 -0.24064257189)
(2.62008416658 2.28181452172 0.215089277188)
(2.52709521593 2.51066272332 0.683742623174)
(2.14974844084 2.71524943284 1.1029377743)
(1.52853161474 2.88010979647 1.43263564355)
(0.726373495439 2.99511513691 1.64894864395)
(-0.177115759714 3.05367294371 1.73484630067)
(-1.09788997683 3.05718174179 1.68749746093)
(-1.95195191247 3.01061882521 1.51519636711)
(-2.65313868393 2.91924197718 1.23049917297)
(-3.13621169201 2.79687538702 0.86353645923)
(-3.35916705578 2.65314052696 0.437553160365)
(-3.29456628134 2.50137330412 -0.0171232305803)
(-2.93526612118 2.35636889449 -0.456683765388)
(-2.29671427326 2.2350500076 -0.809834780367)
(-1.47097839557 2.15425312549 -0.972070418197)
(-0.566080759893 2.10902565923 -0.866498578242)
(0.519525574118 1.37093973343 -0.477962286472)
(1.3572487753 1.44477931278 -0.562764305199)
(2.10169450216 1.56884209942 -0.349684625257)
(2.62387515967 1.74010413295 0.0753963205854)
(2.83932232556 1.93571816714 0.588382819414)
(2.7357177944 2.13441958759 1.10196254043)
(2.32892068424 2.31554841523 1.55424870156)
(1.66567366653 2.46382612497 1.90368255339)
(0.812935992068 2.57061026384 2.13077901961)
(-0.144489759093 2.62589548083 2.21741229843)
(-1.11626089501 2.63145524351 2.16498362974)
(-2.01668515231 2.5911468163 1.98302846516)
(-2.7542613137 2.50978805665 1.68089196211)
(-3.26194012002 2.40473172754 1.29592960875)
(-3.49944632605 2.28337782193 0.847978720749)
(-3.4365513502 2.15662043196 0.365785841468)
(-3.0649984683 2.0369631579 -0.103506726036)
(-2.39963435063 1.93731765034 -0.486848443508)
(-1.53815189094 1.86979735539 -0.669109592163)
(-0.592066969469 1.82938857185 -0.574843655308)
(0.55355298397 0.913675869916 -0.311346432359)
(1.44877593186 0.975771543107 -0.374344477784)
(2.23880143306 1.07347391599 -0.128119092987)
(2.79152869247 1.2054993923 0.337907172479)
(3.01870482125 1.35763311468 0.889191726027)
(2.90877504922 1.51367745069 1.43279994146)
(2.48050196535 1.65816176206 1.90552052304)
(1.78534707877 1.78000700203 2.26734466789)
(0.890754539674 1.87189543828 2.50396412557)
(-0.113684920165 1.92037912011 2.59151550551)
(-1.13024793984 1.92667202287 2.53864234136)
(-2.07190861596 1.8928553466 2.35292863892)
(-2.83906736075 1.82419078117 2.03825071225)
(-3.36383385566 1.74170891343 1.64401859142)
(-3.61065029105 1.65039047849 1.184003528)
(-3.54739243657 1.55733362525 0.686098467836)
(-3.16492813703 1.46627600577 0.200524922761)
(-2.47810785217 1.39990796325 -0.204122967607)
(-1.59031148149 1.35191613649 -0.400911469184)
(-0.612281177181 1.3224177937 -0.319771653467)
(0.577266884082 0.307221152427 -0.198377219688)
(1.51348704271 0.34919065084 -0.241581017515)
(2.33506666567 0.41539830067 0.0271970594593)
(2.91092909721 0.503267878756 0.517941981942)
(3.14870931105 0.604852338797 1.09258956643)
(3.03672717526 0.709609788819 1.65467525664)
(2.59595468033 0.807503900029 2.14014763436)
(1.88074675121 0.891874660851 2.51251431874)
(0.955237686586 0.957358346573 2.76137431802)
(-0.0875668661248 0.990659329079 2.85346667068)
(-1.14197360293 0.994814630374 2.80286444512)
(-2.11809357609 0.970193433104 2.61204802641)
(-2.90556911214 0.921741775266 2.28225467056)
(-3.43750014352 0.86896198993 1.88137539111)
(-3.68732202069 0.814973645772 1.41530239124)
(-3.62614066423 0.762561229587 0.90965397004)
(-3.23017370144 0.71355187051 0.407158216775)
(-2.52378547893 0.673113569586 0.00225367780259)
(-1.62559649861 0.646719821943 -0.200950649157)
(-0.626516782731 0.640339018735 -0.130547402862)
(0.589702125554 -0.393597268036 -0.156455833339)
(1.55032498678 -0.373744115447 -0.185123481427)
(2.38961831495 -0.339616033181 0.0961392905563)
(2.97906909571 -0.296703481982 0.59803054744)
(3.2234905645 -0.247967985541 1.18240857496)
(3.11052080883 -0.198406461076 1.75121194877)
(2.66273243799 -0.152490778134 2.23976473677)
(1.93604389855 -0.11306032905 2.61340649562)
(0.991067270307 -0.0832177921855 2.86538251162)
(-0.0744438909568 -0.0710359835291 2.95473412476)
(-1.14927293692 -0.0700546300635 2.90339003548)
(-2.14425522665 -0.0805910448907 2.70928388086)
(-2.94071242186 -0.0998723594523 2.37207190054)
(-3.47242142735 -0.118601571788 1.97310003919)
(-3.72025175343 -0.133795043868 1.51316130534)
(-3.65337072482 -0.146680739796 1.01478711335)
(-3.26046353179 -0.156290009646 0.520475241435)
(-2.55314054842 -0.176396180281 0.109179343844)
(-1.63876861839 -0.186095459587 -0.0971021807357)
(-0.628113911009 -0.176237510188 -0.0294162959341)
(0.593805228859 -1.11335546349 -0.196026242569)
(1.56311736786 -1.11850334193 -0.215273138505)
(2.40483675278 -1.11668214662 0.0705740520131)
(2.99722720852 -1.11746643677 0.572782669812)
(3.24343132937 -1.12045059108 1.15619173894)
(3.13029477549 -1.1249237569 1.72288135307)
(2.68074967008 -1.12993960157 2.2084444171)
(1.9504663683 -1.1349526105 2.57962264948)
(0.998390662911 -1.14164066462 2.82676824264)
(-0.0730302833979 -1.14904664743 2.91813970888)
(-1.15045897635 -1.15046366056 2.86207088304)
(-2.14747194871 -1.14554273212 2.66493756556)
(-2.94400455879 -1.13322131694 2.32659689941)
(-3.4728107028 -1.11883602288 1.92909356959)
(-3.7176204585 -1.10020319079 1.47822084672)
(-3.65161136383 -1.08234293136 0.991624852542)
(-3.26399222777 -1.07058288939 0.506604602847)
(-2.56079937418 -1.06580678922 0.0975772769303)
(-1.64805068405 -1.06266117628 -0.108518942859)
(-0.633002598294 -1.04414941915 -0.0402159587293)
(0.586943675499 -1.78031517002 -0.307326012823)
(1.548019035 -1.81094634985 -0.32981479592)
(2.38166480767 -1.84087570337 -0.049830579914)
(2.96773054667 -1.8837789108 0.44339455035)