/*--------------------------------*- C++ -*----------------------------------*\
| =========                 |                                                 |
| \\      /  F ield         | OpenFOAM: The Open Source CFD Toolbox           |
|  \\    /   O peration     | Version:  3.0.1                                 |
|   \\  /    A nd           | Web:      www.OpenFOAM.org                      |
|    \\/     M anipulation  |                                                 |
\*---------------------------------------------------------------------------*/
FoamFile
{
    version     2.0;
    format      ascii;
    class       volScalarField;
    location    "1";
    object      epsilon;
}
// * * * * * * * * * * * * * * * * * * * * * * * * * * * * * * * * * * * * * //

dimensions      [0 2 -3 0 0 0 0];

internalField   nonuniform List<scalar> 
7968
(
0.0117363035903
0.0122883573715
0.0126139879334
0.0127410457189
0.0127810288684
0.0127907427368
0.0127912353804
0.012789496551
0.0127874541282
0.0127856016617
0.0127851267117
0.0127862028828
0.0127879102765
0.0127892917397
0.012788497795
0.0127789116548
0.0127394244798
0.012612881979
0.0122879494645
0.011736397803
0.0122882198799
0.015823276119
0.0179217418555
0.0188439894342
0.0191857401423
0.0192900755229
0.0193110273575
0.0193074677863
0.0192995299436
0.0192940684623
0.0192935818419
0.0192979030955
0.0193042346888
0.0193060834987
0.0192839118283
0.0191792996036
0.0188382033423
0.0179175008645
0.0158212560337
0.0122878933536
0.0126138498642
0.0179218966792
0.021377023916
0.0230465651061
0.023733985706
0.0239726922811
0.0240355290085
0.0240404178544
0.0240319094081
0.0240254345092
0.0240253540451
0.0240309773781
0.0240373433871
0.0240296721239
0.0239645060044
0.0237248936054
0.0230383765586
0.0213710582256
0.0179188660658
0.0126131271941
0.0127410568002
0.01884474662
0.0230474146127
0.025197703077
0.0261384278143
0.0264879620432
0.026590349694
0.0266098963545
0.0266114248159
0.0266091196146
0.0266090766997
0.0266109124268
0.0266079880488
0.0265861346742
0.0264799722207
0.0261281116031
0.0251874051189
0.0230393732024
0.0188403159002
0.0127399708074
0.0127813123456
0.0191878624653
0.0237368761183
0.0261408628314
0.0272288254243
0.0276487699541
0.0277910312722
0.0278295962126
0.0278340888861
0.0278320777351
0.0278323366707
0.0278344208217
0.0278290312907
0.0277886058128
0.0276439124681
0.027219615209
0.0261298614754
0.0237272900388
0.0191822089399
0.0127798499926
0.0127914491382
0.0192942112027
0.0239787461572
0.0264942418015
0.027652794128
0.0281223213395
0.0282871212942
0.0283304736951
0.0283346845336
0.0283318807567
0.0283324587711
0.0283359332894
0.0283312451769
0.0282863856152
0.0281193501083
0.027647183287
0.0264845046789
0.0239688097528
0.0192879417679
0.0127897494152
0.0127923383184
0.0193171789543
0.0240446648946
0.0266002000396
0.027793467783
0.0282883422186
0.0284591175608
0.0285021055922
0.028504147752
0.0284998573401
0.0285007340021
0.0285062557913
0.0285041494816
0.0284599142372
0.028287140973
0.0277898475892
0.0265936038516
0.0240359235967
0.0193112153758
0.012790694727
0.0127905884168
0.0193148284107
0.0240510964613
0.0266173999649
0.0278324467174
0.0283325349029
0.0285030745872
0.0285434767996
0.0285426237004
0.028536648426
0.0285378134646
0.02854548478
0.0285466198672
0.0285052435011
0.0283328244032
0.0278306008267
0.0266149407909
0.0240447145587
0.0193100181492
0.0127894039669
0.0127883554039
0.0193067769005
0.0240419355472
0.0266141634013
0.0278365135167
0.0283365909307
0.0285051563589
0.0285428805055
0.0285396209506
0.0285323965656
0.0285338411614
0.0285430709226
0.0285467787189
0.0285083702033
0.0283380510855
0.027835930088
0.0266123965388
0.0240385203564
0.0193037658091
0.012787602035
0.0127862658703
0.0192999788351
0.0240328946754
0.0266104447092
0.027833128459
0.0283323670824
0.0284996171252
0.0285359926629
0.0285316800094
0.0285240126355
0.0285255796785
0.028535434796
0.0285403534047
0.028503589626
0.0283348079201
0.0278336478524
0.0266096352502
0.0240328966858
0.0192993113862
0.0127862184323
0.0127851796673
0.0192974149764
0.0240295852194
0.0266087295682
0.0278314037153
0.0283307137528
0.0284983197185
0.0285353337163
0.0285316949814
0.0285243597591
0.0285257784259
0.0285354539334
0.0285401991171
0.0285032380729
0.0283343640829
0.0278332185974
0.0266092738334
0.02403303162
0.0192990810141
0.0127858738326
0.012785794711
0.0192998819526
0.0240326687429
0.0266091931604
0.0278317255468
0.0283320395408
0.0285016236662
0.0285410958578
0.0285394605605
0.0285329814892
0.0285342627204
0.0285431549805
0.0285464373412
0.028507486169
0.0283368357035
0.0278346823312
0.0266130432424
0.0240383700042
0.0193028259933
0.0127864215937
0.0127875057723
0.0193050298299
0.0240372836773
0.0266053751156
0.0278252575289
0.0283259462925
0.0284979830431
0.0285408638238
0.0285421556201
0.0285371437332
0.028538332733
0.0285457469942
0.0285462972382
0.0285040670795
0.0283309474384
0.0278284667425
0.0266150284392
0.0240431055686
0.019307855195
0.0127878332799
0.0127889344632
0.0193061338787
0.0240285633962
0.0265817594723
0.027784428144
0.0282807839889
0.0284533810682
0.0284991540797
0.028503581126
0.0285004068647
0.0285014745739
0.0285068825513
0.0285041310786
0.028458729651
0.0282848623887
0.0277881822286
0.0265912130558
0.0240320475801
0.0193074257937
0.0127888649326
0.012788167489
0.0192834355016
0.0239629692768
0.0264755897049
0.0276354154164
0.0281142484732
0.0282814989635
0.0283275604298
0.0283340694488
0.0283324407346
0.0283333477605
0.0283368470447
0.0283315195263
0.0282853760297
0.0281169031112
0.0276464563031
0.0264799460022
0.0239625832492
0.0192822966644
0.0127874920214
0.0127784523605
0.019178465258
0.0237232667905
0.0261246899741
0.027213023334
0.0276375160757
0.0277855743521
0.0278268684487
0.0278333592802
0.0278324864766
0.0278331850908
0.0278354497411
0.0278296586502
0.0277903551032
0.0276478447229
0.0272174009229
0.0261233218428
0.0237189205639
0.0191748173394
0.0127772853163
0.0127388244001
0.0188372063772
0.0230368287786
0.0251851469544
0.0261261024121
0.0264788056001
0.0265867585102
0.02660893799
0.0266104746713
0.0266093403624
0.0266098577047
0.0266149524741
0.026618076506
0.0265944351969
0.026482290628
0.0261243774638
0.0251793710716
0.0230295984703
0.018831844847
0.0127373907821
0.0126123257741
0.0179164258017
0.021369661471
0.0230378562462
0.0237253860145
0.0239662150916
0.0240327473794
0.0240418685479
0.024037094837
0.0240332673986
0.0240347405321
0.0240411003423
0.0240464062616
0.0240352014204
0.023965018852
0.023720354772
0.0230301660958
0.0213614309959
0.017910559178
0.0126108447573
0.0122875698729
0.0158203616334
0.017917783433
0.0188392801541
0.0191811662612
0.0192867431338
0.0193097979635
0.0193087351152
0.0193031933613
0.0192997829003
0.0193004188972
0.0193049064087
0.019310239358
0.0193096844956
0.0192840951364
0.0191760266151
0.018832476153
0.0179107572602
0.0158154217758
0.0122865813993
0.0117363915649
0.0122877279445
0.0126128918897
0.0127397119217
0.0127795868439
0.0127894535417
0.0127903651313
0.0127890113185
0.0127872358936
0.0127861339911
0.0127860562012
0.012786869938
0.0127883554954
0.0127893453578
0.0127878790997
0.0127775857923
0.0127375721522
0.0126109172367
0.012286585101
0.0117366107728
0.012284656356
0.0157971533923
0.0178846559701
0.018805614599
0.0191514032883
0.0192621845561
0.0192901552782
0.0192923983422
0.0192885082106
0.0192850833855
0.0192846320083
0.0192870451814
0.0192898035166
0.0192867265783
0.0192585298679
0.0191478339377
0.0188026858136
0.0178827784609
0.015796514795
0.0122843871939
0.0157975157868
0.0168372203799
0.0185060544401
0.0193272219344
0.0196576131287
0.0197709379925
0.019802892878
0.0198086778719
0.0198077460686
0.0198062837868
0.0198060112362
0.0198069123323
0.0198072093429
0.0198008347967
0.0197685211732
0.0196551854367
0.0193251638067
0.01850467666
0.0168367893234
0.0157972824699
0.0178850135911
0.018506370235
0.0202588918079
0.0211948470467
0.021603086935
0.0217562463266
0.0218047796279
0.0218164180346
0.0218173646567
0.0218165703079
0.0218165125824
0.0218170862314
0.0218156885833
0.0218034660663
0.0217544290609
0.0216010743121
0.0211930381241
0.0202576117634
0.0185058869621
0.0178844401599
0.0188060015701
0.0193276859377
0.0211949901823
0.0222346742947
0.0227097605791
0.022897682007
0.0229614727064
0.0229795317223
0.0229834693163
0.0229837814622
0.0229837601279
0.0229833494265
0.0229791573884
0.0229606811682
0.022896238382
0.0227078902651
0.0222328017331
0.0211935135833
0.0193269124799
0.018804920917
0.0191521606515
0.0196583695354
0.0216035097319
0.0227100347885
0.0232288391049
0.0234405284269
0.0235168193934
0.0235402972667
0.0235457735085
0.0235464184758
0.0235464190596
0.0235457406666
0.0235401236548
0.0235163426558
0.0234396211978
0.0232272622938
0.0227081677927
0.0216018428562
0.0196572836457
0.0191505653818
0.0192637307197
0.019772194282
0.0217571561276
0.0228984189585
0.0234408986914
0.0236676191871
0.023750884028
0.0237764770305
0.0237821141699
0.0237825268818
0.0237825378746
0.0237821201361
0.0237763965405
0.023750597092
0.0236669835571
0.0234398536275
0.0228968014263
0.0217554849187
0.0197709334729
0.0192618052665
0.0192925797869
0.0198046623398
0.0218061613203
0.0229625328742
0.023516822841
0.0237507991137
0.0238364523895
0.0238620216058
0.023866831621
0.0238665952641
0.0238665948787
0.0238668122916
0.0238619264997
0.0238361971176
0.0237502956613
0.0235160185281
0.0229614030911
0.0218047482324
0.0198034698108
0.0192906388927
0.0192959078693
0.0198107479628
0.021817930823
0.0229799918948
0.023540087794
0.0237762640164
0.0238619098039
0.0238863822345
0.0238898885183
0.0238888048107
0.0238887621348
0.0238897562597
0.0238861470635
0.0238615451678
0.0237757294293
0.0235394289145
0.0229794211036
0.0218169664073
0.0198098350027
0.0192942195052
0.0192923296197
0.0198096984066
0.0218186010323
0.0229832350159
0.0235453016765
0.0237817008551
0.0238665447244
0.023889741935
0.0238920039573
0.0238901498372
0.0238900601834
0.0238917430574
0.0238893488293
0.023866061431
0.023781112125
0.0235446889239
0.0229827664495
0.0218181647393
0.019809269087
0.0192917390487
0.0192882915724
0.0198077521215
0.0218171942999
0.0229831640973
0.0235456515493
0.0237818254001
0.0238660435168
0.0238884455353
0.0238899742917
0.0238876834386
0.0238875761516
0.0238896825979
0.0238880531497
0.0238656262494
0.023781342902
0.023545164294
0.0229828943525
0.0218173748846
0.0198079533844
0.0192893192161
0.0192865170758
0.0198068737363
0.0218164948038
0.022982799702
0.023545339117
0.0237815013012
0.0238657197056
0.0238881450138
0.0238897010628
0.0238874367551
0.0238873588223
0.0238895386604
0.0238880127563
0.0238656597941
0.0237813768924
0.0235451445541
0.0229828210716
0.0218172993058
0.0198077191802
0.0192890548602
0.0192878330095
0.0198073044449
0.0218166267889
0.0229821522067
0.0235444199746
0.0237808029463
0.0238656550041
0.0238889264736
0.0238912703974
0.0238895024862
0.0238895307409
0.0238914378276
0.0238893247779
0.0238662078059
0.0237812191974
0.0235446252942
0.0229826690027
0.0218178623612
0.0198085454839
0.0192908214218
0.0192900250669
0.0198073324038
0.0218149641111
0.0229778371664
0.0235386975344
0.0237749518235
0.0238606426071
0.0238852532221
0.0238889120226
0.0238879973513
0.0238881832993
0.0238895195754
0.0238862669754
0.0238618136313
0.0237758431684
0.0235392385476
0.0229791876357
0.0218162686021
0.0198085803726
0.0192924913061
0.0192866656958
0.0198008190984
0.0218026400247
0.0229592047732
0.0235149144832
0.0237492183118
0.023835000194
0.023860773593
0.0238658088346
0.0238658195679
0.0238661237544
0.0238667175294
0.0238621393669
0.0238364355005
0.0237502440067
0.0235156395188
0.0229606391525
0.0218035289289
0.0198016730052
0.0192879875045
0.0192582554805
0.0197684388733
0.0217536678884
0.0228948638407
0.0234378335806
0.023665691133
0.0237492948923
0.0237751484531
0.0237810452272
0.0237817318422
0.0237820499463
0.023781957561
0.0237764289477
0.0237505444018
0.0236665867594
0.023439305298
0.0228955182355
0.0217538059509
0.0197686982987
0.0192585493747
0.019147554549
0.0196551100521
0.0216004944442
0.0227068367581
0.0232256976207
0.0234380592611
0.0235150710306
0.023538908158
0.0235446482142
0.0235455387597
0.0235457866287
0.0235453620963
0.0235399027399
0.0235162043533
0.0234396077711
0.0232262732176
0.0227065063457
0.0215998929767
0.0196548142872
0.0191470715058
0.0188025000127
0.019325154637
0.0211926886606
0.0222321446921
0.0227071455053
0.0228954530736
0.0229600203284
0.0229784066412
0.0229825140805
0.0229830594749
0.0229832448768
0.0229833086542
0.0229799552056
0.0229613372144
0.0228959801627
0.0227066997365
0.0222310961412
0.0211916277478
0.0193245587024
0.0188015185305
0.0178827722539
0.0185047494142
0.0202574513762
0.0211931593693
0.0216012679354
0.0217546861872
0.0218038361281
0.0218162012748
0.0218177785806
0.0218174105174
0.0218176565418
0.0218184544383
0.0218169751457
0.0218041837651
0.0217542884246
0.0216001650658
0.0211917327387
0.0202562077535
0.0185041051144
0.0178817453629
0.0157966262934
0.0168368280551
0.0185057476392
0.0193266734861
0.0196569559044
0.0197705055511
0.0198029619919
0.0198093876298
0.0198090543995
0.019808054251
0.0198080794521
0.0198091062948
0.0198092306581
0.0198022867125
0.019769184353
0.0196551267179
0.0193247208052
0.0185041635852
0.0168360261041
0.0157957393885
0.0122843223579
0.01579712893
0.0178842034173
0.0188046177535
0.019150175249
0.0192612513268
0.0192898948298
0.0192934277063
0.0192911780781
0.0192893257282
0.0192896107115
0.0192917319617
0.0192935503563
0.0192889922227
0.019259369244
0.0191475669703
0.0188017684174
0.0178818355542
0.0157957154719
0.0122846797536
0.0126075719166
0.0178749267184
0.0213083465657
0.0229737082773
0.0236674327483
0.0239174651343
0.0239926486537
0.0240081750774
0.0240067176526
0.0240031375486
0.0240027613357
0.0240054195933
0.0240057958646
0.0239892084288
0.0239132822013
0.0236632156016
0.0229701698569
0.0213059853287
0.0178738768516
0.0126068887669
0.0178755949759
0.0184975013161
0.0202500005713
0.0211870470798
0.0215972102093
0.0217525639797
0.0218030755457
0.0218161502482
0.0218178846622
0.021817301521
0.0218171064114
0.0218172747038
0.0218150653456
0.0218015282761
0.021750709963
0.0215953324267
0.0211854193562
0.0202488218522
0.0184970254217
0.0178751281837
0.0213090587299
0.0202505412009
0.0215868137421
0.0223900359144
0.0227699068887
0.0229260326734
0.022982168302
0.0229992238644
0.023003108067
0.0230036495069
0.0230038401145
0.0230036305202
0.0229998453929
0.0229826285954
0.0229261575735
0.0227696827355
0.0223895632698
0.0215862726822
0.0202503223955
0.0213086202506
0.0229743794361
0.0211877569653
0.0223901889206
0.0231625651105
0.0235447542858
0.0237098546343
0.0237729282984
0.0237938725713
0.0237995218183
0.0238007694093
0.0238012798184
0.02380096013
0.0237959368744
0.0237751312667
0.0237116866994
0.0235459165219
0.0231630034766
0.0223900690721
0.0211875781765
0.0229737943644
0.0236684601824
0.0215980890724
0.0227701135332
0.0235447038037
0.0239365315906
0.0241102342676
0.0241786566411
0.0242019837737
0.0242083795973
0.0242098348807
0.0242106370289
0.0242106827113
0.0242054236786
0.0241825536519
0.0241137419719
0.0239390366129
0.0235459998886
0.0227703677445
0.0215978647976
0.0236676937814
0.0239194332073
0.0217537457879
0.0229263071203
0.0237096424292
0.0241098871497
0.0242893891647
0.0243605501622
0.0243843810754
0.0243903044235
0.024391337752
0.0243923516647
0.0243932446661
0.0243888492965
0.024365752729
0.0242942881626
0.0241135659802
0.0237117170579
0.0229269335317
0.0217535084819
0.0239186931086
0.0239957659986
0.0218045836509
0.0229824728772
0.0237724455187
0.0241778115563
0.024359942403
0.0244314222129
0.0244541710796
0.0244586772009
0.0244587697112
0.0244598538237
0.0244618679712
0.0244591263661
0.0244373167064
0.024365638757
0.0241822845316
0.0237751394376
0.0229834781833
0.0218044722155
0.0239955409703
0.024012135713
0.0218178042601
0.022999396595
0.0237929368847
0.0242005537276
0.024383092282
0.024453463305
0.0244743659052
0.024477081516
0.0244759934892
0.0244769859809
0.0244800780012
0.0244791970756
0.024459423933
0.0243890336105
0.0242053975199
0.023796012374
0.0230007661867
0.0218179529734
0.0240127795083
0.0240108895372
0.0218193826516
0.0230029425185
0.0237980963577
0.0242063753616
0.0243883868945
0.0244573247698
0.0244764562966
0.0244776003334
0.024475465253
0.0244763227273
0.0244802774604
0.0244809859757
0.024463183104
0.0243944464441
0.0242114993889
0.0238015690739
0.0230047046884
0.0218199259789
0.024012756332
0.0240065595063
0.0218183788919
0.0230029725468
0.0237988509813
0.0242072722424
0.0243888129057
0.0244568067572
0.0244748259893
0.0244750046183
0.0244722875592
0.024473169166
0.024477814732
0.0244797064211
0.0244632570432
0.0243955798294
0.0242130634463
0.0238028685218
0.0230052358254
0.0218194786045
0.0240102663612
0.0240044571812
0.0218176742951
0.023002711008
0.0237988829576
0.0242075011699
0.0243891813658
0.024457250323
0.0244753178919
0.0244755767927
0.0244730413068
0.0244742661226
0.0244794249853
0.0244818366017
0.0244656158067
0.0243977178405
0.0242146361045
0.023803776933
0.0230056169344
0.0218194371074
0.0240102252012
0.0240056694176
0.0218174696668
0.0230021900655
0.0237981677214
0.024207028299
0.0243894783955
0.024458697171
0.0244780596075
0.0244795371156
0.0244780171239
0.0244799262171
0.0244853402215
0.0244874051642
0.02447004773
0.0244004982973
0.0242158486728
0.0238040234297
0.0230056786759
0.0218197459672
0.0240125327818
0.0240053875796
0.0218150940699
0.0229982604673
0.0237929493383
0.0242014697269
0.0243847414733
0.0244556929323
0.0244771934243
0.0244807075464
0.0244808176283
0.0244835596734
0.024488775817
0.0244895535699
0.0244699096992
0.0243978556457
0.0242114659099
0.0237992571278
0.0230019025948
0.0218174708005
0.0240119887607
0.0239886860867
0.0218015306469
0.022981106127
0.0237722590696
0.0241787028779
0.0243617455743
0.024434093176
0.0244578656963
0.0244637086443
0.0244655578792
0.0244688454023
0.024473144065
0.0244717638936
0.0244493982217
0.0243752582438
0.024188503415
0.023778176182
0.0229843167497
0.0218035864681
0.0239941892841
0.0239129178784
0.0217507585208
0.0229248852794
0.0237092076678
0.0241104109065
0.0242908367816
0.0243629999038
0.0243880770959
0.0243956009768
0.0243985762433
0.024401753772
0.024404561083
0.0244009018199
0.0243766586136
0.0243024381496
0.02411841649
0.0237137805178
0.0229272324239
0.021752265831
0.0239169353134
0.0236631948154
0.0215954863203
0.0227688056139
0.0235440717306
0.0239364705319
0.02411092421
0.0241803189682
0.0242048502672
0.0242126961563
0.0242157899462
0.0242182488178
0.0242195379495
0.0242144277617
0.02419026483
0.0241190912165
0.0239418494534
0.0235469459391
0.0227702438651
0.0215964997468
0.0236657592995
0.0229705710122
0.0211857286103
0.0223891422144
0.0231618804404
0.023544323575
0.0237098632584
0.0237736671067
0.0237955621692
0.0238022916985
0.0238046562315
0.0238061991528
0.0238065490432
0.0238014152881
0.0237796271554
0.0237145024207
0.0235471687888
0.023163335229
0.0223899575636
0.0211865290662
0.0229722639017
0.0213067581367
0.0202492814006
0.0215862413508
0.0223895833123
0.0227695059851
0.0229258841437
0.0229825423195
0.0230003001624
0.0230049160473
0.0230060974247
0.0230068793733
0.023007051501
0.0230031262933
0.0229851986746
0.0229277319627
0.022770459569
0.0223900249815
0.0215866617037
0.0202500406151
0.0213079829394
0.0178745884649
0.0184974393509
0.0202504167788
0.0211874423367
0.0215975641454
0.021753104736
0.021804055058
0.0218176959327
0.0218199987495
0.0218199291394
0.0218201225625
0.0218205058432
0.0218181863909
0.021804158372
0.0217526472359
0.021596721862
0.0211866501348
0.0202501017813
0.0184978073739
0.0178749505333
0.0126066958771
0.0178753869622
0.02130886117
0.0229737806755
0.0236673036386
0.0239178608047
0.0239943036174
0.0240115058298
0.0240119629963
0.0240103708308
0.0240110514741
0.0240137142447
0.0240132886139
0.0239953411407
0.0239177214592
0.0236662071324
0.0229724726993
0.0213080821838
0.0178749781141
0.012606799403
0.0127346988481
0.018789134913
0.0229635784747
0.0251090464198
0.0260594595558
0.0264248538561
0.026542948039
0.0265707643589
0.0265714374865
0.0265679797065
0.0265681298179
0.0265714543942
0.0265697582428
0.0265404418682
0.0264210516556
0.0260550842512
0.0251048588251
0.0229602416619
0.0187872575826
0.0127337918011
0.0187900334292
0.0193131139375
0.0211813072972
0.0222237323055
0.0227030909607
0.0228955370868
0.0229628677841
0.0229824833561
0.0229864371092
0.022986578719
0.0229866929022
0.0229867243953
0.0229827718487
0.0229629771506
0.0228953651194
0.0227025983457
0.0222228789209
0.0211801886194
0.01931226714
0.0187888602225
0.0229646488818
0.0211820570497
0.0223874766448
0.0231628564518
0.0235482766531
0.0237163279588
0.0237815938849
0.0238037460646
0.0238100407506
0.0238117549811
0.023812804297
0.0238130755009
0.0238083430543
0.0237869599569
0.0237215008409
0.0235523820033
0.0231652884559
0.0223881962328
0.0211819894808
0.0229637053194
0.0251100433292
0.022224606683
0.023162838186
0.0238358180676
0.0241882121764
0.0243505901832
0.0244180206519
0.0244427555298
0.0244505259552
0.0244531456289
0.0244552159448
0.0244565852135
0.0244521532126
0.0244293742357
0.024361947891
0.0241976638433
0.0238420832654
0.0231656975834
0.0222253765846
0.0251096683568
0.026060778868
0.0227038284019
0.0235476218262
0.0241871322208
0.0245303392278
0.0246925477368
0.0247613272607
0.0247865072939
0.0247939670912
0.0247965552772
0.0247997017492
0.024803193303
0.0248008436122
0.0247786950142
0.0247100713484
0.0245451034779
0.0241971850302
0.023552560046
0.0227053105678
0.0260611077254
0.026427194999
0.0228960962046
0.0237146343943
0.0243475822394
0.0246900474034
0.0248523297305
0.0249200198087
0.0249429263521
0.0249480152935
0.0249493763786
0.0249534220154
0.0249599208469
0.0249615001543
0.0249425002395
0.0248748924942
0.0247090375111
0.0243606019591
0.0237211958417
0.0228980658538
0.0264284475126
0.0265466327987
0.0229632518924
0.023778729696
0.0244127175982
0.0247556569545
0.0249164733654
0.0249807195794
0.0249992651429
0.025000446996
0.0249994252125
0.025003758166
0.0250133656558
0.0250198021167
0.0250059329991
0.0249418971926
0.0247770662209
0.0244274333692
0.0237862898864
0.0229655564788
0.0265492923787
0.0265752123847
0.0229825921454
0.0237998093329
0.0244354676399
0.024778062465
0.0249360800032
0.024995752728
0.0250093311006
0.0250063398896
0.0250023794917
0.0250062796491
0.0250182980226
0.0250291384901
0.0250209789115
0.0249620775373
0.0248001665014
0.024450845293
0.0238078345624
0.0229851701026
0.0265796862363
0.0265753210895
0.0229860742174
0.0238052260038
0.0244418854037
0.0247836413276
0.0249387510718
0.0249942434969
0.0250036566974
0.0249973627958
0.0249908281362
0.0249941108931
0.025007831499
0.0250219921649
0.0250187779244
0.0249647867435
0.0248060435364
0.0244576083079
0.0238135659541
0.0229890207405
0.0265819472039
0.0265700953167
0.0229856405889
0.0238062743621
0.0244436896337
0.0247850243691
0.0249383663071
0.0249912077286
0.0249978310553
0.0249892353692
0.0249812512371
0.0249845757662
0.0250000683279
0.0250173395651
0.0250178253245
0.0249667668803
0.0248092885164
0.0244605620441
0.0238152991472
0.0229892282974
0.0265793331313
0.0265678195521
0.0229852096454
0.0238068157322
0.024445108575
0.0247871311883
0.0249408343337
0.0249937682821
0.0250003695311
0.0249919015979
0.0249845121721
0.0249891349936
0.0250066376011
0.0250260344692
0.0250275308386
0.0249756410401
0.0248158644806
0.0244644746114
0.023817098801
0.0229897330867
0.0265802109863
0.0265693872167
0.0229849050818
0.0238067151766
0.0244458748839
0.0247896498182
0.0249459347174
0.0250019782483
0.025011752616
0.0250062968987
0.0250018836365
0.0250091587954
0.025028564425
0.0250482322028
0.025047038675
0.0249899273678
0.0248242493486
0.0244681924441
0.0238182952941
0.022990232891
0.0265841368493
0.0265671688127
0.0229809094753
0.0238018841318
0.0244411609414
0.0247868505617
0.0249469698948
0.0250081980301
0.0250234484477
0.0250230084543
0.0250233778288
0.0250339255985
0.0250541053037
0.0250715574103
0.025064181075
0.0249987995367
0.024825691217
0.0244650056423
0.0238137619006
0.0229863457495
0.0265820221288
0.0265381520534
0.0229613100973
0.0237808833189
0.0244188168589
0.024765282055
0.0249288648734
0.0249957617908
0.0250176907466
0.0250236067543
0.0250291678269
0.0250419049773
0.0250601594911
0.0250718605194
0.0250559632513
0.0249822221939
0.0248036145742
0.0244412354926
0.0237913877432
0.0229659732903
0.0265508957116
0.0264194833949
0.0228940512561
0.0237163076514
0.0243527327808
0.0246983497328
0.0248633855549
0.0249341422516
0.024961374972
0.0249724477071
0.0249813593213
0.0249938073729
0.0250075305664
0.0250118230347
0.0249883116759
0.0249096897752
0.0247302975215
0.0243704862092
0.0237240789753
0.0228974429163
0.0264290803571
0.0260545566729
0.0227017837365
0.0235484617977
0.0241905170451
0.0245359292354
0.0247002621902
0.0247716685832
0.0248008478139
0.0248138799854
0.0248231110979
0.0248329058725
0.0248411376244
0.0248391531441
0.024811629211
0.0247332338385
0.0245577724572
0.0242019336751
0.0235532308445
0.0227040454129
0.0260612260233
0.0251054534517
0.0222226998105
0.0231628806297
0.0238373355024
0.0241909305289
0.0243546176154
0.0244239125888
0.0244515707301
0.0244632719215
0.0244703384073
0.0244764547563
0.024480110844
0.0244747203191
0.0244474212062
0.0243733879035
0.0242027785751
0.0238432217347
0.0231654522251
0.0222244086713
0.0251101747156
0.0229616644062
0.0211806295193
0.0223872512783
0.0231632800051
0.0235491411703
0.023717783341
0.0237841427429
0.0238080201399
0.0238164667799
0.0238204231294
0.0238233707634
0.0238245051894
0.0238188487743
0.0237947516824
0.0237257975296
0.0235538650641
0.0231656003279
0.022388625055
0.0211821963792
0.0229650326226
0.0187884905587
0.01931292687
0.0211819466798
0.0222246106228
0.0227040441051
0.0228967278366
0.0229646507845
0.0229851778277
0.0229901797402
0.0229913659526
0.0229923302036
0.0229927432253
0.0229883662962
0.0229673047601
0.0228981462591
0.0227043605902
0.0222245627512
0.0211822899462
0.0193139899013
0.0187897650296
0.0127334259733
0.0187894884225
0.0229643363307
0.0251095571772
0.0260599918891
0.0264264911983
0.0265469052254
0.0265777740437
0.0265814775459
0.0265806788218
0.0265825502798
0.0265866602617
0.0265842842773
0.0265525571527
0.0264300267136
0.0260616364101
0.025110331049
0.0229651434975
0.0187898028824
0.0127334563009
0.0127770526371
0.0191358623876
0.0236584999373
0.0260634953506
0.0271688098935
0.027609794566
0.0277566955856
0.0277913429033
0.0277914473693
0.0277873645521
0.0277894785219
0.0277964137499
0.0277966635063
0.0277606160322
0.0276116144359
0.0271685528524
0.0260612424913
0.0236549426777
0.0191329672997
0.012776049908
0.0191367676813
0.019643825966
0.0215932130611
0.0227080513964
0.0232382953245
0.0234611859716
0.0235443238007
0.0235710373652
0.0235778079687
0.0235793491456
0.0235808830438
0.0235822903817
0.023577975502
0.0235528248853
0.0234700045077
0.0232458137941
0.0227126183008
0.0215943115695
0.0196430242969
0.0191346895216
0.0236599172469
0.0215940620382
0.0227769548493
0.0235655758371
0.0239734930954
0.024162323794
0.0242424429685
0.0242733074481
0.0242840419221
0.0242885405251
0.0242925734412
0.0242960433642
0.0242924418153
0.0242665891734
0.0241880767226
0.0239966880427
0.0235822723331
0.0227852984756
0.0215962986836
0.023659120165
0.0260646067221
0.0227083962216
0.0235641159423
0.0242199110401
0.0245814177838
0.0247607885099
0.0248431456348
0.024877380243
0.0248901137487
0.0248964304788
0.0249036696451
0.0249116563746
0.0249117932854
0.0248866841118
0.0248073987295
0.0246240353323
0.0242519098251
0.023581994167
0.0227149491856
0.0260668795152
0.0271694583542
0.0232367694612
0.0239676205977
0.0245750335069
0.0249200912543
0.025095608357
0.0251767743447
0.0252087343643
0.0252190015676
0.0252249659415
0.0252359319202
0.0252515121234
0.0252602658967
0.0252411724371
0.0251637564042
0.0249817588446
0.0246215681133
0.023994592027
0.0232474222452
0.0271751964329
0.0276104355099
0.0234569025324
0.0241499570469
0.024744067635
0.0250830776925
0.0252530175632
0.0253263606952
0.0253492105748
0.025351843111
0.0253543053186
0.025368479091
0.0253938963544
0.0254158204479
0.0254089195874
0.025339089672
0.0251598411257
0.0248014476935
0.0241834126842
0.0234703292019
0.0276194470226
0.0277576660708
0.0235372466675
0.0242234006843
0.0248153254574
0.0251496991195
0.0253103018866
0.0253703328448
0.0253792221616
0.0253705808683
0.0253661261037
0.025381378147
0.0254164275075
0.0254531877281
0.0254629635709
0.0254065988995
0.0252347888535
0.0248783229726
0.0242599518069
0.0235519036451
0.0277698744988
0.0277918404154
0.0235617511037
0.0242492251969
0.0248410447171
0.0251701057465
0.0253192179291
0.0253642484868
0.0253589210359
0.0253394585663
0.0253262552435
0.0253398886976
0.0253817664806
0.0254303953503
0.0254572502482
0.0254175182464
0.0252569586804
0.0249050531235
0.0242861290123
0.0235764540963
0.0278070018303
0.0277895373801
0.023567085859
0.0242574702068
0.0248496772883
0.0251738197062
0.0253126550469
0.025344964594
0.0253287510143
0.0253020820338
0.0252811412308
0.0252923198567
0.0253384533495
0.025394302049
0.0254350527196
0.0254105116667
0.0252605572807
0.0249130586387
0.0242936744181
0.0235815096329
0.0278077461451
0.0277816425372
0.0235678993689
0.0242614762622
0.0248551133394
0.0251769502805
0.0253096705389
0.0253335766909
0.0253088974444
0.025275305215
0.0252497423846
0.0252606833235
0.0253118975535
0.0253772021771
0.0254296671037
0.0254144736196
0.0252685806795
0.0249204440019
0.0242980482437
0.0235826786569
0.0278038271442
0.0277798439215
0.0235690841374
0.0242656895118
0.0248623268388
0.0251861925798
0.0253197701299
0.0253435679415
0.0253182936092
0.0252845331727
0.0252605240665
0.0252755181772
0.02533341237
0.025406182018
0.0254624362002
0.0254447738586
0.0252913442072
0.0249341458591
0.0243045360945
0.0235850777964
0.0278075009618
0.0277845685827
0.0235704068361
0.0242692392132
0.0248700327864
0.0252001610752
0.0253419804579
0.0253750810742
0.0253588420836
0.0253335553095
0.0253186185175
0.0253424056459
0.0254074123956
0.0254824735996
0.0255308214121