/*--------------------------------*- C++ -*----------------------------------*\
| =========                 |                                                 |
| \\      /  F ield         | OpenFOAM: The Open Source CFD Toolbox           |
|  \\    /   O peration     | Version:  3.0.1                                 |
|   \\  /    A nd           | Web:      www.OpenFOAM.org                      |
|    \\/     M anipulation  |                                                 |
\*---------------------------------------------------------------------------*/
FoamFile
{
    version     2.0;
    format      ascii;
    class       volScalarField;
    location    "1";
    object      nut;
}
// * * * * * * * * * * * * * * * * * * * * * * * * * * * * * * * * * * * * * //

dimensions      [0 2 -1 0 0 0 0];

internalField   nonuniform List<scalar> 
7968
(
0.00047775692245
0.000485792148347
0.000490529081967
0.000492422061988
0.00049304180963
0.00049320061356
0.000493212144872
0.000493184656492
0.000493151620221
0.000493125184201
0.000493123950857
0.000493142685134
0.000493171198307
0.000493193394718
0.000493177763881
0.00049302026422
0.000492406504497
0.000490519591534
0.000485790420804
0.000477758897366
0.000485790204972
0.000530945008605
0.000554995558677
0.000565292071092
0.000569184639808
0.00057042671127
0.000570698932904
0.000570670777058
0.000570583989109
0.000570525159715
0.000570524845187
0.000570578228467
0.000570651019759
0.000570662029815
0.000570377013376
0.000569132150881
0.000565246347813
0.000554964460212
0.000530934293191
0.000485788979783
0.000490527032688
0.000554996651615
0.000590603568437
0.000606855835874
0.000613566852685
0.000615975831679
0.000616648939752
0.000616723223683
0.000616648955634
0.000616589550973
0.000616593334042
0.000616652399258
0.00061671131693
0.000616612768406
0.000615917408342
0.000613498453395
0.000606793252277
0.000590557991389
0.000554974981222
0.000490520878684
0.00049242212046
0.000565300618422
0.000606865035178
0.000626649601151
0.000635250375425
0.000638535636165
0.000639550959475
0.000639778959823
0.00063981050413
0.000639795558543
0.000639798787163
0.000639815765588
0.000639776318914
0.000639536696767
0.000638487380956
0.000635177860792
0.000626571738423
0.000606800385736
0.00056526277746
0.000492410395841
0.000493046339512
0.000569210085599
0.000613597735942
0.00063527452968
0.000644981215913
0.000648825431449
0.000650206732376
0.00065060299238
0.000650662468098
0.0006506514182
0.000650657905815
0.000650676900288
0.000650614246166
0.000650203781764
0.000648811130881
0.000644924816797
0.000635194049078
0.000613519191801
0.000569157851165
0.00049302861652
0.000493212106327
0.000570476902958
0.000616039520204
0.0006385966731
0.000648862553386
0.000653148568276
0.00065471402622
0.000655153201911
0.000655211009318
0.000655193419426
0.000655203610821
0.000655236053348
0.000655179944677
0.000654729291356
0.000653142980959
0.000648842669881
0.000638531607002
0.000615959348346
0.000570417662927
0.000493190418371
0.000493230392547
0.000570773769713
0.000616744445815
0.00063964529941
0.000650230193643
0.000654725618679
0.000656343693037
0.000656779625769
0.000656817419187
0.0006567861432
0.00065679986697
0.000656852500819
0.000656821327713
0.000656376828712
0.000654738875902
0.000650217845552
0.000639611898711
0.000616678099918
0.000570718685391
0.000493208980618
0.000493204702867
0.000570760341552
0.00061683421208
0.000639841788206
0.000650630375278
0.000655172527932
0.000656788486146
0.000657199937151
0.000657210123662
0.000657162884908
0.000657180013005
0.000657254005583
0.000657254458042
0.000656837543718
0.000655202816291
0.000650636132961
0.00063984811009
0.000616793383817
0.000570719761825
0.000493189074262
0.000493169547275
0.000570672399255
0.000616753360533
0.000639838368473
0.000650685711983
0.000655228459213
0.000656826166315
0.000657211964339
0.000657198993009
0.000657139890255
0.000657160376846
0.000657250076127
0.000657275807566
0.000656887515645
0.000655272475751
0.000650705476448
0.000639838463808
0.000616743617277
0.000570654273757
0.000493160839796
0.000493137465688
0.000570597257651
0.00061666793581
0.000639809429768
0.000650660973022
0.00065519673431
0.000656782343139
0.000657155324082
0.000657132467172
0.000657069401895
0.000657091600117
0.000657187917153
0.000657225724243
0.00065685335205
0.000655252646071
0.000650693692342
0.000639822200306
0.000616693722978
0.000570608201094
0.000493142739435
0.000493126397132
0.000570572247703
0.000616638642015
0.000639795494146
0.000650647609478
0.000655184846545
0.000656774583591
0.000657154369299
0.000657138856167
0.000657079587772
0.000657100785184
0.000657195615932
0.000657231739974
0.000656857143586
0.000655254764202
0.000650694868205
0.000639823311257
0.00061670075961
0.000570612149743
0.000493143590921
0.000493140158321
0.00057060414716
0.000616670935972
0.000639797940424
0.000650648516812
0.000655195709955
0.000656805175453
0.000657209462886
0.000657214249513
0.000657164220603
0.000657184539178
0.000657271768035
0.00065729333553
0.000656898809262
0.00065527836511
0.000650708181389
0.000639856729711
0.000616758772534
0.000570661652369
0.000493157713321
0.000493167910917
0.000570662828656
0.000616711575528
0.000639748997064
0.000650574479844
0.000655125226755
0.000656758598642
0.000657196341384
0.000657230061924
0.000657194876823
0.000657214545739
0.000657287287685
0.000657281977712
0.000656855064114
0.000655210229878
0.000650637050968
0.000639872335817
0.000616803046702
0.000570720885368
0.00049318172267
0.000493190038371
0.000570664955401
0.000616602386239
0.000639493280262
0.000650159708798
0.000654671202191
0.000656310187916
0.000656775958532
0.000656840068965
0.000656822802296
0.000656841173335
0.000656894019838
0.000656856194125
0.000656398181973
0.000654745746546
0.00065022311263
0.000639621711481
0.00061667192881
0.000570706795578
0.000493197894501
0.000493174191905
0.000570373955076
0.00061590326099
0.000638444663589
0.000648729301292
0.000653089820876
0.00065468079433
0.00065514920196
0.000655232715559
0.000655229782583
0.000655245923143
0.000655279649023
0.000655216624741
0.00065475117518
0.000653148473419
0.000648872287626
0.000638526250037
0.00061593463565
0.000570389150616
0.000493173331975
0.000493014796534
0.00056912502766
0.000613484293793
0.00063514553777
0.000644861432642
0.000648749972835
0.00065017307087
0.000650597086162
0.000650678995844
0.000650681977669
0.000650695031858
0.000650716533364
0.000650649567519
0.000650244214805
0.000648885390571
0.000644944377937
0.000635172710689
0.000613476058225
0.00056911245713
0.000493006692692
0.000492399098666
0.000565237128312
0.000606780444172
0.000626551654164
0.00063515815775
0.000638475712382
0.000639544230709
0.00063978719198
0.000639820214389
0.000639818634146
0.000639829202111
0.000639875631729
0.000639901678872
0.000639652203265
0.00063854831139
0.000635182608993
0.000626535231013
0.000606742102636
0.000565204746897
0.000492386572322
0.000490512470932
0.000554953665461
0.000590546256097
0.000606787812056
0.0006135017495
0.000615933387918
0.000616644950252
0.000616762720384
0.000616727352642
0.000616695941786
0.000616717084695
0.000616785232201
0.000616835322957
0.000616702986714
0.000615958566212
0.000613490118206
0.000606747674199
0.000590493257358
0.000554912616949
0.000490498367083
0.000485785332657
0.000530924702747
0.00055496506001
0.000565253851258
0.000569148317169
0.000570405172262
0.000570702478511
0.00057070424584
0.000570646811909
0.000570612933853
0.000570627035516
0.000570684363347
0.000570747167674
0.000570731871362
0.000570409089457
0.00056912574185
0.000565211604837
0.000554914750979
0.000530887603572
0.000485775639826
0.000477758509636
0.000485786638662
0.000490518043621
0.000492407638771
0.000493025911175
0.000493187035946
0.000493204680535
0.000493183624889
0.000493155960342
0.000493142677391
0.000493147378109
0.000493164885113
0.000493189905833
0.00049320544701
0.000493179396603
0.000493011238026
0.000492389273857
0.000490499455848
0.000485775735547
0.000477761433471
0.00048573312751
0.0005306098118
0.000554559545358
0.000564855664139
0.000568799285065
0.000570116553401
0.000570469528335
0.00057050958626
0.000570469786607
0.000570432314734
0.000570432858902
0.000570465153619
0.000570494326512
0.000570445134766
0.000570088074589
0.000568770438375
0.000564831709271
0.000554543881036
0.000530605007476
0.000485731812294
0.000530614520433
0.00159639223096
0.00198670655485
0.0021562825031
0.00222899638441
0.00225702718335
0.00226613781308
0.00226832196857
0.00226846352689
0.0022683193248
0.00226838428672
0.00226860858139
0.00226845257241
0.00226618260985
0.00225696180459
0.00222886096398
0.00215614323374
0.00198663219111
0.00159640964786
0.00053061689605
0.000554563367489
0.00198661819617
0.00257227930953
0.00284557792633
0.00297187758267
0.00302512629867
0.00304458661393
0.00305033022752
0.00305139645783
0.00305142081176
0.00305150947505
0.0030515990645
0.00305050642729
0.00304461960361
0.00302498098375
0.00297161104465
0.00284529864013
0.0025720966223
0.00198656806922
0.000554562383682
0.000564859629726
0.00215620200689
0.00284559525428
0.00318225094383
0.00334533740436
0.00341783446694
0.00344598891954
0.00345498358549
0.00345673885075
0.00345680805691
0.00345699328004
0.00345718694969
0.00345546293108
0.00344628864908
0.00341787969209
0.00334516058515
0.00318197447133
0.00284537425363
0.00215612369401
0.000564852470009
0.000568807969722
0.00222899597885
0.00297200718804
0.00334546037498
0.00353177033711
0.00361717035724
0.00365107849369
0.00366179175791
0.00366393946415
0.00366403056621
0.00366434670817
0.0036647528234
0.00366278360039
0.00365191015886
0.0036176027342
0.00353186586345
0.00334531743995
0.00297182461631
0.00222893663947
0.000568794468805
0.0005701351141
0.00225716063148
0.00302543534551
0.00341815328555
0.00361736026133
0.00370978372249
0.00374662482745
0.00375817093485
0.00376026867201
0.00376021118268
0.00376065761546
0.00376147428076
0.00375976205832
0.00374813716966
0.00371085519091
0.00361786077985
0.00341825707118
0.00302537957819
0.00225717743454
0.000570117772526
0.000570499161163
0.00226640238847
0.00304506836037
0.00344650569703
0.00365164319876
0.00374693837603
0.00378486943031
0.00379635103138
0.00379797119852
0.00379757576425
0.00379811636658
0.00379947831491
0.00379845357917
0.00378703711855
0.00374866864332
0.00365267906621
0.00344693039794
0.00304521736516
0.00226655658011
0.00057048231
0.000570550513308
0.00226864441527
0.00305087688128
0.00345556456489
0.00366249364299
0.00375864871286
0.00379653786082
0.00380742908578
0.00380837691236
0.00380757113621
0.00380816287468
0.00381006327197
0.00380988254392
0.00379921914102
0.00376095769787
0.00366404351996
0.00345630303429
0.00305127160394
0.00226897173782
0.000570538202476
0.000570514234709
0.002268751049
0.00305189271835
0.00345743544123
0.00366454279467
0.00376063488947
0.0037980885715
0.00380835996253
0.00380876167227
0.00380764419894
0.00380825409837
0.00381052422341
0.00381100086623
0.00380110365289
0.00376336884709
0.00366652474747
0.0034585777513
0.00305253952555
0.00226925326203
0.000570514889106
0.000570470855286
0.00226847628691
0.00305168775074
0.0034571948043
0.00366423057911
0.00376015109906
0.00379731759271
0.00380727819268
0.0038074410299
0.00380618901302
0.00380681261784
0.00380925840348
0.00381006168842
0.003800594785
0.00376323965479
0.00366660984735
0.00345873673419
0.00305260560227
0.00226915894792
0.000570491484176
0.000570455610259
0.00226838554286
0.0030515194104
0.00345694742939
0.00366399053202
0.00375998171684
0.00379727559425
0.00380740076783
0.00380770430236
0.00380653106161
0.00380720447708
0.00380968203298
0.00381047935171
0.0038009562095
0.00376353053505
0.00366682842114
0.00345888362177
0.00305271210191
0.00226924515821
0.000570494599743
0.000570473795726
0.00226848932359
0.00305141494487
0.00345676473421
0.00366387402899
0.00376017344442
0.0037980072716
0.00380876153443
0.00380956339746
0.00380866005839
0.00380940550215
0.00381176654235
0.00381221894105
0.00380215363071
0.00376419359835
0.00366711011183
0.00345886051386
0.00305280617242
0.00226948194383
0.00057051952734
0.000570496261311
0.00226826190884
0.00305020387903
0.00345480559144
0.00366155185328
0.00375800476661
0.00379648923125
0.00380813169638
0.00380969561464
0.00380921764506
0.00381001231705
0.00381204741746
0.00381180416746
0.00380084219158
0.00376217236809
0.00366484430279
0.00345675858259
0.00305160791119
0.00226927049822
0.000570537894116
0.000570444009873
0.00226597299
0.00304428953858
0.00344559721366
0.00365060412473
0.00374623425293
0.00378488558108
0.00379727947477
0.00379966021315
0.00379968651751
0.0038004778954
0.00380199198686
0.00380085779903
0.00378901656759
0.00375006427983
0.00365344580097
0.00344737864076
0.00304553242763
0.00226687431756
0.000570474069814
0.000570085085352
0.00225678101952
0.00302470086868
0.00341731096914
0.00361671074482
0.00370921767726
0.00374673471531
0.00375919649618
0.00376208406696
0.00376249441658
0.00376321676702
0.00376418349142
0.00376232530302
0.00375019477988
0.00371224661023
0.00361857125628
0.00341864046699
0.00302563646566
0.00225748925517
0.000570103120236
0.000568767613317
0.00222874159771
0.00297142791355
0.00334476294275
0.00353117370062
0.00361688199704
0.0036512973962
0.00366277200499
0.00366563031073
0.00366617342364
0.003666760108
0.0036672840239
0.00366513375531
0.00365365182391
0.00361868822903
0.00353247599373
0.00334562616802
0.00297203118979
0.00222923600672
0.000568775736552
0.000564830134888
0.00215609736334
0.00284522456258
0.00318176885572
0.00334491484095
0.00341766077216
0.00344620938203
0.00345569764916
0.00345813266052
0.00345857952625
0.00345897730072
0.00345907953768
0.00345704557698
0.00344763054261
0.00341880322211
0.00334569083251
0.00318224680475
0.00284556988263
0.00215642605447
0.000564831702811
0.000554544446686
0.00198665425828
0.0025721118916
0.00284531610982
0.00297164780751
0.00302507740554
0.00304483732397
0.00305092587353
0.00305231899277
0.00305255746359
0.00305280171409
0.00305297476413
0.00305181566188
0.00304572688117
0.00302577596234
0.00297210422019
0.00284559294306
0.002572331384
0.00198688947647
0.000554543872364
0.00053060703192
0.0015964908418
0.00198664690553
0.00215614874155
0.00222887580368
0.00225702409237
0.00226633314947
0.0022687422003
0.00226908681564
0.00226908725292
0.00226925365806
0.00226954391932
0.00226936809387
0.00226697651641
0.0022575692786
0.00222928101317
0.00215644111109
0.00198688907891
0.00159672069368
0.000530605372983
0.000485730735474
0.000530615348468
0.000554560497843
0.000564850152712
0.000568790984843
0.000570111884902
0.000570473692377
0.000570528750359
0.000570508380068
0.000570491950687
0.000570501303715
0.00057053000041
0.000570549993748
0.00057048552931
0.000570112279269
0.000568781314814
0.000564834430043
0.000554544742762
0.000530605078359
0.000485736574587
0.000490426030676
0.000554437759986
0.000589883236478
0.000606131406586
0.000612920938471
0.000615448055083
0.000616245815905
0.000616426026283
0.000616422180874
0.000616392946757
0.000616394978731
0.00061642285229
0.000616419072589
0.000616228711848
0.000615422378169
0.000612892126618
0.000606104904801
0.000589862925105
0.000554427152466
0.000490421067812
0.000554445831481
0.00198450789082
0.00256902377913
0.00284155327446
0.00296730013465
0.00302015166101
0.00303933411431
0.00304490482073
0.00304593368715
0.00304598545168
0.00304616435796
0.003046376185
0.00304541991836
0.00303973904605
0.00302035078162
0.00296730692579
0.00284144779511
0.00256891778879
0.00198446232034
0.000554446064916
0.000589890093176
0.00256886108272
0.00349265024759
0.00395576325617
0.00418400159946
0.00428732885323
0.00432852456069
0.00434231317382
0.00434581964902
0.0043464732151
0.0043467426296
0.0043465340273
0.00434319823562
0.00432930461311
0.0042878296667
0.00418419460626
0.00395573306603
0.00349254433489
0.00256878507819
0.000589890965956
0.000606137004068
0.00284135921813
0.00395571499854
0.00454030713454
0.0048411924312
0.00498385903507
0.00504367219502
0.00506483003404
0.0050704967114
0.0050715851288
0.00507204656792
0.00507172600757
0.00506646313557
0.00504528353641
0.00498514487054
0.00484200552724
0.00454067546669
0.00395580412963
0.00284135362212
0.000606136331712
0.000612930104148
0.00296717995259
0.00418400190664
0.00484120117123
0.00518907830591
0.00535862607557
0.00543114538418
0.00545682566617
0.00546341463049
0.00546445240971
0.00546511915414
0.00546523094507
0.00545936123976
0.00543386321953
0.00536096711702
0.0051907645872
0.00484216876151
0.00418442767458
0.00296734266966
0.000612927752802
0.000615467038426
0.00302018030822
0.00428744255478
0.00498389319631
0.00535855146152
0.00554325338267
0.00562236895043
0.0056493668791
0.00565507586893
0.00565522156289
0.00565602536384
0.00565730144779
0.00565256067808
0.00562597878615
0.00554667557214
0.00536116266093
0.00498554283259
0.00428829978529
0.00302060220679
0.000615465563635
0.000616276815856
0.00303951002829
0.00432874152746
0.00504371998733
0.00543111731176
0.00562228841363
0.00570286421539
0.00572820434064
0.00573139574852
0.00572990281688
0.00573078534952
0.00573388303076
0.00573185773373
0.00570710322467
0.00562649889133
0.00543460834346
0.00504602931498
0.00433007076538
0.00304025980901
0.000616281377481
0.000616465500723
0.00304511815673
0.00434251308775
0.00506482223411
0.00545664395283
0.00564907281909
0.00572798555585
0.0057500013831
0.0057498876318
0.00574645261934
0.005747367387
0.00575251540848
0.00575395515971
0.00573267565995
0.00565384608641
0.00546077132718
0.00506764488555
0.00434429337426
0.00304621410668
0.000616480244873
0.00061646248482
0.00304602211706
0.0043458123309
0.00507024395702
0.00546287779686
0.00565442520701
0.00573084177493
0.00574957666062
0.00574655563035
0.00574148542034
0.0057423984683
0.00574922448113
0.00575368087413
0.00573581224487
0.00565959483528
0.00546751414793
0.00507365201145
0.00434801923211
0.00304744160627
0.000616491549661
0.000616423895577
0.00304582482042
0.00434606077016
0.00507083857652
0.00546333257547
0.00565400627441
0.00572882919807
0.00574568837739
0.00574109819984
0.00573516989871
0.00573610526877
0.00574386287649
0.00574999236793
0.00573410431379
0.00565958432052
0.00546848056836
0.00507476261121
0.00434868630383
0.00304754558875
0.00061647329953
0.000616407719211
0.00304574055721
0.0043459267191
0.00507071446404
0.00546328527547
0.00565408369423
0.00572902462441
0.00574601730417
0.00574157343625
0.00573577633056
0.00573682889944
0.00574469212595
0.00575086501594
0.00573493823281
0.00566033308996
0.00546911053396
0.00507522462467
0.00434900409704
0.00304776747193
0.000616479331862
0.000616421140412
0.00304576364516
0.00434541914952
0.00506989882085
0.00546275467034
0.00565467586079
0.00573145143448
0.00575058903281
0.00574800534174
0.00574331856076
0.00574456383824
0.00575167397089
0.00575621744096
0.00573819171105
0.00566168597338
0.00546923726678
0.00507487713423
0.00434886106076
0.00304804011593
0.000616505524611
0.000616410836412
0.00304472914591
0.00434193862023
0.00506437106905
0.00545646834488
0.00564943822551
0.00572891546035
0.00575160243292
0.00575223472167
0.00574944896764
0.00575089796118
0.00575646281853
0.00575796496536
0.00573633204155
0.00565692735779
0.00546318577779
0.00506926019423
0.00434539711982
0.00304703798342
0.000616493934612
0.000616219653825
0.00303908628866
0.00432809370279
0.00504325364591
0.00543092508127
0.00562265957814
0.00570393963021
0.00573017826448
0.00573439164761
0.00573378942336
0.00573536587417
0.00573894563077
0.00573690740337
0.0057115736889
0.00563007695379
0.00543718535929
0.0050476620373
0.00433118185738
0.00304117585459
0.000616291300862
0.000615415637244
0.00301983740075
0.00428683408312
0.00498341212513
0.00535848811193
0.00554366549157
0.0056235652738
0.00565158951706
0.00565844543718
0.00565957308721
0.00566110004821
0.00566280970739
0.00565793567358
0.00563058037433
0.00555013027882
0.00536339378486
0.00498691157492
0.00428927466487
0.00302154265137
0.000615471141896
0.000612889887712
0.00296700323125
0.00418353348089
0.00484076148576
0.0051889320069
0.0053590253937
0.00543237844092
0.00545911588838
0.00546677794081
0.00546868740849
0.00546995223738
0.0054703387361
0.00546419076691
0.00543783740633
0.00536368601657
0.00519249148491
0.00484322060732
0.0041852644574
0.00296828976379
0.000612929791347
0.000606108124761
0.00284136581238
0.00395543532478
0.00453997184579
0.00484103007695
0.00498412456629
0.00504461530939
0.00506670680936
0.00507327601603
0.00507505182087
0.00507596353831
0.0050757753718
0.00507011547247
0.00504830356438
0.00498727011399
0.00484334231201
0.00454154677793
0.00395660088987
0.00284231390162
0.000606138199887
0.000589871227839
0.00256901679138
0.00349255035086
0.0039555607422
0.00418388205593
0.00428751995481
0.00432923586674
0.00434366153171
0.00434776357778
0.00434884639494
0.0043494381894
0.00434940078296
0.00434592350605
0.00433159605734
0.00428952484714
0.00418536790822
0.00395662096752
0.00349340406833
0.00256974788296
0.000589895752439
0.000554436315547
0.00198467078061
0.0025689731391
0.00284139877325
0.00296717908109
0.00302023777226
0.00303977285438
0.00304575394339
0.00304714875677
0.00304746730352
0.00304783634256
0.00304818630158
0.00304721607789
0.00304133201866
0.00302163971636
0.00296832155974
0.00284230519049
0.00256973063105
0.00198529018363
0.000554451520368
0.000490418445583
0.000554449520794
0.000589894072507
0.000606136531303
0.000612923534343
0.000615456139545
0.000616267463696
0.000616466132634
0.000616483220883
0.000616474853448
0.000616488425196
0.000616518095987
0.000616507542973
0.000616303215258
0.000615479233272
0.000612934184035
0.000606140006159
0.00058989639252
0.000554451655232
0.000490422831919
0.000492316431988
0.000564656899459
0.000606028183696
0.000625823271911
0.000634541368421
0.000637986099543
0.000639151991797
0.000639449424432
0.00063947212451
0.000639448453572
0.000639456673155
0.000639489642566
0.000639463512557
0.000639154132114
0.000637974567829
0.000634519632508
0.000625795507366
0.000605999233939
0.000564636403685
0.000492310384101
0.00056466743987
0.0021528147446
0.00284013986237
0.00317540932761
0.00333742119883
0.00340899499022
0.00343635917744
0.00344473736761
0.00344641479127
0.00344660412298
0.00344704966456
0.00344755403056
0.00344617856389
0.00343770012334
0.00340996288694
0.00333792326281
0.00317549837279
0.00283997569815
0.00215258212763
0.000564660077147
0.000606037954679
0.00283991557721
0.00395328326147
0.00453758529939
0.00483852322289
0.00498128792966
0.00504111939435
0.0050622011687
0.0050679446252
0.00506922930044
0.00507001825807
0.00507007994012
0.00506517123119
0.00504431754239
0.00498417117978
0.00484070890003
0.00453887575878
0.00395372287136
0.00283979357871
0.000606035027484
0.000625830481632
0.0031750992825
0.00453737828446
0.00528520809266
0.00568666629434
0.00588544788252
0.00597259302368
0.0060045204415
0.00601331955266
0.00601511698074
0.00601622289944
0.00601638849347
0.00600903254166
0.00597794001375
0.005890850621
0.00569125002326
0.00528834965935
0.00453889959886
0.00317533544318
0.000625835622478
0.000634550202641
0.00333712261136
0.00483803692339
0.0056861511499
0.00615371554986
0.00639072821099
0.00649572081237
0.0065331838343
0.00654192469893
0.00654270014127
0.00654400167685
0.00654557946014
0.0065386899827
0.00650257122269
0.0063982231782
0.00616064494202
0.0056913029764
0.00484083287111
0.00333790209498
0.000634564945741
0.000638003200103
0.0034087744439
0.00498045506736
0.00588414017366
0.00638962284945
0.00664729849237
0.00675939985885
0.00679557741301
0.00680007426157
0.006797814093
0.00679925662009
0.00680417548239
0.0068018543596
0.00676734844949
0.00665624210186
0.00639832350575
0.00589101860943
0.00498450144363
0.00341022099371
0.000638029680377
0.000639180313249
0.00343619788416
0.00503990027972
0.00597033639274
0.00649321858818
0.00675780176783
0.00686779376681
0.00689652951363
0.00689295708047
0.00688587333624
0.00688739464606
0.00689733936325
0.00690331864316
0.0068764437909
0.00676762381534
0.0065030211557
0.00597840892297
0.00504501817357
0.00343834888609
0.000639222579882
0.000639483361575
0.00344447837142
0.00506054984338
0.00600145308222
0.00652952150726
0.00679258478907
0.00689500457837
0.00691297653083
0.00689956229188
0.00688696833655
0.00688849295837
0.00690402484075
0.00691999798456
0.00690395922075
0.00680275950747
0.00653982962966
0.00601032741615
0.00506648646661
0.00344727651601
0.000639544566151
0.000639499110293
0.00344582771781
0.00506574311152
0.00600956039893
0.00653750978481
0.00679617981974
0.00689036027774
0.00689841389139
0.0068764952165
0.00685930590444
0.00686078213103
0.00688089189336
0.00690546730766
0.00689937368483
0.00680639143464
0.00654798133254
0.00601892040774
0.00507229265435
0.00344917512701
0.000639582083821
0.000639456962863
0.00344553801194
0.00506637710147
0.0060107249214
0.00653774002541
0.00679329534844
0.00688249484691
0.00688497811836
0.00685852370009
0.00683892323164
0.00684043560132
0.00686305498014
0.00689226772392
0.00689171729347
0.00680362264357
0.00654837685737
0.00602051120377
0.00507350055788
0.0034493922315
0.000639566394726
0.000639440973563
0.00344551047089
0.0050665471631
0.00601123380256
0.00653856918832
0.00679422290936
0.00688337425863
0.00688585481506
0.0068595236554
0.00684011331581
0.00684184199476
0.00686464362137
0.00689392835249
0.00689332157727
0.00680508484872
0.00654965892745
0.00602160708036
0.00507433465069
0.00344992413356
0.00063958218763
0.000639456650688
0.00344570113586
0.00506618324356
0.00601098661272
0.00653986274954
0.00679881904647
0.00689288510833
0.00690098198408
0.00687948633389
0.00686289800978
0.00686499481964
0.00688557214937
0.00691026739155
0.00690391739367
0.00681043720191
0.00655144800114
0.00602183691812
0.00507450522192
0.00345059404344
0.000639621846071
0.000639425172609
0.00344424714053
0.00506115294793
0.00600345340996
0.00653284942074
0.0067963346722
0.00689865080219
0.00691684867765
0.00690429689768
0.00689279337064
0.00689530509197
0.00691147518021
0.00692747692233
0.00691083767878
0.00680864503259
0.00654464024117
0.00601417295319
0.00506935001987
0.00344915977884
0.000639591554565
0.000639119317463
0.00343592808924
0.00504055380381
0.00597244139604
0.0064966451996
0.00676168021964
0.00687167407538
0.0069009501449
0.00689875282567
0.00689328040526
0.00689613764177
0.00690686052222
0.00691275402241
0.00688489131979
0.00677451144209
0.00650828837842
0.00598237035492
0.00504777848033
0.00344030581915
0.000639264068929
0.000637948691207
0.00340856463144
0.00498102404691
0.00588592557685
0.00639250677435
0.0066506467861
0.00676296411333
0.00680004864814
0.00680634230858
0.00680606620424
0.00680906019823
0.00681481161181
0.00681225740958
0.00677638257496
0.00666317883759
0.00640311575096
0.0058942445251
0.00498668956907
0.00341205091427
0.000638060753001
0.000634506635243
0.00333704120417
0.00483844313154
0.00568744552195
0.00615586694716
0.00639348037275
0.00649899577282
0.00653764344207
0.00654831250814
0.00655107427542
0.00655382863077
0.00655607087898
0.00654869089833
0.00651088362777
0.00640408649232
0.0061643405239
0.00569347538128
0.00484241074087
0.00333958275534
0.000634587858467
0.00062579679805
0.00317515372451
0.00453759162435
0.00528589875173
0.00568796899207
0.0058875119961
0.00597558407614
0.00600888513351
0.00601936154995
0.00602270955267
0.00602483599892
0.00602529380919
0.00601714145678
0.00598431189328
0.00589519731688
0.00569378373086
0.00528979074218
0.00454017376004
0.00317693869655
0.000625857184548
0.000606012493886
0.00284006877114
0.00395332955918
0.00453775199762
0.004839013928
0.00498239343929
0.00504319592367
0.005065529289
0.00507253033209
0.00507481906406
0.00507623185068
0.00507646336147
0.00507102269333
0.00504897375439
0.00498735767017
0.00484266562239
0.00454021543141
0.00395507296859
0.00284136889887
0.000606059490072
0.000564651657304
0.00215291737467
0.00283999377705
0.00317517075271
0.00333730332475
0.00340929282252
0.00343734566446
0.00344654367432
0.00344898608096
0.00344976715349
0.00345058969752
0.00345131812834
0.00344981084588
0.00344078110733
0.00341230111642
0.0033396454901
0.00317690672576
0.00284132733229
0.0021539212842
0.00056467980249
0.000492305503145
0.00056466791293
0.000606040869714
0.000625832103017
0.000634550137273
0.000638006049847
0.000639195611053
0.000639524395403
0.000639579014488
0.000639583419894
0.000639609928832
0.000639651267322
0.000639617727487
0.00063928328016
0.000638071552122
0.000634592197501
0.000625858307211
0.000606059933983
0.000564679958083
0.000492310687549
0.000492968745384
0.000568619917435
0.000612846628553
0.000634602643715
0.000644507927256
0.00064856570819
0.000649984893252
0.000650352347431
0.000650377623783
0.000650353324356
0.000650382710412
0.000650450940556
0.000650442153858
0.000650069159639
0.000648631496662
0.000644548211465
0.000634610807733
0.000612824169559
0.000568589728154
0.000492963921245
0.000568630614952
0.00222601654963
0.00296729619783
0.00333999088306
0.00352573516244
0.00361030125466
0.00364331832056
0.00365328527942
0.00365497415505
0.00365515347714
0.00365625892211
0.00365788181864
0.0036571941359
0.00364739858422
0.00361389806204
0.00352843140867
0.00334154522488
0.00296771534414
0.00222568457693
0.00056861630054
0.000612858785687
0.0029669989139
0.00418470935376
0.00484459125933
0.00519574656527
0.00536806648116
0.00544262833224
0.00546931833361
0.0054762784315
0.0054778451437
0.00547969084185
0.0054813888858
0.00547690726618
0.00545189165949
0.00537786646487
0.00520460343002
0.00485111793074
0.0041880662687
0.00296747739203
0.000612867054499
0.000634607096532
0.00333938142436
0.00484376983084
0.00569668535038
0.0061694311796
0.00641107307906
0.00651944159828
0.00655857771406
0.00656782867657
0.00656898191884
0.00657113579797
0.0065739200606
0.00656806299337
0.00653205039175
0.0064260211327
0.00618458922045
0.00570900881958
0.00485097409377
0.0033412403534
0.000634656554998
0.000644501049971
0.00352469069251
0.00519327986545
0.00616696435327
0.00671991251191
0.00700686352719