/*--------------------------------*- C++ -*----------------------------------*\
| =========                 |                                                 |
| \\      /  F ield         | OpenFOAM: The Open Source CFD Toolbox           |
|  \\    /   O peration     | Version:  3.0.1                                 |
|   \\  /    A nd           | Web:      www.OpenFOAM.org                      |
|    \\/     M anipulation  |                                                 |
\*---------------------------------------------------------------------------*/
FoamFile
{
    version     2.0;
    format      ascii;
    class       volScalarField;
    location    "0.5";
    object      alpha.air;
}
// * * * * * * * * * * * * * * * * * * * * * * * * * * * * * * * * * * * * * //

dimensions      [0 0 0 0 0 0 0];

internalField   nonuniform List<scalar> 
7968
(
2.19031909345e-37
5.95373922397e-34
3.92335353884e-33
7.3665772228e-33
1.44116225895e-32
1.8890383109e-32
2.03782367513e-32
1.64735279476e-32
1.10322430835e-32
6.28858442691e-33
4.55216169925e-33
7.22859265689e-33
1.33383549205e-32
2.32947730549e-32
2.83128091177e-32
2.5054103365e-32
1.97879660048e-32
1.09037678118e-32
2.2795226618e-33
1.05760125056e-36
6.38398683011e-34
1.48362042629e-32
5.41260744261e-32
1.34586168269e-31
2.30634492154e-31
3.59149133004e-31
5.12994445367e-31
6.96676683802e-31
7.75991483801e-31
8.15456354313e-31
8.15403272266e-31
8.25097576673e-31
8.49186295378e-31
8.79384643888e-31
7.34389289681e-31
5.31996132873e-31
3.58389893654e-31
1.75178113624e-31
5.26776344615e-32
2.19824698531e-33
3.74211350542e-33
5.85480969632e-32
1.84960624931e-31
3.61988248672e-31
7.4041835424e-31
1.9050390771e-30
4.47042168862e-30
5.84746926415e-30
4.79961947664e-30
3.1730875465e-30
2.93731261296e-30
3.87951425831e-30
3.99076470128e-30
3.53140593136e-30
2.25329327247e-30
1.5495274907e-30
9.39283648149e-31
5.50207493574e-31
1.78374108574e-31
1.01636805527e-32
8.06652250232e-33
1.3217435471e-31
3.33782729727e-31
1.06064226201e-30
5.57269376175e-30
1.69205405266e-29
1.98140195455e-29
1.32921650672e-29
5.46701462386e-30
1.73293855094e-30
1.25446612097e-30
1.81461620516e-30
3.06072283125e-30
5.13656445301e-30
6.27648211667e-30
4.38995550998e-30
1.87871259384e-30
8.58183006406e-31
3.11443179742e-31
1.63343119421e-32
1.19786438178e-32
1.99882347349e-31
7.38555523379e-31
5.6731972641e-30
2.66577805157e-29
4.72392376838e-29
1.46841596811e-29
9.61088020534e-31
5.77505906038e-32
1.6492039554e-32
5.33267661326e-33
5.81644595547e-33
1.25479069327e-32
1.5017396468e-31
4.63013507682e-30
6.36205882531e-30
3.86544261257e-30
1.24427974205e-30
3.68497096884e-31
1.50514964969e-32
1.37475516385e-32
2.59097364072e-31
1.71409603047e-30
1.60683528893e-29
4.93321882836e-29
8.33563051727e-30
6.96918301461e-32
4.05775031949e-33
7.66956295848e-34
3.63942589315e-34
1.56397267562e-34
4.05714359958e-35
3.86740179334e-35
4.00647622805e-34
9.36605492644e-33
2.92000250579e-30
4.07913977657e-30
1.50042881101e-30
3.67554885874e-31
1.01152928477e-32
1.11228709842e-32
3.33320381132e-31
3.47397002583e-30
1.98114169959e-29
1.39026496161e-29
4.15742593961e-32
2.55180109816e-34
7.73172963489e-35
2.26194582473e-34
8.94790998798e-35
9.63998384403e-35
6.65322204907e-35
1.96253876504e-37
3.1070194238e-36
2.78355031509e-35
8.50203058565e-33
1.58982271215e-30
1.35488911371e-30
3.03815767627e-31
2.89030218506e-33
6.53712479586e-33
3.68399764054e-31
4.45447928453e-30
1.08670348392e-29
3.8974783858e-31
1.55584094192e-33
2.39750139859e-35
7.27465781011e-34
1.41197438098e-34
7.52469796178e-34
4.33652753939e-34
1.40322338628e-36
7.89957756959e-36
2.61983701984e-38
5.12184721192e-37
1.7144435516e-34
1.26695576732e-31
7.55211716165e-31
1.87862379091e-31
5.52379704174e-35
2.73063737582e-33
3.50626846594e-31
3.09559966754e-30
3.17417840052e-30
1.16157266458e-32
1.3690105134e-34
1.79893742129e-34
2.14599086556e-34
1.67418486556e-36
3.51093843664e-36
1.92033750647e-36
5.38759387634e-38
2.6999818035e-36
5.28476904278e-39
8.62754286397e-38
9.48004230926e-36
4.55845777402e-33
2.22023320454e-31
8.85852478763e-32
5.49053103273e-37
7.61713354777e-34
3.51407107687e-31
2.10132729415e-30
7.51682369438e-31
2.23982603276e-33
1.0040609169e-34
1.93607506182e-34
3.05401495037e-34
1.48077036472e-36
1.05384152385e-38
5.02750671669e-39
9.38962246194e-37
1.55522188239e-35
3.09555975876e-36
7.85313719393e-37
2.99999678392e-36
1.20904997028e-33
8.13057945398e-32
5.10649264429e-32
4.52373078177e-40
4.53533605021e-34
3.17704880166e-31
1.4839495801e-30
3.82689008909e-31
1.05236198846e-33
3.00960860401e-35
1.2226828108e-34
3.87785636366e-34
1.41828664406e-36
2.79200156138e-39
4.68361563654e-41
1.88201128645e-38
7.4430734927e-36
4.97984047262e-37
5.86072162975e-37
1.63947241005e-36
6.06643359186e-34
4.61390115071e-32
3.64406402791e-32
3.44950209049e-43
9.28765191248e-34
3.51799636224e-31
2.19831986242e-30
7.04527720151e-31
1.75979433418e-33
3.03743178084e-35
3.16264299564e-35
1.12154155466e-36
4.00821359618e-38
3.68795982245e-37
1.42871553043e-38
3.5273524895e-39
1.58088486257e-38
9.98963291551e-39
1.13216568755e-37
2.29584510509e-36
8.93245982333e-34
8.23372057155e-32
4.24750550608e-32
8.04079274184e-39
3.30958706803e-33
3.85425421938e-31
2.71614220699e-30
1.81733527651e-30
4.79455377321e-33
1.49910539225e-35
6.17134077795e-38
4.93309549691e-36
3.23317158196e-36
2.83440780789e-34
5.45872261159e-36
6.7945539497e-38
1.13814734748e-37
7.46657031298e-39
3.15388167922e-38
1.56997392018e-35
5.13469870126e-33
2.17746264088e-31
7.36671260613e-32
3.26133653273e-37
7.78114962544e-33
4.28489458599e-31
2.90110398414e-30
5.5370633717e-30
1.42496281067e-31
3.93396817511e-34
1.84062303008e-36
9.40662806275e-38
3.4773147535e-39
1.2668481287e-36
3.72351051487e-37
1.043139812e-38
7.06443921224e-39
2.92547168321e-38
1.34498875888e-36
4.4165609938e-34
9.5836391563e-32
4.12959312234e-31
1.18653991594e-31
3.86192458987e-35
1.1936017149e-32
3.83245814052e-31
1.90695469433e-30
7.37060189416e-30
4.57881543606e-30
1.62163875089e-32
6.32661407982e-35
1.31614838018e-36
3.99017255062e-38
3.84371823485e-37
2.72118002141e-37
2.360969902e-37
3.97588020952e-38
9.8588224621e-37
9.20213373149e-35
1.10133663429e-32
7.57855859041e-31
5.78534556493e-31
1.71757047552e-31
1.51818233618e-33
1.38163151421e-32
3.05585185595e-31
1.09280418609e-30
4.08890595895e-30
9.08028272511e-30
4.32427443149e-30
1.68195072139e-32
3.47073290717e-34
1.38937612122e-35
4.01621947389e-36
1.93358045057e-36
2.92300512716e-36
1.59477675275e-35
2.14943467572e-34
8.13768979845e-33
6.48556198786e-31
1.17261006452e-30
6.05141254156e-31
2.10136195373e-31
5.04639102357e-33
1.08135170887e-32
2.15076034225e-31
5.70807945709e-31
1.31683008562e-30
3.79956150732e-30
5.19741174047e-30
2.09704422361e-30
2.21562921206e-31
6.57723202523e-33
1.66200569611e-33
7.04145107442e-34
1.06954249849e-33
4.00070354743e-33
6.66699469301e-32
6.38724532712e-31
1.04788088367e-30
8.03641937659e-31
5.08274135162e-31
2.14048064705e-31
6.78733277211e-33
6.22211875935e-33
1.24886171565e-31
3.43332329426e-31
5.38853500109e-31
9.43618138887e-31
1.42054058416e-30
1.48659142255e-30
9.04483072352e-31
2.86222685364e-31
1.18399792977e-31
7.220043052e-32
1.02861620757e-31
2.06132779188e-31
3.98905390982e-31
5.335343338e-31
5.48697250566e-31
5.07658260034e-31
3.28552687193e-31
1.30103593207e-31
5.26116688896e-33
1.26672509972e-33
3.63336359507e-32
1.26652624756e-31
2.1012463766e-31
2.72939824926e-31
2.94042000219e-31
2.71879935029e-31
1.75776285204e-31
9.79344542324e-32
5.98827064484e-32
4.64242019024e-32
4.64532786311e-32
6.6626869549e-32
1.09599576081e-31
1.78644634592e-31
1.96812947131e-31
2.0550185413e-31
1.36213116712e-31
4.19819395769e-32
1.17288334862e-33
2.62951318143e-37
1.26185856073e-33
6.24038822228e-33
9.92815922712e-33
9.79961689486e-33
6.84504187985e-33
2.29541602499e-33
4.7344593148e-35
3.80893549523e-37
3.03846927318e-40
3.94680954858e-43
3.64224315051e-41
1.74114624764e-37
2.89927732417e-35
1.39011788026e-33
4.80453790949e-33
6.91051363866e-33
5.46897389633e-33
1.18075825037e-33
1.20422433037e-38
1.38932135466e-32
9.70356157404e-30
5.18625157376e-29
1.02291548812e-28
2.233960865e-28
3.6138441662e-28
5.19125532091e-28
6.39507890316e-28
7.37629308332e-28
8.01733170799e-28
7.59248667364e-28
7.18400463619e-28
7.34159997999e-28
7.66163943892e-28
6.36260255035e-28
4.33472878509e-28
2.84087997822e-28
1.45201124962e-28
3.64411964083e-29
7.93922493257e-32
1.03843121075e-29
1.31539370212e-28
4.07443705228e-28
9.94840456617e-28
1.80405782948e-27
3.02666353483e-27
4.68930382936e-27
6.85927088532e-27
8.23436462155e-27
9.1322470312e-27
9.09884536566e-27
8.89183393283e-27
8.49487554474e-27
7.96784192159e-27
6.20426397961e-27
4.1587730786e-27
2.59480722682e-27
1.26463571921e-27
4.40455543229e-28
3.48327200313e-29
4.89485974422e-29
4.38604733018e-28
1.18387539589e-27
2.2640581697e-27
4.58741112642e-27
1.12335284646e-26
2.57633306853e-26
3.61767861771e-26
3.25158244692e-26
2.31392975183e-26
2.17828750811e-26
2.77165429596e-26
2.65188320789e-26
2.1617025007e-26
1.37053154319e-26
9.55838348542e-27
5.76166433139e-27
3.37054903249e-27
1.27879217022e-27
1.34152774354e-28
1.10620241074e-28
9.78203260966e-28
2.09588144568e-27
5.88183968038e-27
2.79651959462e-26
9.14089173691e-26
1.23742806544e-25
1.03815023661e-25
5.37931790232e-26
2.22400548808e-26
1.72910242629e-26
2.13801176211e-26
2.88707992986e-26
3.86923755322e-26
3.93227570708e-26
2.43741925298e-26
1.0886157757e-26
5.30780250488e-27
2.2682664876e-27
2.39831533287e-28
1.87963593145e-28
1.56491780166e-27
4.45192978308e-27
2.84209353301e-26
1.42976524993e-25
3.59851452376e-25
1.92284209622e-25
4.05983839847e-26
5.34814490435e-27
2.14755738978e-27
5.95957590578e-28
5.27387378179e-28
9.73149789833e-28
4.94655079321e-27
5.24816571608e-26
4.39275436129e-26
2.23317135491e-26
7.85934008354e-27
2.97024379041e-27
2.82110555071e-28
2.66666159512e-28
2.19794953897e-27
9.96876998395e-27
8.81586031273e-26
3.81680041651e-25
1.65314439702e-25
7.05659294477e-27
5.62554247323e-28
2.3139681516e-28
1.37092433274e-28
5.03952229715e-29
1.07733717005e-29
4.66898057552e-30
1.91754408627e-29
4.36875672753e-28
3.84500588991e-26
2.92536783243e-26
9.97463628821e-27
3.33882640688e-27
2.83528439539e-28
2.98151700537e-28
3.07247210982e-27
2.07543310524e-26
1.29450281298e-25
1.9277237321e-25
3.29607598077e-27
4.41994999865e-29
2.19040910541e-29
4.26994454976e-29
1.72628843547e-29
1.66084520146e-29
1.06835562504e-29
3.29177075443e-32
3.80457605078e-31
2.93079114897e-30
4.19946447808e-28
1.6331616763e-26
1.03581203188e-26
3.19441393383e-27
1.85424713871e-28
2.79834570074e-28
3.69365960362e-27
2.92904201031e-26
9.06778800558e-26
2.11451186055e-26
2.21559093884e-28
8.01013328409e-30
1.5510772093e-28
2.82886458527e-29
1.29298957797e-28
7.20591524942e-29
2.93468386042e-31
1.15905901521e-30
3.66889755584e-33
6.56731678679e-32
7.83478725082e-30
2.09940566419e-27
7.08029503256e-27
2.43645708523e-27
7.87362585341e-29
2.47769976748e-28
3.85527909452e-27
2.2708342644e-26
3.59181725736e-26
1.21251404412e-27
3.32141285162e-29
3.68727184412e-29
5.77352680048e-29
3.43423522916e-31
6.30733259046e-31
3.1050591529e-31
7.42392307316e-33
3.65927290398e-31
7.80008106671e-34
1.2453424926e-32
5.47676014292e-31
1.89074229549e-28
2.53090703925e-27
1.43219987814e-27
1.02113415382e-29
2.33462651936e-28
4.0785338835e-27
1.65049513795e-26
1.18255959974e-26
2.04260551847e-28
2.49383624358e-29
3.95514082499e-29
7.53820014692e-29
3.97971817185e-31
2.31623984704e-33
8.20422270918e-34
1.27229233465e-31
3.14815404593e-30
3.96634958933e-31
1.12751218145e-31
3.10714119809e-31
7.47808593359e-29
1.03746631431e-27
9.6153843013e-28
1.96735260283e-30
1.92337083715e-28
3.74980981104e-27
1.21404798993e-26
6.76382776507e-27
7.38247934549e-29
8.24325517643e-30
2.50441070358e-29
8.94580956375e-29
3.48240364363e-31
6.76278858919e-34
8.23663910085e-36
2.96277815306e-33
9.12907963551e-31
6.74455260171e-32
7.31340765566e-32
2.13990247945e-31
3.99696474758e-29
6.46608747941e-28
7.2822270407e-28
9.89583453734e-31
2.13286590441e-28
4.05435295509e-27
1.73234056173e-26
1.06419434621e-26
1.33233937614e-28
8.63178267827e-30
7.18948549724e-30
3.44001327975e-31
6.41707836783e-33
4.55530958962e-32
2.68231075327e-33
4.37272815585e-34
1.61741381387e-33
2.31386034121e-33
1.2582719561e-32
2.40367751966e-31
5.45927750128e-29
1.09077796498e-27
7.87937275469e-28
1.46191784729e-30
2.43265295063e-28
4.11052117993e-27
1.98332657849e-26
1.94256693511e-26
3.82465615436e-28
2.58307942364e-30
1.55014052515e-32
1.32807712647e-30
4.74708325661e-31
3.14403297383e-29
6.61651043791e-31
8.89347009203e-33
1.27254845952e-32
7.49353087527e-34
7.4499727708e-33
2.13337497874e-30
2.05493274713e-28
2.60373081459e-27
1.17360648891e-27
6.19456835237e-30
2.92501087007e-28
4.13334763886e-27
1.92738075644e-26
4.52937348649e-26
5.52433027009e-27
2.84547567231e-29
4.64728636266e-31
2.2306659626e-32
4.94111674257e-34
1.5476561896e-31
4.62253316263e-32
3.96635121033e-33
6.29822887068e-34
8.02933280547e-33
3.55268034059e-31
4.90825086384e-29
1.44258234422e-27
4.1938588642e-27
1.5693614398e-27
4.59763260039e-29
2.89341959646e-28
3.37030579174e-27
1.20881317562e-26
4.95783742855e-26
5.00147385976e-26
1.03852712974e-27
7.2135438694e-30
4.30451172589e-31
6.7980510523e-33
1.45672768501e-31
9.92308343753e-32
5.19719182308e-32
1.21272466405e-32
3.78112441502e-31
1.67947195528e-29
4.09210701316e-28
8.15319882459e-27
4.92559589215e-27
1.91544991082e-27
1.09704520741e-28
2.51921165339e-28
2.44531022641e-27
6.82763952606e-27
2.37635948673e-26
6.54679052341e-26
5.68852289463e-26
9.16485971586e-28
2.78732393261e-29
8.59550767275e-31
3.44277540241e-31
2.47019751367e-31
3.30578776448e-31
2.81303572921e-30
2.13843683991e-29
3.05267137508e-28
7.4839640594e-27
9.22849355571e-27
4.56991919794e-27
2.01852144996e-27
1.55940234792e-28
1.64745597652e-28
1.60879937407e-27
3.57078285014e-27
7.76484907013e-27
2.25400731487e-26
3.86787859537e-26
2.14092016759e-26
3.64001654332e-27
2.74142072982e-28
9.87143098403e-29
4.86715430252e-29
6.17981518704e-29
1.59726730496e-28
1.01783865006e-27
6.95323747863e-27
8.28581182098e-27
5.64021563011e-27
3.60736709519e-27
1.81412506629e-27
1.45660071856e-28
8.81264584706e-29
9.29017399484e-28
2.17009910645e-27
3.40344078893e-27
6.06691832189e-27
9.80653120984e-27
1.17199125106e-26
8.50598650849e-27
3.26983437809e-27
1.49788812181e-27
9.80846119887e-28
1.35745005907e-27
2.45832689574e-27
3.99534367051e-27
4.4934605634e-27
4.15176519186e-27
3.57235833511e-27
2.33603698702e-27
1.08484971529e-27
9.49943448183e-29
2.18637566023e-29
3.15950509568e-28
9.33924435701e-28
1.57261207163e-27
2.22229432041e-27
2.70729442949e-27
2.88961065708e-27
2.2720399751e-27
1.51881583193e-27
1.05969434667e-27
8.77542143222e-28
8.48003242472e-28
1.05783123203e-27
1.44037113552e-27
1.93388657102e-27
1.87654186445e-27
1.73681612695e-27
1.11991419795e-27
4.10056729257e-28
2.63468936894e-29
2.66807701706e-32
2.14714658129e-29
8.71496749189e-29
1.53992978846e-28
1.91647213136e-28
2.01094099398e-28
1.50705762222e-28
7.28951569288e-29
1.10561260934e-29
2.53530879386e-30
1.07272528113e-30
1.29107620865e-30
6.55140470419e-30
4.31681175781e-29
1.00289660998e-28
1.4669772507e-28
1.45998925281e-28
9.79498534566e-29
2.6375028598e-29
1.17724154377e-32
2.78363202822e-28
6.42085145449e-26
2.78990540438e-25
5.53287909734e-25
1.26676178266e-24
2.34405760182e-24
4.0413385086e-24
6.22245485706e-24
8.89956844051e-24
1.14029257587e-23
1.12488043513e-23
9.68713533297e-24
8.25494346523e-24
6.7476112802e-24
4.51055160707e-24
2.59337887158e-24
1.50920888974e-24
7.49634840559e-25
2.26265222552e-25
1.73669340926e-27
6.86282379547e-26
5.37441422325e-25
1.43938328291e-24
3.399809302e-24
6.45952693518e-24
1.16117067994e-23
1.94002865451e-23
3.04654724633e-23
3.92294549818e-23
4.55589528736e-23
4.52586876742e-23
4.29337436812e-23
3.81185906083e-23
3.25183485539e-23
2.37636233026e-23
1.48667637092e-23
8.66508032245e-24
4.23413395997e-24
1.67711833774e-24
2.17875934895e-25
2.61583823015e-25
1.53993397054e-24
3.64827617768e-24
6.80866882944e-24
1.35785207182e-23
3.11395798042e-23
6.7704441129e-23
1.01630280932e-22
1.00767470106e-22
7.83261747691e-23
7.53391089973e-23
9.14859419564e-23
8.07961942475e-23
6.06001154169e-23
3.91472708476e-23
2.8189121409e-23
1.70533724185e-23
9.9259534214e-24
4.2648385411e-24
6.99272981757e-25
5.90117997506e-25
3.34653451791e-24
6.32115153027e-24
1.55221149659e-23
6.29323059439e-23
2.14111056853e-22
3.30686826092e-22
3.52244020845e-22
2.69182491824e-22
1.50949132793e-22
1.25753573021e-22
1.38979417009e-22
1.2589699637e-22
1.29621007728e-22
1.09731230285e-22
6.16759062413e-23
3.00414801809e-23
1.57750203045e-23
7.63275592216e-24
1.31022236191e-24
1.08417425843e-24
5.60829041193e-24
1.27293726095e-23
6.35301134468e-23
3.23801734773e-22
1.12557723037e-21
1.2121066818e-21
9.82050129503e-22
4.36842846689e-22
2.94977533474e-22
1.14978410801e-22
1.10645581387e-22
9.8356756087e-23
1.05152823905e-22
2.69806611022e-22
1.33565526786e-22
5.8717882379e-23
2.35920307897e-23
1.0925989213e-23
1.81131662495e-24
1.75454046719e-24
8.46390132055e-24
2.69996431683e-23
2.0888839417e-22
1.21121128341e-21
1.63532961728e-21
3.75128449915e-21
6.14605324208e-21
5.22670922748e-21
3.41107326049e-21
2.24122076038e-21
1.20567191953e-21
3.68492038069e-22
1.53802095561e-22
5.36817849536e-23
2.34814681661e-22
9.39293779292e-23
3.09910262106e-23
1.36936091921e-23
2.33111741563e-24
2.41488797383e-24
1.27390482021e-23
5.61754941694e-23
3.60303919108e-22
1.1821271341e-21
2.84182687063e-21
6.4498529689e-21
2.04484638689e-20
3.44446268353e-20
2.48444091509e-20
2.13677833586e-20
1.74026607403e-20
3.51348945247e-21
1.08458141363e-21
1.12809666333e-22
2.29833973985e-23
7.8056746757e-23
3.6792847367e-23
1.50813323291e-23
2.2954604597e-24
2.92745827607e-24
1.6602874044e-23
8.69280525835e-23
3.24519076628e-22
7.55073631839e-22
5.64997716336e-21
1.66986569096e-20
8.81460178379e-20
6.46562288135e-20
1.00073043647e-19
7.09111959643e-20
3.05401824762e-20
1.64904038054e-20
1.26111409976e-21
1.00396148167e-22
4.14577322462e-24
2.0850314212e-23
3.14446898121e-23
1.40891146314e-23
1.93622099522e-24
3.44811529352e-24
1.89015108012e-23
7.59558905682e-23
2.08605330819e-22
1.96379419564e-22
2.99751662907e-21
2.81170333164e-20
5.42899166675e-20
1.15781478182e-21
8.72400214297e-22
7.72875802392e-22
4.13920320413e-22
1.01030525871e-20
1.3060753823e-21
1.44971911496e-22
1.47634005263e-25
4.64315170359e-24
1.43798678612e-23
1.03705976083e-23
1.24828598322e-24
4.14584831628e-24
2.09621479264e-23
5.9839295067e-23
1.00901217232e-22
7.49344145965e-23
2.28818022948e-21
2.74188686496e-20
7.98549337897e-20
7.91778604696e-22
4.72824751747e-24
3.56170380062e-24
3.75110654365e-22
4.70339201631e-20
6.52094347305e-21
1.99991141049e-22
1.79979293097e-25
2.70725544837e-24
7.32220068253e-24
8.2499844963e-24
6.94449950131e-25
3.78660715114e-24
1.96712735523e-23
4.62615876266e-23
6.50014993347e-23
2.64515924268e-23
1.33918659985e-21
2.62352923384e-20
7.20969174371e-20
6.49211784678e-22
2.31375813801e-24
1.05979299337e-24
3.01082555741e-22
3.57458398668e-20
5.00875564856e-21
1.05788802081e-22
1.81361304951e-25
1.63876697966e-24
5.24200306323e-24
6.76955558549e-24
4.05987411873e-25
3.5952205986e-24
2.08037618789e-23
6.34206594462e-23
8.94591248544e-23
5.677086057e-23
1.61891637873e-21
2.43693446873e-20
2.37375632054e-20
2.11018936236e-22
2.70690936349e-22
1.74364326445e-22
2.4177077275e-23
1.3889587105e-21
2.40385034713e-21
4.85890323842e-23
1.63884503911e-25
2.15297994198e-24
8.04703492637e-24
6.69044681763e-24
4.66668136725e-25
3.15581372939e-24
1.96863317353e-23
6.6846679085e-23
9.79207257721e-23
7.19194864792e-23
6.56852074871e-22
5.11500431562e-21
2.52170142565e-20
8.7835622119e-21
3.49790898278e-20
3.09711365929e-20
2.76294712667e-21
7.42326604447e-21
4.26259896866e-21
3.88375841724e-23
1.25783560373e-24
4.65650211168e-24
1.60195788033e-23
8.36595356586e-24
7.26765733384e-25
2.82811909078e-24
1.79765112983e-23
5.89731740219e-23
1.64183153795e-22
1.36639589781e-22
5.32537265744e-22
3.38981950948e-21
5.50172218215e-21
8.8295646192e-22
6.14020742551e-21
3.88294520852e-21
2.89169817678e-21
2.62246109817e-21
1.02454057848e-21
8.00602495043e-24
4.70346724483e-24
1.3908662417e-23
2.07565655032e-23
9.25455616023e-24
1.16479154542e-24
2.18533802627e-24
1.34373835653e-23
3.59581543015e-23
1.49266516776e-22
2.38380841448e-22
1.37352349896e-22
3.1096438565e-22
5.89394681554e-22
2.99011074665e-23
1.22141221882e-22
6.12339749289e-23
4.92377456564e-23
4.16937694364e-23
8.97628001021e-24
4.59197149008e-24
9.16284906644e-24
4.25355156249e-23
1.99441327752e-23
9.54927763675e-24
1.41591142476e-24
1.57274069327e-24
8.93477102626e-24
2.03746802891e-23
6.2817448292e-23
2.07571393015e-22
3.4314719024e-22
4.8244048724e-23
1.0825500551e-23
4.02301816504e-25
4.09342844984e-25
2.65006375406e-25
2.91769199239e-25
1.05692521621e-24
2.17250063609e-24
6.98522177684e-24
4.11477309216e-23
3.40485268358e-23
1.64116735811e-23
8.77461030369e-24
1.37812364151e-24
9.28857112505e-25
5.54900828102e-24
1.0774063244e-23
2.17808442602e-23
6.07395813479e-23
1.29377926808e-22
9.91222188034e-23
3.54075216833e-23
6.7236820311e-24
3.40848006444e-24
2.05117217575e-24
2.17765790288e-24
3.77605309049e-24
1.00413298139e-23
3.6828970041e-23
3.07496772299e-23
1.88179284775e-23
1.22847566632e-23
7.05486180434e-24
1.0471124808e-24
4.83268512242e-25
3.20039396747e-24
6.5997378898e-24
1.03354043765e-23
1.85445328089e-23
3.16500988645e-23
4.29731928194e-23
3.78551336471e-23
1.8685433073e-23
1.03191442111e-23
7.78744171438e-24
9.77683765185e-24
1.50460908647e-23
1.93717082288e-23
1.79849405855e-23
1.49313839998e-23
1.20664595142e-23
7.98617334311e-24
4.18258033645e-24
6.2485697265e-25
1.45472067209e-25
1.25072987824e-24
3.20758927562e-24
5.43128826429e-24
8.24871663209e-24
1.12677387247e-23
1.37498649311e-23
1.30436995883e-23
1.04814820163e-23
8.45786514106e-24
7.5865226886e-24
6.98079885289e-24
7.48093851474e-24
8.40288687827e-24
9.349227342e-24
8.09900729684e-24
6.73827426312e-24
4.26327314614e-24
1.80567040985e-24
2.10655157103e-25
7.15428214132e-28
1.43894251257e-25
4.79311285321e-25
8.83253878665e-25
1.27238008024e-24
1.70797200893e-24
1.87646513542e-24
1.7365681824e-24
1.18986602566e-24
7.58398446074e-25
4.44517162852e-25
4.79857538547e-25
7.34413909282e-25
1.05781613535e-24
1.28816458022e-24
1.28582747101e-24
1.03570674242e-24
6.40377836631e-25
2.09732277303e-25
1.03683657166e-27
2.88811516042e-24
2.37791249998e-22
8.29749671652e-22
1.60239488124e-21
3.68013340883e-21
7.40056423101e-21
1.43990598276e-20
2.55103510786e-20
4.08553962979e-20
5.66162663435e-20
5.67453370559e-20
4.68905321344e-20
3.64428249124e-20
2.57304543374e-20
1.49647074526e-20
7.69336494354e-21
4.14838874413e-21
2.07274807509e-21
7.56936095981e-22
1.7165869804e-23
2.53381389908e-22
1.2896585155e-21
3.00687485928e-21
6.77427173819e-21
1.33042767511e-20
2.52146412135e-20
4.47420915722e-20
7.42558519846e-20
1.00933429833e-19
1.20703653853e-19
1.19617061534e-19
1.10827665775e-19
9.26383686628e-20
7.30464071127e-20
5.10072656213e-20
3.03190898999e-20
1.67420202275e-20
8.24508093603e-21
3.68233639224e-21
7.3638415265e-22
7.75406350073e-22
3.19552662349e-21
6.75149541055e-21
1.22969852675e-20
2.39329937737e-20
5.03058395231e-20
9.84969425955e-20
1.54152433011e-19
1.68546291647e-19
1.44652527702e-19
1.42734834707e-19
1.64395202413e-19
1.3366900789e-19
9.34675101377e-20
6.44185342509e-20
4.92230546872e-20
3.02076619848e-20
1.74598488506e-20
8.27500767877e-21
1.95396590099e-21
1.6853479107e-21
6.66956035801e-21
1.14433729682e-20
2.45021633424e-20
7.86857790419e-20
2.62663746756e-19
4.47803769065e-19
6.13666530506e-19
8.2319056602e-19
6.4165331027e-19
5.85179615424e-19
5.99918622006e-19
3.45635609903e-19
2.3656973604e-19
1.6731861344e-19
8.80710631976e-20
4.92986520495e-20
2.80052894456e-20
1.48747030103e-20
3.67572527156e-21
3.20122613925e-21
1.15591011348e-20
2.15759786708e-20
7.8266100185e-20
3.73338478927e-19
1.64264128716e-18
4.58823947391e-18
9.51080641382e-18
1.01583823288e-17
1.15335041952e-17
7.24900319494e-18
7.16997235962e-18
4.71332202352e-18
1.9704442292e-18
8.54805573372e-19
2.22072104492e-19
8.71513449548e-20
4.17647979352e-20
2.28871417948e-20
5.66235533149e-21
5.62942132356e-21
1.84285223428e-20
4.20754690853e-20
2.57558035898e-19
1.78302065535e-18
7.57130334712e-18
2.57284818172e-17
3.85211529848e-17
4.33108035653e-17
4.25482798162e-17
3.64385575349e-17
2.45924866671e-17
1.42449258043e-17
1.2066501476e-17
3.36276024819e-18
9.0199665557e-19
1.65952114095e-19
5.53226823745e-20
3.13175777236e-20
8.58274307231e-21
8.88773383562e-21
2.92891681974e-20
8.30473454429e-20
5.00995354402e-19
4.09142946196e-18
2.24262037978e-17
2.80128427429e-17
5.20025733377e-17
8.41440914772e-17
7.98400481112e-17
7.63049152702e-17
6.32164854973e-17
2.36235343866e-17
1.60823503118e-17
1.19119630002e-17
2.18199155245e-18
2.16453892028e-19
7.31808440887e-20
3.88815936725e-20
1.0925702777e-20
1.26339489981e-20
4.06902976208e-20
1.37394202584e-19
5.5628271457e-19
9.06906030956e-18
3.84232175866e-17
4.63436323356e-17
1.26146214583e-16
1.10104185613e-16
1.82687516871e-16
1.47928718285e-16
8.30494586744e-17
5.55282024254e-17
2.01848241024e-17
1.25086151574e-17
3.51321776657e-18
1.53718270424e-19
7.80900674489e-20
4.31924653446e-20
1.29146549718e-20
1.75696220218e-20
4.97033699823e-20
1.35147371326e-19
7.49017443057e-19
9.10372565237e-18
3.32727398114e-17
7.5398697275e-17
9.66544314274e-17
5.91146227928e-18
5.55890083175e-18
8.57218363928e-18
3.67411059663e-18
4.35885590481e-17
2.12180309158e-17
1.7221167053e-17
2.41815769585e-18
1.08136158145e-19
4.73620693625e-20
3.87624910725e-20
1.340930612e-20
2.36247457002e-20
5.69345400013e-20
1.1639974625e-19
5.75527151749e-19
7.40333887599e-18
3.61586005317e-17
8.79232015404e-17
1.40000244509e-16
5.55915192041e-18
5.87001192035e-20
1.04049167958e-19
5.91203477948e-18
1.49467309512e-16
5.7795964642e-17
2.56014597368e-17
2.67693628142e-18
1.01014813727e-19
3.08209685671e-20
3.5568605953e-20
1.29463826789e-20
2.26789242985e-20
5.4601546845e-20
9.5672757689e-20
4.15573556249e-19
5.71027381203e-18
3.07603844755e-17
9.41317847273e-17
1.45688982081e-16
7.6351882523e-18
6.4943044795e-20
8.17077805023e-20
5.29367892435e-18
1.33840412227e-16
4.92039716453e-17
2.14843360099e-17
2.76282209635e-18
7.89119943309e-20
2.58883170144e-20
3.1632289949e-20
9.79137652261e-21
2.01547191288e-20
5.68544323987e-20
1.25617383529e-19
5.19151862278e-19
6.73329411156e-18
3.10112971602e-17
8.62905248998e-17
6.93272878509e-17
1.93375646068e-18
3.78537283874e-18
3.1490287706e-18
7.4175885872e-19
1.8186528827e-17
2.59433407809e-17
1.13490917032e-17
2.01161857899e-18
1.43131070413e-19
3.68266777684e-20
2.86989773453e-20
8.157913268e-21
1.55023456712e-20
5.10237510079e-20
1.21762801941e-19
3.01951102518e-19
5.56641374431e-18
2.05121270068e-17
3.34609693086e-17
7.54883098534e-17
3.63637309897e-17
1.10464723127e-16
1.17562057483e-16
2.10250382106e-17
4.45738125643e-17
3.88783191438e-17
1.34535632148e-17
2.45439465965e-18
1.24664320946e-19
5.83809166456e-20
3.05869169719e-20
7.73824804764e-21
1.16219544053e-20
4.30440092248e-20
9.91147892159e-20
3.11539980428e-19
2.36564650037e-18
2.21799297795e-17
3.23939864281e-17
3.82849457506e-17
2.09889854977e-17
5.69639947052e-17
4.23513385955e-17
2.94516253545e-17
3.01104906329e-17
2.49893392432e-17
1.03591368336e-17
1.67858249677e-18
1.07432326312e-19
5.87541219009e-20
2.8863504724e-20
7.87683506606e-21
7.6618554172e-21
3.00122044814e-20
6.12360960526e-20
2.43312408623e-19
6.33738417059e-19
5.47676443209e-18
1.66838443312e-17
2.41001228407e-17
1.43751114746e-17
2.72207300818e-17
2.23329338872e-17
1.39582599268e-17
1.75719440274e-17
1.06282156754e-17
3.33250027965e-18
2.65570364811e-19
1.34170896654e-19
4.603484513e-20
2.58515297992e-20
7.00112697912e-21
4.83220447056e-21
1.86034336777e-20
3.59287605307e-20
9.28604155596e-20
3.53843703091e-19
1.27647924338e-18
2.35905068178e-18
3.9972807235e-18
3.57210396404e-18
2.72547219371e-18
3.10139992335e-18
2.0508848837e-18
2.58334656117e-18
1.35596419614e-18
2.34924470527e-19
1.38285248844e-19
7.20788942618e-20
3.42012287259e-20
2.1230190867e-20
5.44035713781e-21
2.70951708456e-21
1.10620869416e-20
1.94415459677e-20
3.62165040117e-20
9.14973023062e-20
2.36259224976e-19
2.46896577626e-19
2.3502077347e-19
1.51618909925e-19
1.15513533128e-19
9.42906208009e-20
9.85212721782e-20
1.17623726005e-19
8.62359690582e-20
1.17373117685e-19
6.55135434142e-20
3.67227511752e-20
2.46459015423e-20
1.55987940307e-20
3.65171203502e-21
1.41985514914e-21
6.40360902707e-21
1.19837728033e-20
1.87499139607e-20
3.33948253001e-20
5.83745032926e-20
8.74304677295e-20
9.29717767943e-20
6.08512206674e-20
4.26516356589e-20
3.7543655743e-20
4.3701288912e-20
5.37295803397e-20
5.32348839933e-20
4.09321707784e-20
3.11572501668e-20
2.40327568568e-20
1.61239686254e-20
9.24736506161e-21
2.09932244521e-21
5.20837387198e-22
2.85240491135e-21
6.40505143968e-21
1.08385546044e-20
1.74146923905e-20
2.61156894781e-20
3.55898289951e-20
3.95131835746e-20
3.70901346832e-20
3.37071542066e-20
3.25255535166e-20
2.86264339749e-20
2.70203310551e-20
2.58288547727e-20
2.45609886691e-20
1.94824907352e-20
1.48712974693e-20
9.32539553782e-21
4.49567334503e-21
8.52091138932e-22
8.41527070745e-24
5.18205683942e-22
1.41075601406e-21
2.59569810298e-21
4.10587668311e-21
6.44836489434e-21
8.94143349479e-21
1.13187154222e-20
1.18089030008e-20
1.16091434105e-20
9.56219629807e-21
7.84524293625e-21
7.37036847858e-21
7.03669515922e-21
6.33085663416e-21
5.04172860917e-21
3.56711528262e-21
2.13639136816e-21
8.44740022685e-22
1.77856261162e-23
1.79493445013e-20
5.51347950431e-19
1.51999106837e-18
2.77560307108e-18
6.10224122499e-18
1.27260367381e-17
2.64923798205e-17
5.06930038881e-17
8.52466013716e-17
1.21290724992e-16
1.21799127368e-16
9.95347086165e-17
7.46261248801e-17
4.84663790905e-17
2.61155307648e-17
1.2627307052e-17
6.56289016498e-18
3.42367998555e-18
1.52159816139e-18
9.3124740548e-20
5.84808550254e-19
1.97334258025e-18
3.9928324569e-18
8.39985009208e-18
1.66849268762e-17
3.24007880221e-17
5.92485592924e-17
1.00914401055e-16