/*--------------------------------*- C++ -*----------------------------------*\
| =========                 |                                                 |
| \\      /  F ield         | OpenFOAM: The Open Source CFD Toolbox           |
|  \\    /   O peration     | Version:  3.0.1                                 |
|   \\  /    A nd           | Web:      www.OpenFOAM.org                      |
|    \\/     M anipulation  |                                                 |
\*---------------------------------------------------------------------------*/
FoamFile
{
    version     2.0;
    format      ascii;
    class       surfaceScalarField;
    location    "0.5";
    object      alphaPhi;
}
// * * * * * * * * * * * * * * * * * * * * * * * * * * * * * * * * * * * * * //

dimensions      [0 3 -1 0 0 0 0];

internalField   nonuniform List<scalar> 
22672
(
2.38417550917e-44
2.46170658149e-44
-2.90478380307e-39
3.2960279245e-40
7.93218651913e-41
-5.62397831349e-36
4.0410531138e-39
5.81825131543e-40
-3.26855329313e-35
1.02273916544e-38
1.29980535752e-39
-5.60863966984e-35
2.26442581241e-38
3.15587377243e-39
-9.74327889369e-35
3.00765033689e-38
5.15190518425e-39
-1.16706452334e-34
2.96342525383e-38
6.49719793554e-39
-1.13150771292e-34
1.93019227619e-38
5.83961256723e-39
-7.78440412559e-35
8.62856283005e-39
4.05036309899e-39
-3.66219508874e-35
2.2940388263e-39
2.22391139264e-39
-7.78485569432e-36
5.13274406836e-41
1.55789397745e-39
-1.17672360024e-36
-4.59234801863e-39
2.56907687807e-39
-1.47275317737e-35
-1.53775075263e-38
4.75651822389e-39
-5.03419013086e-35
-2.46983370362e-38
7.76117473909e-39
-1.10860511074e-34
-2.3720621698e-38
8.44608533987e-39
-1.54294730151e-34
-1.70888824102e-38
6.40548451281e-39
-1.51338989774e-34
-6.89739237251e-39
4.38779294362e-39
-1.2971441612e-34
-6.73884579699e-40
2.23138478458e-39
-7.8040636628e-35
5.73493590986e-41
4.33385464214e-40
-1.81779653438e-35
1.95935889609e-43
-1.20146945711e-38
7.80828142794e-41
3.6183182233e-40
-6.00261656227e-36
8.37793883615e-39
8.78253355307e-39
-1.17355082271e-34
5.62357050283e-38
3.4070712549e-38
-3.88417680357e-34
1.88226441405e-37
9.23971974122e-38
-8.76836062012e-34
3.69007098544e-37
1.78321705348e-37
-1.3906553954e-33
5.80625643197e-37
3.12168823076e-37
-1.95374321038e-33
7.50611920112e-37
4.85369790287e-37
-2.438435684e-33
8.19726350823e-37
6.9808599043e-37
-2.80707979917e-33
6.26173319278e-37
8.05575387568e-37
-2.67463680995e-33
3.26180798839e-37
8.6080838255e-37
-2.51620952435e-33
-4.31783306015e-39
8.6025040155e-37
-2.40723170475e-33
-3.26044134716e-37
8.59266059826e-37
-2.59540210202e-33
-6.15163774337e-37
8.59010299253e-37
-2.98723054944e-33
-6.75786471816e-37
8.48522896428e-37
-3.51247923579e-33
-5.30999818771e-37
6.67729545036e-37
-3.45657293857e-33
-3.26135544307e-37
4.48545979981e-37
-2.84528117572e-33
-1.16168731323e-37
2.76505530768e-37
-2.07212424611e-33
-1.62464833152e-38
1.2739622105e-37
-1.10001332776e-33
7.66112363346e-40
3.66454904804e-38
-3.59890302111e-34
1.53153817135e-39
-1.75652758419e-35
5.04646783013e-40
3.93478403731e-39
-3.07314483592e-35
3.49724670328e-38
6.30927106591e-38
-4.15655914259e-34
2.03047805022e-37
2.10511667506e-37
-1.20071869983e-33
5.32094029781e-37
4.44016663049e-37
-2.11848273646e-33
1.21254483309e-36
9.74958459971e-37
-3.61145453063e-33
3.04514884622e-36
2.65132185804e-36
-6.93421759324e-33
6.33333294982e-36
6.52730733363e-36
-1.2011339887e-32
6.64438841171e-36
8.92227430793e-36
-1.25193155629e-32
3.71266454252e-36
7.53300535061e-36
-8.29763437448e-33
1.17899975564e-36
5.04971704262e-36
-4.72293254246e-33
-1.23391081624e-37
4.68777304327e-36
-4.26072675226e-33
-1.62996547832e-36
6.13519744705e-36
-6.28772910674e-33
-2.55536973716e-36
6.18604824218e-36
-7.8143614497e-33
-2.14706402551e-36
5.31040864585e-36
-8.55400503962e-33
-1.63619816677e-36
3.27880859795e-36
-7.29108944061e-33
-9.23824895793e-37
2.17606759292e-36
-6.61876669841e-33
-3.97584786332e-37
1.25851052077e-36
-4.86162436947e-33
-6.21671465174e-38
6.99301643066e-37
-3.10946373628e-33
-1.99101537962e-40
2.18196181771e-37
-1.10415393578e-33
1.23485847426e-38
-7.21928269191e-35
1.30169721266e-39
1.13962598189e-38
-5.97673487964e-35
8.68367135265e-38
1.91174021691e-37
-8.55225478837e-34
3.95619656616e-37
5.06967782147e-37
-1.95279942916e-33
1.61774891252e-36
1.66298454071e-36
-4.70709227064e-33
9.20223428066e-36
9.05530138348e-36
-1.69674295185e-32
2.76199463216e-35
2.90424761247e-35
-3.89316230892e-32
2.88064372479e-35
3.5499198283e-35
-3.20357245443e-32
1.52820351026e-35
2.44330279623e-35
-1.24252556893e-32
4.14149645556e-36
1.01357374266e-35
-8.88364200489e-34
6.01019560753e-37
3.27715154975e-36
1.20296657788e-34
-1.15637153262e-37
2.37399077393e-36
2.08045284338e-34
-1.36799389756e-36
3.37580840854e-36
1.50011783621e-34
-3.99829651305e-36
5.68254722072e-36
-2.01757154199e-33
-6.34994471256e-36
9.44466988117e-36
-7.25703761083e-33
-4.869177558e-36
1.1285616691e-35
-1.33518841187e-32
-1.98261923745e-36
7.64289902866e-36
-1.25472083662e-32
-6.92019465621e-37
3.21308664738e-36
-7.6240999049e-33
-1.25417402486e-37
1.43357391106e-36
-4.37029723009e-33
-5.41726450897e-40
5.03471974453e-37
-1.75617662236e-33
2.60922650926e-38
-1.04896002181e-34
2.4550075865e-39
1.93085842332e-38
-8.07601079087e-35
1.48447490114e-37
3.30040577744e-37
-1.19025479848e-33
9.35666716368e-37
1.23777982142e-36
-3.4485913292e-33
8.99711910526e-36
9.60999677243e-36
-1.72401760244e-32
4.62712303883e-35
4.71630512863e-35
-5.76800407928e-32
8.03498098633e-35
8.73704101083e-35
-7.1268651151e-32
2.13712360519e-35
2.71541181517e-35
-1.47599993603e-33
1.13356514337e-36
1.88496362038e-36
3.25031548096e-34
4.64041285368e-38
1.18325286256e-37
1.51251156169e-35
5.88034057942e-39
3.41666667136e-38
6.38397552226e-36
-5.26635196924e-40
1.10848459618e-38
1.51873694353e-36
-6.40289327437e-39
1.20283812434e-38
1.57187412876e-36
-1.24395702574e-37
2.55735939336e-38
3.06280380259e-36
-4.96121239278e-36
2.88521849635e-37
6.05784731366e-35
-7.55649307687e-36
8.88689137075e-36
-5.6972981684e-33
-4.35237765588e-36
1.20523925926e-35
-1.32960099833e-32
-1.10175595763e-36
7.15191121535e-36
-1.1169855226e-32
-1.75501643112e-37
2.29156272563e-36
-5.14002572473e-33
-1.09262897785e-39
6.74210263665e-37
-1.89644145207e-33
2.71603919393e-38
-8.78039457011e-35
3.4796267032e-39
2.26089882302e-38
-8.44878059067e-35
2.1506996086e-37
4.34243585694e-37
-1.39397720028e-33
2.30133060706e-36
2.83343974993e-36
-6.11840152925e-33
2.70471301824e-35
2.7042728364e-35
-3.82310191782e-32
8.98092697646e-35
8.62405234961e-35
-7.90872981083e-32
1.39846976007e-35
1.42051459363e-35
3.51419362566e-33
1.1051020246e-37
1.3089449861e-37
2.28179740194e-35
5.1275922955e-39
7.83006987765e-39
3.80977987973e-37
6.43103968619e-40
1.51255178115e-39
1.13128149133e-37
1.31772778893e-40
7.239624113e-40
1.28141936596e-37
-4.76984420106e-42
3.12722887575e-40
4.77485405285e-38
-2.11777788056e-41
8.1225447612e-41
9.44207162259e-39
-3.60154931524e-40
7.65316355908e-41
6.64605935128e-40
-1.09890439188e-38
7.76241679927e-40
4.48616956019e-39
-3.65626755409e-36
1.81666061878e-38
1.48380831934e-36
-4.92008054483e-36
5.39704031231e-36
-3.88898112379e-33
-1.43916048483e-36
7.48979977085e-36
-9.19702357973e-33
-2.01423667173e-37
2.72837358619e-36
-4.79593553532e-33
-1.166251923e-39
6.76380970124e-37
-1.63843087678e-33
1.84132926871e-38
-5.17378885553e-35
3.32858070398e-39
1.69193844997e-38
-6.22743375118e-35
3.00199649267e-37
5.11546270354e-37
-1.56345273361e-33
4.93556428867e-36
5.18511606874e-36
-9.7746995261e-33
3.49183799619e-35
3.01734832521e-35
-3.57043752515e-32
2.56128478037e-35
2.11527133188e-35
-5.63250371496e-33
7.75615793945e-38
6.83492052091e-38
6.6736670557e-36
4.23198148358e-40
4.333071229e-40
1.69253801603e-38
1.00759804128e-40
1.33805839501e-40
2.70138530059e-38
1.93337137691e-40
3.89168496841e-40
1.06198098331e-37
3.27168642394e-41
1.5602367655e-40
3.52727198315e-38
-8.62438697144e-42
1.68237590148e-40
2.91952409536e-38
-2.50000076861e-43
1.16338274285e-40
1.83173808975e-38
-2.99712979313e-42
3.66193488507e-43
3.82772984345e-41
-3.38885140029e-41
5.42911947533e-42
3.38425328839e-40
-1.14025773426e-38
4.87325673554e-41
7.29932843015e-40
-2.00917309185e-36
1.43109197402e-38
1.57599798024e-36
-1.38905862624e-36
2.63309972168e-36
-2.46015896908e-33
-1.84824226809e-37
2.23998367961e-36
-3.410643668e-33
-4.3967591628e-40
5.0976183084e-37
-1.12458994096e-33
4.76657350539e-39
-1.17527495223e-35
2.20117177692e-39
8.18384707499e-39
-3.17849239386e-35
3.53483771039e-37
4.6431542079e-37
-1.47291499518e-33
6.62951813571e-36
5.4611168718e-36
-1.03109536582e-32
1.97069707612e-35
1.34215459779e-35
-1.27679301622e-32
7.55224156454e-37
4.84792815138e-37
1.53282189055e-34
2.96126370143e-39
2.06445975458e-39
7.6072136958e-38
4.24767769266e-41
3.28201403976e-41
1.12769292894e-38
9.52735475488e-40
9.88593912756e-40
3.49551604737e-37
1.22153048957e-40
1.92344150696e-40
3.47429492877e-38
2.82812308968e-40
1.02595386459e-39
1.3364677515e-37
-7.76426431936e-43
5.97293388465e-40
5.38411544336e-38
-4.60781888749e-42
1.96513880259e-42
2.46459343059e-40
-5.49113704224e-44
1.12212525715e-41
1.17928704472e-39
-6.49191267812e-43
3.75043180659e-44
3.63279978828e-42
-2.35045654278e-40
7.35849156539e-43
5.42915474434e-41
-1.63465160756e-37
2.42322053812e-40
2.32011933494e-39
-8.09054072041e-37
1.66842295243e-37
-3.2783065247e-35
-1.22748987545e-37
1.02970331556e-36
-1.42185449663e-33
-1.1778706645e-41
2.61206772435e-37
-5.68419164419e-34
7.71131624896e-41
-2.25865859653e-37
9.58805426544e-40
2.37167366812e-39
-9.69528762382e-36
3.49223616528e-37
3.13526465872e-37
-1.19397645696e-33
4.74207111477e-36
2.68700061219e-36
-5.82138125589e-33
5.80911736424e-36
2.69243240472e-36
-1.18696769604e-33
2.35385472097e-38
1.04424888959e-38
2.28331632828e-36
2.66939105812e-40
1.26000450273e-40
2.28619550045e-38
3.03302924343e-40
1.67815110013e-40
1.02117187388e-37
2.81029742106e-40
2.00750626612e-40
8.25643754284e-38
1.45638286615e-42
1.58073130863e-42
6.48325604259e-41
1.38945664511e-42
3.32461803589e-42
3.94277735771e-40
-6.18986837969e-45
1.85200134041e-42
7.38851815147e-41
-1.51805386373e-42
5.27385576822e-44
3.5343803794e-43
-1.57117509778e-44
2.70271587066e-42
2.83293162295e-40
-1.11317329125e-43
2.48737533967e-45
1.11491058285e-42
-1.32343333088e-41
8.71227715446e-44
7.86830200926e-42
-6.30403104791e-39
9.62495263241e-42
-1.06517934761e-41
-2.43219297819e-37
4.39652878623e-39
1.3272538708e-38
-6.00347454287e-38
2.16677858227e-37
-2.54790954842e-34
-1.48526753699e-43
8.90000691337e-38
-2.00754843878e-34
5.91010443608e-43
-3.86598794204e-39
2.80644754384e-40
3.56243643579e-40
-2.03877466737e-36
3.55488072622e-37
1.70039295548e-37
-1.03384664221e-33
3.26155459671e-36
9.6622006281e-37
-3.23888547088e-33
1.4007848762e-36
3.26316144694e-37
4.34391969404e-35
4.57918005505e-39
1.03262595601e-39
1.45678006287e-37
1.9769429319e-40
4.59229324114e-41
1.0673742933e-38
3.27316488033e-40
8.94843514731e-41
1.04634477459e-37
3.99987230862e-40
1.42242740284e-40
1.01437844733e-37
1.2957987182e-42
7.14627876881e-43
3.85581005607e-40
4.3607322417e-45
5.25293921014e-45
1.44931722818e-42
-6.83759067622e-44
2.59292858334e-45
2.75309559783e-43
-8.3717827282e-42
4.91430868819e-43
1.11476779851e-40
-3.01172116847e-42
8.3328212493e-42
2.18903514034e-39
-1.03092748781e-42
1.69168299999e-42
6.99741273747e-40
-4.25428796488e-42
4.30706314234e-43
7.05443822691e-41
-1.72214910013e-39
1.68587156084e-42
4.31223504453e-41
-9.01915895315e-38
6.57405717643e-40
4.25838853569e-38
-3.50807034387e-38
4.4576485769e-38
-4.23966191902e-35
-3.2809659481e-46
2.95540062835e-38
-8.08318640158e-35
2.621293096e-46
6.75407008811e-47
1.75539342586e-40
4.15801502271e-41
-1.48914891054e-36
3.22983059259e-37
2.2952856625e-38
-8.9141714334e-34
2.31468744554e-36
6.94998198697e-38
-2.18107813272e-33
7.24203195188e-37
6.14858564444e-39
-1.11588483255e-35
2.156830781e-39
1.05415500938e-42
5.15411561473e-38
5.96796869742e-41
-6.02362276778e-43
9.46161455262e-40
2.07939049808e-40
-1.01939936414e-42
6.30721547334e-38
5.11294549066e-40
2.3125670532e-42
1.24051922455e-37
1.26059193491e-42
2.30074917211e-44
8.20039761478e-41
1.20362780972e-45
-1.44391056526e-45
2.73696131783e-43
-9.21629883544e-46
-1.17140056489e-46
1.16529472015e-45
-3.89781742293e-42
9.80326423083e-46
7.38729455762e-43
-4.9932990119e-43
4.0023745862e-43
9.30795452009e-40
-7.60829793569e-43
2.95300116726e-44
7.04698114156e-41
-2.33739142116e-42
3.93601906665e-44
2.83196774995e-41
-8.70330499826e-40
1.46283082098e-43
3.7517834857e-41
-5.13629010781e-38
6.12274929158e-41
-3.75459575108e-39
-2.50121611729e-38
6.06056154554e-39
-1.63942379812e-35
-2.53604885147e-46
6.0291517934e-39
-4.91153913569e-35
6.42689313966e-50
4.50641603817e-50
3.10042232678e-40
-8.838731142e-40
-1.05008629592e-36
3.5455242059e-37
-1.20422191538e-37
-1.07524502444e-33
3.40506040945e-36
-9.20677894138e-37
-3.64101846899e-33
1.3097694348e-36
-6.77706316631e-37
-5.5629551252e-35
3.59608118955e-39
-2.04413066719e-39
1.0785055393e-37
5.99354458521e-41
-6.97208418551e-42
1.74715453438e-39
5.39063370435e-41
-1.4834490975e-43
1.87686316627e-38
1.50292650858e-42
-2.40251840107e-42
5.13472520491e-40
3.6364298767e-44
-1.51482539966e-42
5.39426565713e-43
1.63671619279e-43
-1.26372789491e-40
8.17012837652e-43
-1.88621061075e-46
-2.35909568473e-42
1.21718237251e-43
-8.28752116005e-45
-2.96291237167e-44
5.06745787788e-43
-9.5369296088e-45
-4.9762310288e-44
2.36203352443e-42
-1.45534838653e-43
-3.21826430452e-45
-3.0292357567e-42
-3.23677439901e-42
-1.25386833614e-44
9.01098482377e-42
-1.25860912587e-39
-5.52770202985e-42
-7.12338396882e-41
-9.02447049145e-38
-1.576475588e-39
1.08227991619e-38
-2.8541901777e-38
-5.6530844521e-38
-5.586775435e-35
-2.61693916115e-45
-1.62133060681e-38
-6.97450568407e-35
-6.09497031407e-44
-5.00846594583e-41
1.14055284913e-39
-4.57783621948e-39
-1.23085591479e-35
3.79502025319e-37
-2.73680084687e-37
-1.34677798151e-33
4.14652479296e-36
-1.93462577719e-36
-5.54605796212e-33
3.32768398256e-36
-3.96812805634e-36
-1.15111180984e-33
9.71731291556e-39
-1.085583725e-37
8.60697446058e-37
2.92824650927e-41
-3.2691141298e-40
1.09523216412e-39
1.14607638007e-43
-1.62888257582e-42
1.51761964437e-41
6.69607565902e-42
-1.06655793868e-43
1.87881306275e-39
2.81834107029e-42
-1.9391559344e-44
4.21804661947e-40
1.27372057409e-40
-2.6420688142e-42
5.32506170224e-38
-9.18916385366e-45
-3.54205023657e-43
8.743437343e-40
-5.99658701502e-44
-9.4238726113e-45
7.9441484677e-42
-7.34603675768e-45
-6.62436159456e-45
1.64236894277e-41
-3.86437919976e-44
-2.47052186834e-44
-7.57570379025e-43
-2.17269314878e-41
-1.05669355909e-42
4.81915738571e-43
-6.92422706749e-39
-3.21100963227e-40
1.16360972672e-39
-2.33141974379e-37
-6.14371067832e-38
2.30624283485e-37
-4.78312777269e-38
-2.50535464153e-37
-2.93076265771e-34
-8.40917387948e-44
-6.64267437062e-38
-1.67483988101e-34
-1.90240363728e-41
-2.37560959548e-39
2.50512380756e-39
-9.59329278787e-39
-3.73069867294e-35
4.03228384022e-37
-3.31400186934e-37
-1.73386849884e-33
4.29588404989e-36
-1.72050672831e-36
-7.36606122231e-33
1.00400219352e-35
-7.11892744702e-36
-7.94821062844e-33
2.72962326953e-37
-4.64459095208e-36
4.11189086858e-35
7.48661753081e-40
-1.80742781569e-38
7.65206151554e-39
3.14032694971e-42
-7.39136172219e-41
-7.04101975249e-41
1.28122867388e-43
-1.60281114357e-42
2.96783459784e-41
1.59873934951e-45
-4.92028268563e-44
2.88087942796e-43
5.77658035247e-43
-4.86741885127e-43
1.68390123388e-40
-1.72505888873e-45
-3.4078744593e-43
5.26259983979e-41
-3.66500022549e-45
-2.91258876155e-43
-2.81614278896e-42
-2.67736972692e-44
-4.6968485087e-44
-6.07417800669e-43
-1.59591041088e-42
-1.12917942788e-42
9.14324613959e-42
-5.9281219974e-40
-9.86811637556e-41
-2.23024736758e-41
-1.19125903423e-37
-1.07495085498e-38
4.16318227811e-38
-4.25291190998e-37
-6.98213839099e-37
-4.06254589105e-35
-7.24203106296e-38
-4.99481423912e-37
-8.72645794011e-34
-7.20132731843e-42
-1.38874008795e-37
-3.57024147613e-34
-1.05598331294e-39
-1.38631186007e-37
3.40151421224e-39
-1.21403711399e-38
-6.49658655978e-35
3.36551815287e-37
-2.88592799563e-37
-1.79811325188e-33
2.71152129135e-36
-1.10323593091e-36
-6.23252651291e-33
1.30316436897e-35
-4.38674644593e-36
-1.62254075967e-32
8.5346120839e-36
-1.05069321068e-35
-4.40574740237e-33
3.02681550044e-38
-5.24101215509e-36
3.92865897723e-36
1.0577505296e-40
-2.20223194207e-38
4.94511067945e-40
1.78414768443e-42
-4.71742074974e-40
4.55079857453e-40
3.71204614478e-44
-1.92635849357e-41
-2.82577988419e-42
1.76721121801e-43
-5.63505535956e-42
-5.5770480014e-42
-7.94803134034e-45
-2.72596878775e-42
2.74339821152e-41
-1.88585365842e-44
-4.05909725323e-42
4.80117133504e-41
-8.43346625706e-43
-2.16675269979e-41
3.34850055433e-42
-1.03336911365e-40
-2.79513109234e-40
-2.04469720874e-41
-1.36319853823e-38
-9.75597633912e-39
1.76354125406e-38
-9.0656147788e-37
-7.29755140156e-37
1.45740376632e-36
-5.57716754696e-37
-1.23987688062e-36
-1.38163380807e-33
-9.45878484913e-38
-5.99315364115e-37
-1.64745565432e-33
-1.85881422268e-40
-1.93421558144e-37
-6.46485954784e-34
-4.14616455439e-39
-5.1065171843e-36
3.31654922049e-39
-8.72733891434e-39
-8.21203740198e-35
2.46871827271e-37
-1.86749142713e-37
-1.60136149421e-33
1.48110690766e-36
-5.39666567149e-37
-4.56737712142e-33
6.94906307694e-36
-1.35052894819e-36
-1.18807956516e-32
1.67282797839e-35
-4.20347839317e-36
-1.87172937029e-32
7.64265556301e-36
-6.22545181142e-36
-4.35261395774e-33
2.6912762181e-38
-2.63057884461e-36
4.86829690532e-36
4.60405025025e-40
-2.81703043594e-37
2.45946241441e-38
1.29013383705e-41
-9.03514116122e-39
1.59935182694e-40
1.91796699582e-42
-2.34986723876e-39
4.36831930988e-41
9.60593581271e-45
-1.00015951257e-39
5.65005622111e-41
-6.84658110634e-42
-1.48702504069e-39
2.97037023505e-41
-1.69371735129e-40
-5.2903910121e-39
2.0999172056e-39
-8.35503607548e-39
-8.14267131635e-38
3.11785129221e-38
-7.48446745264e-37
-7.54521990193e-37
1.44404377738e-36
-1.31455801496e-36
-1.15563399909e-36
-1.07598197188e-33
-5.35920620159e-37
-8.21533721527e-37
-3.13111312985e-33
-1.02144222145e-37
-4.81547916526e-37
-2.20320552335e-33
-4.28280958627e-40
-1.85817962363e-37
-9.3726256648e-34
-5.30551453254e-39
-2.39519257537e-35
2.22581548284e-39
-3.63054030539e-39
-7.13936469081e-35
1.5769377931e-37
-7.85620538585e-38
-1.23520916343e-33
7.31935222509e-37
-2.38672745202e-37
-2.91422302769e-33
2.16744168889e-36
-4.22876929848e-37
-5.28874756873e-33
6.78438249232e-36
-8.22870198857e-37
-1.09600444491e-32
9.17035292256e-36
-1.36326344092e-36
-1.16334622018e-32
3.27969715035e-36
-1.53280943821e-36
-2.86351945142e-33
2.7054858242e-37
-9.7396980941e-37
2.00676236443e-36
5.78652827887e-39
-3.15806948767e-37
6.88165024092e-37
7.6945312724e-40
-1.31447512937e-37
2.03672142909e-37
1.69057291322e-41
-8.00791217436e-38
5.96944189027e-38
-1.49973884734e-39
-1.12078770222e-37
6.8206127499e-38
-4.61959377007e-38
-2.19337829743e-37
4.68290954691e-37
-6.13075718589e-37
-4.06165388755e-37
-3.19528573846e-35
-1.13607698989e-36
-5.07755381456e-37
-1.21075947859e-33
-8.35065833415e-37
-4.79176639914e-37
-2.83051795747e-33
-4.08883366823e-37
-4.01583021609e-37
-2.88558643718e-33
-8.94124853248e-38
-2.36970801042e-37
-2.26576462759e-33
-3.45608232174e-40
-8.52951689338e-38
-1.06189124373e-33
-3.05191407093e-39
-3.84411229681e-35
1.16365199215e-39
-3.24509905841e-40
-4.4935631109e-35
8.52990931185e-38
-1.03506760385e-38
-7.74503052021e-34
4.15353993492e-37
-4.16405908085e-38
-1.94041788787e-33
8.59918933248e-37
-8.20072073473e-38
-2.72728777928e-33
1.66277932506e-36
-1.27293464922e-37
-3.88191597174e-33
2.47522367154e-36
-1.60958653599e-37
-4.6404331728e-33
2.33407250329e-36
-1.66367632116e-37
-3.79201107741e-33
1.15478364706e-36
-1.15778937348e-37
-1.68882023299e-33
2.55886790836e-37
-6.67870058185e-38
-3.35772778013e-34
5.63265255068e-38
-4.12948604069e-38
-6.90306254849e-35
4.66401405025e-39
-3.18858606846e-38
-2.98060653178e-35
-6.54573717006e-38
-3.1145460989e-38
-7.78440322384e-35
-2.60344254158e-37
-4.30446678779e-38
-2.95694719014e-34
-4.78901860141e-37
-6.60928837783e-38
-8.56946046728e-34
-5.57407961195e-37
-9.65435322327e-38
-1.52513454068e-33
-4.88933075816e-37
-9.38828989869e-38
-2.01298453262e-33
-2.41212111773e-37
-8.40320670244e-38
-2.24357678216e-33
-4.83761137118e-38
-4.91803010746e-38
-1.67988657127e-33
-1.70619401194e-40
-1.34713915987e-38
-7.23871576772e-34
-3.06986654534e-40
-3.33218283685e-35
2.18698760657e-40
6.06862309826e-41
-1.01777888532e-35
2.3674590701e-38
1.01574408078e-39
-2.46708690825e-34
1.46613637532e-37
2.25991701757e-40
-7.78031781329e-34
3.23141786656e-37
-2.81753751988e-40
-1.18109697531e-33
4.73821742896e-37
-6.6398255247e-40
-1.38120676268e-33
5.14063178053e-37
-7.90587969066e-40
-1.30791807994e-33
4.31324453946e-37
-3.53076822072e-40
-1.00785950553e-33
2.2858975555e-37
-1.00463773717e-41
-5.32605105468e-34
9.01002767222e-38
-1.00872672435e-43
-2.20311663953e-34
3.03205452252e-38
-4.36602095441e-46
-9.76626944394e-35
4.71765241091e-39
-3.55130984523e-46
-6.61926766084e-35
-1.83995557228e-38
-2.93341298274e-46
-8.1942658513e-35
-6.64246606419e-38
-4.21975939023e-44
-1.59108889252e-34
-1.50022542724e-37
-5.25081594612e-42
-3.36456267023e-34
-1.86163863059e-37
-1.64720125809e-40
-6.58246345695e-34
-1.82127632431e-37
-3.8903689276e-40
-8.75566913938e-34
-9.07798505548e-38
-3.16354118533e-40
-1.01830116059e-33
-1.39078717978e-38
-1.4109977506e-40
-7.45086694607e-34
-1.37297460164e-41
-7.80804048678e-42
-2.55212626151e-34
5.04329829401e-41
-8.17468301172e-36
4.52436011888e-44
-3.02794723854e-39
8.37582834947e-40
-1.01145011824e-35
7.2821510878e-39
-4.44999016129e-35
1.5221924562e-38
-6.39670251008e-35
1.69645764243e-38
-5.70551427835e-35
1.19100644394e-38
-3.48995184794e-35
3.58010239242e-39
-9.03833195265e-36
6.18926691505e-41
-1.82107457953e-37
3.68934909506e-43
-2.28850410311e-39
1.54190001285e-46
4.3752411256e-47
4.46011326201e-50
4.57550716481e-50
-4.3703579331e-44
5.11104897042e-48
-1.59896348969e-41
-1.00436047781e-39
-1.03432594186e-39
-1.03125748271e-37
-4.13520087835e-39
-4.85432010594e-36
-5.61274696145e-39
-2.2863844648e-35
-3.31098725671e-39
-3.8670695308e-35
-3.30458773749e-40
-3.44217370616e-35
3.58755565637e-41
-8.18221098473e-36
9.0437512226e-46
2.89712905298e-39
3.06060838147e-39
-1.73930912619e-34
6.5708078935e-36
2.84446615121e-36
-8.52090248171e-32
5.93925561108e-35
1.77052999469e-35
-3.97369370752e-31
1.53394811685e-34
4.02822803365e-35
-7.13222242428e-31
3.75097732948e-34
1.01130929725e-34
-1.37523707371e-30
6.14047219572e-34
1.87425017543e-34
-2.04682214826e-30
8.05391688036e-34
2.99835119121e-34
-2.69521345468e-30
8.0550876943e-34
3.97817154074e-34
-2.98211864393e-30
6.33468222087e-34
4.75731578137e-34
-2.93025045305e-30
3.35666886925e-34
5.21447770905e-34
-2.7500856014e-30
-1.02612719313e-35
4.9129384729e-34
-2.47220916467e-30
-3.10722513265e-34
4.61183831913e-34
-2.54835049102e-30
-5.86277437311e-34
4.60139723844e-34
-3.01441409537e-30
-6.32783773566e-34
4.55429497869e-34
-3.51217795399e-30
-4.6773165199e-34
3.50229953383e-34
-3.21908711622e-30
-2.82987748029e-34
2.16092536241e-34
-2.3984448659e-30
-1.10751415396e-34
1.27231494452e-34
-1.6965712159e-30
-1.51184549921e-35
5.90081329937e-35
-9.51052341449e-31
-2.1391262059e-39
1.29683903504e-35
-2.6713553311e-31
2.25506232095e-38
-8.36158759962e-34
2.81892571467e-36
7.30723340313e-36
-9.06280253579e-32
9.44523669761e-35
9.92500585036e-35
-9.56749204993e-31
4.72223025741e-34
3.34116525604e-34
-2.67115861171e-30
1.48799723923e-33
9.03236581477e-34
-5.88499933706e-30
3.04584043165e-33
1.84188098037e-33
-9.89419938554e-30
5.14152878757e-33
3.42669836904e-33
-1.50005191667e-29
7.20257042103e-33
5.73657529657e-33
-2.03218618289e-29
8.45419371756e-33
8.82251967489e-33
-2.51875765005e-29
6.91439599712e-33
1.09119023579e-32
-2.57611753453e-29
3.70536188445e-33
1.22396747006e-32
-2.53475420873e-29
-2.31534947007e-34
1.2162950655e-32
-2.42085849378e-29
-3.64598331676e-33
1.17652204459e-32
-2.52515856814e-29
-6.10385433601e-33
1.0959280006e-32
-2.694673939e-29
-6.23400742364e-33
9.86986183699e-33
-2.87323071002e-29
-4.56996656509e-33
7.30747983119e-33
-2.64459399624e-29
-2.6533876054e-33
4.56757381669e-33
-2.02086052459e-29
-1.00664286987e-33
2.61290062438e-33
-1.36335101144e-29
-2.05576614278e-34
1.17658118819e-33
-7.20550254837e-30
-4.70452594003e-36
3.82087169986e-34
-2.74536521543e-30
2.86157863052e-35
-2.55860629664e-31
1.55469410218e-35
5.78904626366e-35
-3.69763675518e-31
3.41915624886e-34
5.28185865175e-34
-2.84013150771e-30
1.45542753093e-33
1.5118277132e-33
-6.96556422285e-30
3.551345227e-33
3.14020354693e-33
-1.19961728106e-29
7.88324712151e-33
6.85751799842e-33
-2.01497217323e-29
1.86930681907e-32
1.76661798586e-32
-3.59636839966e-29
3.77378749663e-32
4.21506714028e-32
-5.75165207071e-29
4.23093638821e-32
6.14698415268e-32
-6.13364878635e-29
2.57237105553e-32
5.65997271342e-32
-4.21486770222e-29
8.61905722967e-33
4.06665334546e-32
-2.44618090198e-29
-1.25358543467e-33
3.82761553338e-32
-2.22160181418e-29
-1.15487971537e-32
4.83649005994e-32
-3.28778785372e-29
-1.65598710152e-32
4.55113646516e-32
-4.00146239363e-29
-1.38991048481e-32
3.61592674682e-32
-4.23310631892e-29
-1.08860371166e-32
2.23890761665e-32
-3.80643653489e-29
-6.29473374244e-33
1.51521667084e-32
-3.63265620781e-29
-2.92011215995e-33
8.70780274915e-33
-2.69122229759e-29
-6.81128025369e-34
4.7854191818e-33
-1.72370843347e-29
-2.5390700833e-35
1.73631294873e-33
-7.16835036547e-30
1.80314444951e-34
-8.68958020621e-31
4.06126031592e-35
1.70454727104e-34
-7.46448559334e-31
8.47683235193e-34
1.51454103046e-33
-5.73229883117e-30
2.80812434846e-33
3.39413050961e-33
-1.10873236891e-29
9.5894199056e-33
9.85209390511e-33
-2.32770473554e-29
4.79948573666e-32
4.82227770768e-32
-7.0640897338e-29
1.52956232766e-31
1.65400751784e-31
-1.63590680303e-28
1.829375521e-31
2.31665988965e-31
-1.4180894473e-28
1.20297646165e-31
1.96626532688e-31
-5.02018397915e-29
4.10400812251e-32
1.01797510456e-31
3.5608307911e-30
7.79337295902e-33
4.24503324607e-32
3.76128570516e-30
-1.33119544245e-33
3.30588889016e-32
2.85923053928e-30
-1.30228640409e-32
4.05088709175e-32
2.83247323036e-30
-3.0835196465e-32
5.44331882789e-32
-4.67278635292e-30
-4.13464775878e-32
7.36051501084e-32
-3.58624887809e-29
-2.86666201393e-32
7.4061492265e-32
-6.38548407732e-29
-1.26754350044e-32
4.48481476781e-32
-5.73263914997e-29
-5.12289836706e-33
1.98136635338e-32
-3.889109837e-29
-1.39418946751e-33
9.4473481236e-33
-2.43474564179e-29
-5.68121205588e-35
3.92103782028e-33
-1.16054286467e-29
4.14015958773e-34
-1.39230073415e-30
8.03302557018e-35
3.25830595489e-34
-1.14736165831e-30
1.52615341528e-33
2.72793024071e-33
-8.4475929345e-30
6.38255565188e-33
7.81090980591e-33
-1.86011528791e-29
4.77938653635e-32
4.99011246622e-32
-7.13222245744e-29
2.55199005331e-31
2.60149032018e-31
-2.34942169622e-28
6.1953824741e-31
6.76096990918e-31
-3.6085647724e-28
2.77132481414e-31
3.51827370147e-31
5.48546313452e-29
4.70483792483e-32
7.66139308217e-32
9.27032158289e-30
4.19155892021e-33
1.02649329242e-32
8.59706643836e-31
7.63855821436e-34
4.12284833589e-33
5.31019299093e-31
-3.83970443756e-35
1.1425575325e-33
2.73918423077e-31
-4.54401419031e-34
1.01000471388e-33
2.61137309245e-31
-3.91492050978e-33
1.85979364156e-33
3.93163480808e-31
-5.67797386718e-32
9.26290175229e-33
1.86068624885e-30
-5.43712460078e-32
1.01076793031e-31
-3.60134873583e-29
-2.73371136827e-32
8.51143307572e-32
-6.92760000333e-29
-8.27125056381e-33
4.27345383101e-32
-5.32268710834e-29
-2.0986998544e-33
1.513046847e-32
-2.8820075457e-29
-8.1887696155e-35
5.72822715906e-33
-1.38427633959e-29
5.45153351491e-34
-1.49165385966e-30
1.29790236233e-34
4.69809951184e-34
-1.4860547163e-30
2.37044438141e-33
3.87186812363e-33
-1.07185473933e-29
1.50738971182e-32
1.70764362573e-32
-3.09681439871e-29
1.56107472255e-31
1.51924860189e-31
-1.63543118686e-28
7.07055527031e-31
6.73880850319e-31
-4.13491421811e-28
2.76605026081e-31
2.81909302851e-31
6.20884505337e-29
1.05087242966e-32
1.23433345695e-32
3.54032539463e-30
6.73829090558e-34
1.00361323672e-33
1.43512935849e-31
1.83917744289e-34
4.08232114344e-34
-4.50568221815e-32
4.92629832576e-35
2.40707234133e-34
-2.14069359489e-32
-8.62905291851e-37
8.86367994513e-35
6.39884439329e-34
-2.3888868827e-36
1.92843766963e-35
8.87558422317e-34
-1.66434194558e-35
8.74672447831e-36
-1.29400684438e-34
-4.77632795841e-34
3.61675400287e-35
2.13061229821e-33
-4.86249043893e-32
7.98621671414e-34
1.46375996567e-31
-3.77194352782e-32
7.11291535026e-32
-2.95982146532e-29
-1.11769923512e-32
5.48075516284e-32
-5.10781423699e-29
-2.62012346436e-33
1.87811152726e-32
-2.73782757892e-29
-9.61441904595e-35
6.44147360552e-33
-1.34307678987e-29
5.51227698536e-34
-1.32928876906e-30
1.6123387918e-34
4.85414634012e-34
-1.53010265149e-30
3.56602303765e-33
4.94161261621e-33
-1.30222426631e-29
3.28537126721e-32
3.19692968437e-32
-4.83738274813e-29
2.37724411779e-31
2.00654534281e-31
-1.69030479577e-28
3.49900029371e-31
2.91126009215e-31
1.74295413666e-29
5.71291751341e-33
5.10660502361e-33
1.50205689358e-30
6.92251195747e-35
7.11394992142e-35
5.73235888319e-33
2.58493266745e-35
3.33442594112e-35
-1.3309804245e-33
3.36002799441e-35
6.33034296611e-35
2.17192142159e-32
6.27028048342e-36
2.49798926518e-35
7.30973989606e-33
-6.58454330389e-37
2.42742273978e-35
5.32770936234e-33
-1.441942843e-38
1.61416494357e-35
2.73603941627e-33
-3.11344557795e-37
5.01840416607e-38
7.13285486031e-36
-3.31909169383e-36
6.13978843004e-37
-2.4219509839e-35
-5.26413114326e-34
4.92825915828e-36
4.8426291678e-34
-2.15147357599e-32
6.82836584992e-34
1.14860556337e-31
-1.21618171436e-32
2.73767521234e-32
-1.70411868713e-29
-2.69333057761e-33
1.76402904955e-32
-2.13753772419e-29
-6.98179481408e-35
5.61297869669e-33
-1.065851586e-29
3.30115901202e-34
-7.49759488808e-31
1.63199361251e-34
3.764214961e-34
-1.29238490093e-30
4.50389278193e-33
4.87570998805e-33
-1.33205716235e-29
4.81628092828e-32
3.69900410409e-32
-5.39039447963e-29
1.68570324358e-31
1.13470351238e-31
-6.26679647978e-29
3.88462305637e-32