/*--------------------------------*- C++ -*----------------------------------*\
| =========                 |                                                 |
| \\      /  F ield         | OpenFOAM: The Open Source CFD Toolbox           |
|  \\    /   O peration     | Version:  3.0.1                                 |
|   \\  /    A nd           | Web:      www.OpenFOAM.org                      |
|    \\/     M anipulation  |                                                 |
\*---------------------------------------------------------------------------*/
FoamFile
{
    version     2.0;
    format      ascii;
    class       volVectorField;
    location    "0.5";
    object      U;
}
// * * * * * * * * * * * * * * * * * * * * * * * * * * * * * * * * * * * * * //

dimensions      [0 1 -1 0 0 0 0];

internalField   nonuniform List<vector> 
7968
(
(-2.20040942889e-05 -2.23033965329e-05 -1.56969410098e-05)
(7.29394099114e-05 -1.46780512082e-05 -8.41031283197e-05)
(0.00021721246437 -1.23110634573e-05 -9.76360413524e-05)
(0.000343177103606 -7.80194004873e-06 -8.56382539175e-05)
(0.000430543729117 -9.01782883276e-07 -6.88600515947e-05)
(0.000473346581266 8.98506857449e-06 -5.06735086598e-05)
(0.000466935054332 1.69287870682e-05 -3.38809168288e-05)
(0.000412888357317 2.44875186732e-05 -1.72018802329e-05)
(0.000321126521643 3.02278143972e-05 -4.27278359023e-06)
(0.000202639526445 3.36038868167e-05 3.59092802085e-06)
(7.11379340654e-05 3.42138324384e-05 5.87814248194e-06)
(-5.61834390885e-05 3.18227853387e-05 1.1495503893e-06)
(-0.000164730921388 2.77288209962e-05 -7.98488594449e-06)
(-0.0002435899438 2.09042166764e-05 -2.16904209157e-05)
(-0.000282086119956 1.39600340716e-05 -3.87224224852e-05)
(-0.000274876969341 5.95607765244e-06 -5.59713135669e-05)
(-0.000223303821053 8.18533729576e-07 -7.36153040749e-05)
(-0.000133155689595 -1.84204112424e-06 -8.59203982518e-05)
(-3.08929907118e-05 -7.42615934843e-06 -7.7632676204e-05)
(4.69358929357e-05 -1.80588695864e-05 -1.43312116818e-05)
(-1.56722106631e-05 7.50098875697e-05 -8.41860890692e-05)
(8.32683628799e-05 8.77976979526e-05 -0.000154618922659)
(0.000229549277781 9.76735344255e-05 -0.000173337066938)
(0.000359908151885 0.000111881507006 -0.000163720093317)
(0.000452585205464 0.000132753513699 -0.000146477182879)
(0.000496100861258 0.000157582655135 -0.000127726860073)
(0.000486810822854 0.000181079220923 -0.000108391633825)
(0.000429061771728 0.000201589813045 -9.09665212178e-05)
(0.000331466833903 0.000216550326518 -7.67589837322e-05)
(0.00020600783189 0.000224842700014 -6.8386312352e-05)
(6.67541712646e-05 0.000226350551644 -6.65701249367e-05)
(-6.74443178173e-05 0.000220211267544 -7.14723363537e-05)
(-0.000182242617762 0.000208977627961 -8.20218431625e-05)
(-0.000265834026387 0.000192685924424 -9.75023017837e-05)
(-0.000307047141549 0.000173316102665 -0.000116232293537)
(-0.000299169829447 0.000151791389053 -0.00013604922896)
(-0.000241964676426 0.0001346590534 -0.000154767268809)
(-0.000144782266235 0.000124003655315 -0.000165685601099)
(-3.29918370446e-05 0.000115746889778 -0.000150904232116)
(4.27173463819e-05 0.000109594172043 -8.16453400753e-05)
(-1.43295343811e-05 0.000224110895311 -9.79087670886e-05)
(9.19012268944e-05 0.000240380363244 -0.000172704230803)
(0.000249221030398 0.000260078069879 -0.000193902615013)
(0.000388834043949 0.000288444690399 -0.000183545898704)
(0.000486385751739 0.00032472246359 -0.000162164131725)
(0.000530416868687 0.000365279965649 -0.000137016975077)
(0.000518020034105 0.000402604477239 -0.000112822979469)
(0.0004536316224 0.000434338066535 -9.11986652283e-05)
(0.000347075563023 0.000458220572056 -7.34063144181e-05)
(0.000212102045105 0.000470916511239 -6.33670648168e-05)
(6.30744812945e-05 0.000472999059082 -6.17067458758e-05)
(-8.01678377995e-05 0.000465148882702 -6.76439196823e-05)
(-0.000202199886464 0.000447592919234 -8.11248406821e-05)
(-0.000292325214975 0.000422636640755 -0.000100401443613)
(-0.000338454227175 0.00039145226371 -0.000123952798308)
(-0.000330732917595 0.000359441520455 -0.000149412118793)
(-0.000268389701046 0.000327146099174 -0.000173109383291)
(-0.000163537248684 0.000303659640085 -0.00018467731731)
(-4.15570431156e-05 0.000285929031212 -0.000166539058509)
(3.76608786822e-05 0.000273865028096 -9.03296756736e-05)
(-9.89010845125e-06 0.00035140639186 -8.51125033876e-05)
(0.000105129398771 0.000374070253964 -0.000162949562799)
(0.000276590736499 0.000402804849005 -0.000182655787868)
(0.000427800238404 0.000442492130965 -0.000166665817536)
(0.00053266650295 0.000489359193709 -0.000136750816618)
(0.000576526132677 0.000538636264446 -0.000103706781721)
(0.000557849141053 0.000582629626927 -7.10982121556e-05)
(0.000486025234103 0.000617592242986 -4.30498957273e-05)
(0.000368660843122 0.000643462769938 -2.14762688777e-05)
(0.000220612843675 0.000657365771233 -9.85727747763e-06)
(6.00220446649e-05 0.000659705824405 -8.09123088961e-06)
(-9.46816458852e-05 0.000651596966591 -1.617746754e-05)
(-0.000227512140923 0.000633317413683 -3.22509636509e-05)
(-0.000325786367107 0.000606144667045 -5.6316000168e-05)
(-0.00037509988629 0.000571997853135 -8.66879006769e-05)
(-0.000369099350666 0.000533283885058 -0.000120475857368)
(-0.000303231678649 0.000493567424752 -0.000151400751335)
(-0.000187471765946 0.000461312094264 -0.000169220009252)
(-5.33169535998e-05 0.000434776693217 -0.000152156249371)
(3.34916616289e-05 0.000416291823593 -7.40951574502e-05)
(-2.67047961983e-06 0.000443037020876 -6.8336455343e-05)
(0.000125808937548 0.000469423668311 -0.000145267316935)
(0.000313054586411 0.0005040797816 -0.000160428597041)
(0.000475230999485 0.000548527636619 -0.000136510597956)
(0.000583035450688 0.000598300715773 -9.77120115454e-05)
(0.000624158205495 0.000646508975545 -5.57066378287e-05)
(0.000597398707849 0.000687543422177 -1.64823472781e-05)
(0.000514811599124 0.000719675491134 1.67324566238e-05)
(0.000387056611468 0.000742857292627 4.18544260285e-05)
(0.000228361136305 0.00075542781107 5.5687294503e-05)
(5.71542116301e-05 0.000758648098446 5.77379277165e-05)
(-0.000106894712112 0.000751912529003 4.77068237183e-05)
(-0.000248215842165 0.000736293844995 2.7648383758e-05)
(-0.000354434457492 0.000713281728378 -2.14982413117e-07)
(-0.000412244277138 0.00068301482084 -3.61710199506e-05)
(-0.000410084405407 0.000645704781903 -7.6703154835e-05)
(-0.000340589040012 0.000605925009839 -0.000116381290331)
(-0.000218697811195 0.000569201852297 -0.000142003157473)
(-7.22500694298e-05 0.000539996768126 -0.0001292805444)
(2.76775168031e-05 0.000515881497455 -5.30513197967e-05)
(4.53096339626e-06 0.000488628084067 -5.01624833781e-05)
(0.00014909427239 0.000515167032908 -0.000125530543886)
(0.000351210550074 0.000550672622859 -0.000136496552335)
(0.00052143553153 0.000592708411247 -0.00010402625886)
(0.000630658682791 0.000640055567713 -5.68659627357e-05)
(0.000665845278094 0.000681128557507 -8.81732029818e-06)
(0.000631118973742 0.000714207778734 3.37938324612e-05)
(0.000541427659878 0.000740337736166 6.98210416231e-05)
(0.000404470476682 0.000758358422752 9.73553770349e-05)
(0.000236406264324 0.000767728060169 0.000112030166432)
(5.64356376202e-05 0.000771965033127 0.0001141139122)
(-0.000117163747255 0.000768660162459 0.000102790963453)
(-0.000266294648101 0.000757734850597 8.05087388695e-05)
(-0.000379232473748 0.000741243983645 5.0090247312e-05)
(-0.00044282743642 0.000717037106242 1.21928576539e-05)
(-0.000446164448325 0.000687555756312 -3.32851249334e-05)
(-0.000378898272746 0.000652899726914 -7.91167502777e-05)
(-0.000249240614018 0.000616482753105 -0.0001122035937)
(-9.14315430722e-05 0.000589215115376 -0.000105009069882)
(1.94062397554e-05 0.000564307641953 -3.11577579897e-05)
(1.23021919637e-05 0.000484641131647 -3.24818447258e-05)
(0.000172206560102 0.000510413981545 -0.000106063430093)
(0.000386773033187 0.000540995398525 -0.000112239141551)
(0.000564099468983 0.000578968053766 -7.25146700475e-05)
(0.000671403811194 0.000617806440992 -1.96355892522e-05)
(0.000698324533395 0.000648971833079 3.17621157507e-05)
(0.000656655365962 0.000674537875553 7.6537780713e-05)
(0.000558996656688 0.000691047004839 0.000112572974744)
(0.000414456117884 0.000701637118511 0.000140620160139)
(0.00024194205297 0.000706995222782 0.000154617450949)
(5.80279844391e-05 0.000711663563734 0.00015628371236)
(-0.000121213548806 0.000712868684554 0.00014451937275)
(-0.000275721710972 0.000709774521112 0.000122198546611)
(-0.000395200223152 0.000702196073267 9.2043449345e-05)
(-0.000465929794174 0.000687391101704 5.28698636845e-05)
(-0.000474018349106 0.00066380228838 5.42016722842e-06)
(-0.000410684135245 0.000637321933876 -4.53652969744e-05)
(-0.000278649150089 0.000606651791457 -8.38390554925e-05)
(-0.000109997703466 0.000581049757467 -8.11945376092e-05)
(1.23977869444e-05 0.000559759018255 -9.70691732523e-06)
(2.08804145166e-05 0.000436680552437 -1.59662884869e-05)
(0.000191831100859 0.000457644404172 -8.85191511968e-05)
(0.000416745453644 0.000481114425121 -9.01116159704e-05)
(0.000597762936341 0.000513340398402 -4.51492420681e-05)
(0.000700584685177 0.000540695431499 1.27128761954e-05)
(0.0007225533034 0.0005643499013 6.6073169725e-05)
(0.000673206237361 0.000581637217753 0.000110552282932)
(0.000568514315168 0.00059003895501 0.000143789420306)
(0.000420374995911 0.000594658635911 0.000169052264321)
(0.000246371110689 0.000598089803596 0.000180857147389)
(6.22566164495e-05 0.000603539034669 0.00018279081027)
(-0.000119098832664 0.000609584487727 0.000172751070727)
(-0.000276997865234 0.000613666798842 0.000152454574114)
(-0.000401634082523 0.00061201999415 0.000125298126029)
(-0.000481155107985 0.00060461743615 8.60914374558e-05)
(-0.000495979597074 0.000587757155053 3.87233903114e-05)
(-0.000435100574734 0.000567353245464 -1.51844498616e-05)
(-0.000302288298215 0.00054411261832 -5.82616102563e-05)
(-0.00012607012275 0.000523265538334 -5.94061787944e-05)
(6.59661542164e-06 0.000507496730934 9.40688043326e-06)
(2.58593063834e-05 0.000347757899488 -2.49158089564e-06)
(0.000206017114312 0.00036152245402 -7.31499895119e-05)
(0.000440240994552 0.000378697646163 -7.13358959502e-05)
(0.000623202810493 0.000400927646214 -2.19522224084e-05)
(0.000722317695854 0.000419027585333 3.94690853818e-05)
(0.000739245711246 0.000434681927528 9.45032577141e-05)
(0.000682373536654 0.000443955999691 0.000139430928944)
(0.000572027900553 0.000447299789094 0.000167965768873)
(0.000422489373391 0.000449843597895 0.000193087952215)
(0.000250785052668 0.000451522658599 0.000203217843641)
(6.94826419051e-05 0.000458146418764 0.00020591048587)
(-0.000111133252177 0.000466675973619 0.000196393504867)
(-0.000273330523475 0.000474879168893 0.000179959515448)
(-0.00040430262912 0.000477513322365 0.000153990742431)
(-0.000490141545383 0.000475028275638 0.000114244009302)
(-0.000511019572708 0.000464930170412 6.66613847353e-05)
(-0.000453493428026 0.000450838502764 9.19320889931e-06)
(-0.000320320857166 0.000435113006882 -3.71988659037e-05)
(-0.000137898898425 0.000421726389068 -4.15898122307e-05)
(2.65454353503e-06 0.000412498499063 2.41832411805e-05)
(2.94895018332e-05 0.000230477748062 6.61524187472e-06)
(0.000215787454172 0.000236752812636 -6.33487448484e-05)
(0.000454573636753 0.000245095164815 -5.94006029133e-05)
(0.000637691724386 0.000255325401815 -7.27108058712e-06)
(0.000734235014811 0.000264340140394 5.58998310301e-05)
(0.000747474554389 0.000271582166596 0.000111140374389)
(0.00068588605819 0.000275716985557 0.000154950733394)
(0.00057443659234 0.000277177446388 0.000180160805345)
(0.000424609287493 0.000281072909445 0.000204197921158)
(0.00025466533169 0.000283583474037 0.000212022863862)
(7.73946838845e-05 0.000290693529292 0.000214041946364)
(-0.000102398609575 0.00029852511609 0.000209883039808)
(-0.000266201645635 0.000306239384635 0.000196643813191)
(-0.000401553698874 0.000310983819489 0.000172996288271)
(-0.00049370622898 0.000311458703512 0.000133856151303)
(-0.000519907961199 0.000306692166316 8.52645712076e-05)
(-0.000464228380829 0.00029972460408 2.55504198172e-05)
(-0.0003300408389 0.000292882415537 -2.3170825482e-05)
(-0.000144507635206 0.000287924339789 -3.07055457187e-05)
(-6.43794956535e-08 0.000286309949449 3.32713631322e-05)
(3.06595981911e-05 9.86902213552e-05 9.29434761972e-06)
(0.000218239008022 9.57397466541e-05 -6.05258791137e-05)
(0.000458270451782 9.3780059683e-05 -5.58294747776e-05)
(0.000642247012421 9.22769812234e-05 -2.74099235392e-06)
(0.000738508699059 9.1459106647e-05 6.08307727936e-05)
(0.000750636525172 9.15411116897e-05 0.000116011307599)
(0.000688051285152 9.26389311185e-05 0.000159464623976)
(0.000577448222185 9.4974231739e-05 0.000183950563846)
(0.00042894163786 0.000100478405188 0.000207292397551)
(0.000260428295389 0.000107387890033 0.000214210238428)
(8.44300645279e-05 0.000113551028854 0.000218359417873)
(-9.56021579376e-05 0.000118178158334 0.000216201085625)
(-0.000260904103443 0.000122372182412 0.000204340176925)
(-0.000399137167259 0.000125444877255 0.000181243523741)
(-0.000494418361429 0.000126992834038 0.00014178474211)
(-0.000522572519916 0.000128146987734 9.0864589651e-05)
(-0.000466909968569 0.000130100926406 2.95837100121e-05)
(-0.000332145531021 0.000132962250252 -1.93781143145e-05)
(-0.000145814289911 0.000137181456385 -2.72043205721e-05)
(-5.93107798699e-07 0.000145105017776 3.63261230209e-05)
(2.87036583824e-05 -3.06269038467e-05 4.94164663647e-06)
(0.000213621513073 -4.24091013883e-05 -6.54624438889e-05)
(0.000451752035022 -5.42021814326e-05 -6.23058213446e-05)
(0.000635397890729 -6.73730264572e-05 -1.04151614477e-05)
(0.000733513877439 -7.7499110423e-05 5.21234153374e-05)
(0.000748689571311 -8.57616198418e-05 0.000107275233903)
(0.00068937501099 -8.83809449749e-05 0.000150945863682)
(0.000582348035371 -8.7228434321e-05 0.000176539830458)
(0.000437087371654 -8.10861477608e-05 0.000200924357928)
(0.000267786858351 -7.30632566534e-05 0.000213724847581)
(8.82096355534e-05 -6.75919977953e-05 0.000219619833794)
(-9.35776108245e-05 -6.57866973912e-05 0.000214384628809)
(-0.000258960299578 -6.4161727221e-05 0.000199633324853)
(-0.000396956406069 -6.13998467889e-05 0.000174791916297)
(-0.000491019141591 -5.72882600639e-05 0.000134884112199)
(-0.000516763153348 -4.8397364991e-05 8.25152324982e-05)
(-0.000459422292262 -3.78472865525e-05 2.27120342511e-05)
(-0.000324571156985 -2.45929780518e-05 -2.57073122783e-05)
(-0.000139857681991 -1.08173352747e-05 -3.12760074185e-05)
(1.94711062621e-06 4.95789536831e-06 3.2409369417e-05)
(2.47141760217e-05 -0.00014176874726 -4.85238361068e-06)
(0.000202534783647 -0.00016168654114 -7.66082265727e-05)
(0.000435171090907 -0.000181465675539 -7.63564602887e-05)
(0.000619217626603 -0.000205491655032 -2.73447215449e-05)
(0.000720198144417 -0.000224657109558 3.30352519098e-05)
(0.000739803734976 -0.000241039470202 8.69656090066e-05)
(0.000686607185393 -0.000250063431057 0.000131057509957)
(0.000584801857189 -0.000252235104043 0.000159782843347)
(0.000443173162471 -0.000249094372203 0.000186929942823)
(0.000273984657244 -0.000243359411161 0.000201595410613)
(9.17444188101e-05 -0.00023898741698 0.000208402123058)
(-9.21591815625e-05 -0.000238014584111 0.000202036001684)
(-0.000256526217606 -0.000235857994071 0.000183968005411)
(-0.000392266424755 -0.000230851949158 0.000156336821324)
(-0.00048145840785 -0.000220042748701 0.00011591310725)
(-0.000503210695003 -0.000203021625381 6.30963390104e-05)
(-0.000443543290044 -0.000183420310868 6.13251067147e-06)
(-0.000308480397869 -0.000160958619089 -3.99698057419e-05)
(-0.000129981875713 -0.000139951099054 -4.25346388473e-05)
(4.21024132618e-06 -0.000116510203281 2.44752806669e-05)
(1.7773409255e-05 -0.000222662073709 -1.90174539384e-05)
(0.000186574617244 -0.00024828054396 -9.24255613134e-05)
(0.000410933918241 -0.000275270070388 -9.6097686131e-05)
(0.000592696632595 -0.000308562475644 -5.22658963426e-05)
(0.000698061116985 -0.000337974039035 4.93767874843e-06)
(0.000723330194307 -0.000362643634622 5.73935000271e-05)
(0.000678181133991 -0.000379972679029 0.000100801242527)
(0.000583350926384 -0.000387871930073 0.000132233226735)
(0.000446014261335 -0.000391397896749 0.000161006229772)
(0.000277949532935 -0.000389590090829 0.000177774547628)
(9.35977476172e-05 -0.000387619775438 0.000185314109041)
(-9.0424314627e-05 -0.000384652397746 0.000176354160099)
(-0.000251786735011 -0.000378925056528 0.000156017782672)
(-0.000381130940782 -0.000367893290314 0.000127382038017)
(-0.000463238363201 -0.000349643886857 8.59757118912e-05)
(-0.000480293411249 -0.000323674737929 3.49724449243e-05)
(-0.000418222141286 -0.000294944847478 -1.86415636729e-05)
(-0.000286194390902 -0.000263649200766 -6.00329829316e-05)
(-0.000115302526131 -0.000236532599932 -5.89631496136e-05)
(1.01916969305e-05 -0.000205345991304 1.0283395304e-05)
(1.10399698185e-05 -0.000262875249653 -3.62404893132e-05)
(0.000166752657459 -0.000291603440188 -0.000111506168834)
(0.000379038339411 -0.000324616168661 -0.000120112362808)
(0.000557212597533 -0.000362282227841 -8.34319100271e-05)
(0.000666228877466 -0.000402820879663 -3.21738353537e-05)
(0.000697837967246 -0.00043465592558 1.75360279923e-05)
(0.000661366273512 -0.00046017372697 6.04577449942e-05)
(0.000573394624213 -0.000476087112194 9.26864681294e-05)
(0.000441497911343 -0.000486906115811 0.000120613603589)
(0.000277809828733 -0.000490321609967 0.000137093680867)
(9.67141335693e-05 -0.000490385092384 0.000144545809387)
(-8.34448357687e-05 -0.000484876662509 0.000135049691738)
(-0.000239754156963 -0.000473167363214 0.000114494658509)
(-0.000362970786861 -0.000454800552984 8.54179789746e-05)
(-0.000437286989709 -0.000429024260186 4.59904306109e-05)
(-0.000448735760589 -0.00039606153353 -1.26514791522e-06)
(-0.000384782352531 -0.000357981367383 -4.96617805315e-05)
(-0.000256802063414 -0.000322183367495 -8.47385051865e-05)
(-9.71266075457e-05 -0.000288856692591 -7.87845102497e-05)
(1.70101765136e-05 -0.000254271957033 -7.3650401976e-06)
(3.32106002351e-06 -0.000257883938928 -5.26872223916e-05)
(0.000144586824454 -0.000286804363084 -0.000130968898969)
(0.000345477313368 -0.000319815135554 -0.000145141287634)
(0.000515296022927 -0.00036003399018 -0.000116743466769)
(0.000625786570625 -0.000404296640136 -7.32488855785e-05)
(0.000665948613684 -0.00044464667821 -2.9564723113e-05)
(0.000636668900283 -0.00047609818954 1.01908799812e-05)
(0.000556545041093 -0.000498052434669 4.16627202329e-05)
(0.00043171879046 -0.000514170339559 6.92649604897e-05)
(0.000274440706013 -0.000521764847943 8.48430440875e-05)
(9.90522865028e-05 -0.000523197283741 9.05646633372e-05)
(-7.31594880537e-05 -0.000514954372677 8.0991880268e-05)
(-0.000221647248135 -0.000499208487764 6.16277960473e-05)
(-0.000336915638032 -0.000475258131586 3.39243389642e-05)
(-0.000404481721719 -0.000443767444669 -1.9837439178e-06)
(-0.000409482156382 -0.000403914439767 -4.29601546463e-05)
(-0.000345877579077 -0.000362434359672 -8.44836030149e-05)
(-0.00022538647055 -0.000325317841609 -0.000111550920264)
(-7.68665293076e-05 -0.000291645310129 -0.000100729407304)
(2.30027033048e-05 -0.000256220478007 -2.72338528885e-05)
(-2.37824181594e-06 -0.000208323901584 -7.0103467022e-05)
(0.000126565336697 -0.000231866929356 -0.000149363103157)
(0.000311777049819 -0.000259603768481 -0.000168222525899)
(0.000473568278287 -0.000296427460057 -0.000147834726329)
(0.000581557841293 -0.000337048982191 -0.000113746772699)
(0.000625826932776 -0.000379351233365 -7.69710209038e-05)
(0.000607704832798 -0.000414026214449 -4.32697778459e-05)
(0.000535058316012 -0.000440355769306 -1.48189018466e-05)
(0.000417524254513 -0.000459123138308 8.76496703923e-06)
(0.000268591642459 -0.000468662245687 2.26477712619e-05)
(0.000103467999505 -0.000470057978298 2.73291938385e-05)
(-5.93744745001e-05 -0.000460057220709 1.98523732059e-05)
(-0.000199876718664 -0.00044222787511 3.39124232342e-06)
(-0.000307262499407 -0.000415395620517 -2.02162263332e-05)
(-0.000365641297533 -0.0003816532269 -5.08052945449e-05)
(-0.000367344750567 -0.000342067551988 -8.49831132316e-05)
(-0.000307680986927 -0.00030394059591 -0.000117188186028)
(-0.000195320420046 -0.000270015156677 -0.000136730077722)
(-6.01896611353e-05 -0.000242431412872 -0.00012194738613)
(2.87112769092e-05 -0.000210520533555 -4.57645056694e-05)
(-5.08544376096e-06 -0.000121997685285 -8.15061475108e-05)
(0.000115281467329 -0.000137554160814 -0.000159483771123)
(0.000286996159812 -0.000157396913141 -0.000179528976214)
(0.000438219614357 -0.000183588906458 -0.000165257533003)
(0.000542184645334 -0.000216124907047 -0.000139322796887)
(0.000588189160123 -0.000249908896437 -0.000110797686574)
(0.000574835614477 -0.000280923947004 -8.34351030501e-05)
(0.000510690096453 -0.000305567888003 -5.90132193054e-05)
(0.000402803237127 -0.000323473616643 -3.94164885942e-05)
(0.000263137884089 -0.000332045849062 -2.70187432536e-05)
(0.000107632049571 -0.000332850977691 -2.28490027335e-05)
(-4.48986703584e-05 -0.000323899855863 -2.86848523312e-05)
(-0.000176085140183 -0.000307304263302 -4.24790604569e-05)
(-0.000275029943562 -0.000283672972607 -6.14222451117e-05)
(-0.000329511044993 -0.000254515200063 -8.59638575365e-05)
(-0.000330122802022 -0.000223142281154 -0.00011198731081)
(-0.00027375754803 -0.000193036708572 -0.000136980882202)
(-0.000172411540563 -0.000170169659538 -0.000151096575224)
(-5.00489655024e-05 -0.000150985852579 -0.000135215100849)
(3.09231292506e-05 -0.00012617407938 -6.0226594673e-05)
(-1.04251493334e-05 -2.22787506171e-05 -7.26455459003e-05)
(0.000107477151235 -2.76985708712e-05 -0.000144958185473)
(0.000268884516029 -3.77055120388e-05 -0.000161643084731)
(0.000412733277477 -5.10760065771e-05 -0.000148213838799)
(0.000512452257577 -6.94068272601e-05 -0.00012647322534)
(0.000558496225059 -9.1609709935e-05 -0.00010395049416)
(0.000549957770738 -0.000111226334583 -8.08066533084e-05)
(0.000490908448374 -0.000126980860487 -6.00012115283e-05)
(0.0003902513141 -0.000138889914691 -4.31758253211e-05)
(0.000259536828112 -0.00014463538224 -3.2928798485e-05)
(0.00011322707078 -0.000145220264101 -2.94804966866e-05)
(-3.06538089901e-05 -0.000138565933865 -3.34776372149e-05)
(-0.000154828709051 -0.000128122288832 -4.42814829663e-05)
(-0.000248153195398 -0.000113122137229 -6.01409655462e-05)
(-0.000297165731772 -9.5191817541e-05 -7.94605883447e-05)
(-0.00029683126755 -7.49813761341e-05 -0.000101140174546)
(-0.000246493733027 -5.82342609324e-05 -0.000122202595979)
(-0.000153581783295 -4.79167916607e-05 -0.000135229839861)
(-4.09367605654e-05 -3.88630376453e-05 -0.000122288032934)
(3.50602359396e-05 -2.22214883521e-05 -5.18939961916e-05)
(-2.0066020483e-05 5.10108020956e-05 -9.44636964777e-06)
(0.000103242183313 4.49808336148e-05 -7.67679091765e-05)
(0.000260448871913 3.86656099039e-05 -8.5794530525e-05)
(0.000399339026461 3.39703972963e-05 -7.02368776965e-05)
(0.000493731918044 2.75794281789e-05 -5.08932528478e-05)
(0.000538922961972 1.89488047928e-05 -2.95096867728e-05)
(0.00053331655817 1.16936772433e-05 -8.80533322645e-06)
(0.000478983876555 5.50458014972e-06 9.91555923642e-06)
(0.000384420657443 1.52674545327e-06 2.38214352861e-05)
(0.000260037589681 -7.40541160259e-07 3.22426831287e-05)
(0.0001213004149 -1.23681617593e-06 3.51795214914e-05)
(-1.53211276425e-05 1.12269845319e-06 3.18477090732e-05)
(-0.000133219010417 4.55095282442e-06 2.32540350141e-05)
(-0.000220422138456 1.00287683752e-05 9.89247219672e-06)
(-0.000266115506516 1.71680692663e-05 -7.08711689832e-06)
(-0.000265384370862 2.35258951108e-05 -2.74051097107e-05)
(-0.000218440965655 2.94218330663e-05 -4.60818054289e-05)
(-0.000132313569518 3.19898353541e-05 -6.06071869083e-05)
(-2.70091242427e-05 3.58847082073e-05 -5.20000404524e-05)
(4.61013447143e-05 4.79831384746e-05 1.90033861205e-05)
(-8.63392307418e-06 -7.7237396181e-06 -9.28234217044e-05)
(0.000108957748497 1.5950673834e-05 -0.000245366717337)
(0.000255060324617 2.82533744268e-05 -0.000275189168605)
(0.000384365008328 3.94615811153e-05 -0.000248649776333)
(0.000475033961944 5.17100927886e-05 -0.000206710822362)
(0.0005176414625 6.54909819318e-05 -0.000158181142039)
(0.000508303159658 7.87258545079e-05 -0.00011014804052)
(0.000448137432185 8.91996189646e-05 -6.46260925684e-05)
(0.000345399252701 9.77853496984e-05 -2.83530179448e-05)
(0.00021356141821 0.000102601963822 -5.92817600193e-06)
(6.6482892936e-05 0.000103201861866 -2.23714722964e-07)
(-7.5249513932e-05 0.000100539380822 -1.23910740883e-05)
(-0.000195472895172 9.43826888042e-05 -3.84041406069e-05)
(-0.000284320852054 8.48753311023e-05 -7.64362451495e-05)
(-0.000328314272121 7.48368686918e-05 -0.000122609105495)
(-0.000322901115645 6.24431697718e-05 -0.000171042142899)
(-0.000269073901028 5.25006670282e-05 -0.000216859570717)
(-0.000173105996441 4.2650111831e-05 -0.000246909041502)
(-6.2508535811e-05 2.70433405293e-05 -0.000222399782528)
(3.21933520111e-05 -1.0799783749e-06 -6.83023481234e-05)
(1.28556462758e-05 0.000113605108433 -0.000244997287232)
(0.000135079142482 0.000142767074388 -0.00037746505475)
(0.00027605495386 0.000164646456676 -0.000411808591762)
(0.000403901850248 0.000190188250888 -0.000392591656078)
(0.000495720598629 0.000221009340855 -0.000349531280673)
(0.00053826495999 0.000254160615902 -0.000297290707891)
(0.000526429993816 0.000285417007683 -0.000243272252672)
(0.000462730807106 0.000311814979472 -0.000193668099076)
(0.000355290461657 0.000331328998783 -0.000154274235283)
(0.000217208950229 0.000341790724308 -0.000130486646163)
(6.46632368088e-05 0.000342900185305 -0.000125412720864)
(-8.23822874858e-05 0.000336070997956 -0.000138826746239)
(-0.0002079993313 0.000321250191493 -0.000168089478996)
(-0.000300277351854 0.000300370880871 -0.000210432999853)
(-0.000347265896883 0.000274952525076 -0.000261970881256)
(-0.000342784302046 0.000246837612011 -0.000316228530216)
(-0.000287999221092 0.000220242975329 -0.000363686610738)
(-0.000194115809693 0.000197850061067 -0.000387627761962)
(-8.50939970187e-05 0.000175900011005 -0.000357246705418)
(9.51998199331e-06 0.000147747409034 -0.000220692125311)
(2.44110088652e-05 0.000266701578402 -0.000274603192808)
(0.000155895395937 0.000288808811451 -0.000410686113943)
(0.000304118446086 0.000317077613047 -0.000446457444466)
(0.000437503628274 0.000355718155924 -0.000422991495964)
(0.000532216531065 0.000402230449019 -0.000369059060675)
(0.000573928327961 0.00045099508096 -0.000302602009619)
(0.00055792825753 0.000495953788628 -0.000234552713588)
(0.000487589645799 0.000533297115865 -0.000173074122112)
(0.000371256502185 0.000560809960985 -0.000124850282423)
(0.000223000971947 0.000575350590999 -9.66638087563e-05)
(6.10022084707e-05 0.000576861141781 -9.19541533063e-05)
(-9.46930515868e-05 0.000566977482335 -0.000109470247628)
(-0.000227869842109 0.000546213179386 -0.000145846046467)
(-0.000326173013081 0.000517090994455 -0.000198267719812)
(-0.000377689493694 0.000481062186063 -0.000262470897004)
(-0.000374942231016 0.00044101384396 -0.000330340743258)
(-0.000318367968127 0.000401025451509 -0.000388880285023)
(-0.000220511144256 0.000366932798203 -0.000417176678504)
(-0.00010527081726 0.000339877770491 -0.000384559189088)
(-4.84374034487e-06 0.000318012743981 -0.000242406552161)
(3.45389358714e-05 0.00039862489336 -0.000246605855996)
(0.000180525700335 0.000419642142092 -0.000389730034395)
(0.000342321967893 0.00045271737917 -0.000421284986083)
(0.000485255733179 0.000499987945084 -0.00038410143018)
(0.000583599968136 0.000555301702444 -0.000310363075099)
(0.000622900757735 0.000610713622405 -0.000222880204572)
(0.000600007363982 0.000659832478704 -0.000135872331706)
(0.000520353783759 0.000698716546626 -5.92454730973e-05)
(0.000392208119776 0.000726588481519 -1.35595911318e-07)
(0.000230586103269 0.000741247842323 3.33730128228e-05)
(5.63391050788e-05 0.000742801093356 3.7064483797e-05)
(-0.000110446026119 0.000732506456106 1.40606257406e-05)
(-0.000253220790517 0.000711691616347 -3.10682204578e-05)
(-0.000359319441082 0.000682403006918 -9.59413284284e-05)
(-0.000416880795031 0.000645122995576 -0.000175858809092)
(-0.00041755716779 0.000601631011766 -0.000262106041184)
(-0.000359574842541 0.000556052540417 -0.000339227129435)
(-0.000254445373836 0.000515728109801 -0.000381132186931)
(-0.00012775222662 0.000485730873544 -0.000352991228332)
(-1.49557442056e-05 0.000466375407461 -0.000204576533373)
(4.70807089806e-05 0.000493081981138 -0.000202981176007)
(0.000210469419311 0.00051384334688 -0.000345251003548)
(0.000387820492576 0.00054858866642 -0.000366544350278)
(0.000540161035975 0.00059771514318 -0.000310301176826)
(0.000639470241538 0.000652573325037 -0.000214570268536)
(0.00067317917005 0.000703828351307 -0.000107343255343)
(0.000640571684567 0.000745886260319 -5.09877861547e-06)
(0.000549796929464 0.00077794322957 8.2589695218e-05)
(0.000410518801144 0.000800165059979 0.000149723419297)
(0.000237459875364 0.000811937619913 0.000186544844654)
(5.21593724851e-05 0.000813937272956 0.000189090765593)
(-0.000124263305726 0.000806282225143 0.000160944857582)
(-0.000275022935729 0.000790472930676 0.000107919147998)
(-0.000388795972615 0.000768016463359 3.43868344856e-05)
(-0.000454330422824 0.000738160353762 -5.65265597181e-05)
(-0.000461108788244 0.000700801836074 -0.000158254460852)
(-0.000404094202489 0.000658441683854 -0.000254190234287)
(-0.000292925820737 0.000618333971127 -0.000313448698334)
(-0.000153825162266 0.00058863891587 -0.000295816022028)
(-2.53733269872e-05 0.000569384848948 -0.000149903295119)
(5.88776691828e-05 0.00053878686023 -0.000154583767111)
(0.000241425336806 0.000558491730091 -0.000292531351514)
(0.000433646449612 0.000591625746973 -0.000301288131674)
(0.000593043663242 0.000636901558828 -0.00022604198513)
(0.000689863677176 0.000684794035558 -0.000111687784628)
(0.000714347234196 0.000725149490595 8.05560067584e-06)
(0.000671710239015 0.000755262298664 0.00011717130029)
(0.000572400875212 0.000776639809368 0.000209040983612)
(0.000424497812857 0.000790817411326 0.00027903361344)
(0.000243326357826 0.000798397278831 0.000316528120308)