/*--------------------------------*- C++ -*----------------------------------*\
| =========                 |                                                 |
| \\      /  F ield         | OpenFOAM: The Open Source CFD Toolbox           |
|  \\    /   O peration     | Version:  3.0.1                                 |
|   \\  /    A nd           | Web:      www.OpenFOAM.org                      |
|    \\/     M anipulation  |                                                 |
\*---------------------------------------------------------------------------*/
FoamFile
{
    version     2.0;
    format      ascii;
    class       surfaceVectorField;
    location    "3.1";
    object      ddt0(Uf);
}
// * * * * * * * * * * * * * * * * * * * * * * * * * * * * * * * * * * * * * //

dimensions      [0 1 -2 0 0 0 0];

internalField   nonuniform List<vector> 
22672
(
(0.00157308277722 0.00065924576686 -0.00136118218514)
(0.000661391434617 0.0015692028957 -0.00136119117805)
(0.000916905616134 0.000914847863181 -0.00314119872549)
(0.0032436923169 0.000496128651611 -0.00123279356993)
(0.00228712037771 0.00139009274693 -0.0015970378238)
(0.00273170994711 0.000893428043104 -0.0030595296063)
(0.00468317589917 0.000372821974123 -0.000969492906906)
(0.0039769911816 0.00125180561906 -0.00151882523169)
(0.00442294247131 0.00086841369943 -0.00269032658877)
(0.0056283499095 0.000296351954373 -0.00062331187779)
(0.00522264487114 0.00116253685915 -0.00123549503979)
(0.00563601401964 0.000849404759284 -0.00210709074036)
(0.00592367758387 0.00027443704211 -0.000270799290974)
(0.00589769850157 0.00114223005073 -0.000874383584677)
(0.00626211167873 0.000856125606582 -0.0014373487609)
(0.0055725712469 0.000275365335965 2.86045300783e-05)
(0.00583913967859 0.00116049735753 -0.000524393416994)
(0.00615015311571 0.000873357161789 -0.00080960959757)
(0.00469792197457 0.000295801657846 0.000262024233315)
(0.00523646272363 0.00116102579051 -0.000240934772965)
(0.00549630621359 0.000877106507485 -0.000286989835306)
(0.00337762518286 0.000338948425572 0.000428281331536)
(0.00411059467134 0.0011948085386 -1.6103936822e-05)
(0.00430716237797 0.000909639958397 0.000124556245818)
(0.00176063529956 0.000373741257764 0.000520236633253)
(0.00260670320398 0.00122967133305 0.000125009595342)
(0.0027291433653 0.00094475882175 0.000386175997256)
(2.57057244505e-06 0.000386312442071 0.000549001442031)
(0.000893977851237 0.00124848294151 0.000189712293101)
(0.00093544183153 0.000964821841991 0.000508348584796)
(-0.00175564541912 0.000373813679516 0.000520321664762)
(-0.00088709708857 0.00124848327835 0.000189814533435)
(-0.00092908338656 0.000964813320059 0.000508519341606)
(-0.00337303908773 0.000339025045989 0.00042843104249)
(-0.00260020547253 0.00122966425612 0.000125301507712)
(-0.00272309311475 0.000944721371678 0.000386623449924)
(-0.00469398587962 0.000295798401468 0.000262246229431)
(-0.00410476117561 0.00119471248519 -1.56756502509e-05)
(-0.00430167199829 0.000909509612821 0.000125298208859)
(-0.00556957499624 0.000275216163107 2.88834003511e-05)
(-0.00523158718932 0.00116081971336 -0.000240365889923)
(-0.00549166064722 0.000876833757472 -0.000285955253135)
(-0.00592172426232 0.000274104071838 -0.000270553434326)
(-0.00583549251843 0.00116012204822 -0.000523852890816)
(-0.0061466512203 0.000872894469521 -0.000808458427791)
(-0.00562727268468 0.000295782506787 -0.000623224249077)
(-0.00589537817592 0.00114164565757 -0.000873982346777)
(-0.00625982137831 0.000855452372195 -0.00143632837998)
(-0.00468248981339 0.000372037148984 -0.000969578869799)
(-0.00522113453445 0.00116165178226 -0.00123538093647)
(-0.00563443204768 0.000848452641208 -0.0021064135413)
(-0.00324299031297 0.000495325491244 -0.00123276100288)
(-0.00397605281444 0.0012507020862 -0.00151890393162)
(-0.00442181456486 0.000867308537843 -0.00268994645026)
(-0.00157256742317 0.000658624734164 -0.00136074435482)
(-0.00228613139213 0.00138894111471 -0.00159685027163)
(-0.00273050133746 0.00089241708143 -0.00305890758701)
(-0.000661281164004 0.00156810844392 -0.0013607090952)
(-0.000916672194526 0.000914169081855 -0.00314029846846)
(0.00139388649505 0.00228157103061 -0.0015970468167)
(0.000498263338968 0.00323599740588 -0.00123294249118)
(0.000895629865382 0.00272613116527 -0.00305942541542)
(0.00315549550685 0.00215210068547 -0.00188306948557)
(0.00215739695354 0.00314819040393 -0.00188308887881)
(0.00274561366753 0.00274027624938 -0.00351844224053)
(0.00469986857845 0.00205482746705 -0.00178482736457)
(0.00393562593389 0.00305081056596 -0.0019478992161)
(0.00444669537255 0.00272669820775 -0.00334237624548)
(0.00569425910334 0.00201228609348 -0.00148656674667)
(0.00523673776345 0.00299252112019 -0.00169585447748)
(0.0056412244354 0.00272759689891 -0.00282376681696)
(0.00600885839724 0.00201946275515 -0.0011279777107)
(0.00591867029968 0.00299668155323 -0.00132731046888)
(0.00622522901988 0.00275894280916 -0.00216890168309)
(0.00566318557207 0.00202753447344 -0.000793932720037)
(0.00588276042137 0.00302397478476 -0.000958160865731)
(0.00612446820345 0.00279289835898 -0.00151812099959)
(0.00475656217677 0.002036450219 -0.000519062943101)
(0.00525916516777 0.00302104213618 -0.000650303280914)
(0.00544805874273 0.00280022154157 -0.000954126957212)
(0.00341157951006 0.00206158712664 -0.000319375673016)
(0.00412428693646 0.00304700187162 -0.000410503935926)
(0.00426200158256 0.00282799624364 -0.000508269107343)
(0.00177677389497 0.00208098585825 -0.000205514744809)
(0.00261403647947 0.0030776833125 -0.000257480770679)
(0.00270132705687 0.00285793006689 -0.000214467654019)
(4.30759264987e-06 0.00208733959584 -0.000169474615494)
(0.000896422091839 0.00309249721917 -0.000188174759709)
(0.000926932561832 0.00287237715854 -7.2885587091e-05)
(-0.00176830487431 0.00208091848744 -0.000205205623615)
(-0.000886573131506 0.0030924740161 -0.000187990975405)
(-0.000917209183233 0.00287228341037 -7.26804248196e-05)
(-0.00340370828298 0.00206140714405 -0.000318805185029)
(-0.00260471301229 0.00307763185616 -0.000256962690975)
(-0.00269196679142 0.00285766076764 -0.000213745450595)
(-0.00474962147323 0.00203610843925 -0.000518287769604)
(-0.00411586802792 0.0030467431372 -0.000409753242136)
(-0.00425331375746 0.00282740940988 -0.000507117515778)
(-0.00565760239043 0.0020270194772 -0.000793102181089)
(-0.00525205803128 0.00302056377232 -0.000649352457527)
(-0.00544043777583 0.00279935997257 -0.000952539620974)
(-0.0060047925772 0.00201873382511 -0.00112728180327)
(-0.0058772713588 0.00302328502601 -0.000957235427458)
(-0.00611822653265 0.00279174690115 -0.0015164950931)
(-0.00569157559531 0.00201123911262 -0.00148613903417)
(-0.00591491164204 0.00299570479319 -0.00132665567043)
(-0.00622050026192 0.00275744834665 -0.00216752386806)
(-0.00469817915751 0.00205344516449 -0.00178470599829)
(-0.00523427718067 0.00299110704501 -0.00169561612413)
(-0.00563776785491 0.00272566735119 -0.00282282326586)
(-0.00315443181684 0.00215050151789 -0.00188299320037)
(-0.00393414439543 0.00304908636784 -0.00194796110584)
(-0.00444433459392 0.00272451037116 -0.00334184710321)
(-0.00139335128013 0.00227988247133 -0.00159681501202)
(-0.00215631828381 0.00314627204159 -0.00188305657982)
(-0.0027440132256 0.00273802105917 -0.00351792070051)
(-0.000498043222537 0.00323406765582 -0.00123287164916)
(-0.000895263385563 0.00272405175027 -0.00305891813476)
(0.00125540609142 0.00396788373427 -0.00151898455328)
(0.000374875517867 0.00467232966347 -0.000969954486751)
(0.000870433071822 0.0044137680087 -0.00269046174243)
(0.00305743774969 0.00392732874885 -0.00194791860934)
(0.00205982494664 0.00468978663195 -0.00178495274921)
(0.00273149735369 0.00443853092399 -0.00334236158173)
(0.00464924186045 0.00387714034227 -0.00185892632901)
(0.0038846747268 0.00464039173412 -0.00185897653831)
(0.00443380184805 0.00442681878213 -0.00318039348003)
(0.00566110975633 0.00386273852025 -0.00153659819969)
(0.00521168525399 0.00461099391481 -0.00157651359491)
(0.00560627890494 0.00442835732904 -0.0026297527264)
(0.00598051615125 0.00387778835807 -0.00115749362391)
(0.00589384895194 0.00462322236549 -0.00117998534878)
(0.00615688708534 0.00445143699961 -0.00194582334351)
(0.00563651720025 0.00388196528863 -0.000814531426608)
(0.00586293351299 0.00464316020849 -0.00079907722398)
(0.00604950641467 0.00447042672483 -0.00127552447372)
(0.00473227919267 0.00388192516357 -0.000541744273739)
(0.00523336049199 0.00462609560939 -0.000490309310659)
(0.00536790363641 0.00446376056635 -0.000701557454163)
(0.00339650238479 0.00390016113006 -0.000348609033589)
(0.00410664982572 0.00463328872739 -0.000258180780167)
(0.00419963990324 0.0044750149784 -0.000251557365239)
(0.00176827325366 0.00391677098778 -0.000240140785579)
(0.0026019064297 0.00465448536271 -0.000105329974829)
(0.00266263940955 0.0044996553559 5.01932090522e-05)
(5.56592430784e-06 0.00392140852394 -0.00020669111962)
(0.000890912280434 0.00465933188259 -4.99244474138e-05)
(0.000913275533368 0.00449797511159 0.000194570227851)
(-0.00175745849113 0.00391674961256 -0.000239748042766)
(-0.000879017692844 0.00465933305582 -4.96234740095e-05)
(-0.000901364483178 0.00449795604133 0.000194892655778)
(-0.00338659179185 0.0038999706016 -0.000347910748082)
(-0.0025907578771 0.0046544998922 -0.000104296765651)
(-0.00265127291676 0.00449977491475 5.10952554379e-05)
(-0.00472350940863 0.00388144230914 -0.000540817930058)
(-0.00409671036625 0.0046329146104 -0.000257143367771)
(-0.00418915349503 0.00447435797526 -0.000250269403667)
(-0.00562937200547 0.0038812262499 -0.000813485703895)
(-0.00522494795595 0.00462541407395 -0.000489066160803)
(-0.00535862643389 0.00446266458904 -0.000699808661673)
(-0.0059753291732 0.00387677199938 -0.00115660929463)
(-0.00585647144227 0.00464222015268 -0.000797890338781)
(-0.00604186339693 0.00446892034633 -0.00127356662313)
(-0.00565766491903 0.00386135857701 -0.0015361327604)
(-0.00588947176984 0.00462196329481 -0.00117916588661)
(-0.00615100447283 0.00444942360063 -0.00194424562948)
(-0.00464708013599 0.00387538546682 -0.00185887123168)
(-0.00520887408822 0.00460929849096 -0.00157622530941)
(-0.00560194163479 0.00442582418358 -0.00262881517236)
(-0.0030561468775 0.00392530851776 -0.00194802448529)
(-0.00388301962493 0.0046383437297 -0.00185907575422)
(-0.00443085631185 0.00442395819248 -0.00317995335514)
(-0.00125476420843 0.00396581319366 -0.00151911321696)
(-0.00205874704269 0.00468752764753 -0.00178509326499)
(-0.00272960659692 0.00443560488151 -0.00334217533396)
(-0.000374582898521 0.00467022062102 -0.000970270644859)
(-0.000869837072467 0.00441122703532 -0.00269054007286)
(0.00116603145534 0.00521101198964 -0.00123592268268)
(0.000298413383202 0.00561516027274 -0.000624098224867)
(0.000851269838751 0.00562426868465 -0.00210759687414)
(0.00299880241307 0.00522633517156 -0.00169601067818)
(0.00201722610827 0.0056821249727 -0.00148694171466)
(0.00273207674319 0.00563112797555 -0.00282386350605)
(0.00461918580932 0.00520249730548 -0.00157656380421)
(0.00387007406221 0.00565074961958 -0.00153679834316)
(0.0044346660063 0.00559804402328 -0.00262977038612)
(0.00564054219962 0.005201230359 -0.001219900744)
(0.00520991169503 0.00563125457887 -0.00121993085654)
(0.00558082855203 0.00557379843967 -0.00204104553128)
(0.00595651627025 0.00521674026624 -0.000821568948842)
(0.00589166193705 0.00564136476472 -0.000797864384631)
(0.0060996420797 0.00556384219919 -0.00133399446514)
(0.0056055374443 0.00521158697581 -0.00047485510803)
(0.00585688762014 0.00565427683217 -0.000394853298582)
(0.00597297368808 0.00554450467055 -0.000660449495629)
(0.00470470979341 0.00519568245988 -0.000206745817087)
(0.00522382351566 0.00562184457151 -7.41425697844e-05)
(0.00528830034291 0.00549905967798 -9.55995377865e-05)
(0.00337887623156 0.00519777235076 -1.49017214073e-05)
(0.00410056096315 0.00560598746017 0.000172714734452)
(0.00414146671958 0.00546837976152 0.00035218897005)
(0.00175142006463 0.00520545359367 8.48863633359e-05)
(0.00259728474354 0.00560352197307 0.000339998847269)
(0.00261541327446 0.00545425501759 0.00067731569895)
(6.39024635814e-06 0.00520818018984 0.000107143198197)
(0.000888806658668 0.00561007082455 0.000402918499234)
(0.000887823112948 0.00544756643927 0.00079312912802)
(-0.00173894733531 0.00520518849922 8.58278031054e-05)
(-0.00087584038355 0.00560973920235 0.000403208237717)
(-0.000874115396499 0.005447302756 0.000793788796619)
(-0.00336788022896 0.00519733807825 -1.35293853403e-05)
(-0.00258501126493 0.00560261200911 0.000341114311526)
(-0.00260289739114 0.00545357394985 0.000679750868831)
(-0.00469488450966 0.00519505275016 -0.000205391598516)
(-0.00408960320695 0.00560505156145 0.00017402521878)
(-0.00413039519377 0.00546741151045 0.000353908109336)
(-0.00559757964119 0.00521071148944 -0.000473470795688)
(-0.00521466372913 0.00562069912884 -7.25334284858e-05)
(-0.00527824417535 0.00549778002279 -9.34019942115e-05)
(-0.0059508737007 0.0052155873202 -0.000820446930762)
(-0.00585007760547 0.00565301344681 -0.000393412794901)
(-0.00596481218796 0.00554287669766 -0.00065812007054)
(-0.00563690637581 0.00519966046797 -0.00121925843562)
(-0.00588717371047 0.00563973866773 -0.000796858148933)
(-0.00609352716166 0.00556156068742 -0.00133212111009)
(-0.00461701319615 0.00520051945313 -0.00157642983195)
(-0.00520719043447 0.00562921229376 -0.00121949101538)
(-0.00557638187208 0.00557086787056 -0.00203990224249)
(-0.00299757198404 0.00522410602265 -0.00169614453392)
(-0.00386853304596 0.0056484635951 -0.00153680113259)
(-0.004431676824 0.00559478317504 -0.00262936353445)
(-0.00116548634717 0.00520882216365 -0.00123625069289)
(-0.00201634724379 0.00567973448568 -0.00148708646802)
(-0.00273020540696 0.00562789728844 -0.00282384799697)
(-0.000298291605226 0.00561319243509 -0.00062461104613)
(-0.000850661958721 0.00562167482994 -0.00210808474359)
(0.00114588162729 0.0058841031213 -0.000875117256847)
(0.000276478823523 0.00590887469486 -0.000272016690618)
(0.000858104515608 0.00624823799813 -0.00143836031792)
(0.00300313514714 0.00590672748181 -0.00132772937963)
(0.00202458763518 0.00599545650158 -0.00112879908044)
(0.00276349079561 0.00621381576198 -0.00216937421456)
(0.0046314838868 0.00588356083051 -0.00118016539549)
(0.00388547573308 0.0059692236159 -0.0011579415036)
(0.0044578200128 0.00614802730723 -0.00194588119236)
(0.00565044049782 0.00588221484661 -0.000797894497179)
(0.00522554936043 0.00594665435908 -0.000821586481866)
(0.00557059807089 0.00609263006833 -0.00133379764285)
(0.00595810218427 0.00590097077426 -0.000371148734371)
(0.00591022173836 0.00594853761975 -0.000370962179627)
(0.00605355450451 0.00604716418803 -0.00061469165324)
(0.0055975415573 0.00590460944568 5.85923966431e-06)
(0.00586638484747 0.00595082890822 6.95222691757e-05)
(0.00590485355012 0.00600501464312 6.37678142961e-05)
(0.00469498853838 0.00589364022113 0.000305317981755)
(0.00522933619779 0.00590457197637 0.000420865869465)
(0.00521386945451 0.00593734450076 0.000619279450229)
(0.0033689118066 0.00589333590946 0.000527615303129)
(0.00410290368175 0.00586704899042 0.000702351828174)
(0.00407279459522 0.00587831028239 0.00106426062226)
(0.00175449867469 0.00589972295571 0.000658030983167)
(0.00259679863881 0.00584557450386 0.000888945877596)
(0.00257924622598 0.00583291175135 0.00137149412236)
(6.57782450003e-06 0.00590355390008 0.000698983538754)
(0.000888739904458 0.00583553434282 0.000973733533818)
(0.000883888270276 0.00582532825042 0.00152155291051)
(-0.00174153540198 0.00589913772385 0.000658494746137)
(-0.000875433279628 0.00583525637095 0.000973979233731)
(-0.000870418994513 0.00582483531107 0.00152170225354)
(-0.00335682012558 0.00589235409343 0.000528668915646)
(-0.00258398987359 0.00584480127701 0.000889605703169)
(-0.00256615461271 0.00583138745683 0.00137224004102)
(-0.00468440408726 0.00589243348392 0.00030688338881)
(-0.00409129268997 0.00586590239687 0.000703575483075)
(-0.00406061204902 0.0058768071377 0.00106593572992)
(-0.00558922650395 0.00590322314994 7.52457230194e-06)
(-0.00521974443915 0.00590291826504 0.000422570497694)
(-0.0052032514841 0.00593564045499 0.000621891893786)
(-0.0059524282118 0.00589932761997 -0.000369824013071)
(-0.00585943995068 0.00594884261361 7.12087220268e-05)
(-0.00589673036905 0.00600292776858 6.67967305023e-05)
(-0.00564699947545 0.00588023089227 -0.00079709072869)
(-0.00590591354314 0.00594638583587 -0.000369813341326)
(-0.0060478495681 0.00604456270462 -0.000612446762712)
(-0.00462954268529 0.0058813190728 -0.00117986231602)
(-0.00522305539739 0.00594424922205 -0.000821003163149)
(-0.00556660014662 0.00608935363874 -0.00133259492528)
(-0.0030021617362 0.00590437141006 -0.00132774306669)
(-0.00388411037069 0.00596668993956 -0.00115780633797)
(-0.00445516890284 0.00614450003899 -0.00194540697836)
(-0.00114559350849 0.00588201267885 -0.000875446821261)
(-0.00202390208325 0.00599301105419 -0.00112888608996)
(-0.00276191226839 0.00621049010764 -0.00216938033355)
(-0.000276529751573 0.00590707942319 -0.000272675117193)
(-0.000857733895249 0.00624583159021 -0.00143908368167)
(0.00116426254334 0.00582459255106 -0.000525698514212)
(0.000277476053577 0.00555714328173 2.69889781677e-05)
(0.000875384788198 0.00613525682266 -0.000811332989856)
(0.00303087613459 0.005869982045 -0.000959011204403)
(0.00203316561993 0.00564911078175 -0.000795233075743)
(0.00279791138863 0.00611243243973 -0.00151909565877)
(0.00465198163771 0.00585203039512 -0.000799362589968)
(0.00389054528223 0.00562458214679 -0.00081512056013)
(0.00447753240703 0.00604043235139 -0.00127554793542)
(0.00566358649793 0.00584700133662 -0.000394654164314)
(0.00522112657671 0.00559519428972 -0.000474622981169)
(0.00555160982011 0.00596626587474 -0.00065958278288)
(0.00596038196405 0.00585683605055 6.97088239195e-05)
(0.00591414748066 0.00558777138001 6.35543663918e-06)
(0.00601124274521 0.00589938621942 6.41657080003e-05)
(0.00558856051326 0.00583943289567 0.000484528898977)
(0.0058488514269 0.00557866566588 0.000484521076041)
(0.00584060806839 0.00583545589009 0.000743866694916)
(0.0046793292119 0.00579490273602 0.000817899715884)
(0.00520353355093 0.00551137502774 0.00086129752181)
(0.00514576301889 0.00574451268665 0.00130208564175)
(0.00335213281986 0.00575788195627 0.00106368240264)
(0.00407088801821 0.00544891216809 0.00116071885276)
(0.00401147410964 0.00565750721423 0.00174486420924)
(0.00174547940279 0.00573427386559 0.00120464842825)
(0.00256369274841 0.0054104846497 0.00136233950307)
(0.00253548264578 0.00558680950198 0.00204122026467)
(6.70460260312e-06 0.00572576506759 0.0012487292288)
(0.000873865384767 0.0053886782862 0.00145577226862)
(0.000868897187611 0.00554986077908 0.00218509556596)
(-0.00173233999193 0.0057338954008 0.00120509019076)
(-0.00086039208045 0.00538846148146 0.00145604778038)
(-0.0008555843744 0.00554957449378 0.00218530657818)
(-0.00333965799221 0.00575710515943 0.0010645122706)
(-0.00255070826869 0.00540994663144 0.00136306315956)
(-0.00252236199448 0.00558594791669 0.00204164119358)
(-0.00466837767767 0.00579349192413 0.000819262591959)
(-0.00405933939314 0.00544781302695 0.00116218757425)
(-0.00399906960881 0.0056562025554 0.00174627754988)
(-0.00558007155831 0.00583740357987 0.000486254647419)
(-0.00519415449944 0.00550932286708 0.000862962775239)
(-0.00513513964802 0.00574238789045 0.00130477421434)
(-0.00595472034479 0.00585454051715 7.12193937721e-05)
(-0.00584210033797 0.00557609564986 0.00048636008319)
(-0.00583261370058 0.00583268688526 0.000746951524351)
(-0.00566039201316 0.00584449709265 -0.000393725775784)
(-0.00591021738057 0.00558497418583 7.70561956908e-06)
(-0.00600605815641 0.00589610980586 6.67959329455e-05)
(-0.00465022670901 0.00584937404464 -0.000798947185094)
(-0.00521890527348 0.00559227866435 -0.000473946005199)
(-0.00554825219999 0.00596253627612 -0.000658233883207)
(-0.00302999797413 0.0058674298471 -0.000958949361242)
(-0.00388935713662 0.00562181598882 -0.000814922921878)
(-0.00447530371526 0.0060366588246 -0.00127509189223)
(-0.00116400311125 0.00582260822283 -0.000526114385897)
(-0.00203261281964 0.00564673641615 -0.000795274142793)
(-0.00279658757258 0.00610909546429 -0.00151918054512)
(-0.0002776729403 0.00555592389122 2.62603254365e-05)
(-0.000875075239749 0.00613319437334 -0.000812390548053)
(0.00116533893259 0.00522133549875 -0.000242545583363)
(0.000298120345249 0.00468213145058 0.000260199761747)
(0.000879491853942 0.00548070805203 -0.000289160565539)
(0.00302891233531 0.00524565103264 -0.000651342431471)
(0.00204278386028 0.00474206408806 -0.000520714253904)
(0.0028061420127 0.00543555145905 -0.000955381263167)
(0.00463606950078 0.00522140449031 -0.000490380951331)
(0.00389151720228 0.0047193714051 -0.000542213380467)
(0.00447219039435 0.00535830340955 -0.000701039299918)
(0.00563218723034 0.00521273144539 -7.36133802163e-05)
(0.00520602004776 0.00469289697146 -0.000206048484827)
(0.00550756227645 0.00528077731832 -9.32325176889e-05)
(0.00591448101149 0.00521832135125 0.000421167688761)
(0.0059033300684 0.00468408761374 0.000305769547668)
(0.00594428985044 0.00520824603016 0.000621669622276)
(0.00552180496368 0.00519187506253 0.000861289698874)
(0.00580345546223 0.00466844292346 0.00081677109834)
(0.00574950952542 0.00514055656389 0.00130294406213)
(0.00459677182133 0.00513381002032 0.00120411665869)
(0.00514543328244 0.00458460242288 0.00120244955874)
(0.00505106253925 0.00504545351027 0.00185172273587)
(0.00327571064342 0.00507685663584 0.00145937595319)
(0.00399456758769 0.00450333413597 0.00153913182549)
(0.00391788671923 0.00494997727511 0.00226651154483)
(0.00169705097066 0.0050307006134 0.00161346334344)
(0.00251003787025 0.00444803899912 0.00163202301332)
(0.00245932826865 0.00486492042755 0.00254097915366)
(6.89799238695e-06 0.00501236187792 0.0016630908202)
(0.000853026005075 0.00440578082293 0.00168687465113)
(0.000838863376417 0.00481423118591 0.00267293236638)
(-0.00168378571978 0.00503049699101 0.00161402074918)
(-0.000839777629146 0.00440572469043 0.00168700666993)
(-0.000825607298649 0.00481419197029 0.00267329331901)
(-0.00326331778943 0.00507616316215 0.00146073846322)
(-0.00249743592609 0.00444760260036 0.00163274438148)
(-0.00244629267272 0.00486460348326 0.00254171368489)
(-0.00458644233842 0.00513221405477 0.00120588775753)
(-0.00398376653036 0.00450228027834 0.00154062754427)
(-0.00390604542423 0.00494902696725 0.00226843838725)
(-0.00551391495083 0.00518936672851 0.000863068211011)
(-0.00513703374428 0.00458249799632 0.00120377244788)
(-0.00504124518497 0.00504316553282 0.00185403187191)
(-0.00590945644014 0.0052153670063 0.000422846308987)
(-0.00579748971511 0.00466541770898 0.000818211578588)
(-0.00574238844579 0.00513725878561 0.00130596286353)
(-0.00562936868788 0.00520969142111 -7.25146098454e-05)
(-0.00589993417102 0.0046808144171 0.000307014956267)
(-0.00593993628445 0.00520423111189 0.000623927525569)
(-0.00463460499866 0.00521849392451 -0.000489921741982)
(-0.00520422483086 0.00468973701953 -0.000205489982108)
(-0.00550482823189 0.00527663757443 -9.2140613715e-05)
(-0.00302822696221 0.00524315472953 -0.000651247703429)
(-0.00389056352849 0.00471658421308 -0.000542102289608)
(-0.00447048127791 0.00535442043351 -0.000700762502129)
(-0.00116523969481 0.00521976874576 -0.00024289943146)
(-0.00204233908265 0.00474003992693 -0.000520758347843)
(-0.0028051647035 0.00543244700796 -0.000955618987059)
(-0.000298467960253 0.00468155249308 0.000259542702591)
(-0.000879432331902 0.00547921998268 -0.000290314161967)
(0.00119955756522 0.00409523790981 -1.79689087946e-05)
(0.000341358033439 0.00336179830814 0.000426357235998)
(0.000912253011402 0.00429130001051 0.000121930228888)
(0.00305558490793 0.00411006700322 -0.000411585202901)
(0.00206843642351 0.00339677739591 -0.000321220773106)
(0.00283463217734 0.00424903852377 -0.000509599398176)
(0.00464368989091 0.00409319723743 -0.000257880913962)
(0.00391020512992 0.00338239208808 -0.000348960347969)
(0.00448414888295 0.00418880374455 -0.000250204328645)
(0.00561681433515 0.00408785875932 0.000173334443057)
(0.0052088907179 0.00336472738305 -1.52840718258e-05)
(0.00547792015542 0.0041304677203 0.000355680717537)
(0.00587613876376 0.00409051637797 0.000701372957247)
(0.00590330157358 0.00335712328552 0.000528073829475)
(0.00588616084676 0.00406552620047 0.00106802090016)
(0.00545811790306 0.00405695931039 0.00115793095821)
(0.00576466918218 0.00334084114634 0.00106118137984)
(0.00566189421377 0.00400497959577 0.0017458478958)
(0.00451502286597 0.00397923669946 0.00153746472555)
(0.0050872676324 0.00326255173601 0.00145359862688)
(0.00495497536287 0.00390980178044 0.00226532019257)
(0.00318104879539 0.00393278438393 0.00171177888562)
(0.00394872405121 0.00316794334283 0.00171093994863)
(0.00381361540021 0.00380554832531 0.00266956052672)
(0.00165262172086 0.00392313346206 0.00170543432101)
(0.0024821311524 0.0031418931366 0.00171234055474)
(0.00238924483014 0.0037448287553 0.0028348067043)
(6.38786951441e-06 0.00391585664432 0.00171079050085)
(0.000839928747287 0.00312237436353 0.00173395318162)
(0.000813418844084 0.00370483601957 0.00292988927655)
(-0.00164012117561 0.0039226543816 0.00170573030224)
(-0.000827536933709 0.00312240079244 0.0017336390832)
(-0.000800445091512 0.0037047638625 0.00293005761678)
(-0.0031696585331 0.00393192640562 0.00171263346254)
(-0.00247007804194 0.00314191763051 0.00171247080489)
(-0.0023768551729 0.00374467158602 0.00283538003817)
(-0.00450587311931 0.00397774655577 0.00153851223461)
(-0.00393875451377 0.00316762277655 0.00171213701229)
(-0.00380292219201 0.00380498440551 0.00267093401826)
(-0.00545133639215 0.00405453175789 0.00115891581546)
(-0.00508018119831 0.00326129462212 0.00145463676194)
(-0.00494665392788 0.00390799599733 0.00226663622217)
(-0.00587196177546 0.00408740016515 0.000702380225867)
(-0.00575993835325 0.00333860840273 0.0010620211621)
(-0.00565603841688 0.00400175266168 0.00174737246302)
(-0.00561456725044 0.00408461557446 0.000174039584004)
(-0.00590074804269 0.0033542425793 0.000528693270394)
(-0.00588267193526 0.00406147803708 0.00106919956078)
(-0.00464257947951 0.00409025461157 -0.000257670529734)
(-0.00520758197707 0.00336180353087 -1.53062737961e-05)
(-0.00547588492753 0.00412609162642 0.000356185020392)
(-0.00305502161357 0.00410783720415 -0.000411612934021)
(-0.00390946502412 0.00338000699349 -0.000349092213864)
(-0.00448291995287 0.00418504806815 -0.000250434154092)
(-0.00119945437872 0.00409427722738 -1.83162137919e-05)
(-0.00206807247562 0.00339544334131 -0.000321364043167)
(-0.0028339385458 0.00424639981187 -0.000510123084349)
(-0.000341701659902 0.00336207635091 0.000425805972124)
(-0.000912311682431 0.00429055309851 0.000120699066754)
(0.00123468890772 0.00259143113288 0.000123105371686)
(0.000376292020797 0.00174485446827 0.000518273538885)
(0.000947448576128 0.002713481269 0.000383422416436)
(0.00308662168362 0.00259952044811 -0.000258595918175)
(0.00208822356277 0.0017617913573 -0.000207423544443)
(0.00286467201072 0.00268806155465 -0.000215785119899)
(0.0046645485388 0.0025880554656 -0.000106363505833)
(0.00392734886451 0.00175379653345 -0.000240466311632)
(0.00450728914805 0.00265100547757 5.16226686431e-05)
(0.00561622637028 0.00258486366938 0.000339455314592)
(0.00521785731651 0.00173845780908 8.45669099145e-05)
(0.00546493043051 0.00260487955764 0.00067528253898)
(0.00585411460249 0.0025859681101 0.000887882252065)
(0.00591078568198 0.0017430359202 0.000659877795101)
(0.00584356941404 0.00257165859369 0.001376676151)
(0.00541794963844 0.00255294610851 0.00135684904851)
(0.00574035219169 0.00173481755554 0.00120380848865)
(0.00559031295321 0.00252911259421 0.00204255911154)
(0.0044600641718 0.0024988558042 0.00162707384996)
(0.00504032992382 0.00168597152242 0.00160741622196)
(0.00486887078499 0.00245227886511 0.00253483763887)
(0.00315618773176 0.0024702247221 0.00171150161775)
(0.003939063944 0.00164134666525 0.00170568287319)
(0.00375361315986 0.00238272297922 0.00283090125604)
(0.00164121867759 0.00245831832695 0.00174085941536)
(0.0024703418835 0.00162828217913 0.00174153393037)
(0.00234265870489 0.00233508706391 0.00302905747551)
(5.93816346989e-06 0.00245182772192 0.00175680176397)
(0.000829298229455 0.00161783903494 0.00177380258219)
(0.000791880816087 0.0023024639605 0.00314030399173)
(-0.00162928843624 0.00245848534675 0.00174037958586)
(-0.000817027436423 0.00161821351192 0.00177364490783)
(-0.000779347584473 0.00230267014533 0.00313986262678)
(-0.00314531088307 0.00247029169823 0.00171197435465)
(-0.00245861761447 0.00162912999875 0.00174185148143)
(-0.00233037783558 0.00233551424117 0.00302917399085)
(-0.00445196728269 0.00249838041865 0.00162826153961)
(-0.00392991648399 0.00164174983673 0.00170720707332)
(-0.00374362005874 0.00238280531502 0.0028327776171)
(-0.00541257193044 0.00255156403627 0.00135774210858)
(-0.0050344652053 0.0016855607575 0.00160855323456)
(-0.00486203457058 0.00245148220209 0.00253647759637)
(-0.00585123989174 0.00258368025407 0.000888334206622)
(-0.00573694737641 0.00173369657033 0.0012045018749)
(-0.0055861138796 0.00252697839313 0.00204367792886)
(-0.00561490732741 0.00258214388855 0.000339347412594)
(-0.00590932171212 0.00174113154508 0.00065978467946)
(-0.00584154606412 0.00256831596923 0.00137696012843)
(-0.00466368248701 0.0025856339877 -0.000106727957926)
(-0.00521701304364 0.00173647322011 8.38122611669e-05)
(-0.00546370192912 0.00260100286075 0.000674512789099)
(-0.00308617125196 0.00259798898725 -0.000258843323009)
(-0.00392679348133 0.00175236007325 -0.00024091608)
(-0.00450634156755 0.00264787523496 5.08643555121e-05)
(-0.0012345488571 0.00259131915794 0.000122758142749)
(-0.0020879670935 0.0017615223057 -0.000207727224687)
(-0.00286427344272 0.00268625982112 -0.000216658268653)
(-0.000376543851248 0.00174621532644 0.000517867150946)
(-0.000947574167628 0.00271366208014 0.000382121157683)
(0.00125374291779 0.000878662948562 0.000187744622756)
(0.000389123457086 -1.31767868901e-05 0.000546804388108)
(0.000967615828746 0.000920010016405 0.000505486455836)