/*--------------------------------*- C++ -*----------------------------------*\
| =========                 |                                                 |
| \\      /  F ield         | OpenFOAM: The Open Source CFD Toolbox           |
|  \\    /   O peration     | Version:  3.0.1                                 |
|   \\  /    A nd           | Web:      www.OpenFOAM.org                      |
|    \\/     M anipulation  |                                                 |
\*---------------------------------------------------------------------------*/
FoamFile
{
    version     2.0;
    format      ascii;
    class       volScalarField;
    location    "3.1";
    object      epsilon_0;
}
// * * * * * * * * * * * * * * * * * * * * * * * * * * * * * * * * * * * * * //

dimensions      [0 2 -3 0 0 0 0];

internalField   nonuniform List<scalar> 
7968
(
0.000788603272481
0.000918814854759
0.00101996116356
0.00107835066938
0.00110565793212
0.00111333264734
0.00111047230736
0.00110263143321
0.00109420132327
0.0010878160788
0.00108781708155
0.00109420308434
0.00110264094364
0.00111049679494
0.00111337413589
0.00110571630837
0.0010784143491
0.00102002105479
0.000918871403164
0.000788631130304
0.000918792457823
0.00151858029751
0.00195478457319
0.00221119353561
0.00233749675789
0.00237904796467
0.00237418915165
0.00235017398591
0.00232692195252
0.00231359047591
0.00231355810031
0.00232684001537
0.00235006583572
0.00237408758756
0.00237899672186
0.00233753188486
0.00221129932827
0.00195491797626
0.00151870782801
0.000918845272944
0.00101990253108
0.00195470707772
0.00264954902929
0.00306987106058
0.00328698020003
0.00336722342647
0.00336922249262
0.00333875810516
0.00330788015444
0.00329062688981
0.00329055396505
0.00330768482734
0.00333847161416
0.0033689025205
0.00336696298608
0.00328685709123
0.00306988548812
0.0026496462132
0.00195482790266
0.00101996217153
0.00107823304637
0.00221099797095
0.00306977257856
0.0035931465597
0.00386101965991
0.00395352320651
0.00394778913542
0.00390365616157
0.00386237321056
0.00384077666284
0.00384067139254
0.00386206398731
0.00390317565633
0.00394721922898
0.00395299442202
0.00386066040161
0.00359298016546
0.00306975012552
0.00221105508699
0.0010782890266
0.0011054757888
0.0023372338268
0.00328690655042
0.00386113336032
0.00413896641543
0.00421660515864
0.00423715298165
0.00423075706588
0.00420826537377
0.00419192078803
0.00419184359766
0.00420804632676
0.00423041884741
0.00423672145339
0.00421589726037
0.00413837532793
0.00386074830271
0.00328671329706
0.00233718055049
0.00110550991474
0.00111310817557
0.00237885471165
0.00336742901593
0.00395417814277
0.00421731377504
0.00436317432228
0.00442400517461
0.00442185819264
0.00439655369557
0.00437702635125
0.00437695883392
0.00439635705885
0.00442154282967
0.00442360450572
0.00436267953417
0.00421659434297
0.00395360954299
0.00336707285106
0.00237868312034
0.00111310714863
0.00111022475
0.00237416242413
0.00336990958559
0.00394930700353
0.00423803834154
0.00442448414185
0.00448799608493
0.00447564120756
0.00443908801929
0.00441254626183
0.00441248969692
0.00443892223702
0.00447536760347
0.00448764049618
0.0044240770468
0.00423757245104
0.00394870757518
0.00336948107498
0.00237391133163
0.00111018779356
0.0011023640628
0.00235029378292
0.00333985202705
0.00390592910426
0.00423211767355
0.00442275945124
0.00447596029461
0.00444747302764
0.00439572168081
0.00435979289809
0.00435974366945
0.00439558681402
0.00444726208796
0.0044757055407
0.00442247744502
0.00423179994212
0.00390551248559
0.00333949579649
0.00235003801685
0.0011023018111
0.00109390077915
0.00232704597772
0.00330904701127
0.00386486032893
0.00420988475998
0.00439769503677
0.00443950288531
0.00439571728752
0.00432875876165
0.00428291455117
0.00428287886532
0.00432869042301
0.00439564688198
0.00443943601104
0.00439762747125
0.00420980582026
0.00386480335796
0.00330890008139
0.002326868157
0.00109382971124
0.00108748593042
0.00231359795602
0.00329154322635
0.00384276594131
0.00419346598719
0.00437823463615
0.00441304727293
0.00435983699402
0.00428289813514
0.00422922143307
0.00422925821835
0.0042829996555
0.00435999369216
0.00441323739827
0.00437844643408
0.00419368583841
0.00384311269875
0.00329168831424
0.00231356160643
0.00108742852515
0.00108753815137
0.00231349396402
0.00329123327852
0.00384230203183
0.00419322540902
0.00437808746238
0.00441299923735
0.00435988496408
0.00428301170522
0.0042294185845
0.0042295418528
0.00428332134934
0.00436029898575
0.00441347155474
0.00437859991874
0.00419376367127
0.00384307352793
0.00329168175729
0.00231361531592
0.00108751211206
0.00109399586508
0.00232677983692
0.0033082286975
0.00386351897055
0.0042092693102
0.00439737729137
0.00443948233425
0.00439598636274
0.00432927332766
0.00428367036026
0.00428380931177
0.00432964323702
0.00439651445333
0.00444012358207
0.00439809300729
0.00421004996375
0.0038647015288
0.00330890002981
0.00232701526847
0.00109399056367
0.0011024874699
0.00234999974852
0.00333882071175
0.00390419556347
0.00423139628231
0.00442248602224
0.00447613622933
0.00444807024774
0.00439670910369
0.00436112465204
0.00436125355351
0.00439705549678
0.00444859339729
0.00447681474398
0.00442326693269
0.00423225092702
0.00390547287528
0.00333954695962
0.00235026504044
0.00110248676447
0.00111038257108
0.0023739940669
0.00336900550149
0.00394768196995
0.00423737556128
0.00442438706008
0.00448844942438
0.00447660500852
0.00444048637095
0.00441429439332
0.00441440374731
0.00444078301459
0.00447706971255
0.00448906733825
0.00442511717893
0.00423818713756
0.00394878176394
0.00336960329744
0.00237419431417
0.00111036842848
0.00111329859155
0.00237891790523
0.00336691116957
0.00395301922153
0.00421610889311
0.00436316431188
0.00442468367513
0.00442310564171
0.00439827003474
0.00437907727084
0.00437916810853
0.00439851785701
0.00442349544404
0.00442520751721
0.00436383403736
0.00421713422061
0.00395372704628
0.00336724386638
0.0023789929332
0.00111326612732
0.00110568351671
0.00233753948692
0.00328682727725
0.00386056064972
0.00413824620829
0.00421643099168
0.0042379037018
0.00423212098292
0.00421010283105
0.0041940451034
0.00419412292008
0.00421031593439
0.00423245004432
0.00423834174579
0.00421711028895
0.00413878399645
0.0038608357089
0.00328689270364
0.00233749286829
0.00110563768473
0.00107841093516
0.00221143516968
0.00307002116653
0.00359306718978
0.00386077076562
0.00395352949838
0.00394846612165
0.00390508470423
0.00386435679656
0.00384297910118
0.00384306279346
0.00386458275803
0.00390542073855
0.00394886412296
0.00395388600506
0.00386096306416
0.00359309120439
0.00306993911661
0.0022113289267
0.0010783658166
0.00102002955539
0.0019551428879
0.00264993975596
0.00307008822048
0.00328706897083
0.00336738933337
0.00336970761718
0.00333965742234
0.00330910709386
0.0032920514093
0.00329213980477
0.00330932470098
0.00333994484243
0.00336999623123
0.00336760394393
0.0032871505077
0.00307004894922
0.00264983401439
0.00195504163169
0.00101999217586
0.000918869323382
0.00151889206813
0.00195511806276
0.00221146530545
0.00233769626439
0.00237924895114
0.00237450555647
0.00235067442604
0.00232758797124
0.00231438002445
0.00231445531656
0.00232777413691
0.0023509140789
0.00237473555286
0.00237941549442
0.00233776849645
0.00221144559245
0.00195504792365
0.00151882524762
0.000918843052229
0.000788623437629
0.000918892382069
0.00102005742752
0.00107844392363
0.00110573783951
0.00111339558936
0.00111053484241
0.00110271278231
0.00109430841793
0.00108795619889
0.00108799426263
0.00109438864398
0.00110280529357
0.00111061569522
0.00111344830602
0.0011057593503
0.00107843597207
0.00102003524367
0.000918874368249
0.000788611679644
0.000900038021903
0.00139423924856
0.00178349691717
0.0020328560671
0.00217389469837
0.00223974578116
0.00225891652311
0.00225382471879
0.00224172075307
0.00223295358287
0.00223293797383
0.00224168294303
0.00225378021954
0.0022588831851
0.00223974086291
0.00217392901251
0.00203291496492
0.00178356101138
0.00139430159224
0.000900069912172
0.0013941599581
0.00167678078875
0.00201729684099
0.00225337927169
0.00239528878732
0.00246812349653
0.00249645726537
0.00250058739523
0.00249588211239
0.00249144252554
0.00249142025881
0.00249582402285
0.00250050805915
0.00249637588383
0.00246806392982
0.00239526962238
0.00225339802362
0.00201733871841
0.00167682993347
0.00139420215106
0.00178334403173
0.00201722317393
0.00238786132829
0.00265735602436
0.00282485050999
0.00291349333574
0.00294958624763
0.00295632690928
0.00295180646504
0.00294704925124
0.002947020427
0.00295172751108
0.00295621199229
0.00294945650208
0.00291338000174
0.00282477975783
0.00265733113063
0.00238786940858
0.00201724728703
0.00178337479843
0.0020326070221
0.00225323642507
0.00265729264063
0.00295874243162
0.00314994117322
0.00325348386088
0.0032982177449
0.0033088793995
0.0033055737674
0.00330114378777
0.00330111438498
0.00330548235254
0.00330873946964
0.00329804635355
0.00325331318759
0.00314980424249
0.00295865162864
0.00265724186981
0.00225321342017
0.00203260467803
0.0021735740865
0.00239510998506
0.00282476943043
0.00314993789298
0.00335911800059
0.0034776603611
0.00354238341181
0.00356907598508
0.00357396565561
0.00357217116889
0.00357214897881
0.00357390127506
0.00356897661492
0.00354225078054
0.00347747688406
0.00335892319517
0.00314977368877
0.00282464596509
0.00239502299003
0.00217351040843
0.00223942397271
0.0024679703472
0.00291347385176
0.00325357739089
0.00347774364685
0.00362593795894
0.00371128857461
0.00374879143875
0.00375818793854
0.00375761286571
0.00375759395478
0.00375813200186
0.00374870452942
0.00371117161591
0.00362577960074
0.00347753111738
0.00325335470017
0.00291328426456
0.00246781899775
0.00223928596739
0.00225866343885
0.00249637851883
0.00294968732483
0.0032984694877
0.0035424936171
0.00371132826809
0.00380932539442
0.00385239784591
0.00386296053685
0.00386200423973
0.00386198436685
0.00386290442603
0.00385231496346
0.0038092132974
0.00371118095361
0.0035423051612
0.0032982303955
0.00294946577054
0.00249618613104
0.00225846792605
0.00225364811981
0.00250057519974
0.00295652679117
0.00330925557235
0.00356923966473
0.00374886563109
0.00385245667871
0.00389651163958
0.00390552004237
0.00390259782974
0.00390257643843
0.00390546418293
0.00389643135902
0.00385234836173
0.00374872651703
0.00356907378576
0.00330905539159
0.00295632537877
0.00250038361378
0.00225343918281
0.00224155689845
0.00249587510136
0.00295202192052
0.00330598599514
0.00357417155497
0.00375829793966
0.00386305928097
0.00390558289291
0.00391057699109
0.00390429988138
0.00390428794335
0.00391054314333
0.00390552141574
0.00386297566723
0.00375819363015
0.00357405533018
0.00330587065217
0.00295189042837
0.00249572876042
0.00224138682658
0.00223274399889
0.00249139044864
0.00294719911222
0.00330143047146
0.00357238943386
0.00375777673822
0.00386214603338
0.00390270060534
0.00390435455432
0.003895428304
0.00389542633931
0.0039043492103
0.00390268288616
0.00386211797704
0.00375773593155
0.00357234659401
0.00330140949056
0.00294716941586
0.00249132294115
0.00223265859237
0.00223271793946
0.00249134295734
0.00294712131418
0.00330136250319
0.00357238040632
0.00375780601958
0.00386220035267
0.00390278226073
0.00390447656474
0.0038955758718
0.00389559433606
0.00390451268246
0.00390282223472
0.00386224194315
0.00375784133541
0.0035724266238
0.00330145773979
0.00294720384483
0.00249136426407
0.00223273283844
0.00224150207712
0.00249575987883
0.00295181915834
0.00330576120902
0.00357415281942
0.00375839124739
0.00386322239134
0.00390581204386
0.00391089178568
0.0039046774437
0.00390470764307
0.00391095742788
0.00390589271659
0.00386331120745
0.00375848445462
0.00357427880416
0.00330599492961
0.00295199151903
0.0024958465021
0.00224158699904
0.00225363365385
0.00250046019701
0.00295628795507
0.00330897894197
0.00356924468527
0.00374902752235
0.00385272369763
0.00389688313423
0.00390598842284
0.00390314165415
0.00390317319757
0.00390606530595
0.00389698453825
0.00385283856779
0.00374915609914
0.00356941452363
0.00330926100887
0.00295649364284
0.00250056875831
0.002253736109
0.00225876309889
0.00249634222069
0.00294951311104
0.00329822971069
0.00354253236529
0.00371155569622
0.00380968369279
0.003852889427
0.0038635681638
0.00386269871734
0.00386273149068
0.0038636537714
0.00385300768707
0.00380981698834
0.0037117080483
0.00354272413755
0.0032985001119
0.00294969403676
0.00249642624621
0.00225882997978
0.00223968163466
0.00246807201551
0.00291344898506
0.00325346312667
0.00347775007424
0.00362618762699
0.00371170673115
0.00374935116278
0.00375887141027
0.00375839402669
0.00375842972589
0.00375896583412
0.00374948368133
0.00371185990328
0.00362636684133
0.00347797581423
0.00325366239218
0.0029135598821
0.00246810184248
0.00223968635354
0.00217396794986
0.0023953563651
0.00282491585382
0.00314998615135
0.00335917444829
0.00347789124117
0.00354281116233
0.00356966588713
0.00357468984091
0.00357298960706
0.00357302795704
0.00357479209371
0.0035698110248
0.00354298068224
0.0034780867473
0.00335934900534
0.0031500929446
0.00282495149729
0.00239533393791
0.00217391958126
0.00203305115061
0.00225358337187
0.00265757939951
0.00295894098551
0.00315010016462
0.0032537164616
0.00329862082557
0.00330947794272
0.00330633159734
0.00330197303685
0.00330201482373
0.00330644484496
0.00330963803355
0.00329879930523
0.00325387791476
0.00315020862224
0.00295898666414
0.0026575721194
0.00225353646956
0.00203298513772
0.00178374576534
0.00201760985425
0.00238823199779
0.00265766087617
0.00282510071951
0.00291375691383
0.00294994400243
0.00295681990547
0.00295242193652
0.00294775342177
0.00294779798058
0.00295253596745
0.00295697267591
0.0029501010058
0.00291388563192
0.00282517773724
0.00265768497561
0.00238821495726
0.00201756469622
0.00178368779306
0.00139442937602
0.00167715003573
0.00201769451973
0.00225373762458
0.00239559512315
0.00246841516997
0.00249679615501
0.00250101587891
0.00249640039618
0.00249203612881
0.00249207955236
0.00249650906146
0.00250115674253
0.00249693467458
0.00246852362429
0.00239565785978
0.00225375504512
0.00201767989252
0.00167711665985
0.00139438808852
0.000900078227336
0.00139457328058
0.00178392543229
0.00203326842052
0.00217426211785
0.00224009569528
0.00225931733351
0.00225432924167
0.00224233264049
0.00223365892349
0.00223372530412
0.00224249674536
0.00225454129854
0.00225952826745
0.00224026726313
0.00217437319312
0.00203331693066
0.00178393312483
0.00139456556831
0.00090006018386
0.000985973078222
0.00171493389869
0.00231496905418
0.00271849298965
0.00296180893143
0.00308891743128
0.00314006009593
0.00314943753989
0.00314338869999
0.00313713028592
0.00313710341458
0.00314332491758
0.00314935996507
0.00313999377031
0.00308889392984
0.00296185003476
0.00271857978786
0.00231507037291
0.00171502866911
0.000986011763499
0.00171481358592
0.00196938840268
0.00235388518715
0.00264123552275
0.00282929882102
0.00293876950319
0.0029933811667
0.00301478933176
0.00302012251168
0.00302022676295
0.00302020543887
0.00302006729546
0.00301471342201
0.00299330034146
0.00293870729779
0.00282927678451
0.00264125472288
0.00235393406882
0.00196945081974
0.00171488114977
0.00231473827325
0.00235380101292
0.00268862623779
0.00296075122549
0.00314700824589
0.00325948191354
0.00331793791923
0.00334230881905
0.00334923498655
0.00334979716344
0.00334977830019
0.00334918446981
0.00334223356812
0.00331784562939
0.00325939724328
0.00314695457124
0.00296073310628
0.00268863579441
0.00235382583404
0.00231478189931
0.00271813185639
0.00264108245315
0.00296068562778
0.00323554888006
0.00342986464239
0.00355096644841
0.00361632414096
0.00364553304556
0.00365585821617
0.0036574857663
0.00365747299392
0.00365582483941
0.00364547568253
0.00361622212968
0.00355085662769
0.00342976974422
0.00323547734629
0.00296063532531
0.00264104705277
0.00271811130043
0.00296137911794
0.00282911282738
0.00314690945126
0.00342982811867
0.00363549032147
0.00377022322808
0.00384824456421
0.00388570170577
0.00389870135585
0.00390101114637
0.00390100142305
0.00389866954986
0.00388564677069
0.00384816313534
0.0037701186676
0.00363536177132
0.00342969931229
0.0031467903129
0.00282900358569
0.0029612592834
0.00308853027641
0.00293860178444
0.00325939575554
0.00355093346717
0.00377019859065
0.00391996840913
0.00401046746903
0.00405555226285
0.00407142609876
0.00407444297395
0.00407443272493
0.00407138962057
0.00405549332504
0.00401038565128
0.0039198588571
0.00377005839301
0.00355075707456
0.00325921518497
0.00293842120986
0.00308830011897
0.00313983196133
0.00299327381491
0.0033178930253
0.00361631270836
0.00384819976346
0.00401044740663
0.00411106719833
0.00416154936905
0.0041788543686
0.00418180974739
0.00418179514798
0.0041788089369
0.00416148601263
0.00411097598228
0.00401032411742
0.0038480466297
0.00361611490754
0.0033176811525
0.00299304992455
0.00313953016941
0.00314937147212
0.00301472908499
0.00334227039316
0.00364542607992
0.00388561296718
0.00405551354678
0.00416161275249
0.00421381780244
0.0042301362655
0.00423152102683
0.00423150455244
0.0042300891827
0.00421375185934
0.00416150712404
0.00405537550659
0.00388546059834
0.00364525281635
0.00334206978596
0.00301450660349
0.00314907696083
0.00314335380458
0.00302004679961
0.00334916390275
0.00365571172626
0.00389858070164
0.0040713511636
0.00417890441806
0.00423017698793
0.00424349498764
0.00424243870715
0.00424243589389
0.00424347015145
0.00423010021685
0.0041787927694
0.00407122537456
0.00389845079422
0.00365557004907
0.00334901077529
0.00301987183767
0.00314315058581
0.00313699912583
0.00302008721786
0.00334967303502
0.00365735841773
0.00390089811217
0.00407437107114
0.00418180914942
0.00423150988427
0.00424243574867
0.00423977685314
0.00423976210902
0.00424240065528
0.0042314374368
0.00418171996912
0.00407428174433
0.00390081181904
0.00365727776638
0.00334959749162
0.00301999442282
0.00313694788671
0.00313689110801
0.00302001803868
0.00334960494348
0.00365732274826
0.00390089253945
0.00407439602955
0.00418185630136
0.00423158483209
0.00424256626544
0.00423992113773
0.00423991748684
0.0042425371005
0.00423153492369
0.00418180664696
0.00407435246732
0.00390085854089
0.00365730634476
0.00334961251972
0.00302001485049
0.00313700210657
0.00314309324929
0.00301987357384
0.00334899194548
0.00365564161848
0.00389856594075
0.00407141277024
0.00417902658394
0.00423035534864
0.00424375879897
0.00424273346321
0.00424274697615
0.00424376686018
0.00423035114085
0.00417901763452
0.00407141249898
0.00389857804387
0.00365565841651
0.00334905816086
0.00301993371003
0.00314331389402
0.00314910201928
0.00301452878651
0.00334205280565
0.00364532041602
0.00388558128609
0.00405558068188
0.00416177662202
0.00421409640788
0.00423047678232
0.00423188599581
0.00423190353599
0.00423051339721
0.00421413727493
0.00416180758464
0.00405561907665
0.00388563444585
0.00364537826044
0.00334214730986
0.00301460968928
0.00314934834939
0.00313971505986
0.00299313790291
0.00331769833201
0.00361612104552
0.00384815758316
0.00401052470826
0.00411125379714
0.004161877881
0.00417927194206
0.00418226456247
0.00418228638329
0.00417933054188
0.00416195278491
0.00411132141907
0.00401059564262
0.00384824182273
0.00361623854567
0.00331778897186
0.00299319655013
0.0031399030461
0.0030886881811
0.00293861267709
0.00325932098649
0.00355081747744
0.00377018229394
0.00392006028644
0.00401066604256
0.00405586699387
0.00407183015097
0.0040749100702
0.00407493990366
0.00407191023475
0.00405597139603
0.00401076552882
0.00392015260414
0.00377026975394
0.00355090432501
0.00325936956787
0.00293862222694
0.00308876966015
0.0029618102905
0.00282929383159
0.00314699195358
0.00342983349536
0.00363549239763
0.00377031215639
0.00384842183317
0.0038859735437
0.0038990531478
0.00390143092279
0.00390146634095
0.00389914601816
0.00388609597369
0.00384854332858
0.00377041550821
0.00363557158389
0.00342987410703
0.00314699386146
0.00282925876351
0.00296179878897
0.00271872877601
0.00264140521312
0.00296091966346
0.00323569277182
0.00342995033801
0.00355106148418
0.00361648769647
0.00364578062494
0.00365617569788
0.00365788481253
0.00365792450275
0.00365627661502
0.00364591365363
0.00361662581353
0.00355116916663
0.00343001012643
0.00323571045806
0.00296090211252
0.00264135582141
0.00271868164899
0.0023153485525
0.00235421640557
0.00268898543398
0.00296102677778
0.00314720699907
0.00325965015385
0.00331813472475
0.00334257589701
0.00334957676578
0.00335021192381
0.00335025730773
0.00334968971951
0.00334271993655
0.00331827231712
0.00325975458471
0.00314726499069
0.00296104474324
0.00268897252298
0.00235417899564
0.00231531056897
0.00171525508226
0.00196985138029
0.0023543507053
0.0026416356681
0.00282961927418
0.00293904575574
0.00299367833446
0.0030151593592
0.00302057192505
0.00302074821018
0.00302079560949
0.00302068881853
0.00301530687107
0.00299381788355
0.00293915271173
0.00282968140174
0.0026416589514
0.0023543485834
0.00196983286414
0.00171523142965
0.000986018277646
0.00171547529917
0.00231566962427
0.00271916251193
0.00296239941224
0.00308947974404
0.00314071285892
0.00315026479831
0.00314438109993
0.00313825318839
0.00313834935961
0.00314462411977
0.0031505919687
0.0031410567848
0.00308978357328
0.00296262087853
0.00271929465939
0.00231573428182
0.00171549610293
0.000985998046148
0.00104464880575
0.00192943355301
0.00268135612943
0.00320306734197
0.00352979155305
0.00371126312173
0.00379588145701
0.00382619674544
0.00383366782977
0.00383465633752
0.00383461495098
0.00383356895389
0.00382607135642
0.00379576236216
0.00371120091265
0.00352982873621
0.00320318583215
0.00268151178296
0.00192958099536
0.00104469434771
0.00192929044471
0.00218761903768
0.00262854461657
0.00297234910981
0.00320842765915
0.00335486258338
0.0034358630625
0.0034750644966
0.00349134335682
0.00349673277892
0.0034967123267
0.00349129101568
0.00347499229072
0.00343578405455
0.00335480019174
0.003208409641
0.00297238149241
0.00262861770529
0.00218771421071
0.00192940330259
0.00268107293341
0.00262845942293
0.0029770039772
0.00327744227388
0.00349384240877
0.00363302403214
0.00371255902601
0.00375194728167
0.003767663716
0.00377219301983
0.00377218008351
0.00376762950671
0.00375189340061
0.00371248467057
0.00363294846355
0.00349379600134
0.00327743344808
0.00297702631621
0.00262850272635
0.002681149847
0.00320263348805
0.00297219667761
0.00327737768011
0.00356190396864
0.00377446191249
0.00391568190962
0.00399906325492
0.00404271646566
0.00405907963192
0.00406288890758
0.00406288410879
0.00405906154254
0.00404267720984
0.0039989826348
0.00391558266496
0.00377437479595
0.0035618361187
0.00327732734714
0.00297215937922
0.00320260718987
0.00352932916864
0.00320825009447
0.00349373940474
0.00377440569089
0.00399168763472
0.00414432183665
0.00423779699865
0.00428520068463
0.00430158127911
0.00430433944396
0.0043043383035
0.00430156396919
0.00428515974506
0.00423772855946
0.00414422479479
0.00399156606634
0.00377427636086
0.00349360884588
0.00320811969738
0.00352915951908
0.00371092386532
0.00335470444962
0.00363290671685
0.00391557421319
0.00414423346565
0.00430844652752
0.00441057738821
0.00446066303978
0.00447594697224
0.00447730472914
0.00447729573848
0.00447590670446
0.0044605927261
0.00441047908014
0.00430832211251
0.00414408993503
0.00391539103355
0.00363270735982
0.00335448819316
0.00371060485988
0.00379581185725
0.00343575479847
0.00371243202111
0.00399890675722
0.00423761392841
0.00441051535199
0.00451753074136
0.00456744760285
0.00458004786534
0.00457924443654
0.00457922552568
0.00457998538651
0.00456735524395
0.00451739815486
0.00441035145537
0.00423744277171
0.00399869870071
0.00371220066389
0.00343548795948
0.00379540934126
0.00382637202259
0.00347498555165
0.00375177596221
0.0040424388663
0.00428492579805
0.00446058182665
0.00456750875932
0.00461432434184
0.00462304873425
0.00461944374734
0.00461942409535
0.00462298469458
0.00461422369683
0.00456735394185
0.00446039221414
0.00428473874382
0.0040422446629
0.00375155034298
0.00347471502345
0.0038260003946
0.00383385801267
0.00349121764925
0.00376740982
0.00405871464726
0.00430121641649
0.0044757642572
0.00458000909688
0.00462299637759
0.00462741473358
0.00462116469346
0.0046211609235
0.0046273761149
0.00462287879911
0.00457983817797
0.00447557980523
0.00430103655833
0.00405854048934
0.00376722111072
0.00349099247634
0.0038336302396
0.00383464513461
0.00349650104181
0.00377184345383
0.00406247421492
0.00430393883567
0.00447702515494
0.00457901575667
0.00461920798431
0.0046210476456
0.0046134803024
0.00461345962818
0.00462099035325
0.00461908700026
0.00457886020827
0.00447686853303
0.00430378215823
0.00406233932444
0.00377172212592
0.0034963590408
0.00383463450994
0.00383440916503
0.00349638365622
0.0037717359783
0.00406240409647
0.00430390249999
0.00447701058779
0.00457901846025
0.00461924076611
0.00462114008688
0.00461358417767
0.00461357568664
0.00462108886273
0.00461914551219
0.0045789056615
0.0044768925917
0.00430377832765
0.0040623163294
0.00377168662893
0.00349632987327
0.00383461417607
0.00383324584044
0.00349090956936
0.00376712653734
0.00405852164579
0.00430109952653
0.00447570491649
0.00458000991582
0.00462306238327
0.00462757440553
0.00462135278314
0.00462136805844
0.004627576658
0.00462303637065
0.00457996097176
0.004475640391
0.00430101580776
0.00405847366823
0.00376712491017
0.00349091566001
0.0038335926413
0.00382559946912
0.00347458503847
0.00375138907322
0.00404214577356
0.00428472145327
0.00446045687285
0.00456750478183
0.00461445826186
0.00462324551119
0.00461965876099
0.004619682079
0.00462329072374
0.00461450004563
0.0045675165896
0.00446043906194
0.00428467755916
0.00404213190382
0.00375140706944
0.0034746083393
0.0038259738855
0.00379514775394
0.00343538295031
0.00371202980666
0.00399850671055
0.00423735768811
0.00441035165723
0.0045175062169
0.00456760834304
0.00458029956625
0.00457951525129
0.00457954339023
0.00458037217235
0.00456769285346
0.0045175562801
0.00441035862364
0.00423733648908
0.00399853244464
0.00371203965469
0.0034353813581
0.00379543432777
0.0037106155949
0.00335447874836
0.00363260873244
0.00391522256622
0.00414397834167
0.00430827499796
0.00441050654381
0.0044607342709
0.00447610638274
0.00447750098083
0.00447753652337
0.00447620073392
0.00446084558172
0.00441057795539
0.00430829140299
0.00414396479982
0.00391522156167
0.00363258433863
0.00335443009844
0.00371074004867
0.00352943458122
0.00320822328358
0.00349361032751
0.00377417828336
0.00399142405654
0.00414410694854
0.00423761937803
0.00428510077337
0.00430154111927
0.00430434378567
0.00430438485208
0.00430164966979
0.00428522831347
0.00423770751721
0.00414413687905
0.00399141225896
0.0037741347902
0.00349354681507
0.0032081347382
0.0035294123689
0.00320304727874
0.00297235757876
0.00327742996697
0.00356184032173
0.00377429489251
0.00391545819353
0.00399884586381
0.00404254888302
0.00405895145214
0.00406280884531
0.00406285471676
0.00405906528974
0.00404268300719
0.0039989521562
0.00391550482811
0.00377427754968
0.0035617918177
0.00327736126722
0.00297226558779
0.00320296754774
0.00268161498893
0.00262876800736
0.00297722180207
0.00327754633959
0.00349382928597
0.0036329200944
0.0037124079754
0.00375180871336
0.00376755973071
0.00377214046128
0.00377219238537
0.00376768202961
0.0037519495661
0.00371251560781
0.00363297539441
0.0034938314555
0.00327751732402
0.00297717371945
0.00262870472832
0.00268155490786
0.00192973554978
0.00218803649791
0.00262892034054
0.00297261848561
0.00320857261766
0.00335490938908
0.00343587490254
0.00347510848495
0.00349143653708
0.00349687992196
0.00349692816657
0.00349155089116
0.0034752418316
0.00343598342883
0.0033549759894
0.00320859239133
0.00297260719129
0.00262889596203
0.00218800685165
0.00192970209492
0.00104464508555
0.00192998764195
0.00268203914041
0.00320365559694
0.00353022840659
0.00371161351645
0.00379631092278
0.00382682625234
0.00383446977358
0.0038355817857
0.00383569293174
0.00383474494508
0.00382719137956
0.00379669082929
0.00371194988889
0.00353046588428
0.00320379538171
0.00268210847847
0.00193000798505
0.00104461752745
0.00109595024921
0.00212762227993
0.00302486944483
0.00366005964513
0.00406835574371
0.004305383009
0.00442950533529
0.00449217636853
0.00452666207185
0.00454403691824
0.00454397487742
0.00452650885142
0.00449197612382
0.00442930356936
0.00430525092988
0.00406835927925
0.0036601860781
0.00302506754769
0.00212781100564
0.00109600134044
0.00212750352715
0.00239012271157
0.00289663448332
0.00330541076878
0.00359540499463
0.00378208369688
0.00389201796924
0.00395242234638
0.00398365814059
0.00399710214688
0.00399707763321
0.00398359429459
0.00395233354632
0.00389191967662
0.00378200140678
0.00359537483303
0.00330544556124
0.00289672542728
0.00239024733849
0.0021276619149
0.00302460243124
0.00289656796754
0.00327836986596
0.00362083305522
0.0038736891435
0.00404077566114
0.00414084098538
0.00419422918875
0.00421791795726
0.0042259496815
0.00422593472471
0.00421788436324
0.00419417069059
0.00414074769018
0.00404066422289
0.00387361080486
0.00362080522759
0.00327838807133
0.00289662220348
0.00302471155741
0.00365964058843
0.0033052937113
0.00362079167478
0.00393061997319
0.00416875892228
0.00433282811447
0.00443438566779
0.00448871603054
0.00450788697348
0.00451138929849
0.00451138382249
0.00450786603589
0.00448866633875
0.0044342991385
0.00433265494877
0.00416861178006
0.00393050832362
0.00362070966506
0.00330523799565
0.0036595973786
0.00406797051688
0.00359528919606
0.00387363281283
0.00416871386663
0.00440767089452
0.00458489553396
0.00469564337934
0.00474846595251
0.0047610381584
0.00475908579229
0.00475908520153
0.00476101464642
0.00474840118029
0.0046955198319
0.00458470991356
0.00440746995379
0.00416851571368
0.00387344485197
0.00359511060958
0.00406773310333
0.00430520776181
0.00378200877891
0.00404071602195
0.00433272086625
0.00458480098304
0.00477252156633
0.00488476888943
0.00492928298826
0.00493168489492
0.00492315339301
0.00492314321086
0.00493163751157
0.00492917361656
0.00488458266048
0.00477228237157
0.00458455733581
0.00433244649762
0.00404044382923
0.00378172101393
0.00430477224079
0.00442967363157
0.00389199070632
0.00414074882803