/*--------------------------------*- C++ -*----------------------------------*\
| =========                 |                                                 |
| \\      /  F ield         | OpenFOAM: The Open Source CFD Toolbox           |
|  \\    /   O peration     | Version:  3.0.1                                 |
|   \\  /    A nd           | Web:      www.OpenFOAM.org                      |
|    \\/     M anipulation  |                                                 |
\*---------------------------------------------------------------------------*/
FoamFile
{
    version     2.0;
    format      ascii;
    class       volScalarField;
    location    "6.3";
    object      alpha.water;
}
// * * * * * * * * * * * * * * * * * * * * * * * * * * * * * * * * * * * * * //

dimensions      [0 0 0 0 0 0 0];

internalField   nonuniform List<scalar> 
7968
(
1.00000000146
1.00000000348
1.00000000262
1.00000001845
1.00000002325
1.00000003267
1.00000004227
1.00000004682
1.00000004729
1.0000000467
1.00000004885
1.0000000389
1.00000003011
1.00000002503
1.00000002277
1.00000001962
1.00000001547
1.00000000902
1.00000001082
1.0000000044
1.00000000371
1.00000000138
1.00000001148
1.00000001555
1.00000002923
1.00000003025
1.00000002279
1.0000000251
1.00000002778
1.00000003279
1.00000002438
1.00000003223
1.00000003031
1.00000002472
1.0000000174
1.00000001502
1.00000001225
1.00000000803
1.00000000593
1.00000000812
1.00000000163
1.00000001142
1.00000000562
1.00000001421
1.00000000816
1.00000001156
1.00000001221
1.00000001085
1.0000000159
1.00000000931
1.00000000967
1.00000001263
1.00000001022
1.00000001069
1.00000001296
1.0000000078
1.00000000451
1.00000001117
1.00000000473
1.00000000116
1.00000001446
1.0000000023
1.00000001454
1.00000000353
1.00000001756
1.00000000511
1.00000000696
1.00000001179
1.00000000467
1.00000000533
1.00000000786
1.00000000313
1.00000000807
1.00000000419
1.00000000195
1.00000000472
1.00000000168
1.00000000469
1.00000000667
1.00000000598
1.00000000177
1.00000001361
1.00000000277
1.00000001439
1.0000000021
1.0000000036
1.0000000102
1.00000000204
1.00000000706
1.00000000754
1.00000000815
1.00000000946
1.00000000073
1.00000000618
1.00000000012
1
1.0000000016
1.00000000076
1.00000000735
1.00000000059
1.00000000717
1.000000002
1.00000000849
1
1.00000000435
1.00000001013
1.00000000311
1.00000001154
1.0000000117
1.00000001986
1.00000002256
1.0000000128
1.00000001407
1.00000000472
1.00000000632
1.00000000044
1.00000000056
1.00000000246
1.00000000087
1.00000001015
1.00000000199
1.00000000728
1.0000000016
1.0000000048
1.00000000559
1.00000000551
1.00000001567
1.00000001646
1.00000002789
1.00000004209
1.00000003598
1.00000003207
1.00000001663
1.00000001902
1.00000000863
1.00000000655
1.00000000235
1.00000000048
1.00000000144
1.00000000015
1.00000000701
1.00000000253
1.00000000719
1.00000000361
1.00000000731
1.00000001896
1.00000002078
1.00000003367
1.00000003053
1.00000000122
1.00000000117
1.00000001859
1.0000000395
1.00000002228
1.00000002498
1.00000000931
1.00000000527
1.00000000473
1.00000000096
1.0000000031
1.00000000296
1.00000000567
1.00000000364
1.00000000822
1.00000002151
1.00000002478
1.00000003315
1.00000001739
1.00000000555
1.0000000054
1.00000000632
1.00000000992
1.00000000744
1.0000000337
1.00000002886
1.00000002555
1.00000000866
1.00000000311
1.00000000592
1.00000000044
1.0000000047
1.00000000428
1.00000000596
1.0000000252
1.00000002977
1.0000000342
1.00000001359
1.00000001355
1.00000001988
1.00000001907
1.00000001769
1.00000001736
1.00000001035
1.00000000974
1.00000003396
1.00000002924
1.0000000222
1.00000000723
1.00000000305
1.00000000316
1.0000000069
1.00000000702
1.00000000907
1.00000001506
1.00000003888
1.00000003863
1.00000001355
1.00000002478
1.00000001903
1.00000002582
1.00000002014
1.00000001742
1.00000001598
1.00000001692
1.00000003349
1.00000002939
1.00000001578
1.0000000125
1.00000000578
1.00000000566
1.00000001236
1.00000001397
1.0000000091
1.00000002809
1.00000002081
1.00000004015
1.00000004037
1.00000001447
1.000000023
1.00000001214
1.00000001193
1.00000001007
1.00000002217
1.00000003385
1.00000003174
1.00000001987
1.00000002031
1.00000000993
1.00000000974
1.00000000088
1.00000000416
1.00000001109
1.00000001993
1.00000000972
1.0000000299
1.0000000238
1.00000003593
1.00000003968
1.00000003007
1.00000001182
1.00000001279
1.00000003749
1.00000003195
1.00000002669
1.00000002065
1.00000002065
1.00000001061
1.00000001905
1.00000000859
1.00000000935
1.00000001717
1.00000000995
1.00000000983
1.00000002109
1.00000000873
1.0000000284
1.00000002134
1.0000000284
1.00000003203
1.00000004595
1.00000004262
1.00000002391
1.00000002058
1.0000000164
1.00000001656
1.00000000875
1.00000001905
1.00000000858
1.00000001606
1.00000000544
1.00000000424
1.00000000867
1.00000001774
1.00000000948
1.00000002018
1.00000000725
1.00000002337
1.00000001494
1.00000002298
1.00000001997
1.00000001538
1.0000000146
1.00000000991
1.00000001143
1.00000000535
1.00000001645
1.00000000772
1.00000001757
1.00000000784
1.00000000739
1.00000000833
1.0000000145
1.00000000973
1.00000002111
1.0000000084
1.0000000186
1.00000000637
1.00000001632
1.00000000806
1.00000001515
1.00000001166
1.00000000478
1.00000000703
1.00000000299
1.00000001378
1.00000000659
1.00000001726
1.0000000071
1.0000000102
1.00000000498
1.00000001433
1.0000000108
1.00000001702
1.0000000101
1.0000000217
1.00000000788
1.00000001567
1.0000000065
1.0000000094
1.00000000879
1.00000000536
1.00000001047
1.00000000388
1.00000001241
1.00000000622
1.00000001661
1.00000000669
1.00000001025
1.00000000721
0.999999999782
1.00000000427
1.00000001764
1.00000001199
1.00000001811
1.00000001127
1.00000001862
1.00000000934
1.00000001323
1.0000000094
1.00000001021
1.00000001498
1.00000000745
1.00000000771
1.00000001469
1.00000001495
1.00000000777
1.00000001013
1.0000000073
1.00000000458
0.999999999184
0.999999998923
1.00000000015
1.00000001049
1.00000001131
1.00000001607
1.00000002146
1.0000000161
1.00000002658
1.00000002142
1.00000030711
1.00000027875
1.00000002857
1.00000003248
1.00000000713
1.00000001714
1.00000000802
1.00000000493
0.999999999809
0.999999999766
0.999999994621
0.999999999031
0.999999996181
0.999999998843
0.999999999803
1.00000000042
1.00000000822
1.00000002698
1.00000001767
1.00000002099
1.00000041343
1.00000031305
1.00000000975
1.00000000119
1.00000000014
1.00000000066
1.00000000005
0.999999999299
0.999999998447
0.999999997186
0.999999996388
1.00000002383
1.00000000003
1.0000000012
1.00000000259
1.00000001835
1.00000001747
1.00000002496
1.00000002352
1.00000002777
1.00000002838
1.0000000259
1.00000002653
1.00000002281
1.00000002299
1.00000001693
1.00000001493
1.00000000479
1.00000001072
1.00000000457
1.00000000564
1.0000000001
1.00000000004
1.00000000308
1.00000000606
1.00000001126
1.00000001855
1.00000001971
1.00000002189
1.00000001663
1.00000001028
1.00000000972
1.00000001159
1.00000001746
1.00000001765
1.00000002299
1.00000000992
1.00000000957
1.00000001085
1.00000000517
0.99999999994
1.00000000008
1.00000000003
1.00000000002
1.00000000043
1.00000001862
1.00000000907
1.00000000947
1.00000001452
1.00000000633
1.00000000713
1.00000000714
1.00000000406
1.00000000887
1.00000000481
1.00000000605
1.00000001465
1.00000000416
1.00000000288
1.00000000856
1.00000000268
1.00000000042
1.00000000074
1.00000000003
1.00000001108
1.00000000804
1.000000005
1.00000001167
1.00000000285
1.00000000729
1.00000000569
1.0000000083
1.00000000916
1.00000000047
1.00000000099
1.00000000104
1.00000000222
1.00000000484
1.00000000094
1.00000000374
1.00000000042
1.0000000111
1.00000000042
1.0000000075
1.00000000247
1.00000000451
1.00000000882
1.00000000511
1.00000001714
1.00000001353
1.00000002537
1.00000003068
1.00000001733
1.00000002
1.0000000099
1.00000000543
1.00000000096
1.00000000127
1.00000000456
1.00000000091
1.00000000692
1.00000000192
1.00000001119
1.00000000255
1.00000000464
1.00000001333
1.00000000961
1.00000002711
1.00000001963
1.00000004749
1.00000006796
1.00000005817
1.00000005481
1.0000000161
1.00000002763
1.00000002082
1.00000001104
1.00000000137
1.00000000399
1.00000001144
1.00000000079
1.00000000703
1.00000000274
1.00000000521
1.0000000153
1.00000001066
1.00000003095
1.00000002345
1.00000006221
1.00000005402
1.00000000396
1.00000000041
1.00000003033
1.00000006428
1.00000001786
1.00000003329
1.00000001961
1.00000001365
1.00000000284
1.00000000258
1.00000001208
1.00000000778
1.00000000631
1.000000014
1.0000000103
1.00000003073
1.00000003045
1.00000006409
1.00000003966
1.00000000943
1.00000000923
1.00000000874
1.00000000964
1.00000002001
1.00000005519
1.00000002544
1.0000000365
1.00000001343
1.00000000494
1.00000000569
1.00000000161
1.00000000695
1.00000000323
1.0000000097
1.00000002556
1.00000003163
1.00000004514
1.00000001994
1.0000000249
1.00000002588
1.00000002411
1.000000024
1.00000002644
1.00000002004
1.000000021
1.00000002536
1.00000003193
1.00000002683
1.00000001219
1.00000000468
1.00000000564
1.00000000497
1.00000000873
1.0000000252
1.00000002999
1.00000003102
1.00000002766
1.00000002603
1.0000000331
1.00000003762
1.00000003812
1.00000003825
1.00000003821
1.00000003419
1.00000002631
1.00000002344
1.00000002626
1.00000003157
1.00000002544
1.00000000638
1.00000000266
1.00000000869
1.00000001844
1.00000001733
1.00000003801
1.0000000345
1.00000002252
1.00000002997
1.00000003335
1.00000004078
1.00000003768
1.00000003689
1.00000003809
1.00000003315
1.00000003121
1.00000002545
1.00000003999
1.00000003611
1.00000001953
1.0000000119
1.00000000333
1.00000000746
1.00000000902
1.00000003033
1.00000002435
1.00000003886
1.0000000381
1.00000002395
1.00000002897
1.0000000271
1.0000000296
1.00000002582
1.00000002805
1.00000002827
1.00000003465
1.00000004828
1.00000004113
1.00000002536
1.00000002741
1.00000001037
1.00000001029
1.00000001732
1.0000000163
1.00000001053
1.00000002961
1.00000003161
1.00000002883
1.00000005526
1.00000005042
1.0000000203
1.00000000864
1.00000000853
1.00000001726
1.00000006574
1.00000006118
1.00000003322
1.00000003152
1.00000002446
1.00000001124
1.0000000127
1.000000005
1.0000000039
1.00000000719
1.00000001861
1.00000000946
1.00000002586
1.00000003466
1.00000001761
1.00000005001
1.00000007021
1.00000004075
1.00000005631
1.00000008133
1.00000005652
1.00000002158
1.00000003176
1.00000002056
1.00000001018
1.00000001483
1.00000000753
1.00000000887
1.00000000704
1.00000001707
1.00000000771
1.00000001691
1.00000000757
1.00000002378
1.00000002865
1.0000000102
1.00000004729
1.00000007199
1.00000006286
1.00000003814
1.00000001517
1.00000002455
1.00000001507
1.00000000669
1.00000001182
1.00000000682
1.0000000125
1.00000000433
1.00000000781
1.00000000877
1.00000001845
1.00000000696
1.00000001563
1.00000000575
1.00000001571
1.00000001815
1.00000001353
1.0000000126
1.00000001087
1.00000001054
1.00000000626
1.00000000474
1.00000000311
1.00000000901
1.00000000571
1.00000001276
1.00000000646
1.00000000079
1
1.00000001561
1.00000000926
1.00000001884
1.00000000693
1.00000001277
1.00000000336
1.00000000739
1.00000000278
1.0000000061
1.00000000461
1.00000000101
1.00000000126
1.00000000376
1.00000000782
1.00000000713
1.00000001118
1.00000000608
1.00000001123
0.999999997336
0.999999987114
1.00000000001
1.00000001491
1.00000001008
1.00000001685
1.00000000834
1.00000001221
1.00000001051
1.00000000759
1.00000000487
1.00000000651
1.00000000728
1.00000000926
1.00000000588
1.00000000496
1.00000000948
1.00000000604
1.00000001522
1.00000000131
0.999999989484
0.999999997298
0.999999993816
1
1.00000000001
1.00000000633
1.00000001402
1.000000038
1.0000000212
1.0000000268
1.00000000936
1.00000000992
1.00000002158
1.00000001873
1.00000002759
1.00000001116
1.0000000114
1.0000000044
0.999999999999
0.99999999026
0.999999995197
0.999999999501
0.9999999965
0.999999997053
0.999999999552
1.00000000065
1.00000000029
1.00000000263
1.00000002287
1.00000001321
1.00000001453
1.00000000965
1.00000001125
1.0000000011
1.00000000241
1.00000000053
1.00000000027
1
0.999999993902
0.99999999669
0.999999985924
0.999999999974
0.999999999911
1.00000000042
1.00000000003
1.00000000591
1.00000001207
1.00000001506
1.00000001248
1.0000000109
1.00000000769
1.00000000863
1.00000000689
1.00000001111
1.00000000682
1.00000000889
1.00000000363
1
0.999999999486
1.00000000043
0.999999999736
1.00000000026
0.999999998771
1.0000000001
1.00000000007
1.00000000264
1.00000000774
1.00000000692
1.00000000981
1.00000000518
1.00000000759
1.00000000615
1.00000000297
1.00000000508
1.00000000474
1.00000000103
1.00000000714
1
1.00000000164
1.00000000403
0.999999999062
1.00000000068
1.00000000006
1.00000000007
1.00000000004
1.00000000055
1.00000000789
1.00000000998
1.00000000045
1.00000000498
1.00000000003
1.0000000028
1.00000000802
1
1.00000000246
1.00000000298
1.00000000083
1.00000000317
1.00000000003
1.00000000116
0.999999997425
1.00000000038
1.00000000021
1.00000000004
1.00000000002
1.00000000311
1.00000000642
1.00000000497
1.00000001997
1.00000001409
1.00000002922
1.00000003579
1.00000002123
1.00000002292
1.00000000889
1
1.00000000514
1.00000000012
1.00000000244
1
1
1.00000000209
1.00000000013
1.00000000098
1.00000000304
1.00000001369
1.00000001505
1.00000003571
1.000000022
1.0000000566
1.00000006682
1.00000005002
1.00000005527
1.0000000146
1.00000003124
1.0000000268
1.00000000175
1.00000000493
1.00000000142
1.00000000451
1.00000000056
1.00000000583
1.0000000001
1.00000000324
1.00000001886
1.00000001888
1.00000004521
1.00000002094
1.00000007623
1.00000005578
1.00000000742
1.00000000051
1.0000000182
1.00000005011
1.00000001033
1.00000003143
1.00000003456
1.00000001124
1.00000000366
1.00000000177
1.00000000561
1.00000000725
1.00000000384
1.00000001885
1.00000001601
1.00000004527
1.00000002586
1.00000008115
1.00000005016
1.00000001218
1.00000000681
1.00000000722
1.00000000991
1.0000000008
1.00000005146
1.00000001548
1.0000000449
1.00000002982
1.00000000987
1.00000000761
1.00000000134
1.00000000546
1.00000000622
1.00000001156
1.00000004082
1.00000003546
1.00000006954
1.0000000377
1.00000001149
1.00000003013
1.00000003119
1.0000000321
1.00000003191
1.00000002737
1.00000003498
1.00000003531
1.00000002143
1.00000004706
1.00000001472
1.00000000497
1.00000000807
1.00000000769
1.00000001016
1.00000003041
1.00000003783
1.00000003811
1.00000003369
1.00000003822
1.00000005205
1.00000005438
1.00000005475
1.00000005558
1.00000005736
1.00000005756
1.00000004539
1.00000004106
1.00000002871
1.00000002343
1.00000003474
1.00000000823
1.00000000857
1.00000001168
1.00000002514
1.00000002889
1.00000003284
1.00000002715
1.00000003736
1.00000005201
1.00000006054
1.00000006921
1.00000007072
1.00000007188
1.00000007331
1.00000006676
1.00000005879
1.00000004566
1.00000003534
1.00000002242
1.00000003336
1.00000002569
1.00000000651
1.00000000374
1.00000001259
1.00000004173
1.00000002477
1.00000003123
1.00000004064
1.00000004889
1.00000005941
1.00000006762
1.00000006842
1.00000006818
1.00000006477
1.00000006255
1.00000005343
1.00000004868
1.00000004437
1.00000002872
1.00000004159
1.00000001578
1.00000001431
1.00000002104
1.00000002499
1.000000021
1.00000004063
1.00000002823
1.00000003062
1.00000005362
1.0000000504
1.00000004863
1.00000004807
1.00000004611
1.00000004742
1.00000004815
1.00000004935
1.000000052
1.0000000371
1.00000004926
1.00000002677
1.00000002292
1.00000000615
1.00000000195
1.00000000577
1.00000002951
1.00000004355
1.00000002455
1.00000004697
1.00000003606
1.00000000753
1.00000002649
1.00000001869
1.00000001712
1.00000002414
1.00000001001
1.00000005979
1.00000007166
1.00000003729
1.00000004186
1.00000002881
1.00000001096
1.00000001083
1.00000000403
1.00000001737
1.000000008
1.00000003026
1.00000004408
1.00000001189
1.0000000435
1.00000003345
1.00000000673
1.00000000223
1.00000000685
1.00000002019
1.00000007632
1.00000007591
1.00000002173
1.00000004377
1.00000002537
1.00000001058
1.00000001445
1.00000000405
1.0000000091
1.00000000452
1.00000001769
1.00000000678
1.0000000334
1.00000003832
1.00000000959
1.00000005347
1.00000005336
1.00000004415
1.00000006609
1.00000008122
1.0000000685
1.000000014
1.00000004238
1.00000002315
1.00000000764
1.00000001306
1.00000000563
0.999999999968
1
1.00000000499
1.00000000434
1.00000001518
1.00000000502
1.000000029
1.00000002598
1.00000000921
1.00000005516
1.00000007146
1.00000006606
1.00000004717
1.00000001415
1.00000003183
1.00000001732
1.0000000041
1.00000000971
1.00000000451
1.00000001292
1
0.999999982915
0.999999999999
1.00000001092
1.0000000039
1.00000001254
1.00000000406
1.00000001126
1.00000001975
1.00000001859
1.00000002302
1.00000001419
1.00000001176
1.000000012
1.00000000996
1.00000000794
1.00000000465
1.00000000338
1.00000001558
1.0000000006
0.999999990612
0.99999999817
0.999999988382
0.999999999999
1
1.00000000158
1.0000000105
1.00000001434
1.0000000099
1.00000000675
1.00000000543
1.00000000304
1.00000000662
1.00000000478
1.00000000053
1.0000000074
1.00000000244
1.00000001445
1.00000000026
0.999999989043
0.999999994178
0.999999997228
0.999999991968
0.999999994074
0.999999999965
1.00000000019
1.00000000129
1.00000000109
1.00000001428
1.00000000394
1.00000000994
1.00000000748
1.0000000059
1.0000000103
1.00000000197
1.00000000124
1.00000000008
1
0.999999990292
0.999999991905
0.999999989256
0.999999974228
0.999999996435
0.999999995944
0.999999994573
1.00000000036
1.00000000239
1.00000000047
1.00000000206
1.00000000814
1.00000000595
1.00000001845
1.00000000401
1.0000000145
1.00000000109
1.00000000152
1.00000000008
0.999999994545
0.999999994879
0.999999997103
0.99999997091
0.999999999566
0.999999998051
0.999999997738
0.99999999764
1.00000000003
1.00000001062
1.00000000228
1.00000000655
1.00000000104
1.0000000021
1.00000000135
1.00000000011
1.00000000012
1
1.00000000408
1.00000000004
0.999999995073
0.999999998
0.999999996339
0.999999996829
0.999999998327
0.999999997147
0.999999998467
1.00000000008
1
1.00000000159
1.00000000413
1
1.00000000345
1.00000000005
1.00000000018
1.00000000009
1
1.00000000236
1.00000000001
1.00000000002
1.00000000002
0.999999996612
0.999999999913
0.999999994442
0.999999999648
0.999999997793
1.00000000003
1
1
1.00000000447
1.00000000278
1.00000001976
1.00000001194
1.00000002492
1.00000003875
1.00000002429
1.00000001206
0.999999999517
0.999999999999
1.00000000001
1.00000000003
1
0.999999995897
0.999999993437
1.00000000011
1
0.999999998102
0.999999999994
1.00000000393
1.00000001725
1.00000003967
1.00000002082
1.00000004695
1.00000004353
1.00000002374
1.00000003216
1.00000001079
1.0000000118
1.00000000664
1.00000000003
1
1.00000000023
1
0.999999992928
0.999999998905
1.00000000005
1
1.00000001071
1.00000002804
1.00000004912
1.0000000163
1.00000004789
1.0000000296
1.00000000378
1.00000000163
1
1.00000002967
1.00000000873
1.0000000129
1.0000000278
1.00000000021
1
1.00000000016
1
0.999999997355
1
1.00000001473
1.00000002687
1.00000005583
1.00000001351
1.00000004616
1.00000001906
1.0000000067
1.00000000171
1.00000000485
1.00000000638
1.00000000115
1.00000002485
1.00000000371
1.00000001652
1.00000003521
1.0000000026
1.00000000001
1.00000000006
1.00000000423
1.00000000014
1.00000001718
1.00000005889
1.00000002564
1.00000004527
1.00000003174
1.00000000067
1.00000002482
1.00000003009
1.00000003562
1.00000003419
1.00000000088
1.0000000007
1.00000002375
1
1.00000004168
1.00000002942
1.00000000146
1.00000000083
1.00000000478
1.0000000093
1.00000004848
1.00000003472
1.00000003421
1.00000004003
1.00000001368
1.00000000804
1.00000006155
1.00000006347
1.00000006741
1.00000006495
1.00000001552
1.00000002599
1.00000004726
1.00000003181
1.00000002337
1.0000000475
1.00000001031
1.00000001136
1.00000000856
1.00000002891
1.00000003097
1.00000002894
1.00000004696
1.00000005776
1.00000007454
1.0000000844
1.00000008994
1.0000002305
1.00000019594
1.00000009163
1.00000008819
1.00000008219
1.00000007075
1.00000006093
1.00000004124
1.00000001662
1.00000003101
1.00000000942
1.00000001147
1.00000002102
1.00000002136
1.0000000424
1.000000054
1.00000006781
1.00000008342
1.00000009531
1.00000019707
1.00000057106
1.00000059985
1.0000002884
1.00000009593
1.00000008439
1.00000007806
1.00000006119
1.00000004923
1.00000002493
1.00000002591
1.00000002244
1.00000001672
1.00000003611
1.00000001435
1.00000003554
1.00000005826
1.00000006293
1.00000007868
1.0000000884
1.00000009613
1.00000053561
1.00000054995
1.00000020234
1.000000087
1.00000007754
1.00000006817
1.00000006636
1.00000005112
1.00000002017
1.00000003349
1.00000000909
1.00000000353
1.00000001213
1.00000004184
1.00000002447
1.00000003943
1.00000006415
1.00000006708
1.00000006823
1.00000006793
1.00000018264
1.00000012017
1.00000006589
1.00000006771
1.00000004179
1.00000005862
1.00000005432
1.00000003106
1.00000004245
1.00000002071
1.00000001601
1.00000000391
1.00000002477
1.00000003576
1.0000000233
1.00000002554
1.00000003099
1.00000000985
1.0000000001
1.00000003425
1.00000002972
1.00000002944
1.00000003577
1.00000000014
1.00000000892
1.00000002854
1.00000004153
1.00000003891
1.00000003708
1.00000002121
1.00000000621
1.00000001058
1.0000000017
1.00000002787
1.00000004661
1.00000000627
1.00000001704
1.00000000856
1.00000000053
1
1.00000000341
1.00000000347
1
1.00000000352
1.00000003132
1.00000004624
1.0000000236
1.00000004867
1.00000002601
1.00000000892
1.00000000948
1
1.00000000713
1.0000000021
1.00000003472
1.00000002921
1.0000000047
1.0000000254
1.00000001374
1.00000000232
1.00000000001
1.00000000221
1.00000000473
1.00000002724
1.00000003819
1.00000001331
1.00000005715
1.00000002832
1.0000000071
1.00000001027
0.999999998849
0.999999986008
1
1.00000000251
1
1.00000003061
1.00000003068
1.00000000951
1.00000002993
1.00000002131
1.00000001647
1.00000003047
1.00000003913
1.00000004443
1.00000001474
1.00000005583
1.0000000299
1.00000000464
1.00000001164
1
0.999999993659
0.999999996642
0.999999988962
0.999999999435
0.999999998412
1
1.00000000391
1.00000002449
1.00000001191
1.00000004489
1.00000005644
1.00000005489
1.00000004616
1.00000001837
1.00000003764
1.00000000952
1.00000000428
1.00000000784
1
0.999999992647
0.999999992477
0.999999978638
0.99999999662
0.999999989645
0.999999999442
1.00000000034
1
1.00000000207
0.9999999919
0.999999992315
1.00000000709
1.00000000725
1.00000000468
1.00000000193
1.00000000024
1.00000000001
1.00000000042
1
0.999999986669
0.99999998836
0.99999999822
0.99999997709
0.999999996441
0.999999992689
0.999999991162
1.00000000018
1.00000000175
1.00000000029
1.00000000294
1.00000000053
1.00000000054
1.00000000539
1.00000000029
1.00000000227
1.00000000034
1.00000000329
1.00000000016
0.999999989262
0.999999988267
0.999999997232
0.999999989566
0.999999970766
0.999999997392
0.999999996303
0.999999991376
0.999999984979
0.999999998257
1.00000000752
1.00000000147
1.00000000273
1.00000000828
1.00000000449
1.00000005129
1.00000000051
0.999999994799
0.999999993746
0.999999989909
0.999999993271
0.999999992793
0.999999994288
0.999999971015
0.99999999949
0.999999998255
0.999999984231
0.999999994151
0.999999989328
0.99999999682
1.00000001052
1.00000000173
1.00000001117
1.00000000077
1.00000000255
1.00000000473
1.00000000034
1.00000000898
0.99999999944
0.999999992182
0.999999991039
0.999999988309
0.999999994864
0.999999994732
0.999999998525
0.999999989991
0.999999997821
0.999999990462
1.00000000002
1.00000000061
0.999999999999
1.00000000154
1.00000000013
1.00000000174
1.00000000015
0.999999998428
0.999999999872
1.00000000016
1.00000000082
1.0000000001
0.999999991799
0.999999990904
0.999999987761
0.999999992217
0.999999987889
0.999999996793
0.999999985688
1
0.999999999867
1
0.999999998824
0.999999999354
1.0000000152
1.00000001045
1.00000000687
1.00000001529
1.00000000189
0.99999999842
0.999999999995
1.00000000083
1
0.999999988619
0.999999990853
0.999999989057
0.999999990092
0.999999996505
0.999999999675
1
1
1.00000000067
1.00000000067
1.00000001265
1.00000001395
1.00000000958
1.000000011
1.0000000088
1.00000001106
0.999999997534
1.0000000016
1.00000000002
1.00000000066
0.999999999996
0.999999993756
0.999999989144
0.999999991107
0.999999999652
0.999999999031
1
1.00000000014
0.999994880982
0.999998253512
1.00000000449
1.00000000017
1.00000000007
1
1
1.00000000048
0.999998574645
0.999995032191
1.00000000225
1
1.00000000027
0.999999999999
0.999999991999
0.999999994706
0.999999998962
0.999999999995
1.00000000029
0.999992104786
0.999999587758
1.00000000159
1
1.00000000198
1.00000002005
1.00000002639
1.00000001993
1.00000000094
1.00000000038
0.999999511099
0.99999232753
1.00000000133
1
1.00000000013
0.999999996048
0.999999997653
0.999999999836
0.999999998521
0.999999999327
0.999996094825
1.0000000001
1.00000000958
1
1.00000000008
1.00000005518
1.00000006078
1.00000001727
0.999999998251
1
1.0000000004
0.999996251696
1.00000000036
1.00000000059
0.999999999994
0.999999998477
1.00000000222
1.00000001788
1.00000002194
1.00000001089
1.00000000023
1
1.00000000985
1
1.00000008526
1.00000012396
1.00000016072
1.0000000848
1.00000000254
0.999999999509
1.00000000051
1.00000000062
1.0000000068
1.00000000981
1.00000000908
1
1.00000000457
1.00000001881
1.00000002694
1.00000004901
1.00000004351
1.00000007949
1.00000000997
1.00000010801
1.00000011695
1.00000047775
1.00000031419
1.00000011448
1.00000010267
1.00000003492
1.00000009007
1.00000007643
1.00000006097
1.00000004161
1.00000002142
1.00000002508
1.00000001117
1.00000002905
1.00000004682
1.00000006647
1.00000008726
1.00000009729
1.00000010979
1.00000043472
1.0000004589
1.00000094333
1.00000089155
1.00000040319
1.00000046674
1.00000010036
1.0000000982
1.00000009279
1.00000007922
1.00000005469
1.00000003093
1.00000001209
1.00000001229
1.00000001227
1.00000003866
1.00000006721
1.00000008608
1.00000009277
1.00000009895
1.00000039883
1.00000015338
1.0000006945
1.0000006544
1.00000019747
1.00000037437
1.00000008949
1.00000008954
1.00000008854
1.0000000732
1.00000004643
1.00000002453
1.00000002088
1.00000000458
1.00000004184
1.0000000165
1.00000004994
1.00000006119
1.00000006631
1.0000000167
1.00000007199
1.00000006819
1.0000001644
1.00000007674
1.00000006154
1.00000006508
1
1.00000005155
1.00000006834
1.00000006912
1.00000002271
1.00000002829
1.00000001324
1.0000000103
1.00000000821
1.00000002356
1.0000000075
1.00000000054
1
1.00000000306
0.999999999929
1.00000002726
1.00000002942
1.00000002849
1.00000002371
0.999999999904
1
1
1.00000000108
1.00000000714
1.00000002777
1.00000002254
1.00000001146
0.999999999999
0.999999998726
1
1.00000000251
0.999990649877
1.00000000041
1.00000000001
0.999999999539
1
1.000000003
1.00000000281
1
1
1.00000000003
1.00000000108
0.999993735376
1.0000000011
1.00000000106
1.00000001141
0.99999999999
0.999999992001
0.999999999261
0.999999999619
1
0.999989315468
0.999993040055
1.00000000048
1.0000000005
1
1.00000000002
1.00000000001
1.00000000001
1.00000000015
1.00000000131
0.999995512065
0.999990936452
1.00000000009
1.00000000059
0.999999993132
0.999999997716
0.999999990679
0.999999990373
1
1.00000000024
1.00000000011
0.999986196954
0.999987830616
1.00000000098
1.00000000006
1.00000000013
1.00000000143
1.00000000428
1.00000000462
0.99999086996
0.99998877987
1
0.999999997063
0.999999996208
0.999999990854
0.999999992175
0.999999996656
0.999999993597
0.999999988226
0.999999999999
1.00000000052
1
1.00000000912
0.999999811395
1.00000002233
1.00000001451
1.00000001588
1.000000016
1.00000002376
1.00000000141
1.00000000001
1.00000000112
0.99999999807
0.999999987346
0.999999990492
0.999999997486
0.999999981541
0.99999999296
0.999999990725
0.999999990721
1.00000000001
1.00000000242
0.999999999822
0.999999593594
0.999999593598
0.999999604076
0.999999813272
0.999999774335
0.999999771804
0.999999998447
1.00000000593
1.00000000005
0.999999985382
0.999999986566
0.999999995091
0.999999997416
0.999999995757
0.9999999965
0.999999990721
0.9999999956
0.999999994777
1.00000000112
1.00000000993
0.999999998105
1.00000000557
1.00000000658
1.00000000226
0.999999970088
0.999999993927
1.00000001695
1.00000000072
0.99999998207
0.999999989176
0.99999999369
0.999999995548
0.999999997977
0.999999976028
0.99999999767
0.999999996613
0.999999991646
0.999999980709
0.999999972209
0.999999988939
1.00000001427
1.00000001196
1.0000000233
1.00000002345
1
0.99999999433
0.999999999142
0.999999976908
0.999999977515
0.999999986848
0.999999995683
0.99999999853
0.999999995399
0.999999999322
0.999999981345
0.999999990464
0.999999968893
0.999999987565
0.999999970305
1.00000000034
1.00000000133
1.0000000004
1.00000000551
1.00000001301
1.00000000443
1.00000000018
1
0.999999989836
0.99999999303
0.999999969698
0.999999996919
0.999999979325
0.999999991734
0.999999981879
0.999999988117
0.999999982134
0.999999988222
0.999999987094
0.999999998609
1.00000000298
1.00000000097
1.00000000094
1.00000000177
0.999999993461
0.999999997416
0.999999999997
0.999999993864
0.999999999887
0.999999992774
0.999999992832
0.999999982898
0.999999986067
0.999999987617
0.999999994974
0.999999982976
0.999999990688
0.999999984635
1
1.00000000027
1
0.999999999641
0.999999998127
1.00000000164
1.00000000411
1.00000000372
1.00000000566
1
1.0000000006
1.00000000001
0.999999990754
0.999999997135
0.999999985214
0.999999993762
0.999999965789
0.999999996237
0.99999998548
1
1.00000000009
0.999999999806
0.999999999031
1.0000000019
1.00000000859
1.00000000933
1.00000000559
1.00000000655
1.00000000218
1.00000000171
0.999999999407
1.00000000248
1
0.999999991327
0.999999997317
0.999999980074
0.999999994596
0.999999993294
0.999999999999
1.00000000049
0.999962270821
0.999962249873
0.999999829563
1
1
1
1.00000000203
1
1
0.999999940233
0.999964390454
0.999964396873
1.0000000021
1.00000000002
0.999999991481
0.999999995177
0.999999976158
0.999999999406
1.00000000001
0.999999999958
0.999962270939
0.999998304768
1
1
1
1.00000002671
1.00000003648
1
1
1
0.999998294806
0.99996438204
0.999999999692
1.00000000071
0.99999999637
0.999999978835
0.999999999994
0.999999999177
0.999999999995
1.0000000008
0.999999999703
1
0.99991146557
0.999975716472
1
1.00000005125
1.00000005417
1
0.999996914839
0.999926029286
1
0.999999998798
1.00000000441
1.00000000009
0.999999998628
1
0.999999995763
0.99999999999
1.00000003241
1.0000000081
1
1
0.999959369669
1
1.00000002052
1.00000011428
1.00000013235
1.00000002141
1
0.999979668667
1
1
1.00000000166
1.00000001559