/*--------------------------------*- C++ -*----------------------------------*\
| =========                 |                                                 |
| \\      /  F ield         | OpenFOAM: The Open Source CFD Toolbox           |
|  \\    /   O peration     | Version:  3.0.1                                 |
|   \\  /    A nd           | Web:      www.OpenFOAM.org                      |
|    \\/     M anipulation  |                                                 |
\*---------------------------------------------------------------------------*/
FoamFile
{
    version     2.0;
    format      ascii;
    class       volVectorField;
    location    "6.3";
    object      ddt0(rho,U);
}
// * * * * * * * * * * * * * * * * * * * * * * * * * * * * * * * * * * * * * //

dimensions      [1 -2 -2 0 0 0 0];

internalField   nonuniform List<vector> 
7968
(
(0.589536852479 0.588572134118 -0.78765437739)
(1.59170827985 0.608872452112 -0.741200725058)
(2.28581180767 0.585223304695 -0.634914790682)
(2.6759671321 0.525437668089 -0.488784358502)
(2.66351430918 0.462129589194 -0.197731570936)
(2.41794506527 0.383809167126 -0.146735041009)
(1.98436671143 0.376936459024 -0.0418065131801)
(1.4467837266 0.401562724295 -0.00187528050051)
(0.855148038169 0.460880537298 -0.0101233847973)
(0.27856805604 0.51063260481 -0.0307889748416)
(-0.277865318352 0.510638966896 -0.0309036829135)
(-0.854418440313 0.460820944079 -0.0103802653436)
(-1.44610685919 0.401253993297 -0.00212514551592)
(-1.98386526053 0.376328921264 -0.0420597430457)
(-2.41758156946 0.383270964186 -0.146791578402)
(-2.66305091075 0.461422937778 -0.198346693806)
(-2.67610207762 0.524988715876 -0.489412292977)
(-2.28587624877 0.584891689036 -0.635755219098)
(-1.59201606948 0.608524186916 -0.74206303681)
(-0.589763066437 0.588049102698 -0.788562578113)
(0.60987954855 1.58864188131 -0.741174546592)
(1.70464420022 1.70183725992 -0.909390149452)
(2.37264975291 1.71028973504 -0.829757791445)
(2.73963266893 1.64566291035 -0.67069267724)
(2.77560539001 1.53257855397 -0.34709517288)
(2.50187317415 1.32718597424 -0.169857543358)
(2.09926419602 1.21643391637 0.0435417120414)
(1.55238212267 1.12488804271 0.220340469875)
(0.925636007753 1.09230582843 0.336614770146)
(0.303106588861 1.09428814196 0.380110233376)
(-0.302088996333 1.09391223413 0.380154898883)
(-0.924560558867 1.09122235507 0.336688618422)
(-1.55139329155 1.12323040128 0.220404536416)
(-2.09853207161 1.21428085788 0.0434593342801)
(-2.50127719206 1.32495057137 -0.170297257033)
(-2.77457362309 1.53106275934 -0.347058590355)
(-2.7394709635 1.6443889849 -0.67123397205)
(-2.37251924065 1.70934581291 -0.830423434922)
(-1.70500048284 1.70095388618 -0.910185805734)
(-0.610265886401 1.58759865076 -0.742296161933)
(0.586154980401 2.28059182642 -0.635156990823)
(1.7127592793 2.36824537938 -0.829906198233)
(2.35241309541 2.34867677402 -0.68603955427)
(2.67559264845 2.20569197155 -0.480148619802)
(2.71473683639 1.98109633956 -0.173786844867)
(2.4332813123 1.65049970467 0.0524276506321)
(2.08248036052 1.3587702501 0.254483546605)
(1.5823704629 1.1187324266 0.448714921355)
(0.971466020104 0.963714921723 0.603086150974)
(0.325555713469 0.89833610739 0.677682058318)
(-0.324705907016 0.897820166916 0.67763021514)
(-0.970596018087 0.962348879092 0.602916801438)
(-1.5817229415 1.11703920395 0.448228712153)
(-2.08209321529 1.35628988459 0.253835163587)
(-2.43270989596 1.64778854119 0.0514912031837)
(-2.71376657257 1.97922732726 -0.174256246518)
(-2.67503380095 2.20421505179 -0.480921084979)
(-2.35203720092 2.34757514741 -0.686863805744)
(-1.71288921867 2.36717129334 -0.83082817307)
(-0.586487602534 2.27942044691 -0.636374628869)
(0.526361774567 2.66976426702 -0.489605236494)
(1.64791850442 2.7346040078 -0.67095349081)
(2.20894313088 2.67140499107 -0.480180255693)
(2.45130844322 2.44777806432 -0.279625448653)
(2.44373120942 2.11060285557 -0.0252954852047)
(2.15871625116 1.64100613923 0.155011286783)
(1.85590164137 1.19097152987 0.277545294541)
(1.4208111924 0.820297015829 0.416414391131)
(0.882880554998 0.565277721946 0.527340834979)
(0.30039160652 0.447818642219 0.577118711399)
(-0.299886082436 0.447292605463 0.576900823235)
(-0.881978623595 0.563781843396 0.526672786074)
(-1.42050312264 0.818124448379 0.414569133129)
(-1.85599839143 1.1884318319 0.276141311509)
(-2.15801240837 1.63835243975 0.153563698382)
(-2.44236831519 2.10890143244 -0.0262230151692)
(-2.45017993815 2.4465987581 -0.280723690766)
(-2.20803866334 2.67064209834 -0.481191312101)
(-1.64757545714 2.73396389587 -0.672013628621)
(-0.526473922869 2.66899392189 -0.490853069564)
(0.462948903533 2.65682454114 -0.199503143552)
(1.53505367312 2.76987671156 -0.347368481008)
(1.98421732734 2.71007724388 -0.173591232033)
(2.11390841815 2.44005399869 -0.0250340814474)
(2.0251915978 2.02200054885 0.146862043415)
(1.74775149617 1.48635733757 0.220356256981)
(1.48716001451 0.929512760044 0.269827026126)
(1.14113385139 0.457749757985 0.360336211244)
(0.716997607109 0.141412837664 0.444230928445)
(0.245388259833 -0.012939330992 0.482894557867)
(-0.24483965483 -0.0133674027335 0.482695461446)
(-0.716431098684 0.140092082648 0.443677989169)
(-1.14072878075 0.455475480138 0.359237720397)
(-1.48673944643 0.927512190245 0.268333283846)
(-1.74648368426 1.48455245901 0.218998539565)
(-2.023438226 2.02133585225 0.145518722723)
(-2.11210945027 2.4395946178 -0.0261882488105)
(-1.9827732371 2.71000044562 -0.174554302504)
(-1.53418280544 2.76963318378 -0.348165970478)
(-0.462726285813 2.65670681471 -0.200670152514)
(0.385320015295 2.41164716414 -0.148188333783)
(1.32984245791 2.49652379023 -0.170390408776)
(1.65375253948 2.42884142104 0.0526327728619)
(1.64447801867 2.15514187705 0.155729450031)
(1.48951407656 1.74530676313 0.221097514551)
(1.19436477641 1.19217817509 0.190708607419)
(0.988734678129 0.645668394532 0.13707783128)
(0.755440981657 0.18667701607 0.1434943505)
(0.482009600586 -0.121049396385 0.180560585982)
(0.167531621374 -0.274875872123 0.21178897011)
(-0.166460674101 -0.275099240845 0.211785044884)
(-0.481126040534 -0.121663232245 0.180372007892)
(-0.754686189896 0.185801828011 0.142862885627)
(-0.987700603283 0.645113304205 0.135706167415)
(-1.19265924425 1.19220068963 0.188827909895)
(-1.48695766231 1.74597889731 0.21973341466)
(-1.642114273 2.1562641819 0.154266168954)
(-1.65171663291 2.43007346382 0.0515034234154)
(-1.32854630891 2.49754816583 -0.17127566143)
(-0.385106512034 2.41240251385 -0.148968868256)
(0.37842835105 1.97920335617 -0.0441748780759)
(1.21948348121 2.09457183874 0.0428294849432)
(1.36228860256 2.07820613624 0.255103366701)
(1.1949524799 1.8517649365 0.279360166014)
(0.933053207553 1.48479383746 0.272242856804)
(0.647877869459 0.986767808166 0.138529031545)
(0.507399161872 0.505478765849 0.0198810554601)
(0.395613436419 0.0875972976498 -0.0137277653441)
(0.260882215758 -0.209123143292 0.0314984711086)
(0.0966828824814 -0.316611239413 -0.105852574771)
(-0.0950278916712 -0.316724857344 -0.106012229663)
(-0.259343323513 -0.209507130155 0.0316824257531)
(-0.394158809166 0.0873706886864 -0.0139577765791)
(-0.505692440181 0.506030078436 0.0189954316114)
(-0.645669361962 0.988192352832 0.137146797638)
(-0.930235425208 1.48714557659 0.270983854611)
(-1.19247679532 1.85458185369 0.278015982383)
(-1.36026303136 2.08068746217 0.25423249195)
(-1.21799281106 2.09659789998 0.04224075366)
(-0.377947659495 1.98102585449 -0.0449115395995)
(0.403345746046 1.44407147503 -0.00458011225338)
(1.12830327277 1.54913576461 0.219380072553)
(1.12205960766 1.57903772185 0.449413663187)
(0.82499189846 1.41768731751 0.419836706643)
(0.462671754917 1.13890738792 0.364024722824)
(0.18913953689 0.753110470389 0.145998992652)
(0.0894113101504 0.393044335229 -0.0130308351325)
(0.0748591617867 0.0721447192402 -0.131659289242)
(0.0547799414834 -0.180551957277 -0.15358699885)
(0.0177182878835 -0.278123629309 -0.191601494725)
(-0.0157478732043 -0.278173713797 -0.191839500103)
(-0.0528636624688 -0.180660666768 -0.154201689996)
(-0.0727211682083 0.0725355857006 -0.132752454493)
(-0.0868372562022 0.394321066793 -0.0132861265548)
(-0.186402932342 0.755574185115 0.145455354675)
(-0.459399414211 1.14230220196 0.363431772846)
(-0.822796562298 1.42122013245 0.418381584711)
(-1.12067369114 1.58231643428 0.448908259906)
(-1.12714395045 1.55197636073 0.219121768746)
(-0.402966022937 1.44669686263 -0.00508126509665)
(0.462584090215 0.855776736906 -0.0126905289454)
(1.09580265181 0.925085632563 0.335301387604)
(0.967625424452 0.970085520119 0.603006804771)
(0.570487482284 0.881776507521 0.528838634892)
(0.146082341891 0.715515691707 0.447784054093)
(-0.118571559934 0.480308696879 0.182881675001)
(-0.20734189183 0.259214961642 0.0311316285719)
(-0.17763435224 0.0532503792327 -0.154883178055)
(-0.0998208165832 -0.101735222118 -0.236859575927)
(-0.0327797443047 -0.165243769783 -0.278685098036)
(0.0347685460702 -0.165153376398 -0.278990021401)
(0.102091649823 -0.101418079547 -0.237707432967)
(0.18038063606 0.0541141262473 -0.155903418978)
(0.210475962367 0.260808593881 0.0310355810715)
(0.121562571868 0.483167942549 0.182938318081)
(-0.143377099276 0.719387454401 0.448074412266)
(-0.568899405845 0.885428727975 0.528731054053)
(-0.966755239337 0.973773984217 0.602983345632)
(-1.09521545846 0.92837804282 0.335244293735)
(-0.462438705855 0.85893972456 -0.0130212768374)
(0.511952523647 0.283110205628 -0.0328473907709)
(1.09703016817 0.305927427247 0.378936586608)
(0.901727524247 0.327110613992 0.677168121323)
(0.452286132292 0.301120603031 0.57767029171)
(-0.00861395439143 0.246004629797 0.485706235384)
(-0.272328128383 0.168638970843 0.212916228134)
(-0.314079189518 0.0986626126586 -0.106602389157)
(-0.275590878773 0.0208067530544 -0.192932018893)
(-0.1633790632 -0.029358438433 -0.279382157059)
(-0.0522163464793 -0.0488850062018 -0.329054249095)
(0.0544154137051 -0.0485866702649 -0.329334379283)
(0.165866425583 -0.0285035580793 -0.280145591164)
(0.278615264781 0.0221461228844 -0.193914597037)
(0.317400688141 0.10063547863 -0.10734536213)
(0.275462228309 0.171675873921 0.21310039345)
(0.0108474214319 0.250031648829 0.486762531147)
(-0.451728754604 0.30530182713 0.578285624809)
(-0.901845754117 0.33101456541 0.67734566712)
(-1.09727875853 0.309539585537 0.378803042841)
(-0.511993508551 0.286593738632 -0.033112712096)
(0.511588407127 -0.269513493992 -0.032563033981)
(1.09574741098 -0.295629008023 0.37928839486)
(0.89986840218 -0.319628331488 0.677252614881)
(0.450689429844 -0.295910602568 0.577096155475)
(-0.00987506392512 -0.240985134345 0.484957367841)
(-0.272819809373 -0.161457273945 0.212941331934)
(-0.314458922633 -0.0885602780356 -0.106739250201)
(-0.275753854339 -0.00768607465885 -0.193039414697)
(-0.163380756959 0.0440978710511 -0.279392987561)
(-0.0519328787881 0.0643096880183 -0.32901894983)
(0.0547268446669 0.0647463855873 -0.329197254143)
(0.166429966065 0.0453183422966 -0.279980584424)
(0.27928947587 -0.00576379461453 -0.19388078092)
(0.318134344598 -0.0858676521567 -0.107490223432)
(0.276128998499 -0.158049547909 0.213124626417)
(0.0117885796212 -0.237022628428 0.486511647041)
(-0.450907832475 -0.291739798782 0.578168187257)
(-0.900991464995 -0.315611113228 0.677424560551)
(-1.09671001681 -0.291747117326 0.378967315042)
(-0.51181347673 -0.265617949167 -0.0328610949002)
(0.461559502042 -0.842262112413 -0.0117739902211)
(1.09204986735 -0.914324239493 0.336285545084)
(0.963255569782 -0.962045116689 0.60287074562)
(0.565736385616 -0.874782793857 0.526908340765)
(0.142691396735 -0.709662105922 0.445690248107)
(-0.119961454131 -0.473069150746 0.182433906627)
(-0.208075436803 -0.249278836974 0.0322359653831)
(-0.178222037722 -0.0409065785293 -0.154741408427)
(-0.0998039740639 0.115678141861 -0.236668746177)
(-0.0320244179123 0.180403585527 -0.278205307714)
(0.0355369076393 0.181020366784 -0.27840185005)
(0.103529377679 0.117314803293 -0.237264899365)
(0.182327365804 -0.0384027083193 -0.1556777389)
(0.212347766809 -0.245873718814 0.0321874990028)
(0.123489008459 -0.469252963909 0.183167714365)
(-0.141063334241 -0.705898046767 0.447768138806)
(-0.56637109761 -0.871070561356 0.528498093614)
(-0.964673009142 -0.957935969574 0.603228415982)
(-1.09338058038 -0.910104492081 0.335901855608)
(-0.461922535657 -0.837828697298 -0.0121638881791)
(0.401703049256 -1.43033124702 -0.00305308788613)
(1.12338508532 -1.53794579371 0.220552007121)
(1.11666412068 -1.57019217349 0.448791019527)
(0.818887835275 -1.41071484409 0.415261957835)
(0.457080756441 -1.13200108018 0.360922252276)
(0.187504237816 -0.745680465839 0.145114427818)
(0.0887539513096 -0.38374099071 -0.0116291837838)
(0.0746241951929 -0.0616120187442 -0.131700235763)
(0.0548039963137 0.19226214605 -0.153272129715)
(0.0185812266706 0.290888778631 -0.190397106624)
(-0.0144004263079 0.291521349004 -0.190627392703)
(-0.0502813954713 0.194068316261 -0.153907198169)
(-0.0698662553801 -0.0591244959855 -0.132557351577)
(-0.0840159188075 -0.380478735649 -0.0107698282883)
(-0.183865937192 -0.742219602962 0.146679949554)
(-0.45574884653 -1.12882115297 0.363582467865)
(-0.81928893031 -1.40709916595 0.417857006086)
(-1.1176249849 -1.56617093617 0.449569922605)
(-1.12448341954 -1.53341661231 0.220435799014)
(-0.402074376561 -1.42542350787 -0.00337670108811)
(0.376447340138 -1.96544177507 -0.042011875411)
(1.21380703618 -2.08272730869 0.0443554253982)
(1.35542150543 -2.06877666156 0.254883969042)
(1.18800477638 -1.84451078502 0.276994929445)
(0.928097889593 -1.47714590441 0.269522842198)
(0.646140810916 -0.978793038688 0.137140126309)
(0.507267885795 -0.497054783234 0.0208963990027)
(0.395273326825 -0.0782292939554 -0.0111408702392)
(0.260738269122 0.218783450221 0.0338673153847)
(0.0976935416987 0.325517877085 -0.105162339873)
(-0.0927369281278 0.326078714408 -0.105396475856)
(-0.255349070487 0.220282608343 0.0338939631746)
(-0.389674418975 -0.0761949978419 -0.0105707362576)
(-0.502202046116 -0.494749524941 0.0222137036012)
(-0.642360024288 -0.976460576543 0.139183546481)
(-0.926239354582 -1.47493240166 0.271975868211)
(-1.18784906084 -1.84130607837 0.278722378682)
(-1.35600934944 -2.06506622554 0.255710139563)
(-1.21442381861 -2.07822769235 0.044486946963)
(-0.376618774563 -1.96029948428 -0.042170760412)
(0.382970157493 -2.39771545732 -0.146015421363)
(1.32406347266 -2.48465536216 -0.168618417365)
(1.64630732205 -2.41853175395 0.0530078840407)
(1.63712653769 -2.14615150535 0.154493307996)
(1.48369730817 -1.73635873954 0.219485666965)
(1.19220898294 -1.1840664352 0.189223052307)
(0.98817484716 -0.637806250228 0.137423228562)
(0.755488836496 -0.179444052947 0.145319061957)
(0.482410023269 0.128009982657 0.182714499474)
(0.169055521059 0.281387036771 0.213345123189)
(-0.163435123743 0.281666466234 0.213338417775)
(-0.476495861233 0.128959595256 0.182796351824)
(-0.749600287434 -0.17813537588 0.145942130442)
(-0.983120087604 -0.636505748263 0.138753175569)
(-1.18845010382 -1.18274216919 0.190876493827)
(-1.48157714954 -1.73511891944 0.221088269895)
(-1.63626859346 -2.14383337369 0.155562944531)
(-1.64618068912 -2.4152854288 0.0536194666277)
(-1.3239968577 -2.48039016993 -0.168365782832)
(-0.382797453737 -2.39271797427 -0.146073805307)
(0.46128498639 -2.64363852551 -0.19623225227)
(1.52945292813 -2.758158084 -0.345044526484)
(1.97719349012 -2.69967214333 -0.172379910672)
(2.1065139563 -2.43000383213 -0.0248542536322)
(2.01958566803 -2.0130585949 0.146004200287)
(1.74468269947 -1.47762024375 0.220063768264)
(1.48619090435 -0.92225159273 0.270385724555)
(1.14092925879 -0.451850416488 0.361794007549)
(0.717735065787 -0.137074939004 0.446167566712)
(0.247392354135 0.0162573207238 0.485027946937)
(-0.241268293894 0.0164262908682 0.485024298063)
(-0.7114799985 -0.136674246599 0.446308663543)
(-1.13494844302 -0.451187064044 0.362266174503)
(-1.48104859783 -0.921521016627 0.271070165931)
(-1.74070566276 -1.47672573639 0.220635583207)
(-2.01675507552 -2.0118815935 0.146615207071)
(-2.10481007681 -2.42790841779 -0.0244398479712)
(-1.97608934617 -2.69655535599 -0.172108357594)
(-1.52862674421 -2.75414690322 -0.344900696168)
(-0.460911492318 -2.63888090707 -0.196110657347)
(0.524216267776 -2.65777655456 -0.486398254417)
(1.64268765384 -2.72407659796 -0.668426869279)
(2.20200367895 -2.66187812545 -0.478418062061)
(2.44415994346 -2.438796215 -0.278747802726)
(2.43726438209 -2.10187650309 -0.0250440748572)
(2.15453746611 -1.6332080161 0.154721041362)
(1.85314070132 -1.18469698815 0.27750806743)
(1.41933535296 -0.815943612717 0.416333260358)
(0.882822760283 -0.562897967024 0.526989713881)
(0.302336483262 -0.447006516292 0.576514477472)
(-0.295635664676 -0.447004935124 0.576457772285)
(-0.875998420109 -0.56275710724 0.526899645473)
(-1.412984825 -0.815611187737 0.416284650551)
(-1.84771536047 -1.18395537382 0.277636813875)
(-2.15010698451 -1.63210851775 0.154819682283)
(-2.4338130525 -2.10046060205 -0.0247752385602)
(-2.44170646544 -2.43654975907 -0.278538964311)
(-2.20021420012 -2.65886186597 -0.478254481782)
(-1.64130751646 -2.72033311039 -0.668182269589)
(-0.523586585211 -2.65358870118 -0.48611122665)
(0.584001708501 -2.27057861479 -0.631705380693)
(1.70762352385 -2.35949893055 -0.826992682696)
(2.34568770091 -2.34087636316 -0.683934774707)
(2.66847352879 -2.19819852343 -0.47863117139)
(2.7081153343 -1.97396578303 -0.172835872516)
(2.42814770322 -1.64382151739 0.0527769973797)
(2.07881497278 -1.35325458268 0.254654906248)
(1.57994171453 -1.11454244585 0.448400369843)
(0.970838223855 -0.961285276329 0.601927227178)
(0.327344119329 -0.897302398262 0.675807278912)
(-0.320098380359 -0.897239838714 0.675648450829)
(-0.963551189854 -0.961289818762 0.601712924646)
(-1.5729889649 -1.1142608924 0.448363453855)
(-2.07282745603 -1.35251443086 0.254782185964)
(-2.42318407432 -1.64254245082 0.0528489782295)
(-2.70410505647 -1.9724716689 -0.172509223524)
(-2.66557553727 -2.19603780155 -0.478493630301)
(-2.34353492203 -2.33818506563 -0.683834874349)
(-1.70605747243 -2.35637010669 -0.826784062635)
(-0.58336264205 -2.2672580922 -0.631393004553)
(0.607346287992 -1.58112063274 -0.737266061651)
(1.69902082813 -1.69527539058 -0.906217240685)
(2.36555588149 -1.70448976798 -0.827308259295)
(2.73226524635 -1.64007395729 -0.668750238671)
(2.76838765592 -1.52711760148 -0.34560005472)
(2.49590760264 -1.32217570631 -0.168901177446)
(2.09459442471 -1.21195136134 0.0440518440111)
(1.54935991305 -1.12148021773 0.22029486074)
(0.924652507357 -1.09001571432 0.335745883967)
(0.304919924946 -1.092993171 0.378129651436)
(-0.297095205026 -1.09296326248 0.378123643974)
(-0.91679692537 -1.0899313372 0.335601000435)
(-1.5418600926 -1.12120723078 0.220407494409)
(-2.08805159158 -1.21130060147 0.0444691500339)
(-2.490561706 -1.32104253138 -0.168656620779)
(-2.7638231311 -1.52597573242 -0.345008164548)
(-2.72912817033 -1.63841483962 -0.668383476383)
(-2.36321870152 -1.70256741285 -0.82699674511)
(-1.6974635366 -1.69319326946 -0.905917207198)
(-0.606779506482 -1.57914882038 -0.737029987176)
(0.586807762757 -0.585265957071 -0.783781478796)
(1.58539079679 -0.605877986254 -0.737624610778)
(2.27790285019 -0.582647690843 -0.63219912493)
(2.66764864045 -0.523014388195 -0.486526012896)
(2.65566476045 -0.459809254605 -0.196280810997)
(2.41086333033 -0.381817626887 -0.145497016372)
(1.97898319706 -0.375124164933 -0.0413476278277)
(1.44343800034 -0.400222623472 -0.00202884334007)
(0.854146177017 -0.459880206374 -0.010607842041)
(0.28055288894 -0.50974005223 -0.0320580489272)
(-0.272438164477 -0.509753155971 -0.0319426201552)
(-0.846053349745 -0.459931541111 -0.0106543185931)
(-1.43571479916 -0.400205847587 -0.00178086681727)
(-1.97225106356 -0.374932433267 -0.040879808624)
(-2.40533743477 -0.381330847585 -0.144988702826)
(-2.65104299319 -0.459196757136 -0.195780257311)
(-2.66456815151 -0.522263100482 -0.486002362809)
(-2.27572071 -0.581870766665 -0.63188438722)
(-1.58403443327 -0.605121246334 -0.737382790846)
(-0.586370550432 -0.58467826973 -0.783678001542)
(0.633899417109 0.632752106927 -3.33060175167)
(1.87158847536 0.763064852667 -3.24882269902)
(2.42887493321 0.89722765363 -2.66448842268)
(2.570180988 0.968988106633 -2.01784146632)
(2.40323674059 0.959956850526 -1.38716954087)
(2.08767742327 0.897647718778 -0.880729787971)
(1.60608784668 0.835461228 -0.553898123119)
(1.07682931185 0.794420957384 -0.403455859427)
(0.584852432601 0.795038645613 -0.391525676731)
(0.178486575356 0.812279320598 -0.441182378018)
(-0.177552904724 0.812066783072 -0.441268541544)
(-0.583896023492 0.794436044484 -0.391653165051)
(-1.07595830527 0.793435425248 -0.403364180396)
(-1.60548211897 0.834259012607 -0.553808812206)
(-2.08720849203 0.896522331828 -0.881118663558)
(-2.40266310519 0.958944290421 -1.38795451702)
(-2.56976229431 0.968324605774 -2.01922683004)
(-2.42872396768 0.896651297954 -2.66656601169)
(-1.87189316236 0.76236913851 -3.25114194694)
(-0.634322297033 0.63191857369 -3.33301342879)
(0.764499671416 1.86741951758 -3.24830063025)
(1.94494048122 1.94139990215 -2.74665674296)
(2.41851711886 2.09156942611 -2.06060835332)
(2.52925201111 2.18259383055 -1.45311726145)
(2.37362140465 2.17068715771 -0.896852800382)
(2.06826424952 2.07112704807 -0.409827779728)
(1.64344138439 1.95151674629 -0.0164429193643)
(1.15765710105 1.84956236623 0.284160681113)
(0.668269466768 1.78797903572 0.463916866407)
(0.215296519603 1.75850641643 0.528995432341)
(-0.214651085053 1.75798710611 0.528923942225)
(-0.667576942911 1.78646935744 0.463627277179)
(-1.15691373358 1.84720214314 0.283644474666)
(-1.64269476202 1.94879461175 -0.0173349022341)
(-2.06751689268 2.06846436318 -0.411279437381)
(-2.3726782028 2.16842228214 -0.898745610597)
(-2.52825659985 2.18091561836 -1.45530676015)
(-2.4177887021 2.09027906536 -2.06312930135)
(-1.94462722206 1.94006544873 -2.74932421108)
(-0.764699135481 1.86593318979 -3.25164267116)
(0.898425940914 2.42287177159 -2.66465940468)
(2.09451268328 2.41358868532 -2.06106345518)
(2.57250448352 2.5684371204 -1.27639394481)
(2.64552518666 2.64322754921 -0.645354676191)
(2.46676214791 2.57443420897 -0.112366674209)
(2.15448327489 2.38058583575 0.34323329906)
(1.75623401218 2.13349244814 0.730336129215)
(1.297919352 1.91054460412 1.06387078475)
(0.796576381394 1.75701010307 1.31370242222)
(0.269285076007 1.67860619256 1.44370677135)
(-0.268711533534 1.67796937588 1.44344215451)
(-0.796036121019 1.75512667535 1.31281271041)
(-1.29714136744 1.90742932617 1.06218707064)
(-1.75514513526 2.13048923536 0.728038682761)
(-2.1532345175 2.37774134963 0.340398257517)
(-2.46524888685 2.57222183832 -0.115415109274)
(-2.64390957427 2.64174461276 -0.648438029416)
(-2.57119078942 2.56742258412 -1.27944514106)
(-2.09376507014 2.41265978417 -2.06422289237)
(-0.898464297414 2.42149611977 -2.66833317243)
(0.969807656751 2.56321032955 -2.01888863107)
(2.18510202327 2.52363250306 -1.45403221393)
(2.64655887779 2.64087407832 -0.645652934656)
(2.66137228569 2.65756518863 -0.0504588641466)
(2.42512800149 2.48615240261 0.400253343508)
(2.08248817558 2.18996937644 0.743722623893)
(1.69112602088 1.8351639256 1.0335885541)
(1.27156234124 1.50126103401 1.28466737116)
(0.796159315874 1.2611266567 1.50414705465)
(0.270974174739 1.13552457378 1.62082888405)
(-0.270483668532 1.13489356294 1.62035304812)
(-0.796002560706 1.2593917386 1.50267708756)
(-1.27059808331 1.49868853217 1.2818008157)
(-1.68937517041 1.83237010763 1.03009506787)
(-2.08071346843 2.18754143037 0.73989141139)
(-2.42300644106 2.48439490287 0.396315211997)
(-2.65908021071 2.65656221429 -0.054129230792)
(-2.64464478168 2.64044650979 -0.649112697017)
(-2.1837311111 2.52333799653 -1.45723299204)
(-0.969599432825 2.56255414817 -2.02223247723)
(0.960433540508 2.39615351231 -1.38920097958)
(2.17286564624 2.36767620438 -0.898020046585)
(2.57734341823 2.46195462549 -0.112560246297)
(2.4893903891 2.4211236677 0.400590057133)
(2.19717437688 2.19379753538 0.688458901155)
(1.83188393891 1.82075123514 0.854862743738)
(1.4698621366 1.40384266167 0.956902695029)
(1.09507089365 1.01521421719 1.06897916471)
(0.686008311495 0.727140419866 1.18434445166)
(0.235811603556 0.580547001513 1.2500206804)
(-0.235092696611 0.580112766301 1.24952242152)
(-0.685379971666 0.725981054169 1.18276020274)
(-1.09405783646 1.01378772003 1.06611473604)
(-1.46807343331 1.40183232845 0.953016917442)
(-1.8296562138 1.81921982037 0.850410590734)
(-2.19444163636 2.19287056347 0.684189690465)
(-2.48651546494 2.42109677677 0.396532093778)
(-2.57480413295 2.46253038208 -0.1160747288)
(-2.1709407592 2.36852259429 -0.901030234609)
(-0.959789846599 2.39667752259 -1.39190863555)
(0.898331647364 2.08044030638 -0.884300573881)
(2.07351554278 2.06236020071 -0.411354103545)
(2.38340199344 2.14966571071 0.343490228993)
(2.19301031178 2.0784922264 0.744953627955)
(1.82390414889 1.82867934945 0.856148745609)
(1.45079282456 1.44785465907 0.802948751084)
(1.12829206194 1.0171727752 0.704017885704)
(0.830997925673 0.629841748293 0.668023867919)
(0.52179828077 0.353968374963 0.686126607699)
(0.180893577046 0.219508331514 0.707459224853)
(-0.179683418655 0.219307682871 0.707160154858)
(-0.52070972724 0.353382351754 0.685010161662)
(-0.82974549598 0.629100044169 0.665689174801)
(-1.1264496876 1.01650396377 0.700395266816)
(-1.44816337414 1.447509802 0.798453040465)
(-1.82069666465 1.82916982786 0.851645809494)
(-2.18961405061 2.07979697962 0.741120607415)
(-2.38043454933 2.1515077131 0.340310663549)
(-2.07124054952 2.06446491573 -0.413775570633)
(-0.897523035408 2.08232840858 -0.88618573011)
(0.83647966484 1.59987235956 -0.559001893679)
(1.95425040904 1.63795785355 -0.018370638648)
(2.13657283926 1.75180656184 0.731130540585)
(1.83857519383 1.68805689853 1.03643859641)
(1.4073451854 1.46695800828 0.960307301093)
(1.02024645958 1.12543523571 0.706374963839)
(0.744705475361 0.741576000055 0.440666495717)
(0.541854705938 0.406049759929 0.29137610054)
(0.353008704019 0.173138447857 0.253514680929)
(0.127441646462 0.0467499245932 0.30503948355)
(-0.125640424438 0.0466769188624 0.304956714351)
(-0.351366952391 0.172962740238 0.252998890698)
(-0.540112222053 0.405970910669 0.289891527428)
(-0.742474003361 0.7419858378 0.438058696681)
(-1.01734184738 1.12660358056 0.702880838651)
(-1.40367367665 1.46886562947 0.956668648968)
(-1.83492077015 1.69038677513 1.03324229583)
(-2.13357351242 1.75485064917 0.728771573326)
(-1.95183746991 1.64117177132 -0.0199875717269)
(-0.835353521526 1.60273950605 -0.560109623355)
(0.79576833907 1.07254212231 -0.409872082331)
(1.85273905074 1.15352549067 0.281492043434)
(1.91473569104 1.29419758575 1.06471012144)
(1.50509626148 1.26829479772 1.28863477074)
(1.01830367757 1.0920241296 1.07397016381)
(0.632847417099 0.827955385245 0.671953579991)
(0.409268461371 0.538355242216 0.292374276441)
(0.291715062553 0.287890976389 0.0922519397483)
(0.201086326828 0.121115535077 0.0119954453769)
(0.076615427085 0.0307722719833 -0.00767847029636)
(-0.0744508936233 0.0307030729852 -0.0077958698963)
(-0.199021342752 0.121059502217 0.0115722654943)
(-0.289468824307 0.288216027419 0.0913647466832)
(-0.40653695393 0.539460188466 0.290878357235)
(-0.629665632459 0.830135667695 0.6700251796)
(-1.01500850511 1.0952127421 1.07195289298)
(-1.50173348354 1.2720042128 1.28680046442)
(-1.91180245443 1.29823208476 1.06352974422)
(-1.85068859826 1.15748272936 0.280747360158)
(-0.794697390625 1.07595833481 -0.410248597688)
(0.796478825697 0.58427538637 -0.398513584598)
(1.79064616922 0.666668537926 0.460555838719)
(1.76051601058 0.79453469932 1.3135650303)
(1.26477211971 0.793334330818 1.50676767083)
(0.730808184943 0.683794364927 1.18887479553)
(0.357027127796 0.519756212038 0.689541792505)
(0.176319337004 0.350856225199 0.253393451797)
(0.125058775462 0.198848911386 0.0100113566573)
(0.100418108633 0.0980564200702 -0.11770919125)
(0.0415380231401 0.0467741705002 -0.167907026438)
(-0.0393680560339 0.0467455375879 -0.168238105913)
(-0.0981541692159 0.0980941552476 -0.118555199098)
(-0.122415088389 0.199315654442 0.00906204549097)
(-0.173128294755 0.352177286632 0.252520707432)
(-0.353615277708 0.52229706055 0.688997638829)
(-0.727469503354 0.687537410613 1.18869986934)
(-1.26218377809 0.798012003773 1.50705283118)
(-1.75889653009 0.799053936554 1.31375984684)
(-1.7896199323 0.670985655513 0.460421624211)
(-0.795751973959 0.587865009633 -0.398668380382)
(0.813186241883 0.18283855707 -0.44712951293)
(1.76036631898 0.21759129314 0.525871720524)
(1.68103691013 0.270459920019 1.4429539756)
(1.13846794267 0.27157382584 1.62222918565)
(0.583845091667 0.236502750393 1.25322417336)
(0.222415467853 0.182035910961 0.709656767132)
(0.0494006840075 0.129127109492 0.304235895039)
(0.0346837040727 0.0790226627072 -0.0106723497644)
(0.0492252031443 0.0442749505673 -0.169388905653)
(0.0248908991384 0.0276880954987 -0.234044980087)
(-0.0228022835251 0.0277708668635 -0.234425698121)
(-0.0469088873387 0.0445672600504 -0.170455379055)
(-0.0317612515869 0.0797150236101 -0.0118728889183)
(-0.045791443217 0.130536169137 0.303558289792)
(-0.218719692035 0.184549045525 0.709845707525)
(-0.58079948855 0.240130297641 1.254637723)
(-1.13685472361 0.275909370086 1.62403897422)
(-1.68080640437 0.274928001358 1.44390087976)
(-1.76040089794 0.221966415224 0.525797331491)
(-0.813038029976 0.186683197357 -0.447705121052)
(0.812479069173 -0.168178062741 -0.445561828212)
(1.75870311068 -0.208087757636 0.526874105082)
(1.67910990136 -0.263554232582 1.44303306118)
(1.13656764912 -0.265974030755 1.62131705923)
(0.582575148514 -0.23048152575 1.25207745354)
(0.22157757271 -0.174242542532 0.709105881954)
(0.0489979904423 -0.118860509276 0.304486312486)
(0.0342856217327 -0.0665507473263 -0.0099424300769)
(0.0489441124824 -0.0307213989727 -0.168610335587)
(0.0248265920778 -0.013806098771 -0.233341490605)
(-0.0226099563535 -0.0135577756691 -0.233678732524)
(-0.0464262161409 -0.0299826738518 -0.169678880723)
(-0.0310790915436 -0.0653256413329 -0.0112415101145)
(-0.0449743238378 -0.11706341483 0.303786396157)
(-0.21759578849 -0.171681523604 0.70981222485)
(-0.579692850805 -0.227146808634 1.25461086366)
(-1.13575444192 -0.262027981182 1.62431313677)