/*--------------------------------*- C++ -*----------------------------------*\
| =========                 |                                                 |
| \\      /  F ield         | OpenFOAM: The Open Source CFD Toolbox           |
|  \\    /   O peration     | Version:  3.0.1                                 |
|   \\  /    A nd           | Web:      www.OpenFOAM.org                      |
|    \\/     M anipulation  |                                                 |
\*---------------------------------------------------------------------------*/
FoamFile
{
    version     2.0;
    format      ascii;
    class       volScalarField;
    location    "7.5";
    object      epsilon;
}
// * * * * * * * * * * * * * * * * * * * * * * * * * * * * * * * * * * * * * //

dimensions      [0 2 -3 0 0 0 0];

internalField   nonuniform List<scalar> 
7968
(
7.12416342524e-05
8.9556058661e-05
0.000105616299078
0.000116339563503
0.000122698370028
0.000125968193386
0.000127128518875
0.000127230404181
0.000126952485967
0.000126489600745
0.00012628538157
0.000126538529416
0.000126644906479
0.000126362064749
0.000124912507322
0.000121446968961
0.000115018884028
0.000104564828718
8.90379669752e-05
7.10899582334e-05
8.95118777911e-05
0.000175312648511
0.000246358585544
0.000296252843291
0.000328626370004
0.000346997805584
0.000355420597534
0.000357367408725
0.000356062894382
0.000353921088417
0.000352342458104
0.000351402837134
0.000349732530936
0.000345187864753
0.000335076377976
0.000316442909646
0.000285744555907
0.000239112888435
0.000171953733721
8.91174135e-05
0.000105467612105
0.000246496578271
0.000364898200184
0.000449551425218
0.000505791556396
0.00053906530937
0.000555284916261
0.000560097391881
0.000558681402072
0.000554913834807
0.000550948053274
0.000546966870847
0.000541310449287
0.000530837805206
0.000511357957922
0.000478155479189
0.000425860548668
0.000348557203496
0.000238888733904
0.000104837142036
0.000116282841006
0.000296853080061
0.000450300243416
0.000560944555407
0.00063499163222
0.00067908386914
0.000700771935772
0.000707423585568
0.000706135518784
0.000701432353682
0.000694400964771
0.000685990261146
0.000676550479163
0.0006613202005
0.000634943306659
0.000591335906596
0.000523664580769
0.000424522837551
0.000284829876975
0.000115296912361
0.000122913594988
0.000330065626886
0.000508163551617
0.000637001131822
0.000722958913546
0.000774015850542
0.000802226752491
0.00081368134536
0.000812810204147
0.000805650441101
0.000795904004594
0.000784483257032
0.000769583583997
0.000746996914527
0.000714418757155
0.000664361833278
0.000587009070956
0.000473543826791
0.000314132194639
0.000121376396032
0.000126401873411
0.000349745238072
0.000543832548353
0.000684281878393
0.000777571574722
0.000837601268609
0.000870448446304
0.00088071884415
0.000877046234603
0.000866957571209
0.000854976236915
0.000842184710211
0.000826264650103
0.000802104315739
0.000763492023037
0.000706082261958
0.000623361067629
0.000501621007571
0.000330441694838
0.000124491555298
0.000127760631877
0.000359674672636
0.000562977334962
0.000710011509468
0.000809617382655
0.000875286082478
0.000907147712799
0.000914295157348
0.000907129943504
0.000894238159799
0.000880670611519
0.000867568450043
0.000852240524102
0.000828891376577
0.000790098544297
0.000728446630633
0.000640491715402
0.000514774413154
0.000337684582045
0.000125689362313
0.00012779840669
0.000363175566816
0.000570995761071
0.000721156566534
0.000826647653906
0.000892064554538
0.000921237491361
0.000924821611217
0.000914359538798
0.000899204290806
0.000884737045397
0.000872039481763
0.000858065145482
0.00083651048615
0.000799318151898
0.000738058282695
0.000645705195757
0.000518516727199
0.000339331629682
0.000126127046777
0.000127476224213
0.000363357376495
0.000572841627599
0.00072408250539
0.000832145900833
0.000896013109099
0.000922442832407
0.000923057296844
0.000910129580248
0.000893467428285
0.000878672304156
0.000866712849929
0.000854157492351
0.000834402761405
0.000799050663813
0.000739229572057
0.000646713117529
0.000517643478286
0.000338309202198
0.000125970745231
0.000127066747006
0.000362566942072
0.000572200396978
0.000723376409038
0.000831660334601
0.000893979841053
0.000918537827604
0.000917431318377
0.000903227828752
0.00088589740475
0.000871111374856
0.000859808007623
0.000848261970914
0.000829687567596
0.000795618495815
0.000737053830301
0.000645435703506
0.000515608682921
0.000336788928235
0.000125566924772
0.000126957746878
0.000362187354372
0.000571077802093
0.000721256352778
0.000828381391635
0.000889815241892
0.000913810484691
0.000912499555875
0.000898381828971
0.000881275468859
0.000866728083637
0.000855658549584
0.000844345967607
0.00082603884555
0.000792363318787
0.000734377490575
0.000643491294775
0.000514188269012
0.000335975339753
0.000125251730988
0.000127311768037
0.000362229669169
0.000569503401549
0.000717912904267
0.00082261759484
0.000883881542348
0.000908609936887
0.000908531064195
0.000895748071443
0.000879689891185
0.000865622591724
0.000854327579352
0.000842442177458
0.000823501496164
0.000789355737105
0.000731278342663
0.000640901856066
0.000513328448405
0.000336001506981
0.000125330432636
0.000127641918092
0.000361265610472
0.000565552845967
0.000711377792223
0.000811740511724
0.000872998180086
0.000899313746303
0.00090153161822
0.000890991007674
0.000876568638452
0.000863184112427
0.000851561647282
0.00083873985195
0.000818652647684
0.000783575193023
0.000725202263151
0.00063576086574
0.000511234285228
0.000335562325553
0.000125338080835
0.000127537966366
0.000356994296229
0.000555758826973
0.00069739756703
0.00079092007175
0.000851278427241
0.000879275282486
0.000884295196213
0.000876583737659
0.000864257716136
0.000851888757752
0.000840169244259
0.000826492132658
0.000805308142102
0.000769502337759
0.00071155900154
0.000626100255185
0.00050467829428
0.000332426353845
0.00012466752354
0.0001260848226
0.000346477274257
0.000535519771524
0.000670135436346
0.000757552227879
0.000811705190239
0.000840118100637
0.00084768264359
0.000842958397832
0.000833096443394
0.000822209366496
0.000810935838028
0.000797007992765
0.000775496076157
0.000740207148675
0.000685071449686
0.000606085629792
0.000489398068081
0.000323901937319
0.000122892682007
0.000122526033251
0.000326596646528
0.000499798183937
0.000623095282111
0.00070355612598
0.000749694865165
0.000773786905656
0.000782470394784
0.000780302975346
0.000773060994134
0.000764166307412
0.000754151533166
0.000741168148002
0.000721037433346
0.000689597953347
0.000642223580568
0.00056884714596
0.000460478055875
0.000306843604565
0.000119610147092
0.000115899070521
0.000293756927566
0.0004431387742
0.000549282261907
0.0006188932671
0.000659059413974
0.000677668837837
0.000682324100925
0.000680357929446
0.000675463139863
0.000668987689787
0.000661300237984
0.000652248168352
0.000637856333318
0.000612906890346
0.000571554388538
0.000507206322498
0.000412408158749
0.000277802029764
0.000113584466551
0.000105160672533
0.00024430435024
0.000360002054802
0.000441745634738
0.000495170296342
0.000525982061117
0.000540295352484
0.000543894350762
0.000541908336231
0.000538041631935
0.000534211842899
0.00053038929645
0.000524871990929
0.000514637400088
0.000495764636363
0.000463755617881
0.000413498223505
0.000339134828284
0.000233156993332
0.000103408177486
8.93303853473e-05
0.00017425538966
0.000244089859184
0.000292795379605
0.000324179980019
0.000341692401958
0.000349499287994
0.000351154037598
0.000349808101831
0.000347741908559
0.000346131252981
0.000344960507279
0.000342961752761
0.000338046029471
0.00032769058559
0.000309087070376
0.000278863432098
0.000233498776402
0.000168363523675
8.81824799087e-05
7.11690100462e-05
8.93751068885e-05
0.000105359459855
0.000116033834977
0.000122284274212
0.000125565645042
0.000126786877205
0.000127076871841
0.000126921263058
0.000126542381381
0.000126253215897
0.000126217425343
0.000126110125949
0.000125399570826
0.000123609628109
0.000119880828959
0.00011348109856
0.000103191800392
8.80241488241e-05
7.07090824868e-05
8.83170861472e-05
0.000165486590364
0.000232607601996
0.00028204214259
0.000315857756251
0.000336870822606
0.000348105139532
0.000352317085892
0.000352402688354
0.000350878737392
0.000349119866427
0.0003472858908
0.000344137873176
0.000337433767367
0.000324970740732
0.00030433993248
0.00027266265607
0.000226718872699
0.000163262345474
8.79263275409e-05
0.000165530637618
0.000214981927329
0.000276930590819
0.000326486424531
0.000361930674114
0.000384705358974
0.0003973508354
0.000402705979072
0.000403507239106
0.000401941529638
0.000399275822751
0.000395678380673
0.000390280081145
0.000381387816926
0.000366871873021
0.000344380750245
0.000311526829626
0.000266386002275
0.000209407697769
0.000163088687687
0.000232734471189
0.000277217942967
0.000350289873916
0.000411238613862
0.000455877685523
0.000485000763584
0.000501280383607
0.000508080944393
0.000508721957841
0.000505877450473
0.000501180877893
0.0004949838064
0.000486459602225
0.000473743823999
0.000454333760132
0.000425533730455
0.000384854917931
0.000330828962835
0.000265811264902
0.000226404256796
0.000282521143961
0.000327382545536
0.000412008837779
0.000483762003393
0.000536762420226
0.000571471833373
0.000590848552761
0.000598757256195
0.000599090171046
0.000594802986567
0.000587812062109
0.000578762302572
0.000567103951664
0.000550884889737
0.000527162050235
0.000492880952454
0.000445297749656
0.000383073681924
0.000309684643253
0.00027174186794
0.000317044470206
0.000363818704184
0.000458002924387
0.000538334068773
0.000597762287307
0.000636766535304
0.000658951855423
0.000667635852872
0.000666871670134
0.000660616603537
0.00065150114807
0.000640337548625
0.000626250856799
0.000606883790964
0.000579576055003
0.00054128121953
0.000488703443135
0.000420338429713
0.000340317966233
0.000302029791202
0.000339092402913
0.000387959461658
0.00048906376927
0.000575428266729
0.000639368238321
0.000681975693761
0.000705164252682
0.000712680990372
0.000709761620836
0.000701269142316
0.000690385243553
0.000678050716294
0.000663129886866
0.000642740274369
0.000613424097756
0.000572095307918
0.00051636293882
0.00044409308175
0.000359634036035
0.000320496817406
0.000351623924173
0.000402276414104
0.000507785820022
0.000597899894682
0.000665002671765
0.000709012659455
0.000731190197843
0.000736371852057
0.000730807221461
0.000720137522404
0.000707968006885
0.00069529445925
0.000680713026911
0.000660846872386
0.000631612633612
0.000589277801872
0.000531559976894
0.000457232243531
0.000370300261543
0.000330250359309
0.000357521357903
0.000409535486846
0.000517419610197
0.000609436802803
0.0006782041412
0.000721692307138
0.000741848553251
0.000744344478542
0.000736237282381
0.000723773121106
0.000710843089989
0.000698417907817
0.000684827208351
0.000666293110252
0.000638265434553
0.000596516295508
0.00053821975413
0.000463055642655
0.000375053389947
0.000333756065283
0.000359255908465
0.000412358705876
0.000521184583317
0.000613852456294
0.000682752113506
0.000724963431672
0.000743034441114
0.000743241729266
0.000733203263228
0.000719554342262
0.000706328055734
0.000694416402841
0.000681927400657
0.000664816363429
0.000638245799635
0.000597675576021
0.000539934977832
0.000464622576836
0.000376421756765
0.000334148661497
0.000359216417512
0.000412833244466
0.00052160661651
0.000614036393548
0.000682260654449
0.000723233132734
0.000739832404532
0.000738662205079
0.000727611769107
0.000713462953902
0.000700271185999
0.00068884652756
0.000677161328522
0.000661057273777
0.000635588489207
0.000596080316321
0.000539176611056
0.000464233121995
0.000376284143752
0.000333445618812
0.000358883492089
0.000412130639423
0.000520102852956
0.000611590719185
0.000678894311984
0.000719107349346
0.000735188163712
0.000733773446997
0.000722720526023
0.000708732307717
0.000695783230908
0.000684630680374
0.000673243291465
0.00065750237868
0.000632508968818
0.000593604592705
0.000537386135658
0.000463085063248
0.000375642294907
0.000332773416948
0.000358276408775
0.000410265648793
0.000516757518443
0.000606710565099
0.000672921349766
0.000712893454499
0.00072940166752
0.000728821829168
0.000718694502836
0.000705448639779
0.000692898761811
0.000681781705272
0.000670194388503
0.000654200637924
0.000629080856312
0.000590324503012
0.000534606485027
0.00046114754089
0.000374494137626
0.000332292844405
0.000355823968739
0.000406107556266
0.000510341371119
0.000598195185534
0.000662718791786
0.000702620080701
0.000720179391625
0.000721234261913
0.000712762549884
0.000700748977116
0.000688792464325
0.000677638034719
0.000665585145193
0.000648992947823
0.00062343768706
0.000584673777841
0.000529563610729
0.000457337646986
0.000371853798
0.000330839014302
0.00034931054249
0.000397714450041
0.000498597769631
0.000583505327587
0.000645321848215
0.00068471126066
0.000703400529558
0.000706462578169
0.000700108968048
0.000689738513151
0.000678665761341
0.000667642125299
0.000655197867844
0.000638071949834
0.000612239971356
0.000573834558896
0.000520050991653
0.000449601091803
0.000365960817478
0.000326361209104
0.000336393816485
0.000382692545515
0.000478661096871
0.000559322397247
0.000617641197122
0.000655117261082
0.000674292877162
0.000679197923209
0.00067509091117
0.000666659797345
0.000656847981324
0.000646378029497
0.000634000076349
0.000616889157919
0.000591506537807
0.000554434530885
0.000503080909578
0.000435267168163
0.000354557834215
0.000316321263155
0.000314370573647
0.00035851343773
0.000447610034002
0.000522352021248
0.000576360844341
0.000610538570167
0.000628787263735
0.000634781495975
0.000632659893763
0.000626284941801
0.000618124163289
0.000608810251855
0.000597304247981
0.000581219598552
0.000557576630351
0.000523358289042
0.000475279767972
0.00041140714575
0.000335130202042
0.000297842204667
0.000280374650433
0.000322827465881
0.00040299154223
0.000469881466235
0.000518218524773
0.000548843156626
0.000564973259439
0.000570674207418
0.000569837489579
0.000565394804831
0.000559184540285
0.000551684340392
0.00054210876929
0.000528414451051
0.000507805457511
0.000477145967726
0.000433542720779
0.000375271750179
0.000305159747793
0.000268218333947
0.000231490416617
0.000274069092584
0.000343792377348
0.0004011023334
0.000442283235288
0.000468417573951
0.000482365034605
0.000487599477178
0.000487453681029
0.000484539317488
0.000480377933382
0.000475209645684
0.000468096973461
0.000457196224116
0.00044003285688
0.000413891043502
0.000376166588183
0.00032510077747
0.000262561009283
0.000224102325597
0.000165164473567
0.000213446872629
0.000273404706313
0.000320774862278
0.00035415134018
0.000375158137929
0.000386457319721
0.000390946872925
0.000391363709537
0.000389813488095
0.000387456790344
0.00038438281918
0.000379682829401
0.000371726213422
0.000358398152184
0.000337377230522
0.000306242091086
0.000262924521913
0.000207570901899
0.000162043419504
8.81751909886e-05
0.000164954483826
0.000231084285247
0.000279292618945
0.000311872097782
0.000331796477245
0.000342199299092
0.000345838695861
0.000345749678066
0.000344266829471
0.000342567553122
0.000340734700994
0.000337680956407
0.00033140243767
0.000319453736633
0.000299583771244
0.000268982790785
0.000224355343798
0.000162140780937
8.71938636398e-05
0.000104534257358
0.000236573281288
0.000356810607376
0.000448531222939
0.000513004576362
0.00055385757799
0.000575864632613
0.000584320234715
0.000584313990313
0.000579938438317
0.000573636682599
0.000565882364628
0.000555234570441
0.000538729969047
0.000512657295241
0.000472836228002
0.00041484877203
0.000334118613986
0.000226570260953
0.000103231492912
0.000236789141751
0.000288765714994
0.000370793678876
0.000439883785936
0.000490791537988
0.000523984998029
0.000542245638099
0.000549316334927
0.000548995051926
0.000544415755839
0.000537499507455
0.000528729424032
0.000517268599342
0.000501118136393
0.00047770799287
0.000444310734603
0.00039855587478
0.00033929234608
0.000269475639648
0.000226233706154
0.000357375608625
0.000371537887169
0.000452980138074
0.000526391421524
0.000582111735178
0.00061900714447
0.000639302624442
0.000646714035397
0.000645214507465
0.000638315633901
0.000628299205983
0.000615924882477
0.000600506108406
0.000580096393953
0.000552199508103
0.000514256199144
0.000464509968595
0.000403348128148
0.000337688619255
0.000333070874607
0.000450079428178
0.000441967459768
0.000527917401198
0.000607999643407
0.000669451441067
0.000710178549917
0.000732173733205
0.000739522696772
0.000736202901306
0.000726416713843
0.000713010894474
0.000697068956874
0.00067796795545
0.000653662894497
0.000621747776486
0.000579410755876
0.000525081780619
0.000459933503443
0.000393394670344
0.000411400446243
0.00051637685983
0.000494898080911
0.000586017918141
0.000672028601855
0.000738041811066
0.000781474629961
0.000803950963371
0.000809223440262
0.000802591531194
0.000789203725647
0.000772570859882
0.000754060396262
0.000732915614859
0.000706721050603
0.000672403504293
0.000627208661759
0.000569741417232
0.000501397138621
0.000433096407555
0.000464487925082
0.000559895087959
0.000530795649132
0.000626144342991
0.000716374373616
0.000785245376547
0.000829541111778
0.000850052031562
0.000851260204572
0.000839948852581
0.000822464524755
0.000802968476499
0.000783032438773
0.000761616497572
0.000735751554958
0.000701750012302
0.000656152305979
0.000597358201733
0.000527444356623
0.000458011709421
0.000496911664356
0.000585302399596
0.000552377777694
0.000650474348782
0.000743001813427
0.000812957131511
0.000855782386545
0.000872243786759
0.000867911374525
0.000851240279355
0.000829712322903
0.000808010628594
0.000787772477268
0.000767587184591
0.000743850330804
0.000712237486689
0.000668579547183
0.000610613848834
0.000540693463548
0.00047115815353
0.000513775679557
0.000597739491052
0.000563300573562
0.000662680228058
0.000755912616417
0.000825004938858
0.000864820208496
0.000876299283341
0.000866314656899
0.000844708801641
0.000819861245575
0.00079679252032
0.000777076497741
0.000758913411654
0.000738141565894
0.0007098437641
0.000669320912435
0.00061368809852
0.00054498538467
0.000476209483919
0.000520246024067
0.000602080296613
0.000567241851143
0.000666664371607
0.000759408372497
0.00082651577394
0.000862952387489
0.000870020621013
0.000855556423089
0.000830359120362
0.000803359846629
0.000779719600141
0.000760852917606
0.000744650745445
0.000726600743216
0.000701395873946
0.000663959552367
0.000611008577123
0.000544303227295
0.000476683056671
0.000520989349005
0.000602217228996
0.000567180578651
0.000665723159698
0.000757138022789
0.000822205003345
0.000856006119393
0.000860190425419
0.000843140580516
0.000816111742122
0.0007882228347
0.000764607372234
0.000746507070408
0.000731639810101
0.000715365339326
0.000692250174964
0.000657065486568
0.000606327131338
0.000541575422915
0.000475228798514
0.000519459984981
0.00060035470774
0.00056480136425
0.000661812245909
0.00075152760967
0.000814999454966
0.000847451232603
0.000850676394725
0.000833148341963
0.00080607553624
0.000778436691701
0.00075522563753
0.000737577424297
0.000723199492719
0.000707522412379
0.000685216390589
0.000651118791108
0.000601718361199
0.000538397264435
0.000473260893399
0.000517563818424
0.000596587794996
0.000560222061793
0.000655175804063
0.000742970335673
0.000805400624579
0.000837827631098
0.000841963427711
0.000825922918668
0.000800406512897
0.000773980144577
0.000751432753993
0.000733886843212
0.000719203735212
0.000703054141996
0.000680388261689
0.000646281526928
0.000597347377764
0.000534899034075
0.000470826337482
0.000515475979362
0.000588910606839
0.000552015783093
0.000644368049229
0.000729843604044
0.000791515532011
0.000824821294288
0.000831328464108
0.000818382332461
0.000795759892665
0.000771386180488
0.000749803101435
0.000732192010388
0.000716694560836
0.000699365087899
0.0006755578081
0.000640697430281
0.00059166108227
0.000529736366727
0.000466674689669
0.000511475547387
0.000573824053528
0.000537622311608
0.000626763232663
0.000709543777926
0.000769912159202
0.000804188920516
0.000813821724695
0.000805016557674
0.000786284029288
0.000764711493371
0.000744539380264
0.000727027826242
0.000710657169096
0.00069198411463
0.000666822393669
0.000630996047582
0.000581839655465
0.000520596544485
0.00045855296048
0.000502361818485
0.00054700002339
0.000513911607098
0.000599163351485
0.000678518144793
0.000736722770004
0.000771362114424
0.000783893100861
0.0007794513358
0.00076506442446
0.00074685938071
0.000728677705882
0.000711810427556
0.000695052211859
0.000675494192159
0.000649401017241
0.000613085273468
0.000564345903635
0.000504410652116
0.00044354942546
0.000484055645836
0.000503800558724
0.000477756059148
0.0005585414487
0.00063357408008
0.000688964523394
0.000722749711769
0.000737134089483
0.000736412666081
0.000726188825826
0.000711600085733
0.000695997784447
0.000680566718289
0.000664360333594
0.00064491376255
0.000618958177854
0.00058328837184
0.000536107116768
0.000478073976575
0.000418563552368
0.000451980349606
0.000439729413075
0.000426714228116
0.000503026329641
0.000573022808206
0.000624855000763
0.000656947928302
0.000671732981877
0.000673622776922
0.000666919062793
0.000655889747194
0.000643319949463
0.000630180125027
0.000615668303824
0.000597607926642
0.000573169098791
0.000539617933252
0.000494860488114
0.000439240756269
0.000380798701552
0.000401269080061
0.000350729678324
0.000360099275556
0.000433471488792
0.000498539401195
0.000546409867048
0.000576370652263
0.000590956473434
0.000594133030689
0.000590053357312
0.000582256407518
0.000572932718463
0.000562748303942
0.00055090711879
0.000535434552884
0.000513683868492
0.000482931024776
0.000441023318996
0.000387646244325
0.000328621687195
0.000326811739017
0.000234136068824
0.000282156739286
0.000358307228221
0.000421289506499
0.000466485062135
0.000494708468581
0.00050897023387
0.000513169047817
0.000511173733042
0.00050608384023
0.000499736222168
0.00049253273209
0.000483522382459
0.000470752614134
0.000451605091857
0.00042325644593
0.000383076122444
0.000329408341503
0.000264425517541
0.000223802290781
0.000104120443202
0.000233671031432
0.000349438863875
0.000436027277429
0.000495433518696
0.000531768039311
0.000550150251733
0.000556072317942
0.000554655584168
0.00054985140135
0.000543935065242
0.000537278316811
0.000528431042157
0.000514547472149
0.000491909409417
0.000456333263508
0.00040321838048
0.000327503471907
0.000224079177023
0.000102003435191
0.000121017065265
0.000318813826959
0.000502636242832
0.000644647560619
0.000745097592701
0.000808339373165
0.00084116112175
0.00085171428382
0.000848075695433
0.00083672977498
0.0008215993036
0.000803763915338
0.000781667618258
0.000751339901741
0.000707559256378
0.000644604206819
0.000556835850671
0.000438888608594
0.000286440742292
0.00011653367374
0.000319479832432
0.000388397123183
0.000504025191682
0.000602865343377
0.000676221364119
0.000723895488237
0.000749356182149
0.00075773136561
0.000754468505717
0.000744123677935
0.000729608773423
0.000711932218692
0.000690255687303
0.000662159591389
0.000624427824114
0.000573840482937
0.000508013890051
0.000426645195664
0.000335227376789
0.000285815450603
0.00050428143477
0.000505549564369
0.000612847736437
0.000712021945716
0.000788167140134
0.000838656674397
0.000865782849052
0.000874062159222
0.000868958732211
0.000855341142518
0.000836502822681
0.000813871852662
0.000786830177809
0.000753092993353
0.000709734209882
0.000654041847346
0.000584721958201
0.000503849596816
0.000422695549782
0.000435990320881
0.000648481942977
0.000606820469089
0.000714549278646
0.000818652596856
0.00089966027663
0.000953490934358
0.000981811651985
0.000988386440719
0.000979349205091
0.0009607972609
0.000936838669849
0.000909345541079
0.000877633605228
0.000839212799093
0.000791452182106
0.000731271866457
0.000657638388439
0.000573936027554
0.000495220426137
0.000546958231546
0.000752631037375
0.000683584345307
0.000794186527988
0.000903179852767
0.000988198559069
0.00104402446158
0.00106976373195
0.00107019806733
0.00105381006252
0.00102837313172
0.000998966797263
0.000967925944973
0.000934332722717
0.000895110994859
0.000846576046043
0.000785072434802
0.000709736990846
0.000624279250808
0.000546219574258
0.000621291409995
0.000821057705212
0.000735637485214
0.000849111691108
0.00096151292799
0.00104891973271
0.00110217256926
0.00112017994084
0.00111013860461
0.00108338292294
0.00104963975216
0.00101507021213
0.000982341152983
0.000950047634268
0.000914025913603
0.000869269675651
0.000811301526959
0.000737825120939
0.000653123928561
0.000576252907167
0.000664478106567
0.000860410427597
0.000766418076978
0.000881656499452
0.000995518270735
0.00108185437145
0.00112814363017
0.00113465520791
0.0011113555844
0.00107280032436
0.00103072979246
0.000992208580087
0.000959801255625
0.000931465949969
0.000901743782641
0.000864119178586
0.00081287566291
0.000745165232622
0.000663707270889
0.000589256146651
0.000683899141142
0.000878651419599
0.000781057005436
0.000896587797972
0.00100995168542
0.00109186092257
0.00112912902571
0.00112318764869
0.00108678723748
0.00103755211304
0.000988796374529
0.000947930659539
0.000917173858073
0.000893803137828
0.000871247228348
0.000841757462095
0.000798523064271
0.000737942310583
0.000661818124226
0.000590768387625
0.000687829385923
0.000883597567125
0.000784956161363
0.000899379258428
0.00101029204624
0.00108688412504
0.00111583281419
0.00109959285093
0.00105323864572
0.000996565329005
0.000943678191119
0.000901915621046
0.000872995925117
0.000853665361918
0.000836849241204
0.000814112887863
0.000777966915647
0.00072407684402
0.000653659934793
0.000586344227642
0.000683919126133
0.000881461138919
0.000782592942461
0.000894928583815
0.00100267043408
0.00107467208038
0.00109773945286
0.00107513805264
0.00102332401551
0.000963081780975
0.000908626198105
0.000866999967039
0.000839470956379
0.00082248421547
0.00080892100013
0.000790260318649
0.000758810149137
0.000709813514416
0.000644014279825
0.000580228967847
0.000677797002536
0.000875724465227
0.000776572472064
0.000886233668236
0.000990920146716
0.00105991881534
0.00108033295778
0.00105583997651
0.0010031754812
0.000942977908279
0.000889076332997
0.000848178971248
0.000821334841743
0.000804948314972
0.000792118023142
0.000774652297655
0.000745084353208
0.000698631686048
0.000635805260725
0.000574773114496
0.000672508808053
0.000866751414383
0.000767245062707
0.000873863102686
0.000975856833561
0.00104359851901
0.00106458020959
0.00104242624929
0.000993062454896
0.000935981933986
0.000884290086056
0.00084443882282
0.000817545523631
0.000800244049924
0.000786026031845
0.000767284449763
0.000737077169624
0.000690936709185
0.000629391322834
0.000570163061363
0.000668268630382
0.000851773446556
0.000752733015882
0.000855982000107
0.000955267991065
0.00102300552524
0.00104721357871
0.00103100266559
0.000988490936109
0.000937132433709
0.000889042017636
0.000850543951808
0.000823052118384
0.000803678584221
0.000786506361779
0.000764702019578
0.000732015912761
0.000684491262926
0.000622855532837
0.000564622822737
0.000662601938263
0.000825641733495
0.000729511730931
0.00082904686675
0.000925021700365
0.000992949129741
0.00102191143902
0.00101403113205
0.000980946527496
0.000937449701576
0.000894345122867
0.000857799768467
0.000829643497449
0.000807641540589
0.000786744920393
0.000761011615557
0.000724975666146
0.000675142999989
0.000612615494588
0.000554903380013
0.000650875006351
0.000781892477235
0.000693317597419
0.000789001319784
0.000881477556262
0.000948227965652
0.000981599986644
0.000982412597693
0.000959579001181
0.000925060415159
0.000888200879195
0.000854657295298
0.000826615942242
0.000802517474436
0.000778276451548
0.000748928134789
0.000709760351202
0.000657646457269
0.000594537978057
0.000536929881008
0.000627055376083
0.0007137666897
0.000640039231564
0.00073215592892
0.000820883488084
0.000885356090146
0.000921185714706
0.000929048759635
0.000915443891105
0.000889707426252
0.000859671325252
0.000830338158921
0.000803859413743
0.000779198659983
0.000753179055324
0.000721669163462
0.000680527677481
0.000627260600116
0.000564508799123
0.000506475341312
0.000584398617598
0.00061509864375
0.000566796170154
0.000656684009058
0.000741729279716
0.000803890589015
0.000839842093196
0.0008520931687
0.000845471248882
0.000827238232424
0.000803803784887
0.00077943333608
0.000756006622603
0.000732795638916
0.000707175785041
0.000675553451457
0.000634436504424
0.000581989671622
0.000519850114939
0.000460075992156
0.000516065468128
0.00048080982451
0.00047350734909
0.00056478744792
0.000647369695158
0.000707478764083
0.000743102922203
0.000757146033614
0.000754831719291
0.000742323413122
0.000724816392751
0.000705680128656
0.00068639575176
0.000666360996443
0.000643298159888
0.000613814571524
0.000574644786584
0.000523583358324
0.000461183656236
0.000396279548931
0.00041539783421
0.000308109302239
0.000367294433003
0.000469498339838
0.000554780775447
0.000615345712049
0.000651473517371
0.000667050573053
0.000667641065213
0.000659066839024
0.000646100243218
0.000631744799581
0.000617009550742
0.000600969568798
0.000581167036871
0.000554205452538
0.000516481099236
0.000464888812372
0.00039791910537
0.000319250424796
0.000276608758929
0.00011941863266
0.000307138530953
0.000477461836824
0.000605358814675
0.000692260562026
0.000743356470356
0.000766103275149
0.000769137295608
0.000760750853832
0.0007473873173
0.000732847710527
0.000718055243367
0.000701271019135
0.000678694687498
0.000645067377007
0.000594480842319
0.00052067520099
0.000417068946285
0.00027724064433
0.000114081065469
0.000144634572656
0.000441344956847
0.000713758339804
0.000924227033648
0.0010738092828
0.00116811603464
0.00121640859516
0.00123032925719
0.00122156960434
0.00119956111811
0.00117027550537
0.00113575515475
0.00109430894094
0.00104087474055
0.000968559356212
0.000870205706856
0.00073945826196
0.000570914704743
0.00036028037137
0.000131152125167
0.00044298948379
0.000539366113048
0.000703927960463
0.000845927195072
0.000952680979961
0.00102328180425
0.00106190300056
0.00107515872802
0.00107028992202
0.00105339207496
0.00102849116344