/*--------------------------------*- C++ -*----------------------------------*\
| =========                 |                                                 |
| \\      /  F ield         | OpenFOAM: The Open Source CFD Toolbox           |
|  \\    /   O peration     | Version:  3.0.1                                 |
|   \\  /    A nd           | Web:      www.OpenFOAM.org                      |
|    \\/     M anipulation  |                                                 |
\*---------------------------------------------------------------------------*/
FoamFile
{
    version     2.0;
    format      ascii;
    class       volScalarField;
    location    "7.5";
    object      nut;
}
// * * * * * * * * * * * * * * * * * * * * * * * * * * * * * * * * * * * * * //

dimensions      [0 2 -1 0 0 0 0];

internalField   nonuniform List<scalar> 
7968
(
9.16610951763e-05
9.8961215017e-05
0.000104583963489
0.000108027520914
0.000109970252734
0.000110944038414
0.000111285652868
0.000111313952349
0.000111231384899
0.000111093337436
0.000111029432774
0.000111100169037
0.000111129099614
0.000111043865393
0.000110614063157
0.000109576052478
0.000107599171589
0.000104222149456
9.87636363025e-05
9.15948533103e-05
9.89446686639e-05
0.000123892152687
0.000138817406793
0.000147647480506
0.000152858377754
0.000155663874664
0.000156915230202
0.000157197646122
0.00015699853785
0.000156672862183
0.000156427784529
0.000156276874981
0.000156018523382
0.000155330182397
0.000153788806475
0.000150873147832
0.000145814974122
0.000137390794226
0.000123062846722
9.8795673883e-05
0.000104533046609
0.000138843864708
0.000158288034445
0.000169716020209
0.000176534365629
0.000180332242109
0.000182124495888
0.000182644201835
0.000182479988571
0.00018205506887
0.000181604652741
0.000181149917889
0.000180508380488
0.000179322877199
0.000177088862634
0.000173156978839
0.000166585231573
0.000155809183585
0.00013734582575
0.000104317637303
0.000108008543947
0.000147748653156
0.000169811480837
0.000182741718847
0.000190469206472
0.000194787455973
0.000196839543463
0.000197453066739
0.000197315211437
0.000196859507678
0.000196181184782
0.000195370266946
0.000194452660197
0.000192966521618
0.000190351374424
0.000185875724509
0.000178481733078
0.000166405610347
0.000145653722018
0.000107691259141
0.000110035326984
0.000153084568722
0.000176813747222
0.000190672505893
0.000198905218976
0.000203487556711
0.000205922687757
0.000206888506605
0.000206798708222
0.000206169783335
0.000205313642544
0.000204305911103
0.000202985904533
0.000200964260008
0.000197983899058
0.000193233447372
0.000185408452287
0.000172582340419
0.00015049249248
0.000109557347645
0.00011107350142
0.000156080559939
0.000180870048031
0.00019528965479
0.000203802517539
0.000208915352239
0.000211606178467
0.000212421921714
0.000212106269524
0.000211265901677
0.000210263596292
0.000209186751187
0.000207841482302
0.000205780303144
0.000202410444653
0.000197188769868
0.000189153542832
0.000175924281082
0.000153053768749
0.000110486681032
0.000111473690415
0.000157550421738
0.000182974585384
0.000197712437491
0.000206560611217
0.000212001869091
0.000214535070953
0.000215079260078
0.000214491174665
0.000213441982166
0.000212329317307
0.000211246592877
0.000209976602757
0.000208027527966
0.000204719352947
0.000199239145681
0.00019085900545
0.000177439973682
0.000154158710972
0.000110841079448
0.000111485568762
0.000158062001493
0.000183840577741
0.000198740789623
0.000207995216552
0.000213341217741
0.0002156293582
0.000215886219157
0.000215039593953
0.000213812640703
0.000212629309127
0.000211581675284
0.000210427606083
0.00020863901473
0.000205491850101
0.000200094649618
0.000191360380215
0.000177857242111
0.00015440120127
0.000110970243687
0.000111389773827
0.000158087164854
0.000184035806617
0.00019900355062
0.000208447474769
0.000213644656532
0.000215708859421
0.000215730408729
0.000214685369855
0.000213331831478
0.000212115263279
0.000211122415236
0.000210081109935
0.00020843921554
0.000205447442436
0.000200182496963
0.000191450296326
0.000177744915546
0.000154237461053
0.000110923205089
0.000111269583195
0.000157969155666
0.000183961599474
0.000198929628172
0.000208396493139
0.000213470173458
0.000215388669003
0.000215273297184
0.000214121137582
0.000212705781013
0.000211482190229
0.000210537237084
0.000209574611237
0.000208025457081
0.000205134597927
0.000199970157001
0.000191311325094
0.000177500748042
0.000153998503816
0.000110802768404
0.000111236284826
0.000157909174052
0.000183833737577
0.00019872556619
0.000208110978692
0.000213125363283
0.00021500448711
0.000214871928435
0.000213722060022
0.000212319575418
0.00021111126229
0.000210182799437
0.000209237217346
0.000207706564612
0.000204842016632
0.000199716752766
0.000191109659464
0.000177329339291
0.000153868559248
0.000110708068979
0.000111338994267
0.000157909731107
0.0001836561139
0.000198408747644
0.000207616250971
0.000212639036646
0.000214584563861
0.000214549539082
0.000213503798996
0.000212184325895
0.00021101504297
0.000210068232464
0.000209074426678
0.000207488117281
0.000204576831298
0.000199429869356
0.000190847889792
0.000177225790491
0.000153869272259
0.000110729408192
0.000111436212412
0.000157763507339
0.000183221485478
0.000197795026214
0.000206686913414
0.000211752825264
0.000213841809073
0.000213990958296
0.000213121578096
0.000211932076376
0.000210817932704
0.000209843596988
0.000208769842831
0.000207081412667
0.000204076578444
0.000198875398324
0.000190334157133
0.000176983290708
0.00015380212314
0.000110731505202
0.000111404274587
0.000157132230883
0.000182148030208
0.000196480402891
0.000204894737955
0.000209973116239
0.000212234881239
0.000212614720087
0.00021196634872
0.000210938179063
0.000209899739939
0.000208910226246
0.000207755124192
0.000205955496648
0.000202851485709
0.000197622570817
0.000189358933412
0.000176225024381
0.000153323136087
0.000110532726084
0.000110975593237
0.000155564878834
0.000179898781869
0.000193874925164
0.000201965422915
0.00020665909999
0.00020902980691
0.0002096355149
0.000209220708919
0.000208375281913
0.000207439042197
0.000206465830141
0.000205261855281
0.000203388284363
0.000200248295334
0.000195136842254
0.00018732180554
0.000174430935386
0.000152002882533
0.000110001941804
0.000109914732129
0.000152519092109
0.000175793883496
0.000189215640346
0.000197036734702
0.000201248165846
0.000203369063126
0.000204110319665
0.000203900773109
0.000203245296284
0.000202441073345
0.000201534097355
0.000200356201092
0.000198515046924
0.000195570701483
0.00019098006526
0.000183407122765
0.000170927237726
0.00014928509085
0.000109011852169
0.00010788555109
0.000147209581776
0.000168867309794
0.000181413264296
0.000188779605482
0.000192775496252
0.000194563436315
0.000194992746568
0.000194788048045
0.000194300400614
0.000193658675398
0.000192897314597
0.000191993850732
0.000190560497324
0.00018803565065
0.000183703056568
0.000176528867814
0.000164759469371
0.000144414989633
0.000107144665208
0.000104428869199
0.000138413753944
0.000157546912803
0.000168686128837
0.000175236783679
0.000178797819956
0.000180397994439
0.000180785449026
0.00018054946662
0.000180101854798
0.00017965678062
0.000179212625788
0.000178577116143
0.000177400172743
0.000175198474844
0.00017133905598
0.000164906892765
0.000154354393237
0.000136214049777
0.000103832982878
9.88766187287e-05
0.000123632811444
0.000138371767805
0.000147044246157
0.000152131880484
0.000154825600545
0.000155991559732
0.000156228687705
0.00015601739812
0.000155697194369
0.000155444222276
0.000155257858642
0.000154949054105
0.000154199361257
0.000152603895203
0.000149655051979
0.000144601832896
0.000136281869173
0.000122183723047
9.84438780615e-05
9.1629868027e-05
9.88948795206e-05
0.000104498454204
0.000107931048307
0.000109841924577
0.000110818911871
0.000111177724838
0.000111261690227
0.00011121429738
0.000111100632959
0.000111012353896
0.000110997373194
0.00011096294278
0.000110750665797
0.00011021707435
0.000109092708495
0.000107109968555
0.000103758007779
9.83827324842e-05
9.14294292637e-05
9.84997814403e-05
0.000121516722668
0.000136171476964
0.000145238204043
0.000150845564164
0.000154130394158
0.000155828930928
0.000156453733675
0.000156459514363
0.000156223680558
0.000155950113672
0.000155663911439
0.000155180677553
0.000154155191386
0.000152221862041
0.000148916926967
0.000143544273499
0.000134961049959
0.000120940163994
9.83484083245e-05
0.000121528014006
0.000445887984769
0.000594283752091
0.000678184504638
0.000728653405079
0.000758213684733
0.000773824993519
0.000780208320172
0.000780806869741
0.000778046391718
0.000773375117545
0.000767158942188
0.000758752342629
0.000746478527994
0.000727490168844
0.000697591205848
0.0006502071911
0.000573086605677
0.000435194145523
0.000120895971179
0.000136197072134
0.000593717288727
0.000818776612652
0.000947597389681
0.00102553662237
0.00107133897793
0.00109543780968
0.00110502656478
0.00110539104794
0.00110040292279
0.00109261711217
0.00108261926146
0.00106917405654
0.00104979735529
0.00102004363884
0.000973504013069
0.000900247558233
0.000781924602717
0.000573669260721
0.000134896463045
0.000145322420817
0.000677819662753
0.000947961106187
0.00110330520037
0.0011971970644
0.00125185515176
0.00127968649791
0.00128969288105
0.00128862105142
0.00128085130916
0.001270713341
0.00125867801204
0.00124224218818
0.00121943565165
0.00118402159783
0.00112821551579
0.00104011954854
0.000897964828051
0.000649447211797
0.000143376775013
0.000151038559907
0.000729225417873
0.00102728986648
0.00119878665555
0.00130164616457
0.00135984604873
0.00138666937765
0.00139211382673
0.0013862904593
0.00137537461535
0.00136311507081
0.00135043153816
0.00133555960853
0.00131419073939
0.00127738671081
0.0012174981367
0.00112142051989
0.000965541859683
0.000693420892542
0.000148525889329
0.00015447610866
0.000760385241165
0.00107547103776
0.00125626709844
0.00136295029127
0.00141927130692
0.00144088237586
0.00144184299166
0.00143193909996
0.00141788001366
0.00140365739746
0.00139038379577
0.00137641309785
0.00135699993333
0.00132398315429
0.00126514644668
0.00116609905116
0.00100320001403
0.000718067353606
0.000151495337545
0.00015636422727
0.000778190414361
0.00110286894096
0.00128813310259
0.00139475254443
0.00144596942264
0.00146296255534
0.00145943470844
0.00144555250671
0.0014285390128
0.0014126805371
0.00139916514991
0.00138630813295
0.00136909781011
0.00133925079683
0.00128481192157
0.00118693496994
0.00102158466908
0.000730440579584
0.000153013424982
0.000157236753473
0.000787254357794
0.00111652609774
0.00130300325948
0.00140620344725
0.00145355562517
0.00146641023729
0.00145877739128
0.00144142537904
0.00142203616476
0.00140503217259
0.00139156959822
0.00137990433476
0.00136481245665
0.00133775775961
0.00128674251298
0.00119358421208
0.00102818133676
0.000735381704668
0.000153546628023
0.000157491497531
0.000790926827556
0.00112167906189
0.00130795039932
0.00140738628762
0.00145149688071
0.00146105781172
0.00145032095612
0.00143054612224
0.00140961683771
0.00139205947512
0.00137886849973
0.00136812710191
0.00135462197641
0.00132965506329
0.00128117043272
0.00119118576579
0.00102828705179
0.000736327052519
0.000153599765706
0.000157482553001
0.000791425927137
0.00112183382035
0.0013072400958
0.00140398278229
0.00144594171005
0.00145349861845
0.00144106833454
0.0014200881747
0.00139857689155
0.00138096705597
0.00136808352718
0.00135790553048
0.00134523196906
0.00132140460286
0.00127438658257
0.0011863136928
0.00102596858996
0.00073561792834
0.000153485468574
0.00015742877756
0.000789924727609
0.00111894071838
0.00130310793056
0.00139894364957
0.00144012260903
0.00144714683061
0.00143448212401
0.00141355183052
0.00139227655761
0.00137495586621
0.00136230048784
0.00135225725741
0.00133968180893
0.00131603439892
0.00126941722409
0.00118213680039
0.00102320163093
0.000734426274913
0.000153376976859
0.000157333779909
0.00078656724192
0.00111328830763
0.00129595938186
0.00139270114187
0.00143448676676
0.00144240969274
0.00143087081044
0.00141109533638
0.00139072130084
0.00137391621646
0.00136137032433
0.00135106238621
0.00133791525451
0.00131356848006
0.00126636388657
0.0011788238295
0.00101996783793
0.000732763096783
0.0001532995447
0.000156965737686
0.000780460256581
0.00110349676437
0.00128447625369
0.00138316635642
0.00142670692155
0.00143676044889
0.00142754732578
0.00140980670153
0.00139091742467
0.00137484439749
0.00136232491301
0.00135141439897
0.00133709597028
0.00131130672563
0.00126268112428
0.0011739627747
0.00101481618615
0.000729636600845
0.000153074690734
0.00015599373953
0.000769648350927
0.00108652500673
0.00126483374081
0.00136544777483
0.00141158056651
0.00142465835644
0.00141863143246
0.00140368639718
0.00138677280594
0.00137170983032
0.00135923513003
0.00134744407411
0.00133154378498
0.00130380787208
0.00125312381523
0.00116188773344
0.00100425704234
0.00072299426504
0.000152381372733
0.000154036211626
0.000751011524872
0.00105754000453
0.00123056675679
0.0013301895442
0.00138056418387
0.00139738981994
0.00139500394572
0.00138327191224
0.00136872176027
0.00135495063802
0.00134267654397
0.00133002972379
0.00131250258447
0.00128270682037
0.00122993586624
0.00113740218825
0.000983591912775
0.000709743882927
0.000150803693518
0.000150584648979
0.000720096455779
0.00100976620813
0.00117349879803
0.00126911758082
0.0013208744961
0.00134241194461
0.00134397567681
0.00133571162556
0.00132376424965
0.00131157659848
0.00129980023896
0.00128649426912
0.00126755704281
0.00123576456642
0.00118113913269
0.00109241231028
0.000946013248914
0.000685409194269
0.000147807293287
0.000144929403486
0.000670063901627
0.000932871254606
0.00108126033485
0.00116853749254
0.0012171490761
0.00123984136233
0.00124604208207
0.00124200757226
0.00123292116314
0.00122265905634
0.00121177634779
0.00119768836971
0.00117733983148
0.00114609393494
0.00109576189975
0.0010147007246
0.000881291898995
0.000643129492467
0.000142729610379
0.000135936797429
0.00058839094911
0.000807960573617
0.000931364804811
0.00100405373104
0.00104498537488
0.00106486861647
0.00107116064321
0.0010692687026
0.00106317628928
0.00105534727388
0.00104630000425
0.00103469289795
0.0010179609208
0.00099184179153
0.000949944079628
0.000882402403743
0.000770914513398
0.000570388430324
0.000134420172943
0.000121429951303
0.00044377560831
0.000589196336171
0.000669943174316
0.00071730002372
0.000743968635692
0.000757096564118
0.000761580209893
0.000760963278542
0.000757726147235
0.000753298942639
0.000747982611918
0.00074101361344
0.000730705328564
0.000714200318581
0.000687260692831
0.000643266648859
0.00056988554432
0.000435770072358
0.000120628180526
9.84458184057e-05
0.000121376968066
0.000135854874675
0.00014473712241
0.000150172571459
0.000153309395864
0.000154893245368
0.000155433374984
0.000155409778333
0.000155175649921
0.000154908008271
0.000154620028516
0.000154147592593
0.00015318017146
0.000151311526124
0.000148100655016
0.000142867743046
0.000134471803232
0.000120652985627
9.80699659748e-05
0.000104233536623
0.000136974490317
0.000157140361253
0.000169624333312
0.00017741012011
0.000182010459823
0.000184393609481
0.000185289082685
0.000185280134691
0.000184803588166
0.000184115691739
0.000183264185224
0.000182089592225
0.000180249568827
0.000177275587058
0.000172542173132
0.000165157536199
0.000153637053261
0.000134943571312
0.000103779373512
0.000137017199971
0.000597508581954
0.000822011255726
0.000949709989843
0.00102700200954
0.00107274513263
0.00109716471895
0.0011070965025
0.0011076001982
0.00110240278182
0.00109380733919
0.00108255159973
0.00106781177048
0.00104708285067
0.00101620794682
0.000968952436065
0.00089552445817
0.000777671158809
0.000570562029836
0.000134874396144
0.000157224943511
0.000820869265053
0.00118274156945
0.00139428004945
0.00152378888804
0.00160084059116
0.00164200431285
0.00165871359006
0.00165955917761
0.00165111059219
0.00163747880673
0.00161990709216
0.00159671069982
0.00156338943404
0.00151275861753
0.00143413530352
0.00131119883193
0.00111471038492
0.000778615391345
0.000153470754887
0.000169822183922
0.000948590054255
0.00139426325291
0.00165821064439
0.00182027185307
0.00191601578447
0.00196580514972
0.00198450305413
0.00198300248027
0.00197053113622
0.00195276953599
0.00193137546956
0.00190384009829
0.00186386320374
0.00180232780045
0.00170520523655
0.0015520529759
0.00130725480637
0.000893802318682
0.000164684630087
0.000177802732372
0.00102698026826
0.00152520667644
0.00182191156281
0.00200323530708
0.00210811947003
0.00215922738919
0.0021741834139
0.00216737652653
0.00214973097405
0.00212789336635
0.00210399105384
0.00207531334066
0.00203460225851
0.00196965060541
0.00186343815544
0.00169333371511
0.00141995665315
0.000960503744953
0.000171491581336
0.00018267650436
0.001074789078
0.00160516855195
0.00192115079865
0.00211196468662
0.00221836488555
0.00226591672921
0.00227419664335
0.00226015892284
0.00223655522666
0.00221077852827
0.00218527967777
0.00215696273731
0.00211780816213
0.00205475772395
0.00194808999529
0.0017705231667
0.00148211449603
0.000997274144511
0.000175391172295
0.000185405587314
0.00110217905079
0.00165070434852
0.00197643776511
0.00216979173281
0.00227355443845
0.00231457912951
0.00231428564524
0.00229231115605
0.00226286945941
0.00223380446277
0.0022076386781
0.00218083390784
0.00214468999835
0.00208564018969
0.0019826964922
0.00180543380487
0.00151120134827
0.00101474609698
0.00017734511591
0.000186710867233
0.00111592023681
0.00167315937898
0.00200241507852
0.00219402404687
0.00229313908115
0.00232667341171
0.00231817744678
0.00228919726682
0.00225501937065
0.00222368205575
0.00219756130729
0.00217275958131
0.00214010137668
0.00208547343584
0.00198744477823
0.00181392497216
0.00151981480786
0.00102039275242
0.000178074221097
0.000187158537549
0.00112094153414
0.00168094346641
0.00201019353906
0.00219848649666
0.00229267878043
0.00232005489203
0.00230544194622
0.002271559277
0.00223432180637
0.00220178049718
0.00217603758389
0.00215295227332
0.00212313407484
0.00207215121132
0.00197822029932
0.00180866170414
0.00151775221911
0.00101982766565
0.000178145510569
0.000187166000189
0.00112070765973
0.0016800991439
0.00200766401312
0.00219307037315
0.0022837652248
0.00230742281799
0.00228951592197
0.00225328091405
0.00221480726458
0.00218198598807
0.00215665763637
0.00213454009711
0.00210621718347
0.00205725304856
0.0019658127392
0.00179914217314
0.00151162758902
0.00101688971764
0.000177958563498
0.000186963493824
0.00111717964509
0.00167412384345
0.00199969677511
0.00218338204654
0.00227266408773
0.00229533618613
0.00227697862254
0.00224078970038
0.0022026681776
0.0021702700795
0.00214525783896
0.0021232857421
0.00209504307258
0.0020463316575
0.00195557839574
0.0017902661176
0.00150503925956
0.001013563168
0.000177731677996
0.000186560773001
0.00111073902212
0.00166365069482
0.00198707989237
0.00217032229331
0.00226029256745
0.00228460793124
0.0022684325149
0.00223442074539
0.00219799759607
0.00216656899269
0.00214172912491
0.0021191479845
0.00208971735348
0.0020396685435
0.00194794885295
0.0017825426473
0.00149851544538
0.00101006551713
0.000177485615937
0.000185745600433
0.00110012378811
0.00164637838857
0.00196643403183
0.00215000223744
0.00224212047367
0.00227027528184
0.00225864089205
0.00222876660438
0.002195295879
0.00216536059411
0.00214060301067
0.00211682247392
0.00208524922363
0.00203269609127
0.00193875930102
0.00177231249592
0.0014892154174
0.00100486964884
0.000177022370445
0.00018413392563
0.00108247149855
0.00161734110044
0.00193146956187
0.00211427765233
0.0022085855802
0.00224190959319
0.00223657497923
0.00221238907749
0.00218291763191
0.00215502737701
0.00213044823063
0.00210528435114
0.00207128898677
0.00201587471867
0.00191913611689
0.00175190790414
0.00147175167173
0.000994862607341
0.000175964469502
0.000181206242696
0.00105325678242
0.00156881164252
0.00187189525641
0.00205063377145
0.0021461010919
0.00218431415936
0.00218581524823
0.00216801214096
0.00214318119987
0.00211788158658
0.00209386748318
0.00206772362325
0.00203184940997
0.00197402150544
0.00187545100979
0.00170989438085
0.00143779268384
0.000975171769698
0.000173801248021
0.000176290241222
0.0010058918668
0.00148975225586
0.00177361835325
0.00194256519298
0.00203602936948
0.00207723475073
0.0020845262413
0.00207273393465
0.00205266569898
0.00203043691907
0.00200767995686
0.00198147292055
0.00194487091097
0.00188643164762
0.00178951596136
0.00163204238347
0.00137578767062
0.000938940299662
0.000169873898767
0.000168457842947
0.000930154698309
0.00136337243333
0.00161580829965
0.00176645899139
0.00185133029341
0.0018915145165
0.00190247806107
0.00189555382117
0.00188002960151
0.00186133164139
0.00184086558909
0.00181609800472
0.00178096754316
0.00172596725261
0.00163820547783
0.00149750207396
0.00126882904493
0.000875836498196
0.000163263878133
0.000156201264785
0.000807056554804
0.00115940186078
0.00136177246547
0.00148199144303
0.00155003290535
0.00158306514693
0.00159309177948
0.00158911039227
0.00157785708154
0.00156333927371
0.00154668303793
0.00152618550875
0.00149740198424
0.00145317450394
0.00138303919638
0.00127083037431
0.00108753948602
0.00076718624109
0.000152459202981
0.000136475697892
0.000590044232113
0.000808702509016
0.000930602205777
0.00100203902541
0.00104212362628
0.00106144654098
0.00106721324456
0.00106477020082
0.00105799923514
0.0010492244127
0.00103915615901
0.0010268577193
0.00100983457206
0.000983851126249
0.000942602546364
0.000876202371959
0.000766300078838
0.000567716531005
0.000134364096391
0.000104089819794
0.000136382612354
0.000156004461468
0.000167973317199
0.000175288758044
0.000179474137134
0.00018151305042
0.000182150900959
0.000181980967812
0.000181436567451
0.00018076525241
0.000180007767552
0.000178999359877
0.000177406247853
0.00017475606831
0.00017042903904
0.000163533554463
0.000152569197099
0.000134420870975
0.000103357065306
0.000109510154644
0.000151401302421
0.00017624872161
0.000191509093453
0.000200994256045
0.000206539770904
0.000209308152368
0.000210185227243
0.000209884872721
0.000208937644338
0.000207658014952
0.000206127255577
0.000204200721772
0.00020150321028
0.000197487177265
0.000191421262474
0.000182277466607
0.000168341597725
0.000145980486871
0.000108091068332
0.000151508261831
0.000717945829906
0.000993825135187
0.00115088707555
0.00124664853125
0.00130377129762
0.00133431486867
0.00134640105459
0.00134624049651
0.00133850389841
0.00132620699947
0.00131049244619
0.00129043680741
0.00126298842118
0.00122297287678
0.00116277657028
0.00107055985397
0.000924259139788
0.000669584533974
0.000145870352551
0.000176442341748
0.000992133616901
0.00144509799886
0.00171226813167
0.00187746971637
0.00197649356181
0.00202936741071
0.00205010619291
0.00204982740062
0.00203712326096
0.00201759778401
0.00199327047573
0.00196227619649
0.00191888344351
0.00185368395633
0.00175305394195
0.00159644115983
0.00134747722495
0.000925406040458
0.000167959912278
0.000191888653316
0.0011489474791
0.00171170353577
0.00204930215137
0.00225856667342
0.00238293035674
0.00244731226991
0.0024691988244
0.00246424392523
0.00244485426648
0.00241870944237
0.00238864039035
0.00235189308946
0.00230061175508
0.00222248201003
0.0020988296276
0.00190302939402
0.00159040755341
0.00106692153237
0.000181168597799
0.000201667860333
0.0012455989843
0.00187789720011
0.00225982874774
0.00249586848329
0.00263332587116
0.00269861995743
0.0027138665775
0.00269952753412
0.002671219715
0.00263824587192
0.00260403307168
0.00256517352698
0.0025122905796
0.002430580542
0.00229757233141
0.00208120970318
0.0017313063194
0.00114768921324
0.000189037164113
0.00020761233112
0.00130456278008
0.00197954670937
0.00238788567244
0.00263855956423
0.00277801121379
0.00283545780874
0.00283799442931
0.00281088213607
0.00277249942291
0.00273330772443
0.00269686961019
0.00265906285145
0.0026089592794
0.00252983295929
0.00239731479274
0.00217465623696
0.00180627248588
0.00119016242472
0.000193314687515
0.000210883151915
0.00133786712846
0.00203677667249
0.00245926797428
0.0027146086868
0.00284812955489
0.00289241779456
0.00287939463668
0.00283875095004
0.00279112595559
0.0027474853481
0.00271081337383
0.00267623565782
0.00263156345684
0.00255849888598
0.00243105400167
0.00221105751531
0.0018374760433
0.00120747006444
0.000195165001376
0.000212363821962
0.00135369227031
0.00206370325137
0.00249159892116
0.00274480542814
0.00286902463086
0.00289949018481
0.0028721334238
0.00282024410598
0.00276597521238
0.0027200260212
0.00268436728392
0.00265352972089
0.00261454094078
0.00254817876297
0.00242732146245
0.00221283516893
0.00184169233652
0.00120933020582
0.000195516405134
0.000212757193683
0.00135823130183
0.00207124784775
0.00249874988086
0.00274732257629
0.00286302154488
0.00288285132482
0.00284558072799
0.00278651851545
0.0027285979933
0.00268197432857
0.00264757838891
0.00261958690644
0.00258474278306
0.00252343501134
0.0024080534727
0.00219881975495
0.0018322091871
0.00120344628468
0.000195120901375
0.000212576433041
0.00135602969969
0.00206758680049
0.00249246486712
0.00273680745485
0.0028468855819
0.00286079029129
0.00281878930114
0.00275694142804
0.00269810158378
0.00265184818171
0.00261845219539
0.00259180991644
0.00255869431377
0.00249966117378
0.00238716456912
0.00218131495747
0.00181869150323
0.00119533474055
0.000194514015467
0.000212101417559
0.00134978519484
0.00205754140602
0.0024795613223
0.00272145131238
0.00282952265427
0.00284222503401
0.00280004599664
0.0027388324199
0.0026809806715
0.00263564570185
0.00260279312762
0.00257617617815
0.00254273177174
0.00248344355071
0.00237121244233
0.0021665441195
0.00180651122471
0.00118805285217
0.000193987964131
0.000211359373571
0.00134015435222
0.00204215550221
0.00246129243336
0.0027025748414
0.00281211277044
0.00282796409713
0.00278961713084
0.00273188301338
0.00267650581458
0.00263243810073
0.00259967409979
0.00257196224961
0.00253649860888
0.00247486446097
0.00236067994636
0.00215525881703
0.00179647730353
0.00118210254406
0.000193566238715
0.000210119148711
0.00132566812231
0.00201858888724
0.00243311670388
0.00267440734972
0.00278812479965
0.00281110824289
0.00278058446021
0.00272940570474
0.00267816233274
0.00263577442558
0.00260272293704
0.00257288418055
0.00253393783919
0.00246831352437
0.00235057149701
0.00214312101455
0.00178506116823
0.00117552861603
0.00019301027785
0.00020793298261
0.00130279292489
0.00198036311152
0.0023855475703
0.00262500957967
0.00274392322903
0.00277682705697
0.00275744940711
0.00271549140816
0.00267000061827
0.00262992647175
0.00259654426851
0.00256419795853
0.00252135416738
0.00245133276448
0.00232986599839
0.0021204834662
0.00176458591244
0.00116409091103
0.000191862077569
0.000204179723498
0.00126602023158
0.00191777954658
0.00230677620143
0.00253903598772
0.00266094848595
0.00270369919161
0.00269650550475
0.00266514491118
0.0026267519913
0.0025900306685
0.00255697876095
0.00252272573605
0.00247675779642
0.00240354496528
0.00228012406197
0.00207148963868
0.00172386662744
0.00114145388598
0.000189491648186
0.000198056294858
0.00120743259608
0.0018171969432
0.00217971607749
0.00239689974694
0.00251602767909
0.00256495725604
0.0025680822082
0.00254679050268
0.00251596343973
0.00248366397981
0.00245220976331
0.00241757290545
0.00237059838295
0.00229713649789
0.00217581270323
0.00197515806761
0.00164779539713
0.0010988668843
0.000185092265465
0.00018846246929
0.00111482933133
0.00165808096944
0.00197800232623
0.00216967587095
0.00227697714402
0.00232581698248
0.00233496838523
0.0023215037321
0.00229764839284
0.00227043168035
0.00224203739785
0.00220937326736
0.00216475795308
0.00209596817722
0.00198462918527
0.00180525265164
0.00151490847625
0.00102362046867
0.000177573600374
0.000173593737332
0.000965237543589
0.00140332899005
0.00165616345646
0.00180658099575
0.00189103309386
0.00193054451866
0.00194011332057
0.00193163953017
0.0019139506761
0.00189248924551
0.00186904267949
0.00184157619455
0.00180446043469
0.00174829105764
0.00165966708512
0.001518426992
0.00128908193569
0.000893184682821
0.000165175639547
0.000149635579583
0.00070113790998
0.000967757349335
0.00111555904942
0.00120168693152
0.00124923677702
0.00127087047529
0.00127534336547
0.00126940603165
0.001258042223
0.00124434653386
0.00122944171802
0.00121237657121
0.00119005866588
0.00115726315251
0.00110630241932
0.00102528585852
0.000892269179051
0.000653567866465
0.0001442227197
0.000109006346299
0.000149474016987
0.000173182716974
0.000187449501143
0.000196024336178
0.000200732218115
0.000202753867804
0.000203010926121
0.000202255207748
0.000201044717782
0.000199710854923
0.00019833624403
0.000196758422364
0.000194605982083
0.000191322128358
0.000186170827122
0.000178111332021
0.000165401628708
0.000144334871995
0.000107306801609
0.000116307324659
0.00016880211596
0.00019813834117
0.000215969909679
0.00022706414146
0.000233554166137
0.000236760038441
0.000237687813204
0.000237143830916
0.000235723779471
0.000233793262728
0.000231466974889
0.000228604411176
0.000224802144688
0.000219445473762
0.000211719096824
0.00020049743214
0.000183891226758
0.000157680010519
0.00011248279619
0.000169012885866
0.000837743154061
0.00115954880813
0.00134454619259
0.00145907632148
0.00152829802502
0.00156558593582
0.00158027282098
0.00157964866821
0.00156936917016
0.0015532944908
0.00153305618286
0.00150769750094
0.00147349504657
0.00142418737427
0.00135092111207
0.00124032225692
0.00106749579042
0.000769700849875
0.000157477143976
0.000198474983095
0.00115731667776
0.00169157623663
0.00200954404272
0.00220770318436
0.00232689811265
0.00238986432176
0.00241203588905
0.00240751589991
0.00238777002326
0.00236017793223
0.00232781757859
0.00228853504697
0.00223566236938
0.00215831189799
0.00203954535464
0.00185514791049
0.00156322850038
0.00106856691231
0.000183078737606
0.000216532228597
0.00134154495932
0.00200843335573
0.00241116543434
0.00266273572406
0.00281127783022
0.00288350464129
0.00290091889072
0.00288475460432
0.00285193582921
0.00281280083506
0.00277164096304
0.00272542114109
0.00266486646003
0.00257509644722
0.00243398673581
0.00220875061842
0.00184542754079