/*--------------------------------*- C++ -*----------------------------------*\
| =========                 |                                                 |
| \\      /  F ield         | OpenFOAM: The Open Source CFD Toolbox           |
|  \\    /   O peration     | Version:  3.0.1                                 |
|   \\  /    A nd           | Web:      www.OpenFOAM.org                      |
|    \\/     M anipulation  |                                                 |
\*---------------------------------------------------------------------------*/
FoamFile
{
    version     2.0;
    format      ascii;
    class       volScalarField;
    location    "7.5";
    object      p;
}
// * * * * * * * * * * * * * * * * * * * * * * * * * * * * * * * * * * * * * //

dimensions      [1 -1 -2 0 0 0 0];

internalField   nonuniform List<scalar> 
7968
(
4702.78819316
4702.78699271
4702.77810307
4702.76316053
4702.74163276
4702.71411743
4702.68155759
4702.6443904
4702.60263108
4702.55706803
4702.50855595
4702.45787848
4702.40735722
4702.35842207
4702.31285937
4702.27228029
4702.23778376
4702.21010231
4702.19089647
4702.17907202
4702.79025103
4702.79323625
4702.78658086
4702.77329777
4702.75216473
4702.7244991
4702.6913932
4702.65362313
4702.61162743
4702.56590601
4702.51728404
4702.46665762
4702.41617834
4702.36742019
4702.32204208
4702.28135215
4702.2462586
4702.21700665
4702.19578809
4702.18098573
4702.78879718
4702.79402019
4702.78919605
4702.77707359
4702.7559409
4702.72752665
4702.69328306
4702.65430231
4702.61128714
4702.56491341
4702.51601134
4702.46566761
4702.41562915
4702.36749859
4702.32276432
4702.28249042
4702.24727978
4702.21705342
4702.19450288
4702.17812988
4702.78523491
4702.79231173
4702.78874592
4702.77709338
4702.75546888
4702.72591686
4702.6902766
4702.64993379
4702.60560165
4702.55848998
4702.50922748
4702.45909089
4702.40946818
4702.36195956
4702.31798024
4702.27838121
4702.2434814
4702.21294065
4702.18961237
4702.17216787
4702.77866071
4702.7865035
4702.78307825
4702.77099813
4702.74847075
4702.71765127
4702.68055498
4702.63887363
4702.59359775
4702.54562558
4702.49592737
4702.44570226
4702.39638242
4702.34945216
4702.30620708
4702.26738265
4702.23315765
4702.20312667
4702.1800515
4702.16242993
4702.76934097
4702.77737656
4702.77336533
4702.76026811
4702.7365139
4702.70421339
4702.66569961
4702.62270185
4702.57638561
4702.52765138
4702.47753822
4702.42724673
4702.37821494
4702.33184997
4702.28937709
4702.25146068
4702.21814964
4702.18917056
4702.16711083
4702.14939244
4702.75757399
4702.76537463
4702.76040991
4702.74606398
4702.72093408
4702.68726227
4702.64738105
4702.60326208
4702.55606901
4702.50670802
4702.45623117
4702.40586386
4702.35704909
4702.31115484
4702.26941255
4702.23237192
4702.20002445
4702.17227425
4702.15128991
4702.13421978
4702.74319491
4702.75070122
4702.74471595
4702.72918951
4702.70283325
4702.66789311
4702.62692108
4702.58196748
4702.53414843
4702.48434965
4702.43355751
4702.38303372
4702.33435805
4702.28882458
4702.24765998
4702.21136395
4702.17966982
4702.15331736
4702.13347499
4702.11716624
4702.72633479
4702.73331745
4702.72645281
4702.7099902
4702.68261086
4702.64669078
4702.60490924
4702.55937937
4702.51130942
4702.46129502
4702.41021729
4702.35940451
4702.31070899
4702.26551602
4702.22486713
4702.1892686
4702.1586355
4702.13293335
4702.1139682
4702.09827595
4702.70610907
4702.71305026
4702.70566509
4702.6886073
4702.66056619
4702.62402115
4702.58173513
4702.53586757
4702.48767239
4702.43747288
4702.38623031
4702.3353374
4702.28662587
4702.2416535
4702.20140348
4702.16628588
4702.13625423
4702.11115078
4702.09280559
4702.0775965
4702.68330228
4702.69018968
4702.68264417
4702.66535766
4702.63709166
4702.60032643
4702.55784566
4702.51181039
4702.46346524
4702.41317454
4702.36192991
4702.31111763
4702.26256858
4702.21778958
4702.17775789
4702.1428737
4702.11314567
4702.08831492
4702.07029122
4702.05545865
4702.6585745
4702.66535865
4702.65803165
4702.64091386
4702.61286085
4702.57628264
4702.5339234
4702.48790572
4702.43942994
4702.38919117
4702.33811348
4702.28747813
4702.23922496
4702.19457691
4702.15450325
4702.11959257
4702.08978759
4702.06503032
4702.04695715
4702.03241386
4702.63227165
4702.63949449
4702.63276901
4702.61619136
4702.58870946
4702.55266866
4702.51073833
4702.46500107
4702.41659144
4702.36647232
4702.31568567
4702.26537482
4702.2173676
4702.1726726
4702.13243692
4702.09727398
4702.06719488
4702.04200606
4702.02369811
4702.00931841
4702.60646812
4702.61389161
4702.60792595
4702.59215989
4702.56548171
4702.5302885
4702.48908064
4702.44389344
4702.39594617
4702.34617759
4702.29577395
4702.24557025
4702.19760656
4702.15276251
4702.11221438
4702.07660788
4702.04604061
4702.02026055
4702.00148871
4701.98712141
4702.58206633
4702.58960988
4702.58438263
4702.56954928
4702.5438738
4702.50969994
4702.46951167
4702.42515661
4702.37790294
4702.32867512
4702.27856522
4702.22864643
4702.18049189
4702.13534304
4702.0943085
4702.05812906
4702.02688581
4702.00048016
4701.98118852
4701.96673431
4702.56006963
4702.56736617
4702.56257872
4702.54854173
4702.52384535
4702.49085334
4702.45182634
4702.4085403
4702.36218215
4702.31363906
4702.2639465
4702.21421261
4702.16580704
4702.12025365
4702.07854911
4702.04180122
4702.00996271
4701.9829277
4701.9630887
4701.94935739
4702.54097558
4702.54749026
4702.54250694
4702.52880297
4702.50490274
4702.47303587
4702.43527518
4702.39317988
4702.34783196
4702.30010198
4702.25093642
4702.20141375
4702.15261293
4702.10675565
4702.06468884
4702.02726786
4701.99490605
4701.96751592
4701.94756766
4701.93426855
4702.5251001
4702.52977268
4702.52359069
4702.50946241
4702.48607054
4702.45535584
4702.41895203
4702.37818249
4702.33402079
4702.2871903
4702.23861958
4702.1894117
4702.14003895
4702.09392425
4702.05143412
4702.0135193
4701.98088115
4701.95367252
4701.93424605
4701.92178827
4702.51373371
4702.51609732
4702.50826055
4702.49314954
4702.46991214
4702.44014913
4702.40491034
4702.36536751
4702.32228444
4702.27623533
4702.22810198
4702.17897243
4702.12985388
4702.08333176
4702.04047492
4702.00232418
4701.96964485
4701.94302457
4701.92437725
4701.91292727
4702.50565871
4702.50434512
4702.49454995
4702.47809254
4702.45458298
4702.42476742
4702.39018948
4702.35127248
4702.3087494
4702.26320465
4702.21551293
4702.16678139
4702.11809524
4702.07179786
4702.02931118
4701.99145243
4701.95956617
4701.93404865
4701.91647466
4701.9067725
4207.38148869
4207.37860582
4207.36815765
4207.35247097
4207.33129323
4207.30480351
4207.27309488
4207.23632197
4207.19497789
4207.14911475
4207.09953854
4207.04696086
4206.99405694
4206.94254729
4206.89451169
4206.85173525
4206.81589854
4206.7882593
4206.77009806
4206.760126
4207.38138381
4207.38215228
4207.37231193
4207.35823956
4207.33940422
4207.31555057
4207.28624103
4207.25152435
4207.2113679
4207.16597378
4207.11627003
4207.06272178
4207.0085481
4206.95520074
4206.90501431
4206.85995491
4206.82201442
4206.79271363
4206.77385698
4206.76087025
4207.37821299
4207.37980505
4207.36891181
4207.35530703
4207.33778479
4207.31540044
4207.28734349
4207.25348294
4207.21379019
4207.16835962
4207.11811314
4207.06424368
4207.00898841
4206.95447308
4206.90296502
4206.85656499
4206.81750131
4206.78780132
4206.7701093
4206.75690953
4207.37385763
4207.37728337
4207.36691997
4207.35460022
4207.33867856
4207.31760877
4207.2903509
4207.25665195
4207.21726777
4207.17137824
4207.12050342
4207.06584707
4207.00962791
4206.95423854
4206.90155916
4206.85380545
4206.81334088
4206.78263647
4206.76479666
4206.75056919
4207.36777352
4207.37364771
4207.36458264
4207.35384543
4207.33960365
4207.3198158
4207.29338352
4207.25999195
4207.21990531
4207.17348402
4207.12193425
4207.06671984
4207.00983553
4206.95334753
4206.89933874
4206.85020281
4206.80823335
4206.77623626
4206.75747152
4206.74154039
4207.35966797
4207.36821118
4207.36056362
4207.35113919
4207.33820883
4207.31940115
4207.29321482
4207.25976374
4207.21920288
4207.17216357
4207.11997797
4207.06419399
4207.00671464
4206.94949021
4206.89469486
4206.84431892
4206.80111053
4206.76800412
4206.74810324
4206.73013878
4207.34909953
4207.36004169
4207.35363562
4207.34506734
4207.33300756
4207.31446716
4207.28822674
4207.25449348
4207.21342524
4207.16575272
4207.11302184
4207.05686323
4206.9990445
4206.94142752
4206.88614912
4206.83519891
4206.7911159
4206.75724255
4206.73629881
4206.71661843
4207.33569184
4207.34861766
4207.34309821
4207.33484894
4207.32314627
4207.30464508
4207.27817116
4207.24405339
4207.20234505
4207.1539458
4207.10076055
4207.04449195
4206.98665928
4206.92898158
4206.87359392
4206.82247825
4206.77846307
4206.7437209
4206.72196888
4206.70084459
4207.31872367
4207.33327006
4207.32829446
4207.31997742
4207.3083373
4207.28962902
4207.26277612
4207.2280784
4207.18532479
4207.13616009
4207.08259467
4207.02645236
4206.96918894
4206.91185243
4206.85674664
4206.80581298
4206.76164993
4206.72696165
4206.70487939
4206.68284957
4207.29866034
4207.31376483
4207.3089731
4207.30059256
4207.28857003
4207.26950532
4207.24223151
4207.20697312
4207.16354056
4207.1139132
4207.06008367
4207.00397738
4206.94718145
4206.89043355
4206.83582618
4206.78534666
4206.74154141
4206.70721905
4206.68487426
4206.66254615
4207.27523522
4207.2902551
4207.285291
4207.27659896
4207.26422229
4207.2448147
4207.21723573
4207.18171621
4207.13806891
4207.08828727
4207.03441896
4206.9784181
4206.92189364
4206.865592
4206.811546
4206.76153843
4206.7182301
4206.68433605
4206.66217986
4206.64018905
4207.24903108
4207.26342374
4207.25796633
4207.24870352
4207.23606102
4207.21635326
4207.18860975
4207.1531564
4207.10980239
4207.06021776
4207.00656402
4206.95076948
4206.89430486
4206.8381752
4206.78441593
4206.73511184
4206.69238569
4206.65897125
4206.63747436
4206.61639582
4207.22181691
4207.23450354
4207.22826488
4207.21864675
4207.20521705
4207.18509467
4207.15719528
4207.12187877
4207.07923262
4207.03022332
4206.97697458
4206.92132353
4206.86481042
4206.80906159
4206.75589973
4206.70718685
4206.66512805
4206.63231709
4206.61175068
4206.59211467
4207.19419416
4207.20488769
4207.19759531
4207.18722481
4207.17296549
4207.15230253
4207.12419222
4207.08891812
4207.0466969
4206.9983938
4206.94570096
4206.89037958
4206.83430066
4206.7791604
4206.72675658
4206.67891076
4206.63769336
4206.60593388
4206.58633425
4206.568514
4207.16791658
4207.17628567
4207.16768085
4207.15619766
4207.14073968
4207.11941787
4207.09100551
4207.05573918
4207.0138739
4206.96618213
4206.91414383
4206.85949077
4206.80404541
4206.74971479
4206.69831725
4206.65157237
4206.61156044
4206.58096979
4206.56250233
4206.54674327
4207.14424823
4207.15010738
4207.14009893
4207.12721
4207.11028425
4207.0877776
4207.05889642
4207.02354549
4206.98205879
4206.935058
4206.88384776
4206.83006332
4206.77532017
4206.72200226
4206.67190012
4206.62638472
4206.58793006
4206.55856949
4206.54120274
4206.52738951
4207.12434143
4207.12785372
4207.11659649
4207.10217454
4207.08358391
4207.05976899
4207.03002624
4206.9944851
4206.95343794
4206.90714071
4206.85685501
4206.80417581
4206.74968011
4206.69740627
4206.64874991
4206.6049466
4206.56801273
4206.53991186
4206.52344146
4206.51137539
4207.10901517
4207.1106593
4207.09886158
4207.0832662
4207.06319765
4207.0381561
4207.00766008
4206.97183288
4206.9308404
4206.88508555
4206.83574307
4206.78504283
4206.72890524
4206.67898653
4206.63150959
4206.58896431
4206.55327484
4206.52607705
4206.50982144
4206.49883102
4207.09918392
4207.09990637
4207.08913074
4207.07322436
4207.05203441
4207.02570406
4206.99410823
4206.9575842
4206.91635509
4206.87079441
4206.82185652
4206.77093166
4206.71833729
4206.668471
4206.62191827
4206.58042217
4206.54557785
4206.51864003
4206.50134595
4206.49037893
4207.09334245
4207.09057016
4207.07930906
4207.06209519
4207.03886394
4207.01016725
4206.97649752
4206.93845943
4206.89639989
4206.85074941
4206.80236103
4206.75244452
4206.70201923
4206.65384568
4206.60912329
4206.56962996
4206.53655813
4206.51085531
4206.49372436
4206.48425848
3711.98443962
3711.98127797
3711.97016462
3711.95407478
3711.93300336
3711.90693789
3711.87573784
3711.83931181
3711.79749515
3711.75039401
3711.69881937
3711.64326879
3711.58685649
3711.53141156
3711.47945101
3711.43321534
3711.39472395
3711.36558497
3711.346897
3711.33692712
3711.9838268
3711.98824683
3711.98005114
3711.96669153
3711.94950132
3711.92749982
3711.89978323
3711.8658132
3711.82544862
3711.77890451
3711.72698165
3711.67081468
3711.61246905
3711.55465555
3711.49964579
3711.44991899
3711.40796467
3711.37590398
3711.35428164
3711.33784425
3711.9801366
3711.9879645
3711.97894035
3711.96488564
3711.94842896
3711.92806231
3711.90218883
3711.86989033
3711.8305403
3711.78425892
3711.73189174
3711.67488224
3711.61525439
3711.5556536
3711.49880876
3711.44747614
3711.40457759
3711.37278923
3711.35209425
3711.33352977
3711.97581878
3711.9867757
3711.97727192
3711.9627849
3711.94708945
3711.92794833
3711.9031622
3711.87159521
3711.83226075
3711.78567322
3711.73271878
3711.67492439
3711.61439479
3711.55337482
3711.49508096
3711.44242624
3711.39882535
3711.36741181
3711.34749832
3711.32706394
3711.9705558
3711.98550372
3711.97680902
3711.96304356
3711.94862434
3711.93066609
3711.81248955
3711.76519445
3711.77657125
3711.73589174
3711.6886104
3711.63634432
3711.64775779
3711.61969119
3711.49343208
3711.4390849
3711.39414023
3711.36207031
3711.34164935
3711.31838248
3711.96370245
3711.98276846
3711.97560953
3711.96299184
3711.94969597
3711.65647027
3711.29198679
3711.38405532
3711.56019361
3711.54031346
3711.5137945
3711.48231789
3711.68218937
3711.90389148
3711.68975014
3711.4355298
3711.3890412
3711.35576344
3711.33402739
3711.30767592
3711.95453763
3711.97702529
3711.97167164
3711.96001877
3711.8463937
3711.0776712
3710.72129296
3711.12426007
3711.47130785
3711.45358769
3711.42931113
3711.40024059
3711.77473875
3712.32437916
3712.16714847
3711.50270891
3711.38175624
3711.34719694
3711.32390254
3711.29493373
3711.9422943
3711.9672588
3711.9634906
3711.95244545
3711.6947026
3710.70305083
3710.51257358
3711.10204836
3711.53881939
3711.50636581
3711.46751788
3711.42411382
3711.88290181
3712.60199982
3712.56403717
3711.63364259
3711.37073542
3711.33542872
3711.31074302
3711.27994348
3711.92612618
3711.95270291
3711.95001739
3711.93934953
3711.62685997
3710.61107965
3710.47896645
3711.1329691
3711.59737206
3711.55407936
3711.5045223
3711.45062748
3711.93260949
3712.70016194
3712.68485428
3711.68801119
3711.35537406
3711.31991378
3711.29414817
3711.26237416
3711.90572778
3711.93300389
3711.93074108
3711.91992365
3711.60124617
3710.56567389
3710.43251691
3711.10105487
3711.57578555
3711.53213752
3711.48239354
3711.42855988
3711.92179179
3712.70638158
3712.69114952
3711.67395381
3711.33544801
3711.29986716
3711.27389695
3711.24195644
3711.88120475
3711.90833416
3711.90588214
3711.8947486
3711.5696295
3710.51425552
3710.38014054
3711.06344325
3711.5486851
3711.50496509
3711.45527674
3711.40163832
3711.90624409
3712.70793561
3712.69284114
3711.65540214
3711.31127142
3711.27597016
3711.25026387
3711.21884415
3711.85323882
3711.87943331
3711.87622406
3711.86466458
3711.53282277
3710.45765303
3710.32267212
3711.02099687
3711.51697943
3711.47351763
3711.42413998
3711.3708403
3711.88684728
3712.7057002
3712.69074645
3711.63316607
3711.28361508
3711.24892222
3711.22391607
3711.19359342
3711.82325294
3711.84762451
3711.84309879
3711.83055239
3711.58006857
3710.56692168
3710.43085734
3711.11115638
3711.58753908
3711.53315744
3711.4729274
3711.40877577
3711.8965373
3712.66281436
3712.58730165
3711.54134958
3711.2536497
3711.21994424
3711.19601878
3711.16737635
3711.79274894
3711.81450442
3711.8083113
3711.79466548
3711.70799317
3711.00972827
3710.80979144
3711.35344158
3711.73447186
3711.66314932
3711.58602639
3711.50496819
3711.87744115
3712.42631073
3712.1565552
3711.35701876
3711.22294877
3711.19026826
3711.16799125
3711.14170769
3711.76359006
3711.78197148
3711.77391788
3711.75908338
3711.7429699
3711.51088389
3711.31286863
3711.56609125
3711.77359965
3711.70105646
3711.62280244
3711.54064396
3711.71750316
3711.88443305
3711.55086853
3711.23620807
3711.19329298
3711.16195215
3711.14133843
3711.11800771
3711.73745787
3711.75200792
3711.74234323
3711.72627846
3711.70884283
3711.68782734
3711.58275464
3711.58945333
3711.62690522
3711.57368078
3711.51493043
3711.4523596
3711.45810467
3711.408856
3711.25753317
3711.20779791
3711.16650964
3711.13656748
3711.11739037
3711.09726109
3711.71580123
3711.72657539
3711.71598257
3711.69920659
3711.68046726
3711.6581266
3711.63036206
3711.59637792
3711.55567996
3711.50871118
3711.45653491
3711.40074607
3711.34316127
3711.28666443
3711.23271485
3711.18470789
3711.14495142
3711.11584715
3711.09741234
3711.08016572
3711.69975228
3711.70736583
3711.69708011
3711.68069934
3711.66123173
3711.63768852
3711.6088814
3711.57421507
3711.53342702
3711.4868305
3711.43538379
3711.38057185
3711.32369891
3711.26839471
3711.21615587
3711.16938299
3711.13039374
3711.10119089
3711.08237062
3711.06706865
3711.68999073
3711.69428922
3711.68482272
3711.66921316
3711.64912348
3711.62409852
3711.59363672
3711.55756203
3711.51596617
3711.46926828
3711.41836132
3711.36459182
3711.3094123
3711.25561049
3711.20500472
3711.15960694
3711.12138688
3711.09197423
3711.07228494
3711.05846103
3711.68452909
3711.68162734
3711.66958634
3711.65169848
3711.62820469
3711.5995632
3711.56607354
3711.52800696
3711.48548599
3711.43880063
3711.38871952
3711.33656414
3711.28336686
3711.23220981
3711.18455705
3711.14228114
3711.10695707
3711.07979897
3711.06189338
3711.05207512
3216.59115832
3216.58690733
3216.57568116
3216.55989927
3216.53994471
3216.51535837
3216.48552805
3216.44975168
3216.40747433
3216.35860318
3216.30378347
3216.24420758
3216.18191384
3216.12008074
3216.06165547
3216.00943798
3215.96605448
3215.93367883
3215.91334168
3215.90359417
3216.58930367
3216.59519711
3216.58837562
3216.57596337
3216.56048183
3216.54055322
3216.5148495
3216.48224049
3216.44198081
3216.39399166
3216.33905252
3216.27890784
3216.21365662
3216.14953126
3216.08763717
3216.0313297
3215.98365295
3215.94733191
3215.92217136
3215.90399407
3216.585884
3216.59694466
3216.59102641
3216.57810123
3216.56319755
3216.5444242
3216.51987009
3216.48817502
3216.44846876
3216.40058653
3216.34524122
3216.28401662
3216.21887819
3216.15313546
3216.08981006
3216.03217088
3215.98351951
3215.94698668
3215.92114369
3215.89958287
3216.58277384
3216.59768153
3216.59164134
3216.57766209
3216.56251938
3216.37474275
3216.09049538
3216.11562038
3216.19838928
3216.17613189
3216.14635251
3216.11066056
3216.22002277
3216.37227553
3216.20492556
3216.02689869
3215.97824098
3215.94265074
3215.91745624
3215.89342968
3216.57985952
3216.59933363
3216.59405899
3216.57983654
3216.16323686
3215.2745064
3214.94929015
3215.36904609
3215.70923772
3215.72758952
3215.73854308
3215.74378862
3216.13043029
3216.79756055
3216.88333357
3216.31269713
3215.9742079
3215.93872518
3215.91324622
3215.88578124
3216.57593816
3216.59998835
3216.5958461
3216.40019285
3214.99939045
3214.02893015
3214.28357272
3215.03284095
3215.48888658
3215.50507542
3215.51417836
3215.51785042
3216.03777939
3217.08412967
3217.78361195
3217.24627793
3216.10205836
3215.9340002
3215.90763456
3215.87659493
3216.56961644
3216.59766657
3216.59456136
3215.89773218
3213.90234685
3213.58112161
3214.08324844
3214.86942896
3215.3528884
3215.35789559
3215.35621789
3215.34960156
3215.92237255
3217.12181246
3218.19624965
3218.3023661
3216.52914831
3215.9268953
3215.89957954
3215.86550363
3216.55949655
3216.59062969
3216.58831485
3215.46748345
3213.50581718
3213.550189
3214.05872026
3214.86865633
3215.36221696
3215.34913398
3215.32995907
3215.30645816
3215.90080399
3217.18017324
3218.35577016
3218.84148287
3216.97977308
3215.91617151
3215.88807269
3215.85186147
3216.54438715
3216.5775474
3216.57574011
3215.32511789
3213.42442156
3213.54778392
3214.06898287
3214.89719664
3215.39712409
3215.37294375
3215.34329206
3215.3097223
3215.91384629
3217.22834505
3218.4408806
3219.00244021
3217.13438709
3215.90072735
3215.87223499
3215.83493216
3216.52369036
3216.55777744
3216.556111
3215.28059249
3213.34559124
3213.47734162
3214.01367287
3214.86079212
3215.3718163
3215.34744532
3215.31791018
3215.28463848
3215.90187056
3217.24395357
3218.48046735
3219.0501904
3217.13960185
3215.88019231
3215.85163318
3215.81421558
3216.49750175
3216.53144456
3216.52953821
3215.22906594
3213.25985102
3213.40023372
3213.95203532
3214.81884746
3215.34149494
3215.31727448
3215.28797381
3215.25499511
3215.88530631
3217.25486816
3218.51531035
3219.09310312
3217.13988585
3215.85481975
3215.82646902
3215.78973088
3216.46657047
3216.49938487
3216.49685768
3215.17135378
3213.16798257
3213.31730245
3213.88483515
3214.77209429
3215.30687763
3215.28319126
3215.25425749
3215.22157965
3215.86494441
3217.26189581
3218.54625361
3219.13200768
3217.13605278
3215.82539489
3215.79758234
3215.76209719
3216.43255695
3216.46321804
3216.45981391
3215.30766913
3213.27684257
3213.39535345
3213.98320744
3214.88780723
3215.42333207
3215.38653923
3215.34420251
3215.29807851
3215.93552508
3217.32531575
3218.5856523
3219.06909433
3216.97043707
3215.79331341
3215.76637009
3215.73273163
3216.39734623
3216.42487361
3216.42052908
3215.80455428
3213.87711621
3213.71542845
3214.32857653
3215.23634078
3215.75089411
3215.68620363
3215.61572889
3215.54111755
3216.13606406
3217.4397588
3218.57172755
3218.56585212
3216.45267894
3215.76036435
3215.73460516
3215.70364435
3216.36324424
3216.38677199
3216.3809266
3216.23523189
3215.01941407
3214.35020327
3214.7964838
3215.67970271
3216.14995334
3216.05783166
3215.95973553
3215.85738834
3216.37530467
3217.50569269
3218.16955601
3217.34908253
3215.92277454
3215.72853437
3215.70418808
3215.67665903
3216.33257386
3216.3517314
3216.34475952
3216.32759951
3215.99987554
3215.41669392
3215.47346477
3216.12082495
3216.46922902
3216.36125345
3216.24719361
3216.12875712
3216.47188769
3217.1094349
3216.9897647
3216.16042358
3215.73259362
3215.69999373
3215.67691476
3215.65320319
3216.30728774
3216.32201655
3216.31424218
3216.29730351
3216.27834072
3216.11508867
3215.9695758
3216.18716331
3216.31401579
3216.24085881
3216.16159821
3216.07789436
3216.15554669
3216.25346048
3215.9783935
3215.7528527
3215.7090194
3215.67661294
3215.65425847
3215.63416127
3216.28900324
3216.29975
3216.29189033
3216.27600386
3216.25732207
3216.23460162
3216.20639693
3216.17171654
3216.13009794
3216.08157573
3216.02711258
3215.96835532
3215.90719855
3215.84649494
3215.78869527
3215.73661652
3215.69302088
3215.66005974
3215.63748219
3215.62002498
3216.27829691
3216.28393631
3216.27527034
3216.26002968
3216.24094666
3216.21721943
3216.18800522
3216.15260269
3216.11061982
3216.0622203
3216.00833192
3215.95047644
3215.89061072
3215.83125407
3215.7749342
3215.72415983
3215.68134407
3215.64845534
3215.6260371
3215.61097967
3216.27354751
3216.26972945
3216.2571924
3216.23902279
3216.21586064
3216.18786825
3216.155022
3216.11713105
3216.07398417
3216.02568883
3215.97292124
3215.91700945
3215.85968585
3215.80342802
3215.75068048
3215.70361649
3215.66434054
3215.63439453
3215.61485138
3215.60472554
2721.20318045
2721.19802619
2721.18800052
2721.17351726
2721.15562524
2721.13321107
2721.10528258
2721.07043639
2721.02761677
2720.97639296
2720.91727772
2720.8517522
2720.78228355
2720.71131168
2720.64397934
2720.58326046
2720.53249141
2720.49476034
2720.47080456
2720.46122203
2721.20025838
2721.20271475
2721.19588187
2721.1837401
2721.16995711
2721.15227897
2721.1287453
2721.09746503
2721.05705354
2721.00701357
2720.9479088
2720.8814323
2720.80981744
2720.73674899
2720.66602924
2720.60143243
2720.54662511
2720.50540076
2720.4770108
2720.46046677
2721.19899861
2721.20517306
2721.19998687
2721.18791036
2721.17474136
2720.99155775
2720.7120299
2720.73449994
2720.81393138
2720.78992427
2720.75660174
2720.7158623
2720.81581923
2720.9574409
2720.78618628
2720.6039229
2720.54789916
2720.50588054
2720.47592644
2720.45679658
2721.19876723
2721.20756579
2721.20293726
2721.17956253
2720.46812985
2719.6614515
2719.46548158
2719.83382521
2720.1468271
2720.17399301
2720.19256329
2720.20409424
2720.56236169
2721.18693258
2721.46052099
2721.1036264
2720.55135433
2720.50243326
2720.47274825
2720.45162618
2721.19992566
2721.21253838
2721.20874378
2720.45055408
2718.84885606
2718.37703556
2718.68647876
2719.26451133
2719.65149607
2719.68468561
2719.70963407
2719.72813886
2720.20666606
2721.20645063
2722.13326147
2722.24783563
2721.087947
2720.50046625
2720.47053411
2720.44569018
2721.20039182
2721.21722357
2721.0292755
2719.00292314
2717.8317737
2717.86515551
2718.13504444
2718.71962778
2719.13058665
2719.16570584
2719.19337958
2719.21523355
2719.76149087
2720.96325895
2722.2011059
2723.07231291
2722.37539725
2720.63323609
2720.46757463
2720.43873004
2721.19812863
2721.21886875
2720.52587674
2717.95937152
2717.53313519
2717.5171849
2717.75440066
2718.33299969
2718.74873383
2718.77977425
2718.80444452
2718.82420239
2719.40462265
2720.73699168
2722.20125309
2723.33644866
2723.47793719
2721.06574801
2720.46226542
2720.42996187
2721.19102628
2721.2149138
2720.10083391
2717.66545442
2717.44228341
2717.40356744
2717.62887774
2718.20233518
2718.61266575
2718.63123248
2718.64521747
2718.65565382
2719.24721709
2720.64656828
2722.235514
2723.50906664
2723.93079571
2721.51451527
2720.45291837
2720.41815565
2721.17733843
2721.20339085
2719.96245606
2717.6060564
2717.41406473
2717.37680228
2717.60673581
2718.18551966
2718.59656308
2718.60682822
2718.61403483
2718.61844504
2719.21771915
2720.6515174
2722.29074481
2723.6094454
2724.07452635
2721.66650082
2720.4380531
2720.4020944
2721.15618669
2721.18327431
2719.917587
2717.52095573
2717.33683695
2717.30951035
2717.55173612
2718.1446463
2718.56479979
2718.57531675
2718.58324554
2718.5883864
2719.19954935
2720.662152
2722.33286486
2723.67263801
2724.13705699
2721.67111537
2720.4168962
2720.38096158
2721.1276525
2721.15459775
2719.86404207
2717.42745253
2717.25164592
2717.2348639
2717.49029388
2718.09952467
2718.52981095
2718.54081899
2718.54924545
2718.55476087
2719.17747489
2720.66826174
2722.37018315
2723.73083423
2724.19414522
2721.66981736
2720.38957016
2720.35456317
2721.09260555
2721.1184463
2719.80290807
2717.32655406
2717.15894151
2717.15369815
2717.42276848
2718.05062519
2718.49207525
2718.50410076
2718.51278713
2718.51835877
2719.15218488
2720.67056068
2722.40351165
2723.78489945
2724.24662448
2721.66324818
2720.35723157
2720.32322662
2721.05312849
2721.07689794
2719.93799411
2717.38696797
2717.22354796
2717.24082069
2717.53096346
2718.18458437
2718.63337405
2718.63247424
2718.62751651
2718.61914098
2719.2547596
2720.7790015
2722.49328109
2723.83147429
2724.21315221
2721.49110464
2720.3221727
2720.28931515
2721.01142114
2721.0319925
2720.43457241
2717.83166999
2717.5466142
2717.61364372
2717.94279875
2718.63324789
2719.08503522
2719.05478935
2719.01920885
2718.97935418
2719.59322079
2721.0628912
2722.63856485
2723.7935404
2723.80343789
2720.96582296
2720.28563097
2720.2551657
2720.97044592
2720.987094
2720.85447158
2718.97362472
2718.04850222
2718.19354307
2718.58052341
2719.30139331
2719.73967839
2719.67329125
2719.60083447
2719.52377395
2720.08546531
2721.41431639
2722.72778138
2723.56770569
2722.55341283
2720.43568175
2720.25046819
2720.22356887
2720.93326989
2720.94617021
2720.93967005
2720.36241523
2719.08223067
2718.88524947
2719.32904503
2720.04725003
2720.44276852
2720.34307374
2720.23683885
2720.1257234
2720.59503907
2721.69008479
2722.64382211
2722.54857055
2720.97524815
2720.245601
2720.21910152
2720.19630793
2720.90231574
2720.91158887
2720.90445792
2720.87970174
2720.30951284
2719.96733404
2720.15728422
2720.69394279
2720.99474755
2720.87601265
2720.75031045
2720.61942812
2720.93328258
2721.54444134
2721.63789389
2721.00237798
2720.26540392
2720.21874851
2720.19311056
2720.17439482
2720.87988302
2720.8862086
2720.87849995
2720.86284893
2720.84520962
2720.67968952
2720.53086618
2720.75162896
2720.88038612
2720.80490608
2720.7221159
2720.63383728
2720.70934132
2720.80533004
2720.52101976
2720.28646356
2720.23726406
2720.19999981
2720.17444114
2720.1586878
2720.86623509
2720.86852315
2720.85932982
2720.84387801
2720.82584302
2720.80360516
2720.77580294
2720.74106696
2720.69844181
2720.64773817
2720.5898286
2720.52650775
2720.46019761
2720.39384645
2720.33040702
2720.27278577
2720.22427793
2720.18733634
2720.16248109
2720.14854577
2720.86194839
2720.85686996
2720.84480787
2720.82701761
2720.8046974
2720.77771736
2720.74574741
2720.70811736
2720.66416685
2720.61368599
2720.55721991
2720.49616175
2720.43264673
2720.36947954
2720.30953236
2720.25541471
2720.21026721
2720.17593681
2720.15342987
2720.14281862
2225.82109321
2225.81435865
2225.80664253
2225.79398465
2225.77908581
2225.75947879
2225.73408652
2225.70032664
2225.6567415
2225.60252767
2225.53797992
2225.46473703
2225.38549699
2225.30392502
2225.22480702
2225.15273054
2225.09214372
2225.04716634
2225.0181231
2225.00902564
2225.81658582
2225.80918493
2225.80040101
2225.7875886
2225.77514874
2225.75917158
2225.64786337
2225.60012453
2225.60535591
2225.55853996
2225.50033673
2225.43288479
2225.4216598
2225.37192219
2225.2297437
2225.15595133
2225.09352788
2225.04701359
2225.01638613
2225.00597431
2225.81933871
2225.8107485
2225.80438215
2225.79309537
2225.3938097
2224.78500987
2224.60872263
2224.74344859
2224.92362061
2224.93783408
2224.93958288
2224.93275592
2225.14614878
2225.50742835
2225.73577565
2225.43508433
2225.09538886
2225.046843
2225.01385308
2225.0033644
2225.82326671
2225.81448672
2225.81024519
2225.08329688
2223.94769262
2223.40583594
2223.56812488
2223.96507178
2224.2515763
2224.28071819
2224.30074201
2224.31181815
2224.6797779
2225.47117055
2226.22957004
2226.28227376
2225.61222054
2225.04477868
2225.01066444
2224.99950199
2225.83024301
2225.8226488
2225.40360589
2223.59017792
2222.7842761
2222.65074271
2222.71958427
2223.09184742
2223.39757548
2223.44121814
2223.47489063
2223.50072569
2223.94498941
2224.96260185
2226.09346366
2226.9776236
2226.80962771
2225.34977493