/*--------------------------------*- C++ -*----------------------------------*\
| =========                 |                                                 |
| \\      /  F ield         | OpenFOAM: The Open Source CFD Toolbox           |
|  \\    /   O peration     | Version:  3.0.1                                 |
|   \\  /    A nd           | Web:      www.OpenFOAM.org                      |
|    \\/     M anipulation  |                                                 |
\*---------------------------------------------------------------------------*/
FoamFile
{
    version     2.0;
    format      ascii;
    class       volScalarField;
    location    "9.7";
    object      epsilon;
}
// * * * * * * * * * * * * * * * * * * * * * * * * * * * * * * * * * * * * * //

dimensions      [0 2 -3 0 0 0 0];

internalField   nonuniform List<scalar> 
7968
(
3.87328841637e-05
5.23964727787e-05
6.38039945215e-05
7.10589700271e-05
7.47580039409e-05
7.57113705706e-05
7.50138891843e-05
7.31880260293e-05
7.10542716325e-05
6.93003628989e-05
6.87702579626e-05
7.01045604069e-05
7.20910411191e-05
7.3907132546e-05
7.47040879145e-05
7.38565423838e-05
7.03876358193e-05
6.3357628156e-05
5.21328594111e-05
3.85956316248e-05
5.24529193711e-05
0.000102929326705
0.000139412831862
0.000159834989544
0.000167604928098
0.000166761565505
0.00016164364747
0.000154679746813
0.000148316188957
0.000144271799423
0.000143509774898
0.000146484214135
0.000152173264737
0.000158853495985
0.000163989670449
0.000164924841978
0.000157630121707
0.00013782598441
0.000102013118732
5.20623270196e-05
6.38937078307e-05
0.000139296638315
0.000192790932722
0.000222259246048
0.0002331342288
0.000231610197391
0.000223865405255
0.000214075386894
0.000205515712297
0.000200231177634
0.000199256504215
0.00020309267166
0.000210694833662
0.000220037128635
0.00022771501142
0.000229419207347
0.000219129900636
0.000190515956939
0.00013797355436
6.32785168246e-05
7.11314609359e-05
0.000159584211744
0.000222081399572
0.000256075459963
0.00026804995735
0.00026575896469
0.000256670263858
0.000246408400468
0.00023902757782
0.000234376873185
0.000233460344227
0.000236766057087
0.000243158735336
0.000252241709872
0.000261159232236
0.000263678281399
0.000252368275524
0.000219350172462
0.000157949878687
7.03294789499e-05
7.47950957997e-05
0.000167258185399
0.000232837703943
0.000267912636559
0.000279430507168
0.000280251905928
0.000277677592836
0.000271468539823
0.000264875318413
0.000260257665294
0.000259249570093
0.000262430088694
0.000268174860179
0.000274058611845
0.000276566986581
0.000274794555661
0.000263830501761
0.000229771057839
0.000165344837637
7.38294942481e-05
7.57485363164e-05
0.000166459745235
0.0002313187915
0.000265567458267
0.000280074421666
0.000288340374279
0.000288789637699
0.000283775359096
0.000277146882317
0.000272178709424
0.000271010573951
0.000274356654781
0.000280160134256
0.000285091119554
0.000284935048536
0.000276747247753
0.000261347924894
0.000228057732861
0.000164357426939
7.4673816978e-05
7.50368913014e-05
0.000161403130075
0.000223654859238
0.000256516421109
0.00027745394457
0.000288727998641
0.000290065334963
0.000284714576682
0.000277174368189
0.000271379367654
0.000269990066571
0.000273901886008
0.000280553318935
0.000285933565829
0.000285147493799
0.000274282810855
0.000252362221288
0.00022028942463
0.000159175232269
7.39084918403e-05
7.32288136618e-05
0.000154638764369
0.000214152906471
0.000246280584196
0.000271431104788
0.000283963187923
0.000285014140906
0.000278375000209
0.000269122192302
0.000262052819019
0.000260390989963
0.000265234664071
0.000273496512317
0.000280246987251
0.000279964490379
0.000268235744607
0.000243379057705
0.000210659438396
0.000152310879073
7.20936241021e-05
7.11677900449e-05
0.000148667642199
0.000206169383263
0.000239325255244
0.000265363197283
0.000277989975737
0.000278251472973
0.000269986375427
0.000258892405983
0.000250127780155
0.00024809432103
0.000254313000206
0.000264365488217
0.000272804612172
0.000273489647283
0.000261928425144
0.000236495870754
0.000202481485972
0.000146233876365
7.00381871499e-05
6.95857009169e-05
0.000145169079164
0.000201666645827
0.000235383597908
0.000261563231445
0.000273998947494
0.000273617478848
0.000264245047741
0.000251646987039
0.000241300987546
0.000238891095805
0.000246487583408
0.000258114920823
0.00026768674257
0.00026912271643
0.000257874249669
0.000232409259613
0.000197809214586
0.00014263893222
6.84372147256e-05
6.95363774416e-05
0.000145114787177
0.000201625345129
0.000235344576464
0.000261539156324
0.000273993975295
0.000273631910657
0.000264276856566
0.000251693268448
0.000241357356332
0.000238952010144
0.000246544523228
0.000258160684905
0.000267716642258
0.000269131902773
0.000257859191842
0.000232369382136
0.000197751607991
0.000142559535522
6.83675488151e-05
7.10615051688e-05
0.000148519556676
0.000206044001779
0.000239212120817
0.00026528851412
0.000277963594694
0.000278273948964
0.00027005233845
0.00025899394709
0.000250254152072
0.000248230593124
0.000254440215145
0.000264464865221
0.000272866950133
0.000273502573513
0.000261882838395
0.000236390561196
0.000202335651848
0.000146040474044
6.98948956689e-05
7.30855908725e-05
0.000154400689449
0.000213923135779
0.00024608654945
0.000271284213227
0.0002838803092
0.000284998910744
0.000278420811595
0.000269218661874
0.000262186338948
0.000260537535662
0.00026536553291
0.000273589115015
0.000280289412031
0.000279941233101
0.000268136153557
0.00024320486294
0.000210429792076
0.000152031875426
7.19102537276e-05
7.48781078135e-05
0.000161090439763
0.000223318491922
0.000256239571004
0.000277215402223
0.000288564027552
0.000289980055402
0.000284702305513
0.000277223330287
0.000271469849157
0.000270093324829
0.000273984127344
0.000280592116666
0.000285914014063
0.000285055039119
0.000274112261655
0.000252160719097
0.000219976012328
0.00015883564313
7.37119541471e-05
7.55952645376e-05
0.000166099729895
0.00023089431076
0.000265180635375
0.000279744372239
0.000288096630989
0.000288629570109
0.000283692575065
0.000277131525337
0.000272208024759
0.000271051295035
0.000274370885687
0.000280123670346
0.000284991673303
0.000284759428721
0.000276486845324
0.000261040419253
0.000227660913041
0.00016397801331
7.44881688802e-05
7.4658430469e-05
0.000166874619311
0.00023236076294
0.000267447702268
0.000279019480961
0.000279940128042
0.000277450091899
0.000271320512641
0.000264797327203
0.000260221376945
0.000259220779555
0.000262372409999
0.000268060944877
0.000273874887707
0.000276309347326
0.000274466136495
0.000263418114695
0.00022930381527
0.000164934759173
7.36653877802e-05
7.10295331725e-05
0.00015923847446
0.000221619786403
0.000255601369144
0.000267610818244
0.000265375800492
0.000256355504822
0.000246196996229
0.000238886584362
0.000234268430891
0.000233352527666
0.000236629392179
0.000242963003763
0.000251949946367
0.000260812052665
0.000263268444497
0.000251903143651
0.000218872480927
0.000157569133229
7.02087293748e-05
6.38278348134e-05
0.000139026161755
0.000192410831843
0.000221847814755
0.000232732193831
0.000231241598062
0.000223542573017
0.000213800504988
0.000205274366151
0.000200002375384
0.000199017902635
0.000202828425866
0.000210391699776
0.000219695349156
0.000227334956509
0.000229001031858
0.000218695475649
0.000190103910903
0.000137668440417
6.32032504161e-05
5.24242499769e-05
0.000102774843687
0.000139181852934
0.00015956351855
0.000167306213012
0.000166456038497
0.000161349491497
0.000154402689313
0.000148043849479
0.000143991261358
0.000143211001192
0.000146169297087
0.000151840468138
0.000158508942031
0.000163643525132
0.000164586418433
0.000157322218501
0.000137560485947
0.000101832508441
5.2028195831e-05
3.87257581607e-05
5.23654681612e-05
6.37423354127e-05
7.096596063e-05
7.46319495396e-05
7.55574822404e-05
7.48423754909e-05
7.30045270742e-05
7.08578373628e-05
6.90900004025e-05
6.85422452861e-05
6.98697462781e-05
7.18561410657e-05
7.36810834919e-05
7.44994243191e-05
7.36847855436e-05
7.02579001516e-05
6.32662472474e-05
5.20782700981e-05
3.85780949748e-05
5.14919483567e-05
8.82923243914e-05
0.000119724589437
0.000141032635452
0.000152967018418
0.000157666129536
0.000157674649626
0.000155104330357
0.000151988983391
0.000149770245963
0.000149205927277
0.000150610992169
0.00015325635786
0.000155681872619
0.000155777339145
0.000151319620715
0.000139788563673
0.00011892127387
8.78315155797e-05
5.11953679685e-05
8.85319012197e-05
0.000111166047972
0.000136304689531
0.000154302843749
0.000164863112701
0.000169438800265
0.000169999376528
0.000168293576532
0.000165970329925
0.000164283011992
0.000163931224942
0.000165109580784
0.000167129682181
0.000168721116443
0.000168171694142
0.000163652313733
0.000153197048622
0.00013527404407
0.000110124784244
8.7545015534e-05
0.000120066894146
0.000136555959557
0.000160946109785
0.000179005448901
0.000189771965145
0.000194490116059
0.000195095094159
0.000193353342764
0.000190898003256
0.000189077817059
0.000188724707238
0.000190031148178
0.000192188617965
0.000193820062625
0.000193195775294
0.000188478568314
0.000177705153602
0.000159567807822
0.000135007074808
0.000118534966952
0.000141364921877
0.000154710959083
0.000179175977364
0.000197833439195
0.000209462367798
0.000215228971529
0.000217047184393
0.000216412118899
0.000214710204885
0.000213204429353
0.000212878962404
0.000213923409601
0.000215372282894
0.000215860188132
0.000213920728031
0.000208111256761
0.000196394038251
0.00017754318583
0.000152782552852
0.000139426395077
0.000153267161327
0.000165361002777
0.000190027444694
0.000209530299788
0.000222710476686
0.00023126760566
0.000235558955595
0.000236275114474
0.000235066438528
0.000233669617907
0.000233319660437
0.000234228528624
0.000235199272689
0.000234453986641
0.00023020337103
0.000221502754282
0.000208054850908
0.00018824543361
0.000163168287768
0.000151010025653
0.000157973210669
0.000169995265204
0.000194775654045
0.000215291066973
0.000231240427793
0.000242603307302
0.000248627966842
0.000250135621767
0.000249076365702
0.000247595654333
0.000247200196612
0.000248141137702
0.000248950726066
0.000247451429067
0.000241568621375
0.000230238724854
0.000213870409366
0.000192936522972
0.000167646272229
0.000155488875762
0.000158015101753
0.000170590986229
0.000195389295565
0.000217073825395
0.000235502169934
0.000248603601783
0.000255505034021
0.000257116353891
0.000255725991303
0.000253905012613
0.0002534551708
0.000254684522509
0.00025581068118
0.000254206275735
0.000247488603229
0.000234524279417
0.000215841556804
0.000193545658528
0.000168169380772
0.000155390484338
0.000155570817325
0.000168959664986
0.0001937093377
0.000216463068663
0.000236265236435
0.000250173821809
0.000257180781799
0.000258254977623
0.000256050605738
0.000253720278483
0.000253226502701
0.000254882037614
0.000256817940426
0.000255753156653
0.000248938599168
0.000235229840391
0.000215331920746
0.000191840893974
0.000166504745369
0.000152865527359
0.000152724956191
0.000166801607012
0.000191420706527
0.000214900347732
0.000235220681315
0.000249302808306
0.000255978203547
0.000256232734784
0.000253368745831
0.000250393178712
0.000249796068103
0.000252097472393
0.000254665581102
0.000254413456337
0.000247941169273
0.00023408996208
0.000213724175398
0.000189502402558
0.000164307985683
0.000149952028397
0.000150908541633
0.000165361116344
0.000189856367513
0.000213633765745
0.000234094799302
0.000248127952637
0.000254477923666
0.000254179776209
0.000250736409433
0.000247108694724
0.000246393585526
0.000249323055701
0.000252608452775
0.000252806033652
0.000246668258483
0.000232882875772
0.00021239794835
0.000187886387568
0.000162817232755
0.000148059951939
0.0001508542187
0.000165318460954
0.000189821713793
0.000213603204862
0.000234069485476
0.000248107073889
0.000254459881478
0.000254161632176
0.000250714232924
0.000247082094323
0.000246364857589
0.00024929426206
0.000252581260064
0.00025278196687
0.000246644922653
0.000232857015313
0.000212365827931
0.000187845194417
0.000162758348925
0.000147978771024
0.000152568956395
0.000166678227571
0.000191320599014
0.000214814071269
0.000235149664853
0.000249244200739
0.00025592701892
0.000256181102191
0.000253304116508
0.00025031604641
0.000249713691275
0.000252016430707
0.000254589277624
0.000254346120406
0.000247876630129
0.000234019172036
0.000213637472993
0.000189392584763
0.000164153399419
0.00014974536965
0.000155326073329
0.000168763077438
0.000193547338672
0.000216327589871
0.00023615529927
0.000250086125479
0.000257107202044
0.000258181124477
0.000255962471996
0.000253617105022
0.000253117678013
0.000254776926631
0.00025671885524
0.000255661981694
0.000248845985996
0.00023512398325
0.000215201872636
0.00019167659522
0.00016627882891
0.000152571700912
0.000157716509726
0.000170342473626
0.000195176782104
0.000216898891985
0.000235362004232
0.00024849823904
0.000255426141679
0.000257048487862
0.000255654261268
0.000253825959646
0.000253373301012
0.000254604127978
0.00025573157187
0.00025412102298
0.000247385762117
0.000234395268258
0.000215683120779
0.000193339865969
0.000167898277895
0.000155050402194
0.000157660718086
0.000169722892633
0.00019452878206
0.000215083482759
0.000231075145954
0.000242484303932
0.000248548832327
0.000250084089789
0.000249039509358
0.000247563784553
0.000247167554362
0.000248102363692
0.000248898725914
0.000247374988301
0.000241457929761
0.000230089680372
0.000213687180751
0.000192698770187
0.000167352932566
0.000155138819927
0.000152974549343
0.000165089115585
0.00018976153951
0.000209292619391
0.000222515512464
0.000231124273474
0.000235462176472
0.000236214844902
0.000235030449782
0.000233644629197
0.000233294544577
0.000234192530319
0.000235141529906
0.000234362345975
0.000230070426049
0.000221327336185
0.000207836156697
0.000187980893985
0.000162869970149
0.000150678957314
0.000141126903479
0.000154463449091
0.000178907148279
0.000197572406751
0.000209230290369
0.000215036174381
0.000216898074297
0.000216299220496
0.000214620120547
0.000213123819401
0.000212796603872
0.000213829614626
0.0002152572544
0.000215712487956
0.000213736023224
0.000207888531997
0.000196135683984
0.000177261577552
0.000152501283961
0.000139150188155
0.000119902410519
0.000136344250586
0.000160683399388
0.000178723119044
0.000189494832548
0.000194231650186
0.000194859805543
0.000193139082331
0.000190696123716
0.00018887869875
0.000188520108464
0.000189815740259
0.00019195647631
0.000193568294372
0.000192923006906
0.00018818610776
0.000177402873634
0.000159276892782
0.000134756819384
0.000118337170882
8.84511587735e-05
0.00011099578625
0.000136054167846
0.000154001185955
0.000164534537412
0.000169100114135
0.000169660290503
0.000167956732534
0.000165628972737
0.000163930963644
0.000163566546596
0.000164736313303
0.000166747430922
0.00016833332562
0.000167785668474
0.000163278077076
0.000152851351699
0.000134980549132
0.000109912528274
8.743703679e-05
5.1482406201e-05
8.81670722671e-05
0.000119505578694
0.000140749813249
0.000152640509214
0.000157313163443
0.000157307888629
0.000154727159057
0.000151592276487
0.000149349736484
0.000148764404261
0.000150161698511
0.000152806168244
0.000155239206558
0.000155353802121
0.000150929402099
0.000139449661349
0.000118653558573
8.76653108049e-05
5.11679987163e-05
6.4742442671e-05
0.000122129294793
0.000171213143859
0.000204705872675
0.000224172173573
0.000233074072944
0.000235360603611
0.000234459443677
0.000232972124984
0.000232008350155
0.000231525154748
0.00023161346928
0.000232389443606
0.000232877762566
0.000230534458091
0.000221868232055
0.000202882746249
0.000170004325622
0.000121451218118
6.42874612645e-05
0.000122629136682
0.000141608713413
0.000170487383977
0.000192919126549
0.000207507277222
0.000215280446061
0.00021817521198
0.000218215179599
0.000217228180055
0.000216382977908
0.000216091832083
0.000216444321597
0.000217079833749
0.000216862949504
0.000213940464859
0.000206205853882
0.000191666767085
0.000169212739851
0.000140142057462
0.000120823810904
0.000171943113161
0.000170963245249
0.000191307758716
0.000208852721904
0.00022091721314
0.000227751532395
0.000230554306311
0.000230733421728
0.000229804548816
0.000228968947732
0.000228721197893
0.000229141461374
0.000229723328329
0.000229410093013
0.0002265789702
0.000219662528478
0.000207425767624
0.000189552398764
0.000168692302908
0.000169114076328
0.000205527314045
0.000193713803471
0.000209210027903
0.000224244317762
0.00023562518656
0.000243172514812
0.000247172221622
0.000248171978971
0.000247611485898
0.0002467888951
0.000246511838792
0.000246882130019
0.000247153668853
0.000246059242083
0.000242119822367
0.000234330859918
0.000222634670471
0.000207063885365
0.000190829264205
0.000201906641291
0.000225109316067
0.000208514194793
0.000221492439674
0.000235827082514
0.000248301355617
0.000257020070203
0.000261891288698
0.000263485239667
0.000263150237848
0.000262350621472
0.000262045361419
0.000262330573119
0.00026228749635
0.000260556302173
0.000255753126177
0.000246981035606
0.000234123372971
0.000219082696581
0.000205175617144
0.00022080763961
0.000234197134562
0.000216432349076
0.000228432765992
0.000243441704264
0.000257111266561
0.000267003498721
0.000272639892947
0.000274523755071
0.000274183631905
0.000273314567514
0.000272995077336
0.000273289374858
0.000273086206341
0.000270891921103
0.00026536014127
0.000255631391812
0.000241813690278
0.000225874618683
0.000212776305699
0.000229327346501
0.000236733504376
0.000219431654294
0.000231289496828
0.000247513530602
0.000262091254733
0.000272828414349
0.00027882596491
0.000280592193843
0.000279956524019
0.000278890333346
0.000278601326619
0.000279106968497
0.000279038676645
0.000276681366445
0.000270690686697
0.000260289732742
0.00024563087716
0.000228614297789
0.000215578078441
0.00023144474751
0.000236171390159
0.000219595438513
0.000231539472473
0.000248625253999
0.000263906052929
0.000275075649087
0.000281001374947
0.000282272583323
0.000281039346773
0.000279602572354
0.000279362052249
0.000280313405897
0.000280772477053
0.000278658816472
0.000272548417081
0.000261790150236
0.000246575711609
0.000228825448208
0.000215644793567
0.000230641498766
0.000235104219473
0.000218798919943
0.000230722181637
0.000248260232422
0.000263870369202
0.000275116815231
0.000280733754099
0.000281369742482
0.000279423762115
0.000277484316703
0.000277244776876
0.000278717289551
0.000279923774105
0.000278347228374
0.000272401513319
0.000261547322377
0.000246094682923
0.000228152590633
0.00021479308001
0.000229456903715
0.000234581176782
0.000218186544705
0.000230024514998
0.000247680554291
0.000263377815664
0.00027457509924
0.000279935473775
0.000280136485197
0.000277660848034
0.000275308532883
0.000275042492497
0.000276915373505
0.000278673195602
0.000277532282766
0.000271789013579
0.000260960839997
0.000245448940727
0.000227499134575
0.000214121406164
0.000228847622891
0.000234540355195
0.000218146905208
0.000229993131029
0.000247660320375
0.000263365503979
0.000274566689076
0.000279925837396
0.000280119425237
0.000277631201271
0.000275267070601
0.000274996097371
0.000276871576161
0.000278638925327
0.000277510753324
0.000271777135243
0.000260949387709
0.000245427732202
0.000227459005067
0.000214059077223
0.000228766361664
0.000234957286532
0.000218671233582
0.000230631344434
0.000248202204905
0.000263838454276
0.000275101143007
0.000280721020413
0.000281340904156
0.00027936165934
0.000277391877082
0.000277140504485
0.000278620270024
0.000279851344588
0.000278305178235
0.000272378561332
0.000261519842273
0.000246037789731
0.000228042710068
0.000214618828476
0.000229230955995
0.000235908985276
0.000219380263766
0.000231389872636
0.000248532717249
0.000263863681103
0.000275075717144
0.000281025911009
0.000282288215751
0.000281013888067
0.000279539136261
0.000279285283433
0.000280247026389
0.000280739740828
0.000278654679324
0.000272545438426
0.000261759390094
0.000246492818789
0.000228666526037
0.000215383445909
0.000230305324504
0.000236393763138
0.000219157394461
0.000231093533669
0.000247390692254
0.000262036733155
0.000272844587473
0.000278900842564
0.000280691197594
0.000280042293372
0.000278955380733
0.000278661464325
0.000279180275244
0.000279124167102
0.000276753915771
0.000270718894192
0.00026025501649
0.000245524661214
0.000228419313634
0.000215261239659
0.00023104344147
0.000233839666352
0.000216142113267
0.000228208711946
0.000243289833113
0.000257030668925
0.000266999183546
0.000272712169034
0.000274654271464
0.00027434111015
0.000273477860271
0.000273158256634
0.000273449578899
0.000273226220942
0.000270979471798
0.000265374941786
0.000255571146289
0.000241674479512
0.000225649127012
0.0002124363739
0.000228904824104
0.000224783208208
0.000208240489655
0.0002212535287
0.000235641285886
0.000248177283497
0.000256959815861
0.000261894495612
0.000263547103445
0.000263251453661
0.000262468791417
0.000262165279798
0.00026243780132
0.000262361553112
0.000260572288272
0.000255704719156
0.000246869411985
0.000233947322277
0.000218828395756
0.000204838381128
0.000220403003538
0.000205271263975
0.000193473907438
0.000208959597809
0.000224010083441
0.000235428257789
0.000243024895476
0.000247066508228
0.000248108133138
0.000247579052088
0.000246771665432
0.000246493595181
0.000246848161888
0.000247089354591
0.000245951704268
0.00024196601356
0.000234131466172
0.000222388149771
0.000206775873253
0.000190513776626
0.000201561541752
0.000171780288191
0.00017075636083
0.000191038363821
0.000208551730977
0.00022061333931
0.000227461940326
0.000230284718443
0.000230487607107
0.000229578011936
0.000228747801214
0.00022849354219
0.000228898554391
0.000229452629195
0.000229110883391
0.000226255173418
0.000219319561993
0.000207077284668
0.000189221869501
0.000168405545598
0.0001688655836
0.000122568999016
0.00014141820322
0.00017018188753
0.000192533242825
0.000207070818778
0.00021481504333
0.000217695164302
0.000217728924012
0.000216730716191
0.000215869323094
0.000215561184561
0.000215902795344
0.000216525855167
0.000216303489017
0.000213389588516
0.000205681309221
0.000191195223626
0.000168826290065
0.000139874475853
0.00012069444804
6.47694807593e-05
0.000121929307197
0.000170864029894
0.000204261015476
0.000223664921264
0.000232529589287
0.00023479526793
0.000233878584276
0.000232361762587
0.00023136389764
0.000230851806324
0.000230927373175
0.00023169752995
0.000232194433767
0.000229875926837
0.000221251088692
0.000202336414239
0.000169567148197
0.000121183913445
6.42846948442e-05
7.84552578041e-05
0.000159822128175
0.000227718190323
0.000273739564402
0.000301755567057
0.000316812470533
0.000324116890675
0.000327809602463
0.000330230491909
0.000331626850965
0.000331266369672
0.000329152885397
0.000325970553156
0.000321596063946
0.000313945926699
0.000298989837495
0.000271439920446
0.000226163726975
0.000159062632109
7.78741475271e-05
0.000160721812195
0.000174803268554
0.000208963760962
0.000236780471248
0.000256000146191
0.00026755201828
0.000273500261511
0.000276076246096
0.00027706777998
0.000277373553166
0.000277173683836
0.000276491344072
0.000275188900354
0.000272371451377
0.000266325917598
0.000254761232867
0.000235523770315
0.000207591447335
0.000173043817553
0.000157891434455
0.000228984634146
0.00020966558346
0.000228530789803
0.000247024641111
0.000260637279647
0.000269161233047
0.000273578412628
0.000275533078501
0.000275966059528
0.000275705377251
0.000275455783196
0.000275293901169
0.000274639165784
0.000272426110658
0.000267965730727
0.000259373705003
0.000245520876718
0.000226553622674
0.000206844559112
0.000224550961989
0.000275308210698
0.000237944980745
0.000247527817611
0.000260497328264
0.000271589750615
0.000279951420861
0.000284408984929
0.000285924092657
0.000285799706926
0.000285211025387
0.000284871430181
0.000284853568415
0.000284494071638
0.000282736971993
0.000278406202153
0.000270151050216
0.000258669120845
0.000245017674158
0.000234324105114
0.000269497197246
0.000303749401808
0.000257492924826
0.000261461586509
0.000271889547689
0.00028292832182
0.000290990814672
0.000295360912416
0.000296599063883
0.000296125227526
0.000295300024319
0.000294891597856
0.000294915719329
0.000294547450283
0.000292733865751
0.000288465050605
0.00028083790727
0.000269819877678
0.000258515216792
0.000253231660839
0.000296647907847
0.000319321855164
0.0002692854579
0.000270150563061
0.000280410521075
0.00029126333417
0.000299319851889
0.000303452172055
0.000304269047152
0.000303403434883
0.000302371769686
0.000301938913743
0.000302013417289
0.000301640039703
0.000299719272964
0.000295396236078
0.000288064639789
0.000277768760158
0.000266841467279
0.000264499547595
0.000311069806159
0.000327176328608
0.000275402758294
0.000274633644151
0.000285071154148
0.000296169331674
0.000304151912891
0.000307854889565
0.00030805732646
0.00030672339935
0.000305501437114
0.000305127030787
0.000305403270359
0.000305185813786
0.000303278777556
0.00029892459055
0.000291663554224
0.000281709069621
0.000271122392755
0.000270247059437
0.000318096404118
0.000331343616229
0.000278107348156
0.000276597814357
0.000286957448567
0.000298166274133
0.000305940689598
0.000309082179727
0.000308539141284
0.000306642715463
0.000305179612043
0.000304918387091
0.000305598590885
0.000305813703362
0.000304125565563
0.000299843121267
0.00029265041092
0.000282949013353
0.000273102165891
0.000272785340793
0.000321894365701
0.000334122826424
0.000279241040598
0.000277232712689
0.000287253149085
0.000298374121408
0.000305882003063
0.00030848357463
0.000307267420023
0.00030481742655
0.00030305922739
0.000302861105457
0.000303948073449
0.000304772692616
0.000303492510414
0.000299391518988
0.000292306708926
0.000282781837778
0.000273359815664
0.000273812887175
0.000324606482956
0.000335825127323
0.000279708901669
0.000277253006541
0.000287049797718
0.000298057988316
0.000305382204517
0.000307656607444
0.00030602921589
0.000303201996726
0.000301218544191
0.000301045439116
0.000302410918903
0.000303647799365
0.000302693251383
0.000298764524768
0.000291773400092
0.000282353268433
0.000273157330315
0.000274180432655
0.000326258891254
0.000335807179156
0.000279672630281
0.000277227835646
0.000287042312369
0.000298062399784
0.000305392366212
0.00030766581575
0.000306029244503
0.000303187081715
0.000301191360689
0.000301014635067
0.000302386532776
0.000303639656039
0.000302704486441
0.000298787910555
0.000291795351099
0.00028235731892
0.000273129027386
0.000274114061857
0.00032618399599
0.000334023832297
0.000279116383742
0.000277152829897
0.000287234219721
0.000298397732673
0.000305933227457
0.000308545249514
0.000307314221614
0.000304828395334
0.000303040118546
0.000302833971512
0.000303936744461
0.000304803208645
0.000303566211383
0.000299483151869
0.000292380552143
0.000282795933392
0.000273277335522
0.000273618460949
0.000324386012132
0.000331136282365
0.000277890873827
0.000276468809033
0.00028693122311
0.000298231271691
0.000306081977074
0.000309272861589
0.000308735487834
0.000306804640819
0.000305308637695
0.000305041561924
0.000305742983764
0.000306014381117
0.0003043565054
0.000300052555282
0.000292791447873
0.000282973744111
0.000272969028072
0.00027248703563
0.000321563209999
0.000326905272246
0.000275132994039
0.00027447053941
0.000285031475967
0.000296267483756
0.000304388011946
0.000308203559358
0.000308471778819
0.000307153305383
0.000305931071091
0.000305568145897
0.00030587262614
0.000305664013331
0.000303712750407
0.000299255966477
0.000291847602166
0.000281723498512
0.000270948353267
0.000269880686759
0.000317700500254
0.000319065980825
0.000269021970539
0.000269966610324
0.000280337420194
0.000291332223579
0.000299559185479
0.000303851803457
0.000304797770332
0.000304013640631
0.000303021030673
0.000302605313572
0.000302676728709
0.000302255309709
0.000300219798324
0.00029572913873
0.000288205586745
0.000277727030489
0.000266632919091
0.000264107165847
0.000310656850072
0.000303561071516
0.000257275252949
0.000261272692598
0.000271770271091
0.000282907105306
0.000291109697919
0.000295640273869
0.000297020953647
0.000296642181975
0.000295866470661
0.000295475653844
0.000295481418903
0.000295042709727
0.000293083399904
0.000288638137239
0.000280845874277
0.000269689101106
0.0002582618853
0.000252851033358
0.000296259105148
0.00027521356902
0.00023778452645
0.00024733304161
0.000260313339645
0.000271449800475
0.000279878621861
0.000284425106285
0.00028603735193
0.000285983677232
0.000285433039589
0.000285101599311
0.000285061115757
0.000284641027823
0.000282776784389
0.000278331479646
0.000269984437345
0.00025842829204
0.000244714262552
0.000233983726636
0.000269179990288
0.000228990653869
0.000209547881365
0.000228315943766
0.00024675282019
0.000260344212043
0.000268870904822
0.000273309535674
0.000275304931364
0.000275760556547
0.000275509432096
0.000275253781933
0.000275071976819
0.000274382719964
0.000272115013141
0.000267604975959
0.000258984027564
0.000245129159949
0.00022619464993
0.000206555899521
0.000224357784721
0.000160815565484
0.000174684923395
0.000208693781632
0.000236392309783
0.000255515284064
0.000266992648009
0.000272892447826
0.000275443160176
0.000276409050608
0.000276688783257
0.000276463956636
0.000275768411448
0.000274451010995
0.00027162679623
0.000265599553635
0.000254090232929
0.000234950553449
0.000207154139885
0.000172782133385
0.000157847838532
7.85714659405e-05
0.000159620317399
0.000227339780028
0.000273228216813
0.000301146360733
0.000316142708345
0.000323422866845
0.000327108758352
0.00032950267755
0.000330857926847
0.00033045465195
0.000328312432686
0.0003250959308
0.000320699789158
0.000313057612025
0.000298148120316
0.000270707960686
0.000225597647313
0.000158737569543
7.79324081267e-05
9.39845441518e-05
0.000204434722058
0.000293388816826
0.000354548736456
0.000394836710677
0.000420232401342
0.000436377474993
0.000447327542809
0.000454942627825
0.000459118959419
0.000458884583105
0.000454288427054
0.000446111691705
0.000434374896052
0.000417582413643
0.000392132512912
0.000352280581735
0.000291643778584
0.000203703465212
9.33483259372e-05
0.000205789406295
0.000211225046587
0.000250414952526
0.000283649152664
0.000307719712213
0.00032358805467
0.000333282414616