/*--------------------------------*- C++ -*----------------------------------*\
| =========                 |                                                 |
| \\      /  F ield         | OpenFOAM: The Open Source CFD Toolbox           |
|  \\    /   O peration     | Version:  3.0.1                                 |
|   \\  /    A nd           | Web:      www.OpenFOAM.org                      |
|    \\/     M anipulation  |                                                 |
\*---------------------------------------------------------------------------*/
FoamFile
{
    version     2.0;
    format      ascii;
    class       volScalarField;
    location    "9.7";
    object      k_0;
}
// * * * * * * * * * * * * * * * * * * * * * * * * * * * * * * * * * * * * * //

dimensions      [0 2 -2 0 0 0 0];

internalField   nonuniform List<scalar> 
7968
(
0.000180058881023
0.00022023991139
0.000251146175052
0.00026984057962
0.000279125675391
0.000281493731169
0.000279762248991
0.000275203959558
0.000269828684979
0.000265369900401
0.000264014892092
0.000267418943774
0.000272447098564
0.000277003691931
0.000278991454251
0.000276877269663
0.000268138334675
0.00024997347602
0.000219500587108
0.000179633262365
0.00022039805895
0.000345451760395
0.000422892342789
0.000463243385467
0.000478137175368
0.000476531884691
0.00046673146846
0.000453228234706
0.000440710800531
0.00043266220032
0.000431137346397
0.000437074234756
0.000448318741295
0.000461345023476
0.000471236567902
0.00047302639297
0.000458973343194
0.000419677214679
0.00034339872013
0.000219302562361
0.000251381540438
0.000422657337213
0.000524911061966
0.000577122332295
0.000595797509011
0.000593198130076
0.000579899382063
0.000562867034375
0.00054776129627
0.000538330669949
0.000536582280227
0.00054344736919
0.000556925683638
0.000573269234046
0.000586528468282
0.000589451176458
0.000571692397289
0.000520773519816
0.000419976726171
0.000249765346888
0.000270024067264
0.000462758712463
0.000576814424997
0.000634268723709
0.000653890684775
0.000650159537349
0.000635250516623
0.000618203788099
0.000605796364333
0.000597912766175
0.000596352992976
0.000601969217253
0.000612756470827
0.000627922323857
0.000642635793192
0.00064676160255
0.000628132351912
0.000572075447526
0.00045959382679
0.000267990617119
0.000279217994908
0.000477477497898
0.00059529220285
0.000653667342192
0.000672270211885
0.000673587013308
0.000669455755122
0.000659438542332
0.000648717554257
0.000641155947486
0.000639499219547
0.000644718907769
0.000654093797298
0.000663626354272
0.000667669515078
0.000664813870049
0.000647010493774
0.000590053699999
0.000473829121465
0.000276809665893
0.000281585844754
0.00047595673057
0.000592700461436
0.000649847162346
0.000673302593675
0.000686485909362
0.000687198800561
0.000679221008272
0.000668602486223
0.000660588115091
0.000658696687622
0.000664107402986
0.000673439956132
0.000681318918741
0.000681070240723
0.000667959599879
0.000642945300557
0.000587116822093
0.000471940822008
0.000278916082177
0.00027981943658
0.000466268372029
0.000579535727091
0.000634996654072
0.000669096242921
0.000687101013595
0.000689221064881
0.000680718871314
0.000668646690986
0.000659294125882
0.000657042072206
0.000663373324913
0.000674069892001
0.000682660460054
0.000681408732304
0.000663988233292
0.000628122306073
0.00057370735982
0.000461967741378
0.000277007088341
0.000275306197371
0.000453148175869
0.000563002907324
0.00061798998766
0.000659377917328
0.000679520689485
0.00068119626937
0.000670576210822
0.000655633289899
0.000644100860731
0.000641374896165
0.000649304147629
0.000662718636788
0.000673579131906
0.000673126397974
0.00065419279395
0.000613126554394
0.000556863308798
0.000448588984959
0.00027245360628
0.000270115999384
0.000441406737742
0.000548922168146
0.000606299219815
0.000649513900023
0.000669957745788
0.000670377820034
0.000657036083734
0.000638911732498
0.000624409173342
0.000621020406298
0.000631355105076
0.000647884855586
0.000661600453912
0.00066270754681
0.000643897012406
0.000601511170728
0.000542356523755
0.000436576127032
0.000267250126718
0.000266097825925
0.000434454270213
0.000540900486732
0.000599623695699
0.000643298370982
0.00066353003358
0.000662914034444
0.00064768806367
0.000626934946462
0.000609631484924
0.000605565740516
0.000618336220197
0.000637631938673
0.000653299858515
0.000655634141151
0.000637235517131
0.000594561714479
0.000533980832274
0.00042939143258
0.000263161814996
0.000265972068091
0.000434345942019
0.000540826634393
0.000599557424219
0.000643258896209
0.000663522006265
0.000662937344272
0.00064774004013
0.00062701181219
0.000609726422645
0.000605668677432
0.000618431442297
0.000637707305047
0.000653348505173
0.000655649060852
0.00063721071053
0.000594493701415
0.000533877155571
0.000429232077183
0.000262983193667
0.000269846997577
0.000441113570141
0.000548699594996
0.000606108130579
0.000649392029246
0.000669915359456
0.000670413919759
0.000657143097335
0.000639078781468
0.0006246194689
0.000621247792951
0.000631565635946
0.000648047208656
0.000661701237284
0.000662728428145
0.000643822299826
0.000601332592338
0.000542096076614
0.000436191111553
0.000266885490055
0.000274947112982
0.00045268295868
0.000562600127481
0.000617665351753
0.000659140003574
0.000679388464489
0.000681172001984
0.00067064977869
0.000655789959464
0.000644319628332
0.000641615513602
0.000649517711201
0.00066286822083
0.000673647109385
0.000673089118712
0.000654030857343
0.000612833962303
0.000556458532709
0.000448040999569
0.000271991419105
0.00027942455179
0.000465665968514
0.00057895451676
0.000634539683906
0.000668712682163
0.000686840848624
0.000689085970374
0.000680699311897
0.000668725431747
0.000659440662712
0.00065720958626
0.000663506107202
0.00067413203534
0.000682629340076
0.00068126143349
0.000663712959264
0.000627787906126
0.000573163077051
0.000461310457118
0.000276515791692
0.00028120587058
0.000475270224054
0.000591975150884
0.000649215968487
0.000672773527619
0.000686098982585
0.000686944847729
0.000679088905218
0.000668577787383
0.000660635547197
0.000658762668248
0.000664130367664
0.000673381521012
0.000681160469863
0.00068079036005
0.000667540527741
0.000642440869288
0.000586435570011
0.000471214235864
0.000278453611115
0.000278877767165
0.000476747232704
0.000594479000426
0.000652910875866
0.000671610802946
0.000673087347379
0.000669090048946
0.00065919880012
0.000648590206919
0.000641096347497
0.000639451872976
0.000644624437129
0.000653908553564
0.000663329732061
0.000667254800371
0.000664284065445
0.000646336100389
0.000589253507166
0.000473045355336
0.000276399323094
0.000269766051789
0.000462090096754
0.000576014845914
0.000633485637243
0.000653176321836
0.000649534465281
0.000634731064864
0.000617850148652
0.000605558116445
0.0005977283224
0.000596169373843
0.000601737551208
0.000612427599554
0.000627438026065
0.00064206612929
0.000646091251587
0.000627360320915
0.000571244584619
0.000458854948348
0.000267683784948
0.000251208731484
0.000422110035511
0.00052422090235
0.000576409892477
0.000595112351991
0.000592568593976
0.000579341739733
0.000562385101052
0.00054733237216
0.000537920494938
0.000536153837684
0.000542975877239
0.000556391376739
0.000572675448141
0.000585875678415
0.000588734674469
0.000570936560696
0.000520022366328
0.000419357341631
0.000249567252598
0.000220317742421
0.000345106022915
0.000422425115534
0.000462718707825
0.000477568897539
0.000475949664783
0.000466165064004
0.000452686867569
0.000440171143952
0.000432101140856
0.000430538747265
0.000436447584785
0.000447664866528
0.000460677675782
0.000470573218118
0.000472379075621
0.000458375465034
0.00041913808335
0.000342993284314
0.000219206704497
0.000180036795751
0.000220153020963
0.000250984346683
0.000269605064546
0.000278811819006
0.000281112165513
0.000279335649236
0.000274743768024
0.000269331149301
0.000264832604943
0.000263430995713
0.000266821466209
0.000271854952464
0.000276438582871
0.000278481660658
0.000276447842429
0.00026780875216
0.000249733059845
0.000219347331516
0.00017957884508
0.000217697882888
0.000311872170197
0.000382076411759
0.000426161687274
0.000449876378039
0.000459043236791
0.000459059774077
0.000454057239261
0.000447956726478
0.000443586531069
0.000442471571599
0.000445245052021
0.000450443498022
0.000455183684366
0.000455369749124
0.000446640551994
0.000423651827247
0.000380365417159
0.000310786090549
0.000216861155808
0.000312436081773
0.000598016881089
0.00075850028007
0.000847775843914
0.000888651899754
0.000898463894597
0.000891040206222
0.000875923733276
0.000860723978003
0.000850785329058
0.000848952899485
0.000856113658392
0.00086954388014
0.000883862233119
0.000891141407001
0.000881470047106
0.000841333963034
0.000753262149929
0.00059439442653
0.000310109881439
0.00038280432857
0.000758271721005
0.000969565209547
0.00108956544372
0.00114783412036
0.00116568277664
0.0011604401813
0.0011444209628
0.00112678179226
0.00111476938649
0.00111242422415
0.00112081460236
0.00113624980796
0.00115145855449
0.00115654692234
0.00113906176576
0.00108167739024
0.000963038785824
0.000753621132976
0.000379541244689
0.000426830809917
0.000847386466461
0.00108933111506
0.00122991387988
0.00130257583011
0.00133075624913
0.00133443531256
0.00132443184372
0.00130824129006
0.00129626407712
0.00129353096951
0.00130126066232
0.0013151164414
0.00132521451156
0.00132070937895
0.00129314829953
0.00122136335758
0.00108207874784
0.000841989487653
0.000422919770617
0.000450464666451
0.000888267223126
0.00114744149283
0.00130229181067
0.00138778214837
0.00142791952254
0.0014323181231
0.00141957608325
0.00140207589442
0.00138915708486
0.00138589993653
0.00139367530058
0.00140820455036
0.00142029580358
0.00141666902348
0.00137905139584
0.00129354875947
0.00113974528942
0.000882230975688
0.000446031135962
0.00045963908575
0.000898284826005
0.0011652533717
0.00133021921617
0.00142773061852
0.00146719950383
0.00147020877405
0.00145428717035
0.00143374757512
0.0014187590644
0.00141480184212
0.00142349113207
0.00144034144267
0.00145549681915
0.0014538977566
0.00141680977449
0.00132134425839
0.00115728986873
0.000891742985722
0.000454807416274
0.000459720339733
0.000891139421991
0.00116017305936
0.00133381765587
0.00143241602362
0.00147068880575
0.00147046167722
0.00144956282703
0.00142405799549
0.0014057506859
0.00140097733339
0.00141166332614
0.00143264926743
0.0014526310346
0.0014548725756
0.00141998499679
0.00132584481704
0.00115197324733
0.000884166388533
0.000454615531723
0.000454967189153
0.000876649146266
0.00114492824788
0.00132512081646
0.00142115384718
0.00145662074155
0.00145170050491
0.00142426549841
0.00139223938024
0.00137050799219
0.0013650636144
0.00137762353624
0.00140419918332
0.0014304790422
0.00143778791337
0.00140625730156
0.00131418072603
0.00113587191591
0.000869167204904
0.000449677365726
0.000449401649042
0.00086260527746
0.00112883637015
0.00131100895535
0.00140631190903
0.00143936045122
0.00143001287241
0.0013963567923
0.00136061448898
0.00133529493977
0.0013289971754
0.00134440643441
0.00137371725036
0.00140575097005
0.00141770289582
0.00138905355482
0.00129819525219
0.00111886621316
0.000854525114041
0.000443945391561
0.000445831281223
0.000854197200299
0.00111887115518
0.00130166406599
0.00139670136012
0.00142843001525
0.00141647782382
0.00137961609506
0.00134094280183
0.00131248418793
0.00130551663309
0.0013234448137
0.00135607988406
0.00139040380674
0.0014050487999
0.00137799171855
0.00128777077461
0.00110827179239
0.000845637280861
0.000440203061115
0.000445724283453
0.00085408569409
0.00111879024703
0.0013016401913
0.00139675413553
0.00142857029364
0.00141670672242
0.00137992529905
0.0013413163108
0.0013128963751
0.00130594241887
0.00132385865163
0.00135645397903
0.00139071888372
0.00140528186641
0.0013781280933
0.00128780499613
0.00110821914018
0.000845515923749
0.000440042138222
0.000449095571555
0.000862255377245
0.00112856718589
0.00131089729882
0.00140641636705
0.00143970857751
0.00143060601758
0.00139717804858
0.00136160673627
0.00133640038863
0.00133014308028
0.0013455161165
0.00137470493245
0.0014065773786
0.00141830909937
0.00138940069875
0.00129827022753
0.00111871167294
0.000854194655616
0.00044353741093
0.000454489894393
0.000876025915266
0.00114440598812
0.00132482545277
0.00142118308721
0.00145700835056
0.00145245081149
0.00142535097209
0.00139360154827
0.00137206088487
0.00136668346452
0.00137917833571
0.00140555937511
0.00143158239721
0.00143856614654
0.00140666449139
0.00131419971771
0.00113557863201
0.000868639122965
0.000449100957302
0.000459141019172
0.000890255339285
0.00115937148277
0.00133325881443
0.00143225769292
0.00147093704247
0.00147113383566
0.00145064225652
0.00142547707722
0.00140739612735
0.00140270123299
0.00141329697331
0.00143405926209
0.00145372523161
0.00145558554506
0.00142027341799
0.00132564279767
0.00115148100464
0.000883446554223
0.00045395198584
0.000459032733146
0.000897196988159
0.00116420350538
0.00132945322572
0.00142734432061
0.00146721347314
0.0014706499514
0.00145514982459
0.00143497344194
0.00142022899288
0.0014163486608
0.00142492716592
0.00144152973168
0.00145635738959
0.00145437784355
0.00141687863532
0.00132099501042
0.00115657006604
0.000890836572129
0.000454124547327
0.000449891143564
0.000887042427444
0.00114620733103
0.00130131930218
0.00138718780365
0.00142771678156
0.00143252623555
0.00142016452521
0.0014029886038
0.00139028879044
0.00138709650719
0.00139476469454
0.00140906461374
0.00142086088317
0.001416868785
0.00137882783049
0.00129294192714
0.00113878144022
0.000881143626679
0.000445378990315
0.000426351567426
0.000846152929738
0.001088035044
0.00122882728835
0.00130183275315
0.00133040659895
0.00133450914825
0.00132480398737
0.00130886990054
0.00129706250111
0.00129437404848
0.0013020104472
0.00131567380102
0.00132554248595
0.00132067771749
0.00129271613097
0.00122053135309
0.00108094597955
0.000840818387953
0.000422361043459
0.000382454637786
0.000757161630902
0.00096835292854
0.00108848800482
0.00114702008663
0.0011651843808
0.00116025795089
0.00114451121192
0.00112707477961
0.00111518336959
0.00111286409647
0.00112118240719
0.00113645719208
0.00115144599833
0.00115624605683
0.00113842740998
0.00108072558699
0.000961882784726
0.000752502442517
0.000379118907088
0.000312246088567
0.000597204153345
0.000757553010583
0.000846865146133
0.000887871052396
0.000897853921867
0.000890601460593
0.000875633511205
0.000860528392301
0.000850629857564
0.000848793222932
0.000855915994619
0.000869258763388
0.000883456566308
0.000890585701257
0.000880737680669
0.000840440959042
0.000752289857145
0.000593517002212
0.000309854834268
0.000217670987146
0.000311577151019
0.000381610317745
0.00042559175627
0.000449235973831
0.000458357876264
0.000458347630179
0.00045332084528
0.000447176911532
0.000442755837645
0.000441598246774
0.000444359125666
0.000449560948903
0.000454320428316
0.000454543983103
0.00044587236586
0.000422966818107
0.000379794350928
0.000310393896954
0.000216783859015
0.000253602799166
0.000387175518351
0.000484975042965
0.000546321371822
0.000580429028152
0.000595695015123
0.000599584644124
0.000598053186891
0.000595521295471
0.000593877765833
0.000593052914176
0.000593203716686
0.000594527917758
0.000595360479026
0.000591359922184
0.00057644525772
0.000543072817436
0.000482689631599
0.000385741091952
0.000252413263908
0.000388231201586
0.000758196018301
0.000965647776709
0.00108356684779
0.00114160491367
0.00116090329617
0.00115820485404
0.00114593125239
0.00113310555777
0.00112479082467
0.00112267206334
0.00112741524221
0.00113771283323
0.00114869516576
0.00115111297034
0.00113207896852
0.00107485028983
0.000958337847655
0.000752904631038
0.000384411473905
0.000486352529925
0.000965510476552
0.00123265517148
0.00138771074083
0.00146916330967
0.00150210515081
0.0015057736657
0.00149476057794
0.00148056025682
0.00147074259188
0.00146806762846
0.00147333907189
0.00148403226857
0.00149366513498
0.00149009713648
0.00145764977749
0.00137714166996
0.00122348687683
0.00095852053405
0.000481003046978
0.000547781910844
0.00108351097324
0.00138774923747
0.00156893496394
0.00167150287747
0.00172252841166
0.00173866280229
0.00173282116957
0.00171927214324
0.00170808366593
0.00170457841707
0.00170985347608
0.00171958352384
0.00172427943309
0.00170954288949
0.00165873782141
0.00155717968922
0.00137717133676
0.00107500565076
0.000541329537783
0.000582045542848
0.00114193907388
0.00146935765668
0.00167147042211
0.00179569438487
0.00185719715025
0.00187643912035
0.00187065547338
0.0018554434421
0.00184251916738
0.00183818441366
0.00184364905797
0.00185364589635
0.00185768131955
0.00184004768522
0.00178106092152
0.001658721084
0.00145751053126
0.00113187796825
0.000574606744212
0.00059760704273
0.00116182344473
0.00150255505216
0.00172246256248
0.00185742628077
0.00192343545818
0.00194195767492
0.00193213467839
0.00191248176254
0.00189663180446
0.00189144587868
0.00189810046178
0.00191033071059
0.00191668933836
0.00190046720503
0.00183938750123
0.0017092109944
0.00148950249296
0.00115024809928
0.000589293819398
0.00060191403992
0.00115986448424
0.0015068373663
0.00173958094181
0.00187813246842
0.00194442678227
0.00195857568882
0.0019415332961
0.00191524538648
0.00189541542363
0.00188953193845
0.00189863068025
0.00191503884151
0.00192586413923
0.00191369603857
0.00185491526328
0.0017223671575
0.00149208438694
0.00114682906515
0.000592915597183
0.000600960848612
0.00114874013422
0.00149711399861
0.00173580008149
0.00187576067232
0.00193989629329
0.00194773646819
0.0019221667059
0.00188809698069
0.00186356993746
0.00185707912689
0.00186953249673
0.00189172387205
0.00190865685917
0.00190175171414
0.00184694560387
0.00171501809351
0.00148078361241
0.00113438022184
0.00059154295966
0.000599149136758
0.00113765316812
0.00148487684627
0.00172542190418
0.00186521140563
0.00192646853636
0.00192858342162
0.00189557483912
0.00185451465507
0.00182535099541
0.00181816365289
0.00183386926815
0.00186184422358
0.00188497123741
0.00188318259117
0.00183202590138
0.001701791914
0.00146816061994
0.00112213436699
0.000589515744025
0.000598260178122
0.00113137795029
0.00147732449952
0.00171789598643
0.00185714532739
0.00191655206228
0.00191537084697
0.001878172063
0.00183279074597
0.00180054705393
0.00179283509202
0.00181071566872
0.00184234757783
0.00186933564227
0.00187070523389
0.00182171253933
0.00169267773814
0.0014601292898
0.00111504643557
0.000588471714183
0.000598190770342
0.00113132814512
0.00147730645518
0.00171796119263
0.00185730985127
0.00191682205089
0.00191573761759
0.00187862353147
0.00183330948616
0.00180110380932
0.0017934018552
0.00181126928263
0.0018428777638
0.00186983208938
0.0018711421095
0.0018220443295
0.00169287652751
0.00146019164714
0.00111501578526
0.000588332399461
0.000598899477501
0.00113742127973
0.00148479034647
0.0017255690584
0.00186565840723
0.0019272447796
0.00192967593882
0.00189694576695
0.0018561029943
0.00182707088891
0.00181992299461
0.00183558316283
0.00186346365482
0.00188644961503
0.00188443780304
0.00183294931879
0.00170233000798
0.00146831650441
0.00112201932376
0.000589128680468
0.000600515623141
0.0011482182796
0.00149683790787
0.00173591184493
0.0018763816789
0.00194112171547
0.00194957586487
0.00192453532408
0.00189085218628
0.00186656807892
0.00186015813607
0.00187252446429
0.00189452193577
0.00191112242402
0.00190370923463
0.00184828390153
0.0017157417277
0.00148096689842
0.00113413280597
0.000590968012945
0.000601338022413
0.00115904107138
0.0015062943428
0.00173953140906
0.0018787241585
0.00194584940788
0.00196092414921
0.00194469841841
0.00191900468023
0.00189953618405
0.00189378825183
0.00190278421147
0.00191883472183
0.00192902454061
0.00191600076922
0.00185634232302
0.00172303499939
0.00149214370885
0.00114638800181
0.000592230021244
0.000596998780516
0.00116077544474
0.00150173847142
0.0017221602527
0.00185778510569
0.00192462184779
0.00194414874167
0.00193530137916
0.00191638519572
0.00190098257019
0.00189595114599
0.0019024493927
0.0019141898651
0.00191972549038
0.00190253091967
0.00184055556107
0.0017095772021
0.0014892841562
0.00114957040133
0.000588569770387
0.000581483281256
0.00114074977439
0.00146831776635
0.001670907879
0.00179576357632
0.00185797711266
0.00187801624297
0.00187306108153
0.00185853124054
0.00184603747787
0.00184184889805
0.00184714741251
0.00185667051715
0.00185998863477
0.0018415672962
0.00178181302654
0.00165876324821
0.00145693959484
0.00113094376329
0.000573904541195
0.00054732685783
0.00108227347444
0.00138657190026
0.00156813484562
0.00167126470189
0.00172296027953
0.00173973036781
0.00173453167022
0.00172152834513
0.00171069840565
0.00170730631046
0.00171242505011
0.0017217605836
0.001725895377
0.0017105076926
0.00165902268135
0.00155679725334
0.00137625493294
0.0010738638471
0.000540712533705
0.000486045440607
0.000964340053865
0.00123146187758
0.00138675843355
0.00146863402616
0.00150209415486
0.0015062890536
0.00149579111883
0.00148202973443
0.00147248137768
0.00146988101128
0.00147501930377
0.0014853650139
0.00149454493294
0.00149045307754
0.00145742887932
0.00137638213311
0.00122235374177
0.000957307212935
0.000480531747556
0.000388104264776
0.000757268079091
0.000964605274923
0.00108260852984
0.00114086357226
0.00116044747165
0.00115804738773
0.00114606111097
0.0011334516631
0.0011252573043
0.00112315941651
0.00112783084254
0.00113793623136
0.00114866294116
0.00115078583038
0.0011314243711
0.00107390567087
0.000957226825712
0.000751851255635
0.000384137038776
0.000253673401565
0.000386752734455
0.000484315556401
0.000545529591555
0.000579553108814
0.000594766919283
0.000598624125294
0.000597065017663
0.000594480705443
0.000592777508241
0.000591902499052
0.00059203166061
0.00059334723766
0.000594195272084
0.000590233222562
0.000575375810659
0.000542097438342
0.000481861764208
0.000385174893395
0.000252406022618
0.000288254452799
0.000463218534737
0.000586533926896
0.000663111210467
0.000707616877729
0.000730964301594
0.000742156960353
0.00074778331318
0.000751460406645
0.000753577252235
0.000753031056534
0.00074982474166
0.000744983925084
0.000738303859465
0.000726548411055
0.000703286488144
0.000659392194293
0.000583861659178
0.000461749852471
0.000286829308509
0.000464955300029
0.000923971864731
0.0011744530813
0.00131894705285
0.00139492509525
0.00142683334493
0.00143423091892
0.00143141021473
0.00142676715185
0.00142325458972
0.00142094471846
0.00142031717219
0.00142191893223
0.00142285890273
0.00141492363249
0.00138334353251
0.0013082884693
0.00116531898633
0.000917149093782
0.000459480447934
0.000588706569742
0.00117465451532
0.00148650618057
0.00166755606341
0.00176627423453
0.00181175784192
0.00182526604058
0.00182467454335
0.00181830919012
0.00181135101639
0.00180784687241
0.00180870916538
0.0018112873366
0.00180923950146
0.00179571407399
0.00175127633254
0.00165376075767
0.00147426178438
0.00116486259015
0.000581082686209
0.000665642073491
0.0013198935208
0.0016682421368
0.00187363074092
0.00199368282702
0.00205988273889
0.00208388774597
0.0020835302717
0.00207342587091
0.0020634327441
0.00205866263654
0.00206014757022
0.00206372014793
0.00206085545115
0.00203840030791
0.0019755855689
0.00185685127212
0.00165281305889
0.00130687830946
0.000656242204531
0.000710730483818
0.00139709893467
0.00176787004879
0.00199430993063
0.00213668582227
0.002211640996
0.00223797580022
0.00223467598833
0.00222004880569
0.00220672486541
0.00220082084852
0.00220311992942
0.00220779034484
0.00220464080225
0.00217930006009
0.00211096560724
0.0019743843138
0.00174890704206
0.00138040811927
0.000699609205603
0.000734819069069
0.00143045601039
0.00181432154134
0.00206150934787
0.00221399249662
0.0022920119137
0.00231436186782
0.00230393059046
0.00228277955219
0.00226567266445
0.0022589932414
0.00226290507285
0.00227018280071
0.00226897867198
0.00224429015167
0.00217546756961
0.00203465593346
0.00179138039404
0.00140989560816
0.000722104239213
0.0007468199405
0.00143934719993
0.00182902693474
0.00208849031378
0.00224696369342
0.00232255399995
0.00233673080893
0.002316326095
0.00228754836989
0.0022664444233
0.00225950472997
0.0022662483934
0.00227783944285
0.00228071651318
0.00225918372425
0.00219248357995
0.00205218940356
0.00180247570776
0.00141521434902
0.000732937870467
0.000753148115999
0.00143826175458
0.00183009174041
0.0020934991991
0.00225288742614
0.00232329007287
0.00232812312991
0.00229730419404
0.00226059474254
0.00223529019504
0.00222833368491
0.00223877864064
0.00225603405289
0.00226444453309
0.00224766068999
0.00218488564309
0.00204783696287
0.00180073041002
0.00141122789582
0.00073876033956
0.000757353703084
0.00143589044987
0.00182716000604
0.00208921163433
0.00224677952799
0.00231221736845
0.00230942287431
0.00227029290848
0.00222676589733
0.0021975278377
0.00219027945011
0.00220388562778
0.00222675724495
0.00224087471203
0.00222901327223
0.0021704301254
0.00203690339908
0.00179292615782
0.00140629674529
0.000742904145322
0.000759923918809
0.00143493029545
0.00182433861733
0.00208472379161
0.00224060402101
0.00230315594231
0.00229621678837
0.00225251460661
0.00220500587367
0.00217333289451
0.00216581011915
0.0021812916453
0.00220750413195
0.00222523367413
0.00221652715076
0.00216058157819
0.00202926026423
0.00178740294246
0.00140368085024
0.000745423178652
0.000759896842488
0.00143499062626
0.00182444929825
0.00208493995856
0.00224093771002
0.00230359758132
0.00229674260426
0.00225311211136
0.00220566252998
0.0021740249439
0.00216651234005
0.00218199645564
0.00220823323679
0.00222600958677
0.00221731556749
0.00216129206996
0.00202980167841
0.0017877354511
0.0014038194341
0.00074530909583
0.000757204102865
0.00143592550461
0.00182739747822
0.00208981832922
0.00224778400927
0.00231361747605
0.00231117067351
0.00227234914877
0.00222907330509
0.00219999140157
0.0021927947413
0.00220638925567
0.0022292765288
0.00224341344978
0.00223143956778
0.00217251080786
0.00203842827008
0.00179382217466
0.00140662107516
0.000742567723132
0.000752833901609
0.00143808256484
0.00183033604762
0.00209441178798
0.00225459228567
0.00232584356529
0.00233146576182
0.00230134121918
0.00226517251633
0.00224020717731
0.00223338001592
0.0022437832253
0.00226095687105
0.00226911588011
0.00225179388902
0.00218817969656
0.00205009121346
0.00180192904967
0.00141159233915
0.000738253575662
0.000746407404017
0.00143892370286
0.00182915332023
0.00208950099541
0.00224917166566
0.00232618445803
0.00234177912922
0.00232261904982
0.00229479961967
0.00227429789759
0.00226761595408
0.00227429755501
0.002285451522
0.00228748423657
0.00226470883306
0.00219648576211
0.00205468531563
0.00180365902331
0.00141544392761
0.000732329599607
0.000734426473615
0.00142988414979
0.00181420975188
0.00206227470413
0.00221608652029
0.0022959063703
0.00232018440821
0.00231149600906
0.00229167691132
0.00227539064328
0.00226902925412
0.00227274297076
0.0022792348628
0.00227662202545
0.00225006018847
0.00217924487531
0.00203674203926
0.00179225341818
0.00140984914381
0.00072146501858
0.000710436676019
0.00139645918872
0.00176752837055
0.00199467994659
0.0021381345752
0.00221469976463
0.00224301054896
0.00224154632178
0.00222827450276
0.00221578751603
0.00221021237755
0.00221227571395
0.00221604991437
0.00221125920852
0.00218390376503
0.00211371299636
0.00197568075475
0.00174919184477
0.00137999744679
0.000698997775029
0.000665489514551
0.00131921440827
0.00166769011733
0.00187358312384
0.00199443321113
0.00206169794965
0.00208705992993
0.00208812334389
0.00207912054976
0.00206982263614
0.00206531572266
0.00206658012996
0.0020693846994
0.0020652086196
0.00204127925596
0.00197714830813
0.00185732340068
0.0016524487624
0.00130611831455
0.000655727157862
0.000588716887276
0.00117396897561
0.00148580568253
0.00166712488592
0.00176639404217
0.00181262342612
0.00182699801517
0.00182734036287
0.00182169287226
0.00181520718639
0.00181186592693
0.00181254390494
0.00181458732804
0.00181167493965
0.00179716962795
0.0017517593358
0.00165341645734
0.00147339197292
0.00116389368514
0.000580749374889
0.000465136096281
0.000923355683682
0.00117370087157
0.00131823514842
0.00139443047194
0.00142670207699
0.00143455951325
0.00143223841275
0.00142799480418
0.00142472356448
0.00142246438918
0.00142171293247
0.00142295326706
0.00142339490763
0.00141492086222
0.00138281974224
0.00130738030062
0.00116425289797
0.000916220447847
0.000459395864935
0.000288539024751
0.000462828508743
0.000585883965666
0.000662285155297
0.00070666416433
0.000729933734186
0.000741097139806
0.000746717112051
0.000750355875548
0.000752411950785
0.000751800428434
0.000748547805711
0.00074365073447
0.000736931473508
0.000725177244225
0.000701965938426
0.000658206257877
0.000582886995836
0.000461120545803
0.000286972349258
0.000325136416695
0.000545838832012
0.000694475654946
0.000787913636378
0.000846524773723
0.000882445065282
0.000904904758977
0.000919980061515
0.000930391520109
0.000936076783033
0.000935758183111
0.000929499380046
0.000918312281208
0.000902134172853
0.000878731353207
0.00084265517164
0.00078454969656
0.000691719151062
0.000544536422079
0.000323667438997
0.000548247506372
0.00110810305192
0.00140203945263
0.00157587097792
0.00167481533427
0.0017260180866
0.00175095207554
0.00176321491957
0.00176967827862
0.0017719785823
0.00176934200396
0.00176241224413
0.00175280211451
0.00173875380591
0.00171327720786
0.00166252623296
0.00156456388932
0.00139209699754
0.00110027858885
0.000541356207312
0.000697442649823
0.00140286679339
0.00175629545317
0.00196129100586
0.0020767214171
0.00213512146787
0.00216369128854
0.0021729456791
0.00217203043369
0.00216789167711
0.00216328616318
0.00215919272238
0.00215390430349
0.00214234555219
0.00211454911615
0.00205859801578
0.00194500033246
0.00174171363249
0.00139060328279
0.000687867655917
0.000791829895457
0.00157830615107
0.00196294498976
0.00218449322592
0.00231840814807
0.00239201878194
0.00242204149521
0.00242540203264
0.002417266954
0.0024076581956
0.002401070095
0.00239854544265
0.0023961756245
0.00238600117922
0.00235637479227
0.00229003842402
0.00216183910443
0.00194257378808
0.00156087810719
0.00077970239543
0.000851319912007
0.00167937879169