/*--------------------------------*- C++ -*----------------------------------*\
| =========                 |                                                 |
| \\      /  F ield         | OpenFOAM: The Open Source CFD Toolbox           |
|  \\    /   O peration     | Version:  3.0.1                                 |
|   \\  /    A nd           | Web:      www.OpenFOAM.org                      |
|    \\/     M anipulation  |                                                 |
\*---------------------------------------------------------------------------*/
FoamFile
{
    version     2.0;
    format      ascii;
    class       surfaceVectorField;
    location    "9.7";
    object      Uf;
}
// * * * * * * * * * * * * * * * * * * * * * * * * * * * * * * * * * * * * * //

dimensions      [0 1 -1 0 0 0 0];

internalField   nonuniform List<vector> 
22672
(
(0.00213882335966 0.000585374716731 -0.00149256386712)
(0.000683959858702 0.00195364751553 -0.00148761378392)
(0.00137303710321 0.00128085859576 -0.00409248731494)
(0.00514362013735 0.000234252342318 -0.00156829769327)
(0.00339498736722 0.00162432149034 -0.00279464439568)
(0.00440497174882 0.00143162773735 -0.00462913595938)
(0.00802137878205 0.000119421658585 -0.00132993121259)
(0.00688225626974 0.00160943241073 -0.00307316110971)
(0.00753517484146 0.00164232186518 -0.00448721096155)
(0.0100862323191 0.000222321782246 -0.000907399049085)
(0.00952610326601 0.00185932012574 -0.00277250559177)
(0.00982994748823 0.00195387836609 -0.00392419517089)
(0.010947472106 0.000532170028104 -0.000460619684526)
(0.0111409414031 0.00236686039636 -0.00229077740706)
(0.0111653440364 0.00238160309782 -0.00322812301171)
(0.0105342255451 0.000874373328723 -0.000129560201896)
(0.0112226045502 0.00299900356282 -0.00179656641088)
(0.011101227976 0.00283538389187 -0.00258578045878)
(0.00920027220892 0.00118652435992 8.38093514089e-05)
(0.0103225991455 0.00347044852353 -0.00147434044357)
(0.0101499609553 0.0031510276445 -0.00213651836377)
(0.00702915236937 0.0014969255583 0.00024195400129)
(0.00845443785691 0.00393089779537 -0.00119667116724)
(0.0082872989277 0.00345631296127 -0.0017598000954)
(0.00427538556809 0.0017150082059 0.00031909655859)
(0.00584125840694 0.00429384313493 -0.00102471561007)
(0.00572282724561 0.00369218011179 -0.001540096995)
(0.00123765785951 0.00180052731029 0.000344003270964)
(0.00283150241671 0.00449772342316 -0.000954230148455)
(0.00278591413384 0.003821384891 -0.00146001486006)
(-0.00184098760793 0.00174454512075 0.000339208616009)
(-0.000318925671086 0.00451665807477 -0.000939517612077)
(-0.00028342695963 0.00383322377977 -0.00143803056115)
(-0.00471693239833 0.00155126284555 0.000284565048235)
(-0.00340829357595 0.00434666201222 -0.00097936066154)
(-0.00329942068907 0.00372482349419 -0.00147073451086)
(-0.00708648399984 0.0012546086866 0.000148916727951)
(-0.00618708108542 0.00400755627234 -0.00111959817996)
(-0.00602869691316 0.00350369190313 -0.00163802182548)
(-0.00867054309121 0.000925046174184 -6.50214386979e-05)
(-0.00829348411745 0.00355674009425 -0.00137426485682)
(-0.00812875228187 0.00320225904626 -0.00197269845086)
(-0.00931753631523 0.000598213582075 -0.000365511349686)
(-0.00944951179519 0.00306493247713 -0.00170446999112)
(-0.00933965683127 0.00286378043518 -0.00241795736162)
(-0.00881068104904 0.000304759984506 -0.000784718529622)
(-0.00965656023305 0.00249030063579 -0.00213692606558)
(-0.00968095006865 0.00246413439039 -0.0029971751304)
(-0.00708088664654 0.000183115697447 -0.00121971797774)
(-0.00840524414375 0.00196627931365 -0.00263641776374)
(-0.00871080465651 0.00202091038303 -0.003696094575)
(-0.00453995082784 0.000297012723664 -0.0014603123913)
(-0.00610142704194 0.00171962830929 -0.00294074938713)
(-0.00675303492992 0.00171446997762 -0.00426058758497)
(-0.00185704726345 0.000638351527294 -0.00139232267338)
(-0.00295310486647 0.0017300200713 -0.00267844712337)
(-0.00396499920341 0.00150001029822 -0.0044129514324)
(-0.000536759194117 0.0020379641125 -0.00139349718293)
(-0.00123545431141 0.00132651515845 -0.00389503207367)
(0.00182104000897 0.00310286989249 -0.00278969431247)
(0.000340126935962 0.00475464205265 -0.00156207610614)
(0.00154784217261 0.00411738352506 -0.00462205120382)
(0.00526371309401 0.00313016021739 -0.00429950781212)
(0.00343420705414 0.00485533908085 -0.00429824772526)
(0.00474817129032 0.00441822144763 -0.00667370893954)
(0.00851744730458 0.00349806199696 -0.00451573548888)
(0.00738035035172 0.00527070689465 -0.00490947802922)
(0.00792489610461 0.0049390795205 -0.00691502909146)
(0.0106903163993 0.00417423132784 -0.00415588394975)
(0.0102559734182 0.00603719334916 -0.00456033712658)
(0.0101544549697 0.00570646924096 -0.0063507643767)
(0.0114964794517 0.00502854615007 -0.00362672413342)
(0.0118342252339 0.00708916022213 -0.00391579185271)
(0.0112973272466 0.00664373204761 -0.00552848629513)
(0.0110207172379 0.0058105946852 -0.00314134665255)
(0.0118793828032 0.00818529177243 -0.00326850187567)
(0.0111919212466 0.00756203679895 -0.00471055003841)
(0.0095044951083 0.00644715611381 -0.00275482096222)
(0.0107929783934 0.00904693408552 -0.00278846794651)
(0.0101165200718 0.00827067725144 -0.00406028718129)
(0.00719756916913 0.00697647779003 -0.00246334077859)
(0.00874614670108 0.00978846171846 -0.00242174986932)
(0.00819790375574 0.00886426705657 -0.00355066065189)
(0.00436455070074 0.00733677720072 -0.00229804231711)
(0.00600308022859 0.0103525429883 -0.00219554701947)
(0.00565822010411 0.00930826110494 -0.00322570251235)
(0.00127413632737 0.00747873702609 -0.0022377510315)
(0.00290321619344 0.0106670428005 -0.00209823218075)
(0.00278063852488 0.0095569479719 -0.00307892454824)
(-0.00185862314964 0.00738108045707 -0.00225808688963)
(-0.000326875623252 0.0106998644623 -0.00207826456742)
(-0.000225488394134 0.009583864132 -0.0030504652035)
(-0.00481661261991 0.007055489134 -0.00238352388974)
(-0.00351276846962 0.010443618905 -0.00213517996624)
(-0.00318776180926 0.00938209656524 -0.00313898499558)
(-0.00731961043372 0.00654627326186 -0.00264277976473)
(-0.00642828188631 0.00991885418904 -0.00232359063588)
(-0.00589338875768 0.00896895617909 -0.0034083174787)
(-0.00907775347126 0.00591387668657 -0.00301371340924)
(-0.00871761693081 0.00919249444354 -0.00266520162193)
(-0.0080451799683 0.00838646743979 -0.00387762892951)
(-0.0098403806633 0.00515458772406 -0.00347588470701)
(-0.0100666120038 0.00833040352782 -0.00313323439611)
(-0.00938101769914 0.00767687658114 -0.00450286217925)
(-0.00935767722057 0.00432678372186 -0.0039886252997)
(-0.0103249298547 0.00728362960937 -0.0037419431322)
(-0.00977927932177 0.00679506516675 -0.00527605205283)
(-0.00753705431382 0.00365488063292 -0.00435744917313)
(-0.00909723529049 0.00623186754492 -0.00438543942633)
(-0.00896834436493 0.0058679410205 -0.00608623284475)
(-0.00463569521901 0.00328624531705 -0.00415888411921)
(-0.00657656522913 0.00546839424098 -0.00474331394253)
(-0.00708040911567 0.00510903294188 -0.00665014980449)
(-0.00152800447396 0.00324208457256 -0.00267962163293)
(-0.00297817789093 0.00504582880654 -0.00416027821506)
(-0.00424534549194 0.00458470097544 -0.00642352839163)
(-0.000187150228201 0.00491567602409 -0.00146602332095)
(-0.00137460968463 0.00424712318754 -0.00440573735744)
(0.00181246143248 0.00638450144617 -0.00307062951893)
(0.000228812028127 0.0074367910261 -0.00133099080094)
(0.00176923650006 0.00703397371385 -0.00449462661101)
(0.00568847534661 0.00686603469357 -0.00490821794236)
(0.00380726227786 0.00790313581423 -0.0045166427028)
(0.00528418619511 0.00738166779385 -0.00692382815496)
(0.00925440507573 0.00766397095505 -0.00495407966691)
(0.00818561417182 0.00863030465652 -0.00495830246931)
(0.00867843505006 0.00812061862964 -0.00692554717861)
(0.0115291659934 0.00877789349994 -0.00432024502954)
(0.011276559259 0.00973095185257 -0.00429418064451)
(0.0109345916995 0.0091684147281 -0.005968540969)
(0.0122869285122 0.0100324262714 -0.00355756959496)
(0.0128445138292 0.0110913929264 -0.0033318573287)
(0.0119716302225 0.0103926436998 -0.00476001834471)
(0.0116710041991 0.011166514896 -0.00291562316963)
(0.0127752295738 0.0124389881544 -0.00247406371106)
(0.0117376222742 0.0115759560505 -0.00363779599985)
(0.00996572955899 0.0120942182448 -0.00245539685361)
(0.0114713179101 0.0135343400241 -0.001868251996)
(0.0104848068759 0.0125369939746 -0.00278215505444)
(0.00748277475301 0.0128367738566 -0.0021539561102)
(0.0091945886469 0.0144529756182 -0.00146448022886)
(0.00841728191316 0.0133216476417 -0.00218158177942)
(0.00451118273701 0.0133329269994 -0.00199573688311)
(0.00625938318756 0.0151468230099 -0.0012447559925)
(0.00578017165448 0.0139051305551 -0.00182270903571)
(0.00130206526887 0.0135297110432 -0.00193874571667)
(0.00300486997689 0.0155363061207 -0.00116126215002)
(0.00283502606296 0.0142345333645 -0.00166016508213)
(-0.00195451857915 0.0134090060384 -0.00195535764403)
(-0.000368946273459 0.0155842135205 -0.00114016750739)
(-0.000235400524946 0.0142806749611 -0.00162778291675)
(-0.00506291949833 0.0129725224713 -0.00207524671238)
(-0.00372043513553 0.0152793604039 -0.00118163923182)
(-0.00327677614377 0.0140328854882 -0.00172735726623)
(-0.00775358081424 0.0122630193446 -0.00234601249307)
(-0.00684416265021 0.0146405900083 -0.00136323205857)
(-0.00609475170345 0.0135033775086 -0.00203109067443)
(-0.00970998933796 0.0113477710004 -0.0027847226088)
(-0.00937530203638 0.0137412143782 -0.0017418124903)
(-0.00840248794801 0.0127393741681 -0.00259232753358)
(-0.0106141411564 0.0102390710614 -0.0033992928213)
(-0.0109490748674 0.0126495483067 -0.00232708388632)
(-0.00991782903273 0.011784973317 -0.00341500963451)
(-0.0101797297062 0.00900688233365 -0.00413875725884)
(-0.011321690811 0.0113423289964 -0.00314777107266)
(-0.0104420189075 0.0106286163993 -0.0044931289406)
(-0.00825562622329 0.0078940169012 -0.00477130419573)
(-0.010101593634 0.00998331738382 -0.00409769777465)
(-0.00972476857139 0.00940893345146 -0.00567557389628)
(-0.00504654479264 0.0070932573443 -0.00474470803838)
(-0.00736679702725 0.00888396092618 -0.00476691146142)
(-0.00780433661573 0.00836701802229 -0.00662467235108)
(-0.00151346705127 0.00659233635618 -0.00294667990308)
(-0.00334104808083 0.00815100516682 -0.00435812973584)
(-0.00475337141124 0.00762585154158 -0.00663828287562)
(-7.10929360913e-05 0.00765256421548 -0.00122531050887)
(-0.00157770321483 0.00724589156234 -0.00425037603473)
(0.00206390089653 0.00883606277425 -0.00277700398481)
(0.000341965678834 0.00932177277327 -0.000910400089761)
(0.00208576764456 0.0091304916528 -0.00394889697137)
(0.00645887559704 0.00954239614954 -0.00456672722974)
(0.00448530149298 0.00988682468423 -0.00416339118549)
(0.00605628493327 0.00941406097991 -0.00637867904686)
(0.0103603029097 0.0105554236742 -0.0042984034469)
(0.00930393478622 0.0107175416843 -0.00433619853668)
(0.009732623336 0.0101848442872 -0.00598868217555)
(0.0127391411246 0.0118780620901 -0.00330579294367)
(0.0126025126923 0.0119223484518 -0.00331503344839)
(0.0120438362888 0.0112913860531 -0.00457025486436)
(0.013401193237 0.0133142944276 -0.00224835144481)
(0.0141679612844 0.0133676258159 -0.00201347866846)
(0.0129594771531 0.0125558555582 -0.0029383070599)
(0.0125731490313 0.0146203699653 -0.00142669253744)
(0.0139366337876 0.0147791246517 -0.000905365379087)
(0.0125199447853 0.0137694495112 -0.0015121155995)
(0.0106208894746 0.0157106270418 -0.000877335371249)
(0.0123844106884 0.0159518363519 -0.000115465428738)
(0.0110410237851 0.0147850405574 -0.000465260251923)
(0.00789895227623 0.016584114462 -0.000555280111168)
(0.00983045871402 0.0169458680079 0.000401908156321)
(0.00877395566178 0.015626674064 0.000229022243499)
(0.00472386968617 0.0171718468662 -0.000410281259408)
(0.00664123338772 0.0177064827052 0.000670471486442)
(0.00598465517551 0.0162621574609 0.000615402072309)
(0.00133457561125 0.0174114862548 -0.000362683940742)
(0.00315646716923 0.018143296579 0.000767798399303)
(0.00291941600172 0.0166312550108 0.000782284884002)
(-0.00210844564166 0.0172752060677 -0.000366449095182)
(-0.000442249909426 0.0182064140265 0.000794144369693)
(-0.00026413695706 0.0166941778869 0.000820803950344)
(-0.00543603484687 0.0167677550804 -0.000469624578013)
(-0.00404176392039 0.0178799633161 0.000748089505714)
(-0.00344067464008 0.0164359942299 0.000726970998133)
(-0.00838375019567 0.0159367334966 -0.000759032055798)
(-0.00744497171133 0.0171885981384 0.00052195639986)
(-0.00643259980744 0.015872598996 0.000399692963482)
(-0.0106002891948 0.0148581411638 -0.00128417376783)
(-0.0102734361565 0.0162125013251 2.92475818139e-05)
(-0.00895539499826 0.0150561105529 -0.000254761673718)
(-0.0117180698072 0.0135704420889 -0.00207556213768)
(-0.012106601422 0.0150344392225 -0.000741843029582)
(-0.0107032934965 0.0140408868914 -0.0012671242805)
(-0.0113777667194 0.0121517522559 -0.00310671158847)
(-0.0126390827954 0.0136524518316 -0.00181340787747)
(-0.0114267604394 0.0128407759257 -0.00265044134644)
(-0.00934717453795 0.0108287260365 -0.00409330504034)
(-0.0114202066169 0.0122035823683 -0.00309520130318)
(-0.0108222347108 0.011575511225 -0.00425087541268)
(-0.00580456669789 0.00981254893797 -0.00438033315888)
(-0.00847581458029 0.0109956182424 -0.004119995662)
(-0.00883973539952 0.0104721706643 -0.00565428760985)
(-0.00175737286178 0.00908734849247 -0.00263676034163)
(-0.00401278960533 0.0101605452886 -0.00398145445776)
(-0.00550853538252 0.00970244650391 -0.00605676136609)
(-0.000179985244913 0.00956506789952 -0.000788767697325)
(-0.00187967052529 0.0093939635541 -0.00366989636082)
(0.00258143301656 0.0102674941108 -0.00229678729044)
(0.000649183499629 0.0100117009447 -0.000481349723014)
(0.0025251538761 0.0102761815812 -0.00327137342363)
(0.00751481792225 0.0109405976307 -0.00393286249242)
(0.00533109406724 0.0105330669491 -0.0036504681535)
(0.00699516792994 0.0103826396369 -0.0055796404843)
(0.0117231729282 0.011943924548 -0.00335282853817)
(0.0105512898358 0.0113150719981 -0.00359287952656)
(0.0109598950793 0.0110543718193 -0.00480590133135)
(0.0141862338666 0.0132621569527 -0.00202271917318)
(0.0140289582394 0.012422940341 -0.00227790885725)
(0.0133084337062 0.0120425420537 -0.00296367164804)
(0.0147471860764 0.0146944484899 -0.000670492602734)
(0.0155949876897 0.0137636054665 -0.00068174591423)
(0.0141099992133 0.0131929837278 -0.000956953407105)
(0.0137100471682 0.0159938183199 0.00040586172961)
(0.0151739687717 0.0150560708057 0.000674173412434)
(0.0134796009285 0.0143239006471 0.000760169228288)
(0.0114960500171 0.0170872435896 0.00116377809883)
(0.013378257175 0.0161569449821 0.00165651377871)
(0.0117947416504 0.0152932990049 0.00200886424233)
(0.00849649431271 0.0179792012761 0.00162765975393)
(0.0105471916826 0.017108977975 0.00231435880771)
(0.00931589405576 0.0161169581473 0.00283642208813)
(0.00504578169566 0.0185959070341 0.00184855114515)
(0.00708616329759 0.0178590689448 0.00266316292014)
(0.0063258896368 0.0167580925357 0.00329810452248)
(0.00138044244327 0.0188592145517 0.00192462670974)
(0.00333836895105 0.0183074364897 0.00279728371731)
(0.00306427000941 0.017145067975 0.00350117990787)
(-0.00234951870421 0.0187291523396 0.00190868297059)
(-0.000527583950462 0.0183848769326 0.00283521478868)
(-0.000322873750802 0.0172255238308 0.0035514812617)
(-0.00597980976492 0.0182116697722 0.00173967048359)
(-0.00441630501534 0.0180698797352 0.00277130296063)
(-0.00372021803771 0.0169790765098 0.00344035980841)
(-0.00923542177637 0.0173649315181 0.00131023603747)
(-0.00812956599469 0.0174008785701 0.00246993040972)
(-0.00694935083598 0.0164260773045 0.00304331851439)
(-0.0117345773089 0.0162738175782 0.000571578320057)
(-0.0112651224654 0.0164637366358 0.0018290081704)
(-0.00971476146181 0.0156263293439 0.00224790839993)
(-0.0130666930891 0.0149812871937 -0.000479688769371)
(-0.0133549741811 0.01534474299 0.000852627334551)
(-0.0116819909218 0.0146437332975 0.00102180046987)
(-0.0128244911047 0.0135563943777 -0.00180189759218)
(-0.0140679685955 0.0140629925937 -0.000465690738381)
(-0.01258872431 0.0135110996085 -0.000652755539792)
(-0.0107060980595 0.0122299682722 -0.00312189192484)
(-0.0128509108517 0.0127062734584 -0.00203938830966)
(-0.0120873560865 0.0123445391473 -0.00262109992571)
(-0.00685595466743 0.0112207622991 -0.00372111696088)
(-0.0097200051671 0.0115886032205 -0.00335811209238)
(-0.010060055551 0.0113530811175 -0.00444314874363)
(-0.0022721221443 0.0105293531149 -0.00213346181345)
(-0.00485547007198 0.0107980829784 -0.00344980033937)
(-0.00643990127123 0.0106822676745 -0.00522139578606)
(-0.00048132049683 0.0102448384449 -0.000347239039525)
(-0.0023116076987 0.010556291375 -0.00295191118137)
(0.00319347005355 0.0102107939316 -0.00183503058607)
(0.000988077236546 0.00949123728533 -0.000167793195237)
(0.00296105084097 0.0100771278001 -0.00267301640061)
(0.00859172930981 0.010842057617 -0.00331048518763)
(0.00610457640078 0.00993014534807 -0.00318207934205)
(0.00790108217719 0.0101384780352 -0.00479534871906)
(0.0130515116427 0.0117287246701 -0.00251795984565)
(0.0116735404264 0.0105666922039 -0.00296792973965)
(0.0121311634577 0.0106811725193 -0.00371141680063)
(0.0155787295236 0.0128821423917 -0.000936935598302)
(0.0153185190103 0.0114561193257 -0.00147292718693)
(0.0145070527605 0.0114622080966 -0.00156041477749)
(0.0160249636978 0.014121552795 0.000662920100937)
(0.016882616585 0.0125779367935 0.000378713059446)
(0.0152275473621 0.0124174787063 0.000739412833006)
(0.0147763202734 0.0152464205291 0.00192482546153)
(0.0162899866599 0.0136482581211 0.00192297358259)
(0.0144212352962 0.0133670608327 0.00265643142755)
(0.0123149992256 0.0162260957507 0.00280709448758)
(0.0142887453252 0.0145817290579 0.0030373467393)
(0.0125504257629 0.0142126981376 0.00403651069066)
(0.00905720997347 0.0170502914777 0.00334986197392)
(0.0112149368654 0.0154161400878 0.00379379804429)
(0.00987640098863 0.0149580583638 0.00495060097941)
(0.0053506408975 0.0176400279082 0.0036118954923)
(0.00750753796209 0.0160995098611 0.00420394152305)
(0.00668878900232 0.0155613327754 0.00546610367962)
(0.0014299869914 0.0179052855472 0.00370787179626)
(0.00351853079565 0.0165282329304 0.00437646930177)
(0.00322532353136 0.0159438857353 0.00569983563776)
(-0.00256894402409 0.0177939148681 0.00369783477872)
(-0.000597710686496 0.016614891604 0.00443009432231)
(-0.000375403278466 0.0160380267541 0.00576889746938)
(-0.00648918020493 0.0173177809609 0.00350156288677)
(-0.00475804001191 0.0163318800273 0.00434996606076)
(-0.00400456990868 0.0158192301442 0.00565821989335)
(-0.0100432754227 0.0165432144705 0.00298870254266)
(-0.00876330483585 0.0157379825273 0.00399176749064)
(-0.00748022139271 0.0153194974153 0.00521697795333)
(-0.0128150891782 0.0155575757203 0.0021100571849)
(-0.0121829899036 0.014917357351 0.00324059653029)
(-0.010485838868 0.0145982355615 0.00431818194645)
(-0.0143606446441 0.0144203849244 0.000866625365542)
(-0.0144976062961 0.0139552237702 0.00211569998779)
(-0.01265872573 0.0137251679447 0.00293506470748)
(-0.0142264562375 0.0131709439025 -0.000703181455864)
(-0.0153712834202 0.0128770986632 0.000607636664713)
(-0.0137323331292 0.0127514345358 0.00105169478059)
(-0.0120375271321 0.0119999680623 -0.00227560847719)
(-0.0141585371665 0.0117260551548 -0.00122699581726)
(-0.0133051496791 0.011761219433 -0.00120872448431)
(-0.00792971600132 0.0110997311375 -0.00308679547086)
(-0.0108469215579 0.0108165876191 -0.00272587189215)
(-0.011235372652 0.0109648638735 -0.00333581392035)
(-0.0028777379652 0.0104472829197 -0.00166357756545)
(-0.00563012818274 0.0101630082993 -0.00297228166835)
(-0.00734331230627 0.0104165788459 -0.00441692699531)
(-0.000818053550564 0.0096986724611 -2.87030973652e-05)
(-0.00273934867799 0.0103373285834 -0.00233158909908)
(0.00367381845851 0.00920244410896 -0.00151484195122)
(0.00130599567484 0.00805415173592 4.12542569193e-05)
(0.00328787549065 0.00901665238001 -0.00223674029857)
(0.00945261357057 0.00964196598096 -0.00283952389406)
(0.00673765201887 0.00831496450477 -0.00280771310884)
(0.00860981355118 0.00895297858683 -0.00416362270199)
(0.0141388045589 0.0103017216288 -0.00192289708093)
(0.0125895159366 0.00875343719371 -0.00251992018546)
(0.0130828103718 0.00931204944932 -0.00287294819665)
(0.0167400016376 0.0111939219331 -0.000157278529183)
(0.0163886128706 0.00938388469141 -0.000938650075447)
(0.015504971578 0.00985554238189 -0.000528979319512)
(0.0171173469974 0.0121740069385 0.0016387665411)
(0.0179570657681 0.0102260490604 0.00112112774796)
(0.0161782345966 0.0105893963088 0.00197452049877)
(0.0157129970754 0.0130758311062 0.00303549486036)
(0.0172524286448 0.0110281403627 0.00279308763349)
(0.0152544082948 0.0113332947028 0.00402444150526)
(0.0130556547285 0.0138872078187 0.00402405029601)
(0.0151006733181 0.0117425692405 0.00401176485342)
(0.013247184839 0.0120193145347 0.00549647325513)
(0.00957599689574 0.0146002311276 0.00464787759342)
(0.0118324970842 0.0124045766059 0.00487033504337)
(0.0104128967518 0.0126490172965 0.00649119170699)
(0.0056455617295 0.0151257300405 0.00496851533251)
(0.00789156069997 0.0129563462215 0.00539053190786)
(0.00705160720095 0.01319036147 0.00707357046137)
(0.00148943258216 0.0153678114162 0.00509869182782)
(0.00368380142358 0.0133232335671 0.00551551596288)
(0.00339826511176 0.0135451740937 0.00736110280161)
(-0.0027630398575 0.015287760384 0.00508222560435)
(-0.000650311323568 0.0134115930595 0.0055533812687)
(-0.000413446679689 0.0136440454292 0.00745574858952)
(-0.00694362328095 0.01488488684 0.00484017066463)
(-0.0050476168044 0.0131803584099 0.00557719996106)
(-0.00426563363864 0.0134636073983 0.00733208626977)
(-0.0107669682473 0.0142241099944 0.00424366147828)
(-0.00933651214077 0.0127183817633 0.00512023244114)
(-0.00797012502059 0.0130323425138 0.00684293070425)
(-0.0137718941655 0.0134024993558 0.00324623933319)
(-0.0130010112267 0.012071324836 0.00425574578132)
(-0.0111949098206 0.0124274040655 0.00585094682569)
(-0.0154853131542 0.0124761382441 0.00185671128696)
(-0.015494347798 0.0113263737593 0.00301146623976)
(-0.013539143388 0.0117074720057 0.00434225953553)
(-0.0154173002564 0.0114709850879 8.38223033195e-05)
(-0.0164784495878 0.0105062001061 0.00136721695797)
(-0.0147312915473 0.0109238396092 0.00230287606899)
(-0.0131424517158 0.0105494097783 -0.00167725923221)
(-0.015259813502 0.00962506862343 -0.000682776250196)
(-0.0143408226513 0.0101404490191 -0.000173874266775)
(-0.00879865379434 0.00986714970795 -0.00261135808964)
(-0.0117802772206 0.00896709955935 -0.00227563630854)
(-0.0122053695953 0.00956714903326 -0.00249432671616)
(-0.00336306116895 0.0094048601525 -0.00133740720027)
(-0.00627240959976 0.00850512437333 -0.00259330345025)
(-0.00806102435225 0.00919442699482 -0.00377773068697)
(-0.00114266480126 0.00822171355152 0.000182089113979)
(-0.00306974218524 0.00924192950783 -0.00188611823931)
(0.00412705281839 0.00724036389822 -0.0012516169007)
(0.00160600806578 0.00581246318326 0.000186675221325)
(0.00358940510561 0.00706367548444 -0.00188536837239)
(0.0101808726504 0.00749714131034 -0.00248810940023)
(0.00725252723866 0.00593900152944 -0.00253605900868)
(0.0091924734658 0.0069452226395 -0.00367786195622)
(0.0150347739456 0.0079169256665 -0.00153567317997)
(0.0133039815264 0.00619377485169 -0.002236374087)
(0.013843294374 0.00714697443483 -0.0022942483891)
(0.0177044679522 0.00851599374506 0.000339756201701)
(0.0172222756962 0.00657426907624 -0.000640551059319)
(0.0163089825882 0.00747710849151 0.000139906504297)
(0.0180387843141 0.00919668437145 0.00227544884036)
(0.0188041888624 0.00712022730714 0.00155465416693)
(0.0169581100445 0.00797891785404 0.00277148398714)
(0.0165267976077 0.00982999472076 0.00376935762655)
(0.0180295490721 0.00764002656029 0.00330169951829)
(0.0159578945119 0.00850076414228 0.0049000733804)
(0.0137215180133 0.0104183446848 0.00485804960078)
(0.0157812898079 0.00810690079469 0.00459309170686)
(0.0138568165949 0.00899358498758 0.00644091681233)
(0.0100519967356 0.0109219370443 0.00561298935782)
(0.0123344720505 0.00854946949141 0.00557929495275)
(0.0109075063764 0.00947047976885 0.00752459534418)
(0.00588005628564 0.0113095588226 0.00593753253822)
(0.00822398875096 0.00889138530386 0.00591517331869)
(0.00738423743654 0.00987342275031 0.00823686882138)
(0.00153541773939 0.0115293928642 0.00597020540375)
(0.00380866989065 0.00914938912226 0.00592609284979)
(0.00355776013538 0.0101777048112 0.0085184527464)
(-0.00289529564598 0.0114596299667 0.00604835562541)
(-0.00069886090872 0.00922297107227 0.00595370796826)
(-0.000439721098144 0.0102726833021 0.00861930861165)
(-0.00734388197705 0.0111732526252 0.00585726173757)
(-0.00530876438511 0.00905708194998 0.00607361868232)
(-0.00448648243113 0.0101149957528 0.00857184033667)
(-0.0114097034218 0.0107254460315 0.00513231674419)
(-0.00979532502496 0.00880153260556 0.00586066057146)
(-0.00840874220897 0.00981532146473 0.00798265298329)
(-0.014605467176 0.010130388884 0.0040209726879)
(-0.0136827348396 0.00837541766578 0.00488971462208)
(-0.0118111407559 0.00936183341985 0.00689165790794)
(-0.0164457963913 0.00947063111822 0.00252197191077)
(-0.0163045539715 0.00788285187689 0.00355806702974)
(-0.0142902103032 0.00883914207523 0.00528384118755)
(-0.0164212947093 0.0087574570412 0.000600618404458)
(-0.0173627918919 0.00734467666545 0.00182918706714)
(-0.0155676119812 0.00827810268887 0.0031370123516)
(-0.0140688139581 0.00812296346111 -0.00128115332652)
(-0.0161304666155 0.00676012108513 -0.000367776780394)
(-0.0151950577606 0.0077242918888 0.000512455109706)
(-0.0095451281958 0.00767645831297 -0.00225758166914)
(-0.0125216293758 0.00635449110047 -0.00198989114384)
(-0.0129992535954 0.00735702313964 -0.00191109330661)
(-0.00382640384677 0.00739668504784 -0.001073807136)
(-0.00680154215134 0.00607686838163 -0.0023198781497)
(-0.0086631701291 0.00713503005784 -0.00329048927666)
(-0.00145239005699 0.0059332018421 0.000324784063775)
(-0.00338015203643 0.00723864120033 -0.00153790742134)
(0.00447308340829 0.00457731262803 -0.00109776688665)
(0.00180783514241 0.0030332893741 0.000251570527258)
(0.0038135899011 0.00445477404542 -0.00169390970923)
(0.0107151980662 0.00470165804355 -0.00228432369545)
(0.00758966464866 0.00308212446677 -0.00239352419398)
(0.00961218592672 0.00436018932286 -0.00338523858287)
(0.0156840092668 0.00492086907961 -0.00134125196635)
(0.0137578404692 0.00319372341982 -0.0021004362828)
(0.0143831519258 0.00445534445046 -0.00196876548582)
(0.0184084800095 0.00525289051907 0.000574346905912)
(0.0177526604954 0.00336445766177 -0.000524345742221)
(0.0168830222861 0.00462255471813 0.000485328446418)
(0.0187248760226 0.00564215829398 0.00258090484487)
(0.0193512993523 0.00362587136074 0.00173518503693)
(0.0175241592676 0.0049078898833 0.00317794023904)
(0.0171507535038 0.00600449460372 0.00412543359861)
(0.0185414418368 0.00387330972461 0.00351135707002)
(0.016480613505 0.00520971764076 0.00534081255341)
(0.0142381768719 0.00633585514262 0.00531433705883)
(0.0162412377644 0.00409690490302 0.00484489528295)
(0.0143322214849 0.00550010235739 0.00692254020063)
(0.0103788043636 0.00664997575544 0.00588147891362)
(0.0126537723125 0.00429098317469 0.00589319449706)
(0.0112821584958 0.00578000637219 0.00811782341105)
(0.00607132748082 0.00690927679306 0.00590373363026)
(0.00845757368061 0.00448146720474 0.00587856755692)
(0.0076668351136 0.006056382326 0.008717359072)
(0.00155690703985 0.00704088966934 0.0059095954143)
(0.00388964283125 0.00461980271879 0.00588005879753)
(0.00367715030289 0.00625190036066 0.00904397269722)
(-0.003050636411 0.0070057064514 0.00597897102517)
(-0.000753007827521 0.0046562730279 0.00592885245244)
(-0.000468055093739 0.00631358823967 0.00917421081876)
(-0.00763039601737 0.00682036498859 0.00607701751621)
(-0.00552336262989 0.00456345267787 0.00599656783809)
(-0.00469086432045 0.00622299629874 0.00907336298162)
(-0.0119027643729 0.00655099109914 0.00561805844935)
(-0.0101324198193 0.0044200981773 0.00606109058844)
(-0.00873554953562 0.00602117112354 0.00865378256214)
(-0.0152445430649 0.0062192538562 0.00442680896392)
(-0.0141342735586 0.00425216124403 0.00518892284765)
(-0.0122890110612 0.00575763508929 0.00746502038164)
(-0.017165900617 0.00583619249021 0.00286528218611)
(-0.0168421689694 0.00400897474447 0.00380233048231)
(-0.0148510192513 0.00544592220402 0.00579522371558)
(-0.0171633509297 0.00542086691501 0.00086079188229)
(-0.0179383607291 0.00375026287901 0.00203715916863)
(-0.0161828282167 0.00511713132871 0.00359185411449)
(-0.0147521885289 0.00506046754124 -0.00107651459771)
(-0.0166906265366 0.00346610284712 -0.00023698975036)
(-0.0158161123045 0.00479285898596 0.000882843950643)
(-0.01010225648 0.00482047402701 -0.0020521876244)
(-0.0130000961207 0.0032819037568 -0.0018511082408)
(-0.0135741779484 0.00459691474772 -0.00157736059445)
(-0.00418566006389 0.00467947841514 -0.000921286949927)
(-0.00715129541796 0.00315793946253 -0.00217666104064)
(-0.00910559311037 0.00448493051826 -0.00299768808111)
(-0.00166322243189 0.00310044440036 0.000387659852076)
(-0.00361650098886 0.00456857440831 -0.00135291774639)
(0.00465570058745 0.00156965086405 -0.00104418678007)
(0.00187646899726 1.67925992889e-05 0.000265541814176)
(0.00392850180269 0.00152564355137 -0.00163919952027)
(0.0109923843893 0.00160392712781 -0.00220963678133)
(0.00770519693414 1.60603045121e-05 -0.00235434536701)
(0.00982955414303 0.00148910638883 -0.0032706160486)
(0.0160186989601 0.00166623985017 -0.00128353005867)
(0.0139091561816 1.0673503342e-05 -0.00206582529774)
(0.014659310751 0.00151238169377 -0.00184326595094)
(0.0187740300605 0.00176527017237 0.000636492388801)
(0.0179306261728 3.06087808777e-06 -0.000503290361902)
(0.0171786274887 0.00155688040755 0.000606057353558)
(0.0190882876309 0.00188461528821 0.00266563726209)
(0.0195362373204 -6.26075726638e-06 0.00177313676241)
(0.0178190105817 0.00164307695173 0.00331785790152)
(0.0174890157538 0.00199527566267 0.00423081875437)
(0.0187162581238 -1.51999535533e-05 0.00355360842202)