/*--------------------------------*- C++ -*----------------------------------*\
| =========                 |                                                 |
| \\      /  F ield         | OpenFOAM: The Open Source CFD Toolbox           |
|  \\    /   O peration     | Version:  3.0.1                                 |
|   \\  /    A nd           | Web:      www.OpenFOAM.org                      |
|    \\/     M anipulation  |                                                 |
\*---------------------------------------------------------------------------*/
FoamFile
{
    version     2.0;
    format      ascii;
    class       surfaceVectorField;
    location    "9.7";
    object      Uf_0;
}
// * * * * * * * * * * * * * * * * * * * * * * * * * * * * * * * * * * * * * //

dimensions      [0 1 -1 0 0 0 0];

internalField   nonuniform List<vector> 
22672
(
(0.00213491817662 0.00058325765932 -0.00149026378655)
(0.000681506228641 0.00195037575031 -0.00148535024214)
(0.00137090399303 0.00127900740755 -0.00408531105864)
(0.00513646573977 0.000231559818287 -0.00156589000178)
(0.00338840487442 0.00161999155908 -0.00279199416326)
(0.00439857801756 0.00142899328381 -0.00462155733117)
(0.00801241904839 0.000116748957803 -0.00132790193812)
(0.00687373426013 0.00160495031703 -0.00307098293409)
(0.00752726770313 0.00163930295081 -0.00448092412415)
(0.0100765077007 0.000220097265406 -0.000906151442802)
(0.0095167819019 0.00185551144788 -0.00277114798108)
(0.009821903863 0.00195119300765 -0.00391962219789)
(0.0109378000922 0.000530634916967 -0.000460401835002)
(0.011131302838 0.00236429959449 -0.00229067110163)
(0.0111578162725 0.0023796576529 -0.00322561537765)
(0.010525017236 0.000873536400493 -0.000130142357923)
(0.0112137352893 0.00299797864161 -0.0017977834374)
(0.0110945717755 0.00283449815693 -0.00258521976747)
(0.00919147286076 0.00118629624586 8.26628075284e-05)
(0.0103140409463 0.00347093605133 -0.00147635466474)
(0.0101438197781 0.00315103472928 -0.00213741533298)
(0.007020918946 0.00149712776329 0.000240209015062)
(0.00844617165671 0.00393265734358 -0.00119960458349)
(0.00828127319203 0.00345721304704 -0.00176212600861)
(0.00426822075744 0.00171536140979 0.000316902082772)
(0.00583366516517 0.00429630888992 -0.00102847802759)
(0.0057168501422 0.00369363946194 -0.00154363177309)
(0.00123198606205 0.00180085974239 0.000341609999197)
(0.00282503535881 0.00450040603188 -0.00095846268959)
(0.00278010585113 0.00382307025179 -0.0014641908747)
(-0.00184490356625 0.00174474761539 0.000336853863356)
(-0.000323994334662 0.00451925480284 -0.00094386368003)
(-0.000288912663239 0.00383486924252 -0.00144238351528)
(-0.00471899676354 0.00155119251191 0.000282505228229)
(-0.00341173689075 0.00434889416276 -0.000983465281389)
(-0.00330424668304 0.0037261761198 -0.00147481864157)
(-0.00708677128145 0.00125407250463 0.000147365232077)
(-0.00618883106491 0.00400899344204 -0.001123069557)
(-0.00603247580921 0.00350444609847 -0.0016412364649)
(-0.00866906687724 0.000924080691146 -6.58122735588e-05)
(-0.00829357456969 0.00355690585599 -0.00137686784939)
(-0.00813108776147 0.0032021483444 -0.00197462808915)
(-0.00931470018758 0.000596405614092 -0.000365763098881)
(-0.00944793031289 0.00306382135535 -0.00170599148039)
(-0.00934011396144 0.00286292202195 -0.00241820652935)
(-0.0088059804383 0.000302148274242 -0.000784168358894)
(-0.00965310292837 0.00248720006386 -0.00213779283967)
(-0.00967947413178 0.00246187007365 -0.00299593942581)
(-0.00707550757924 0.000180245672888 -0.00121813136325)
(-0.0084002214326 0.00196214219648 -0.00263567919038)
(-0.00870702300887 0.00201803573288 -0.00369263632729)
(-0.00453505520522 0.000294116858913 -0.0014583127401)
(-0.00609593559896 0.00171481028697 -0.00293912458693)
(-0.00674812001394 0.00171123140022 -0.00425528659461)
(-0.00185415222838 0.000636067226184 -0.00139037494291)
(-0.00294819888872 0.00172534568526 -0.00267625248592)
(-0.00396024112509 0.00149713255962 -0.00440627704345)
(-0.000534839933256 0.00203443633792 -0.00139154843557)
(-0.00123378195802 0.00132452929428 -0.0038886096695)
(0.00181596095723 0.00309736293108 -0.00278708061885)
(0.000337048549424 0.00474892756746 -0.00155975630254)
(0.00154473544196 0.00411202861083 -0.00461452992458)
(0.00525564023604 0.00312398606768 -0.00429708709557)
(0.00342685912936 0.00484888867158 -0.00429585092801)
(0.0047411583966 0.00441256039989 -0.00666859505883)
(0.00850829965313 0.00349241922511 -0.00451422897705)
(0.00737196869915 0.00526461595373 -0.00490830884284)
(0.00791706511113 0.00493357111153 -0.00691234591055)
(0.0106810846432 0.0041701721183 -0.00415566763991)
(0.0102475832026 0.0060329320244 -0.00456033128566)
(0.0101468656221 0.00570212008158 -0.0063502280736)
(0.0114877484176 0.00502673098451 -0.00362805270403)
(0.0118261858773 0.00708777139289 -0.00391722642558)
(0.0112904439515 0.00664149129508 -0.00553015941282)
(0.0110126086316 0.00581126860052 -0.00314399574421)
(0.0118722713599 0.00818732706335 -0.00327130307056)
(0.0111860166627 0.00756242944708 -0.00471423307292)
(0.00949664348169 0.00645012112047 -0.00275862205575)
(0.0107859966912 0.00905241899139 -0.00279217684007)
(0.0101109361423 0.00827373904126 -0.00406554190711)
(0.00719004024217 0.00698108679866 -0.00246829162614)
(0.00873912421507 0.00979672290761 -0.00242650730239)
(0.00819226272536 0.00886956321832 -0.00355748534145)
(0.00435769938911 0.00734221697977 -0.00230384279995)
(0.00599624986214 0.0103625027189 -0.00220128000598)
(0.00565242790416 0.0093149808521 -0.00323387444358)
(0.00126830116455 0.00748434392444 -0.00224393636882)
(0.00289690648051 0.0106776752716 -0.00210454411542)
(0.0027748088211 0.00956425255843 -0.00308789090256)
(-0.00186318383659 0.00738633734107 -0.00226418282478)
(-0.000332398170235 0.0107103469071 -0.00208471690272)
(-0.000231164987536 0.00959105980343 -0.00305962574935)
(-0.00481974354525 0.00705978845875 -0.00238904006662)
(-0.00351725558753 0.0104531707314 -0.00214132862633)
(-0.00319297111201 0.00938852149927 -0.00314773479633)
(-0.0073212730265 0.00654887437408 -0.00264730263846)
(-0.00643155925301 0.00992653054522 -0.00232899094942)
(-0.0058977802 0.00897384442677 -0.00341602536378)
(-0.00907785623797 0.00591425718457 -0.00301704705622)
(-0.00871953421684 0.0091973452227 -0.00266962132297)
(-0.00804832833271 0.00838909988802 -0.00388387413291)
(-0.00983849689314 0.00515239691529 -0.00347802122118)
(-0.0100670088694 0.00833192933651 -0.00313666065578)
(-0.00938250059715 0.00767694088544 -0.0045074859999)
(-0.00935382486151 0.00432221923193 -0.00398930367115)
(-0.0103230763602 0.0072814329506 -0.00374432058288)
(-0.00977853617803 0.00679230718152 -0.00527892491585)
(-0.00753179462136 0.00364876444233 -0.00435667241405)
(-0.00909340288951 0.00622693340283 -0.00438623569319)
(-0.00896544733337 0.00586309508287 -0.00608684354894)
(-0.00463011022961 0.00327958859232 -0.00415706433275)
(-0.00657138326186 0.00546165851055 -0.00474284534932)
(-0.00707596687106 0.00510299344073 -0.00664855785734)
(-0.00152408273483 0.00323614113322 -0.00267742597858)
(-0.00297265235841 0.00503873782069 -0.00415844826871)
(-0.00424039553551 0.00457848820244 -0.00641944910278)
(-0.000184669196945 0.00490945798391 -0.00146402004941)
(-0.00137222782941 0.00424136545561 -0.00439912573555)
(0.00180720022156 0.00637793133101 -0.0030685266117)
(0.00022572872396 0.00743011535716 -0.00132905034481)
(0.00176567961575 0.00702804074206 -0.00448840472466)
(0.00568070388255 0.00685973665404 -0.00490707267527)
(0.00380040726375 0.0078964960205 -0.00451520374289)
(0.00527725344096 0.00737612326697 -0.00692112891757)
(0.00924651175499 0.00765933572096 -0.00495441115145)
(0.00817883842788 0.00862497018499 -0.00495865016311)
(0.00867135681966 0.00811591044235 -0.00692618223837)
(0.0115220062343 0.00877632233801 -0.00432189007133)
(0.01127086342 0.00972877420594 -0.00429561072431)
(0.0109285213746 0.00916607246369 -0.00597135864499)
(0.0122806237143 0.0100347973867 -0.00356047679211)
(0.0128398689082 0.0110936433212 -0.00333440881306)
(0.0119667268317 0.0103938850065 -0.0047645129447)
(0.0116651692087 0.011173128132 -0.00291948416641)
(0.0127715484835 0.0124462543953 -0.00247726580167)
(0.0117337250224 0.0115813954717 -0.00364349714935)
(0.0099597677326 0.0121046154044 -0.00246006208671)
(0.0114673425149 0.0135464470281 -0.00187177003128)
(0.010480993202 0.0125465719762 -0.00278865068984)
(0.0074765429974 0.0128498603845 -0.00215949568223)
(0.0091898671971 0.0144688545291 -0.00146862302552)
(0.00841296004523 0.0133345466025 -0.00218892993509)
(0.00450492852092 0.0133474610375 -0.00200198132144)
(0.00625393537399 0.0151650206074 -0.00124959882117)
(0.00577512769662 0.0139201622261 -0.0018309248069)
(0.00129609480345 0.0135445749728 -0.00194532464932)
(0.00299892645886 0.0155554568127 -0.00116654375869)
(0.00282935016883 0.014250470218 -0.00166896743107)
(-0.00195992834809 0.0134231834025 -0.00196186270427)
(-0.000375117939837 0.0156031249598 -0.00114556936687)
(-0.000241474533776 0.0142963853622 -0.00163677300413)
(-0.00506754884718 0.0129849610793 -0.00208127950913)
(-0.0037265668324 0.0152968976524 -0.0011868455797)
(-0.00328292815387 0.0140472817734 -0.0017361235208)
(-0.00775726990398 0.0122726043064 -0.00235130963393)
(-0.0068499492003 0.0146555065289 -0.00136796402416)
(-0.00610057853295 0.0135153495953 -0.00203927151542)
(-0.00971243386358 0.0113535726293 -0.00278923492253)
(-0.00938033379507 0.013752248862 -0.00174600289513)
(-0.00840744925378 0.0127479085219 -0.0025997562132)
(-0.0106146977703 0.0102405497419 -0.00340296001748)
(-0.0109529284437 0.0126558231564 -0.00233094334582)
(-0.00992132968645 0.0117894107059 -0.00342164699063)
(-0.0101779649423 0.00900438368214 -0.00414125260491)
(-0.011323181191 0.0113434003574 -0.00315116953638)
(-0.0104432167821 0.0106287806658 -0.00449871875189)
(-0.00825169933806 0.00788856732721 -0.00477240862845)
(-0.0101004754105 0.00998015400505 -0.0040999274682)
(-0.00972346500348 0.00940564765162 -0.00567950723574)
(-0.00504136160957 0.00708618651402 -0.00474422928528)
(-0.00736328246506 0.00887773032034 -0.00476799501256)
(-0.00780079962503 0.00836139737074 -0.00662643430637)
(-0.00150942024561 0.00658508191134 -0.00294504233955)
(-0.0033360785163 0.00814350482721 -0.00435729993531)
(-0.00474863342821 0.00761938525074 -0.00663673777987)
(-6.8651959629e-05 0.00764518117438 -0.00122369543288)
(-0.00157500047299 0.00723920548271 -0.00424516466223)
(0.00205928334354 0.00882952277053 -0.00277572747599)
(0.000339212269706 0.0093151818647 -0.000909305630458)
(0.00208250572001 0.00912531436117 -0.00394436460905)
(0.0064528872786 0.00953694567232 -0.00456678123073)
(0.00447997234361 0.00988099395628 -0.0041632973858)
(0.00605045954729 0.00940960926518 -0.00637811765733)
(0.0103555225705 0.0105527068233 -0.00429984973597)
(0.00930015059908 0.010713799833 -0.00433788540321)
(0.00972785467408 0.0101819389357 -0.00599148313157)
(0.0127360846752 0.0118797263777 -0.00330812946604)
(0.0126011545939 0.0119227427868 -0.00331736998348)
(0.0120411770098 0.0112919082427 -0.00457455108925)
(0.0133994180877 0.0133212239363 -0.00225119782262)
(0.0141683597906 0.0133735178754 -0.00201607270038)
(0.0129586864425 0.0125612353903 -0.00294323036897)
(0.012571532702 0.0146326559729 -0.00142955166653)
(0.013937957171 0.0147909629 -0.000907611657382)
(0.0125201204368 0.0137800905649 -0.0015168467649)
(0.0106183561823 0.0157275382639 -0.000880330970092)
(0.0123848020462 0.0159692006483 -0.000117204763168)
(0.0110406431377 0.0148006172216 -0.000469600918541)
(0.00789508770436 0.0166042829052 -0.000558726164465)
(0.00982906406501 0.0169674357544 0.000400161181838)
(0.00877213058758 0.015646046494 0.000224664341705)
(0.00471875615942 0.0171937634942 -0.000414161258414)
(0.00663777487612 0.0177306166178 0.000668473017873)
(0.00598105752548 0.0162838980679 0.000610714348505)
(0.00132845549924 0.0174337662545 -0.000366788476239)
(0.00315106810609 0.0181684482428 0.000765594740165)
(0.00291412030871 0.016653948263 0.000777290107812)
(-0.00211529397 0.0172965873038 -0.000370552242305)
(-0.000449340610535 0.0182312331348 0.000791822145711)
(-0.000270878117916 0.0167165385506 0.000815624079378)
(-0.00544330429394 0.0167869551873 -0.000473530094727)
(-0.00405023783519 0.0179031635703 0.000745709553097)
(-0.00344852752162 0.0164567939899 0.000721728671357)
(-0.0083910430169 0.0159524168734 -0.00076265728536)
(-0.00745436288984 0.0172087959767 0.000519554522919)
(-0.00644109940151 0.0158905861606 0.000394434573963)
(-0.0106069879584 0.0148691548008 -0.00128771131842)
(-0.0102829747694 0.016228308026 2.67239215797e-05)
(-0.00896383975908 0.0150700929798 -0.000260128386342)
(-0.011723099415 0.0135760634249 -0.00207915286472)
(-0.0121154167109 0.0150447994716 -0.000744842424553)
(-0.0107107811837 0.0140499774411 -0.00127287926507)
(-0.0113800517966 0.012152150618 -0.00310984439967)
(-0.0126455005375 0.0136567666522 -0.00181686817606)
(-0.0114319540818 0.0128446258094 -0.00265642977892)
(-0.00934636446268 0.0108249237723 -0.0040955138523)
(-0.011423325301 0.0122026917491 -0.00309834295184)
(-0.0108243092569 0.0115747489714 -0.00425624381338)
(-0.00580120694706 0.00980610439178 -0.00438106566258)
(-0.00847527375069 0.0109907676416 -0.00412244184153)
(-0.00883856215424 0.0104680824122 -0.00565821786543)
(-0.0017540142797 0.00907991750559 -0.00263595302864)
(-0.00400935813935 0.010153669507 -0.00398199674036)
(-0.00550498776182 0.00969681964033 -0.00605738544039)
(-0.000177910854717 0.00955759392779 -0.000788042683865)
(-0.00187734128696 0.00938771999068 -0.00366644731552)
(0.00257792472835 0.0102616277729 -0.00229687554026)
(0.000647120450262 0.0100061350925 -0.000481168024388)
(0.00252252806431 0.0102725488703 -0.00326889052109)
(0.00751160697554 0.0109364191484 -0.00393440155828)
(0.00532803728106 0.0105285639392 -0.00365185786539)
(0.00699137832687 0.0103797525065 -0.00558126574679)
(0.0117227493684 0.011943162145 -0.00335540565073)
(0.0105514736773 0.0113130148608 -0.00359578120284)
(0.0109586316199 0.0110534222342 -0.00481037368741)
(0.0141886136817 0.0132665056249 -0.00202531321782)
(0.0140329390109 0.0124254578312 -0.00228070105213)
(0.0133105876542 0.0120456999176 -0.00296859844487)
(0.014751082692 0.0147048291715 -0.000672486535141)
(0.0156014390187 0.0137719083287 -0.000683669995346)
(0.014114464872 0.0132014591078 -0.00096088128853)
(0.0137135732583 0.0160102285395 0.000404735245979)
(0.0151811018992 0.0150705134212 0.000673758715427)
(0.013484696901 0.0143380428926 0.000757935091749)
(0.0114976972042 0.0171087198387 0.00116328738876)
(0.013383644243 0.0161768801755 0.00165741587201)
(0.0117984734911 0.0153125783649 0.00200817193097)
(0.00849551550199 0.0180041788175 0.00162736036418)
(0.0105495071252 0.0171330434634 0.00231588715308)
(0.00931706893901 0.0161401106873 0.00283654999848)
(0.00504204334728 0.0186227154158 0.00184822901645)
(0.0070848810589 0.0178855943644 0.00266484375721)
(0.00632401733609 0.0167835739913 0.00329847217474)
(0.00137409648677 0.0188863423703 0.00192420536212)
(0.00333354389097 0.0183348796518 0.00279892181254)
(0.00305939076071 0.0171714136881 0.00350149560405)
(-0.00235817492351 0.0187552297392 0.00190808394111)
(-0.000535708573391 0.0184119058899 0.00283670292765)
(-0.000330496965131 0.0172514307406 0.00355158122869)
(-0.005990333843 0.0182353165474 0.00173879417074)
(-0.00442738270629 0.0180952504623 0.00277248766409)
(-0.00373021024728 0.017003315005 0.00344005672531)
(-0.00924713851891 0.0173847187403 0.00130893572986)
(-0.00814299139904 0.0174232359206 0.0024705939544)
(-0.00696113811363 0.0164473753543 0.00304235119338)
(-0.0117464625018 0.0162884717693 0.000569592815448)
(-0.0112797904064 0.0164817210479 0.0018288472254)
(-0.00972740252853 0.0156434614341 0.00224589867594)
(-0.0130772570468 0.0149899149158 -0.000482557735892)
(-0.0133694873915 0.0153572906355 0.000851226412563)
(-0.0116942684969 0.0146557776107 0.00101829138507)
(-0.0128320302572 0.0135591323727 -0.00180536672823)
(-0.0140802632401 0.0140694035813 -0.000468648441651)
(-0.0125989551585 0.0135175870877 -0.000657876979801)
(-0.0107095266455 0.0122278858927 -0.00312527094107)
(-0.0128591389624 0.0127072901927 -0.00204307906111)
(-0.0120940526782 0.0123460757775 -0.00262711836656)
(-0.00685533397571 0.0112154190714 -0.00372337291931)
(-0.00972333477061 0.011585294015 -0.00336178171687)
(-0.0100623277268 0.011350724437 -0.00444874003167)
(-0.00226987692013 0.0105224569013 -0.00213408639559)
(-0.00485428465851 0.0107924432883 -0.00345184778437)
(-0.00643839921704 0.0106779971936 -0.00522425714149)
(-0.000479973316745 0.010238336633 -0.000347451149448)
(-0.00230994526107 0.0105513479114 -0.00295063861595)
(0.00319166175856 0.0102063975709 -0.00183615034952)
(0.000986737883908 0.00948666091549 -0.000168292740076)
(0.00295960743392 0.0100750682837 -0.00267219781223)
(0.0085920897978 0.0108395565408 -0.00331323750995)
(0.00610404035603 0.00992695838382 -0.00318472707978)
(0.00789999176953 0.0101372782076 -0.00479883364342)
(0.0130562740509 0.0117297101579 -0.00252107660425)
(0.0116780480436 0.010565856137 -0.00297175026773)
(0.0121341773273 0.0106819503893 -0.0037170399499)
(0.0155872337674 0.0128882374009 -0.000939057829656)
(0.0153280105197 0.0114595926468 -0.00147567351748)
(0.0145145930871 0.0114670827391 -0.00156511263493)
(0.0160351111731 0.0141334982331 0.000662575255223)
(0.0168952204322 0.0125867619998 0.000377748806351)
(0.0152377762285 0.0124274004488 0.000737247028737)
(0.0147854199388 0.0152640233266 0.00192643934146)
(0.0163028431923 0.0136626881243 0.0019246255146)
(0.0144316482946 0.013382299198 0.00265749157607)
(0.0123210375133 0.0162483458923 0.00281001563633)
(0.0142989625132 0.0146010810914 0.00304101600556)
(0.0125585321809 0.0142326358136 0.00404015490668)
(0.00905916689762 0.0170757065314 0.00335337054611)
(0.0112207595674 0.0154391939423 0.00379857938291)
(0.00988069141009 0.0149814793673 0.00495569360817)
(0.00534827217584 0.0176670385489 0.0036155365533)
(0.00750826348276 0.0161247296177 0.00420911271858)
(0.00668866552387 0.0155867741966 0.00547173457654)
(0.00142340937779 0.0179324981665 0.00371141937807)
(0.0035141933121 0.016554233559 0.00438165283638)
(0.00322084060205 0.0159699980648 0.00570548661261)
(-0.00257941808603 0.0178200969897 0.00370110665063)
(-0.000606834151705 0.0166404365453 0.00443507353973)
(-0.00038395974892 0.0160636354386 0.00577427745111)
(-0.00650303242056 0.0173416862812 0.00350428744775)
(-0.00477160418685 0.0163558638201 0.00435448639827)
(-0.00401681131571 0.0158432572114 0.00566298447972)
(-0.0100596142716 0.0165635306529 0.00299050544994)
(-0.00878060868915 0.0157592015065 0.00399539765245)
(-0.00749549110861 0.0153407847429 0.00522060245486)
(-0.012832535663 0.0155731419162 0.00211048082252)
(-0.0122026011921 0.0149346175848 0.00324284481448)
(-0.0105029466789 0.0146156736634 0.00432001326969)
(-0.0143772664698 0.0144303482779 0.000865135706803)
(-0.014517680192 0.0139676147054 0.00211604649298)
(-0.0126761087194 0.0137379390352 0.00293439627872)
(-0.0142398603803 0.0131752861032 -0.000706360774524)
(-0.0153894779371 0.012883976765 0.000605413596548)
(-0.0137480240171 0.0127591113284 0.00104800948815)
(-0.0120459295318 0.0119995301838 -0.0022795898369)
(-0.014171955168 0.0117279901413 -0.00123074547384)
(-0.0133169038661 0.0117642972152 -0.0012146450346)
(-0.00793258613079 0.0110960064458 -0.00309025658192)
(-0.0108544145044 0.0108144696524 -0.00273043294227)
(-0.0112417407539 0.010964132932 -0.00334253808524)
(-0.00287720195161 0.0104418311676 -0.00166521253822)
(-0.00563140558112 0.0101587122473 -0.00297559807059)
(-0.00734445935643 0.0104139183152 -0.00442167755413)
(-0.000817441750663 0.00969316940277 -2.95984007917e-05)
(-0.00273887285002 0.0103338714843 -0.0023320523692)
(0.00367340935647 0.00919900334754 -0.00151686947034)
(0.00130517825029 0.00805065938553 4.01325560442e-05)
(0.00328723977244 0.00901577020506 -0.00223741533246)
(0.00945639097203 0.00964027750833 -0.00284323983757)
(0.00673937140167 0.0083126773332 -0.00281152794629)
(0.00861134552188 0.0089527576653 -0.0041687089873)
(0.0141484675368 0.0103031521417 -0.00192634718096)
(0.0125978623704 0.00875316376471 -0.0025245613533)
(0.0130900067189 0.0093136041847 -0.00287939647671)
(0.0167541532875 0.0111999144785 -0.000158866881469)
(0.0164028797122 0.0093871749325 -0.000941497347098)
(0.0155175940066 0.00986062303663 -0.00053328503358)
(0.0171330848241 0.0121851831513 0.00163979906573)
(0.0179749189338 0.0102338302217 0.00112088827747)
(0.0161937783422 0.0105988390505 0.00197397817745)
(0.0157269968302 0.0130919398669 0.0030392021787)
(0.0172700876731 0.0110404952058 0.00279620845778)
(0.0152696347962 0.0113472993313 0.00402825447369)
(0.013065507663 0.0139073534253 0.00402957975214)
(0.0151149317417 0.0117589075823 0.0040174593531)
(0.0132592362933 0.0120373323874 0.00550363343165)
(0.0095804759954 0.0146231195825 0.00465432155538)
(0.0118412216754 0.0124239049346 0.0048776031659)
(0.0104199823011 0.0126700099706 0.00650029066962)
(0.00564433311414 0.0151499307371 0.00497522900166)
(0.00789386906366 0.0129774108819 0.00539841435505)
(0.00705303541708 0.0132130536884 0.00708343282509)
(0.0014825691293 0.0153920964314 0.00510530699803)
(0.0036798283139 0.0133449409301 0.00552291727135)
(0.00339408093433 0.0135683526277 0.00737103041867)
(-0.00277516748753 0.0153111095179 0.00508845328737)
(-0.000660318738958 0.0134328329448 0.00556070742471)
(-0.000422914302687 0.0136667149069 0.00746531730749)
(-0.00696045380041 0.0149062221635 0.00484559660297)
(-0.00506330948549 0.0132003033017 0.005584176535)
(-0.00427998545147 0.0134848688166 0.00734082752931)
(-0.0107873889345 0.0142422792728 0.00424773701698)
(-0.00935710363645 0.0127360180854 0.00512601608595)
(-0.00798860234785 0.0130511877917 0.00685010299823)
(-0.0137942272496 0.0134165339442 0.00324841048494)
(-0.0130247698174 0.0120857339495 0.00425963897107)
(-0.0112160520202 0.0124429000638 0.00585570982422)
(-0.0155072804785 0.0124853338429 0.00185632438272)
(-0.0155190471112 0.0113368459728 0.00301295972023)
(-0.0135610888802 0.0117189823242 0.00434381198972)
(-0.0154359943701 0.0114752595431 8.1028897232e-05)
(-0.0165015910929 0.0105122122584 0.0013655033597)
(-0.0147518713825 0.0109310417318 0.00230046828251)
(-0.0131554796271 0.0105494466123 -0.0016815885792)
(-0.0152776884869 0.00962697417394 -0.000686713867273)
(-0.0143572451055 0.0101437630646 -0.000179511625903)
(-0.00880480761804 0.00986428950272 -0.00261577443093)
(-0.0117914095602 0.00896564612391 -0.00228099310777)
(-0.0122157016663 0.00956721889328 -0.00250186603325)
(-0.0033638718026 0.00940043693669 -0.00133998393316)
(-0.00627586140262 0.00850186163308 -0.00259781285842)
(-0.00806469126965 0.00919281128945 -0.00378410801253)
(-0.00114253348667 0.00821741113867 0.000180544990604)
(-0.00307004184361 0.00923970865002 -0.00188813007977)
(0.00412790899524 0.00723788500764 -0.0012545259199)
(0.00160564305652 0.00581010678124 0.000185020846535)
(0.00358964272601 0.00706354003323 -0.00188736050136)
(0.01018747408 0.00749610148962 -0.00249284946202)
(0.00725591385937 0.00593757605804 -0.00254092728013)
(0.00919626018153 0.00694556380793 -0.00368446879122)
(0.0150483483023 0.00791833003963 -0.00153971151944)
(0.0133151555793 0.00619379701681 -0.00224182695208)
(0.013853935963 0.00714868808587 -0.00230151687986)
(0.0177230582189 0.00852096653348 0.000338257811839)
(0.0172400433906 0.00657680837605 -0.000643762542822)
(0.0163256596509 0.00748144292625 0.000135641486027)
(0.0180589102014 0.00920566132569 0.00227729766952)
(0.0188258686155 0.00712599485605 0.00155477514495)
(0.0169778875605 0.00798659128539 0.00277196183454)
(0.0165446603739 0.00984272076691 0.00377446563218)
(0.0180506981133 0.00764899363536 0.00330569674072)
(0.0159769444814 0.00851187281646 0.00490572402462)
(0.0137343726038 0.0104341246738 0.00486548276686)
(0.0157984949416 0.00811865610347 0.00460009049024)
(0.0138720208136 0.00900771228071 0.00645050768358)
(0.0100584063426 0.0109397523903 0.00562169596556)
(0.0123452597534 0.00856325868466 0.00558824874712)
(0.010916825606 0.00948683844888 0.00753657905123)
(0.00587958261218 0.0113285095786 0.00594610262474)
(0.00822750577737 0.0089063287257 0.00592428747722)
(0.00738686560523 0.00989101120906 0.00824987287369)
(0.00152835655665 0.0115484887023 0.00597831769803)
(0.00380501737685 0.00916493538423 0.00593485147945)
(0.0035538187804 0.0101957370931 0.00853120085062)
(-0.00290871310382 0.011477829813 0.00605643067235)
(-0.00070948467557 0.00923813287247 0.00596247195649)
(-0.000449957807317 0.0102902264147 0.00863174243752)
(-0.00736309416171 0.0111897838176 0.00586459601798)
(-0.00532604061204 0.00907126726618 0.00608203690314)
(-0.00450256382579 0.0101313938821 0.00858339408967)
(-0.0114333663691 0.0107395239729 0.00513791804004)
(-0.00981825676214 0.00881400475563 0.00586794024115)
(-0.00842980600257 0.0098298344325 0.00799226736759)
(-0.0146316347919 0.0101413328158 0.00402418820636)
(-0.0137094908527 0.00838567526004 0.00489455602307)
(-0.0118354985684 0.00937382196382 0.00689831355594)
(-0.0164719197001 0.00947791754695 0.0025221386972)
(-0.016332562697 0.00789038301362 0.00356015292851)
(-0.01431573192 0.00884812516625 0.00528673742469)
(-0.0164441298047 0.00876099210339 0.000597760595195)
(-0.0173894894477 0.0073491105852 0.0018276514989)
(-0.0155920235759 0.00828386110392 0.00313530181307)
(-0.0140855015883 0.00812319489067 -0.00128611839583)
(-0.0161515657415 0.0067616341995 -0.000372146309459)
(-0.0152151653141 0.00772712089088 0.00050669945101)
(-0.00955395830362 0.00767442661417 -0.00226303153525)
(-0.0125354186635 0.0063535941594 -0.00199605921074)
(-0.0130127900324 0.00735744224256 -0.00191950806215)
(-0.00382841465912 0.00739339402474 -0.00107728393466)
(-0.00680658200324 0.00607471417518 -0.00232547708856)
(-0.00866895629384 0.00713419968546 -0.00329841797289)
(-0.00145265188762 0.00593023801268 0.000322700429196)
(-0.00338126281325 0.00723737640623 -0.00154125740706)
(0.00447469248794 0.00457595774087 -0.00110138051369)
(0.00180769097677 0.00303230008051 0.000249563682478)
(0.00381441142128 0.00445506998368 -0.00169688578513)
(0.0107236172186 0.00470124654926 -0.00228990477018)
(0.00759394517185 0.00308164941144 -0.0023990753436)
(0.00961747538138 0.00436076172773 -0.00339299884572)
(0.0157001450235 0.00492199483648 -0.00134587797546)
(0.013770658316 0.00319399528451 -0.0021064729856)
(0.0143961362298 0.00445674974894 -0.0019767316585)
(0.0184299927753 0.00525625593405 0.000572754790287)
(0.017772491204 0.0033660315237 -0.000527877486728)
(0.0169024265536 0.00462555605899 0.000480916908039)
(0.0187478676187 0.00564801758111 0.00258317421615)
(0.0193752324155 0.00362914214672 0.00173547312824)
(0.0175467564108 0.00491296822114 0.00317895808793)
(0.0171711243519 0.00601266973814 0.00413132159878)
(0.0185646411039 0.00387822925088 0.00351578426981)
(0.0165021831212 0.00521689792725 0.00534748064514)
(0.0142529583303 0.00634583923272 0.00532285647051)
(0.0162601182098 0.00410328701923 0.00485259142874)
(0.0143495012548 0.00550915135844 0.00693350246916)
(0.0103864628742 0.00666121040263 0.00589084025879)
(0.0126660062629 0.00429825388646 0.0059023109759)
(0.0112928961995 0.00579036821653 0.00813146444217)
(0.00607158474691 0.00692124237171 0.00591303633194)
(0.00846204517279 0.00448942666403 0.00588794066506)
(0.00767028981775 0.00606751933118 0.00873174381957)
(0.00154979903428 0.00705292519948 0.00591900573791)
(0.00388631496751 0.00462808548007 0.00588982217411)
(0.00367337348824 0.00626321997117 0.00905860096687)
(-0.00306487808226 0.00701722423537 0.00598807818728)
(-0.000763911581863 0.0046643801774 0.00593849436679)
(-0.000478747883852 0.00632460232732 0.00918839860217)
(-0.00765104570062 0.0068307607945 0.0060853811263)
(-0.00554153424331 0.00457105209178 0.00600561388471)
(-0.0047080666975 0.00623332392197 0.00908635634257)
(-0.0119284724274 0.00655982341996 0.00562457822419)
(-0.010156676712 0.0044267227609 0.00606903949786)
(-0.00875823792855 0.0060302804276 0.00866468794137)
(-0.0152731441165 0.00622622086121 0.00443052074522)
(-0.0141627341769 0.00425769394635 0.00519418794763)
(-0.0123154040033 0.00576523240224 0.0074726377189)
(-0.0171946782672 0.00584093380685 0.00286566573021)
(-0.0168720608815 0.00401312787442 0.00380466579208)
(-0.0148788338283 0.00545168984024 0.00579877776822)
(-0.0171888444203 0.00542328787123 0.00085774459425)
(-0.0179671098971 0.00375283135087 0.00203567164664)
(-0.0162097351206 0.00512093493597 0.00359043481878)
(-0.0147712272682 0.00506080851445 -0.00108208712436)
(-0.0167135674208 0.00346715334517 -0.000241710819301)
(-0.0158386371381 0.0047948627841 0.000876851153668)
(-0.0101127926028 0.00481939300221 -0.00205850476405)
(-0.0130153839861 0.00328169396215 -0.00185787612937)
(-0.0135898552067 0.00459745353422 -0.00158655113085)
(-0.00418835724351 0.00467758692396 -0.000925492724706)
(-0.00715717158092 0.0031570784415 -0.00218297545216)
(-0.00911274483916 0.00448472592782 -0.00300682111365)
(-0.00166365240797 0.00309913651104 0.000385218254677)
(-0.0036181267852 0.00456812032348 -0.00135727147986)
(0.00465760452502 0.00156953741013 -0.00104813114744)
(0.00187638523773 1.728638564e-05 0.000263432323647)
(0.0039295901933 0.00152614258 -0.00164258631678)
(0.0110016240335 0.00160414220655 -0.00221564355902)
(0.00770973698424 1.65726697087e-05 -0.00236011043761)
(0.00983553310209 0.00148969901983 -0.00327893884982)
(0.0160360613795 0.00166697779724 -0.00128847249687)
(0.0139225105173 1.11961663843e-05 -0.00207205942108)
(0.0146734485412 0.00151324481502 -0.00185163929556)
(0.0187969599262 0.00176678051964 0.000634840851222)
(0.0179511364892 3.59251689073e-06 -0.000506931871156)
(0.0171993891146 0.00155828348641 0.000601532251113)
(0.0191126743808 0.0018869872586 0.0026680831819)
(0.0195609239416 -5.69239567123e-06 0.00177348253778)
(0.0178430077131 0.00164519561679 0.00331910343261)
(0.0175106412126 0.0019984450292 0.00423705409978)
(0.0187401512964 -1.46089672216e-05 0.00355816571308)