/*--------------------------------*- C++ -*----------------------------------*\
| =========                 |                                                 |
| \\      /  F ield         | OpenFOAM: The Open Source CFD Toolbox           |
|  \\    /   O peration     | Version:  3.0.1                                 |
|   \\  /    A nd           | Web:      www.OpenFOAM.org                      |
|    \\/     M anipulation  |                                                 |
\*---------------------------------------------------------------------------*/
FoamFile
{
    version     2.0;
    format      ascii;
    class       surfaceVectorField;
    location    "7.9";
    object      Uf;
}
// * * * * * * * * * * * * * * * * * * * * * * * * * * * * * * * * * * * * * //

dimensions      [0 1 -1 0 0 0 0];

internalField   nonuniform List<vector> 
22672
(
(0.00609009757494 0.0027644262611 -0.00459515552491)
(0.00276157174207 0.00609389264113 -0.00459446476697)
(0.00375413807059 0.00375755100057 -0.0121839927266)
(0.0125484073737 0.00209298244925 -0.00416491752564)
(0.00911361409413 0.00550120540187 -0.00623978476559)
(0.0107023844159 0.00391329011815 -0.0119595189356)
(0.0177059557967 0.00163827705611 -0.00323541047211)
(0.015663794865 0.00514828755181 -0.00614945668627)
(0.016655431535 0.00414147646696 -0.0103058418821)
(0.0207127095913 0.00146399774415 -0.00187710674897)
(0.0202396735105 0.00509972883851 -0.00522521164664)
(0.0204115899619 0.00440991063715 -0.00810649124128)
(0.0209796492499 0.00154200660838 -0.000749684248422)
(0.0222228808071 0.00543941438112 -0.00359420688664)
(0.0217060424993 0.00475985001188 -0.00570636553567)
(0.0191782045368 0.00181668706909 -0.000134135864962)
(0.0213614997146 0.00585324619505 -0.00268880711965)
(0.0205463235677 0.00508086551911 -0.004051815691)
(0.0156676763067 0.00229475451855 0.000300378389136)
(0.0186782264149 0.0064355904795 -0.00184645705132)
(0.0176585968625 0.00547325158224 -0.00292507873342)
(0.0109614823944 0.00286463365176 0.00045095478222)
(0.0142813657877 0.0070960837227 -0.00126836296748)
(0.0133114219077 0.00595627430993 -0.00238990795971)
(0.00560287707917 0.00333555562523 0.000423411716204)
(0.00880895248492 0.00770772483746 -0.00101642102755)
(0.00813140699977 0.00644803200898 -0.00234913874575)
(1.81996725267e-05 0.00351744158048 0.000388610724568)
(0.00296789261758 0.00807895135641 -0.000977626428949)
(0.00272702916766 0.00676260800093 -0.00249429379784)
(-0.00556766544755 0.00333638771807 0.000424160220524)
(-0.00292862186446 0.0080787788679 -0.000976810197247)
(-0.00268833396369 0.0067625608627 -0.00249293395839)
(-0.0109295497023 0.00286575879026 0.000452429945393)
(-0.0087718419364 0.00770713535956 -0.0010140997383)
(-0.00809496438415 0.0064477541698 -0.00234527155076)
(-0.0156409309779 0.00229549357015 0.000302577326941)
(-0.0142488166325 0.00709485335971 -0.00126468142106)
(-0.0132795955686 0.00595538446546 -0.00238349265284)
(-0.01915772569 0.00181688704871 -0.00013164796653)
(-0.0186524861595 0.00643368906819 -0.00184215896072)
(-0.0176334083166 0.00547162574007 -0.00291691480683)
(-0.0209651799504 0.00154204006387 -0.000747227827447)
(-0.0213429975845 0.00585111573638 -0.00268497423081)
(-0.0205280941651 0.00507890565343 -0.00404368139336)
(-0.0207043569675 0.00146395456343 -0.00187525385459)
(-0.0222095056446 0.00543817197148 -0.00358999593935)
(-0.0216930272369 0.00475808380634 -0.00569901384885)
(-0.0177016646697 0.00163819664492 -0.00323469453581)
(-0.020233449982 0.00509851441288 -0.00522298831411)
(-0.0204041662244 0.00440842717084 -0.00810122409564)
(-0.0125465626334 0.00209296849638 -0.00416519445955)
(-0.0156603189036 0.00514759216793 -0.00614860042359)
(-0.0166510739478 0.00414044208132 -0.0103027100729)
(-0.00608959630334 0.0027644034061 -0.00459603528787)
(-0.00911246984517 0.0055007714361 -0.00624017599348)
(-0.0107004477174 0.0039123744189 -0.0119577531549)
(-0.00276138543285 0.00609389090185 -0.00459561516707)
(-0.00375384325263 0.00375663257657 -0.0121834973746)
(0.00549882822692 0.00911679679886 -0.00623909400765)
(0.0020908812972 0.0125514702397 -0.0041632556258)
(0.0039120544645 0.0107045103353 -0.0119564089754)
(0.01266077025 0.00891860446841 -0.00822432392621)
(0.008916904211 0.0126614598213 -0.008223707542)
(0.011188284065 0.0111875478264 -0.0143222011503)
(0.0185803494555 0.00899398052158 -0.0081392578608)
(0.0162144333082 0.0128897560168 -0.00885148538558)
(0.0173798215349 0.0119046706042 -0.0136610546746)
(0.0220826981758 0.00945285755852 -0.00694231178431)
(0.0213107360778 0.0134346991608 -0.0079949762387)
(0.0213233019128 0.012884044019 -0.0118373287044)
(0.0226605735168 0.0101103913982 -0.00553332975787)
(0.0236622837097 0.0143498043711 -0.0062527305459)
(0.0227527361809 0.0139957127281 -0.00948827764126)
(0.0208296865478 0.0108164694632 -0.00440112830601)
(0.0228956078346 0.0152084282159 -0.00489971920695)
(0.0216468130019 0.0149481654286 -0.00752430964099)
(0.0170747137815 0.0115772772014 -0.00341519840793)
(0.0201403115578 0.0160887043886 -0.00370344258315)
(0.0187109388181 0.0158314012234 -0.00589815742715)
(0.0119484716153 0.0122863887841 -0.00273573877725)
(0.015495500473 0.016939187584 -0.00273996318514)
(0.0141879040844 0.016630770565 -0.00471687902052)
(0.00609665913616 0.0128103339469 -0.00241745917271)
(0.00960873317891 0.017653039832 -0.00214980053714)
(0.00870886244048 0.0172705716759 -0.00409352034428)
(2.09726404696e-05 0.0130052155895 -0.00234304735076)
(0.00324733866786 0.0180696763106 -0.00193743981253)
(0.00292759882105 0.0176156896161 -0.00391505648218)
(-0.00605579493241 0.0128087975282 -0.00241507015607)
(-0.00320288511781 0.0180686620747 -0.00193623198349)
(-0.00288366225133 0.0176143883427 -0.00391313377074)
(-0.0119108848661 0.0122835388405 -0.00273121110475)
(-0.00956660180649 0.0176501143331 -0.00214626104291)
(-0.00866700838816 0.0172667976859 -0.00408790734187)
(-0.0170429380453 0.0115735069686 -0.00340941770872)
(-0.0154585014602 0.016934887737 -0.00273438783794)
(-0.0141506537443 0.0166252090299 -0.00470799971098)
(-0.0208050543993 0.0108122875771 -0.004395485225)
(-0.0201109359172 0.0160835615951 -0.0036972651213)
(-0.0186806884435 0.0158246805842 -0.00588777479196)
(-0.0226425712396 0.0101069771957 -0.00552774234272)
(-0.0228739023008 0.0152030267012 -0.00489425723)
(-0.0216240036305 0.0149412632269 -0.0075144125492)
(-0.0220718429823 0.00945044700246 -0.00693773039887)
(-0.0236466570719 0.0143463530817 -0.00624655310871)
(-0.0227358758651 0.0139901527822 -0.0094789271699)
(-0.0185746003498 0.00899220491007 -0.0081368942019)
(-0.0213027306052 0.0134318833822 -0.00799144688642)
(-0.0213130966964 0.0128795294695 -0.0118306283315)
(-0.0126582609469 0.0089176054029 -0.00822358195752)
(-0.0162100566045 0.0128881269673 -0.00884962607468)
(-0.0173735767398 0.0119013421343 -0.0136568897999)
(-0.0054980848744 0.00911657581282 -0.00623975587269)
(-0.00891534784624 0.0126608089524 -0.0082235271268)
(-0.0111850892265 0.0111849826703 -0.01432022871)
(-0.00209078191766 0.0125522371246 -0.00416455847887)
(-0.00391153226754 0.0107030758463 -0.0119564408319)
(0.00514680629007 0.0156641516617 -0.00614786916016)
(0.00163671085689 0.0177063199126 -0.00323338168911)
(0.00414122869556 0.0166544896816 -0.0103016596885)
(0.0128903827267 0.0162126523725 -0.00885086900137)
(0.00899331010288 0.0185772976018 -0.008137532954)
(0.0119068745169 0.0173754692927 -0.0136594194333)
(0.0193642344937 0.0169045039281 -0.00870720376348)
(0.0169075979724 0.0193596187146 -0.00870680334876)
(0.0185545207153 0.0185486995056 -0.0129437216223)
(0.0232161410899 0.0178941066348 -0.00730539500029)
(0.0224092003743 0.0203961059957 -0.00756321310563)
(0.022684872255 0.0200013263462 -0.0108133226219)
(0.0240241926624 0.0189849252778 -0.00561911999498)
(0.0250094232034 0.0217109340468 -0.00560075283359)
(0.0242130367209 0.0215471398508 -0.00816919222268)
(0.0222030237166 0.0199643456008 -0.00420203348409)
(0.0242950555377 0.0228308413532 -0.00393044026965)
(0.0231103680305 0.0228445971591 -0.00580125639495)
(0.0183518606656 0.0208591621101 -0.00302820736035)
(0.0214539908776 0.0237849740168 -0.00259671645518)
(0.0201107234663 0.0239095167529 -0.00384511934146)
(0.0129753098981 0.0216380189089 -0.00215402494502)
(0.0166132341563 0.0246339049471 -0.00153476432369)
(0.0154390458204 0.02479691948 -0.00231817932207)
(0.00668149412604 0.0221877056136 -0.00166978117696)
(0.0103804158744 0.0253007329333 -0.000867273909933)
(0.00961722364646 0.0254756184375 -0.00135388966683)
(2.33682092977e-05 0.0223874254399 -0.00153062444526)
(0.00352714904924 0.0256762405033 -0.000604527904298)
(0.0032652597419 0.0258516949958 -0.000948450184501)
(-0.00663617572645 0.0221853030034 -0.00166742287034)
(-0.00347879650957 0.025674794934 -0.000603399788956)
(-0.00321737672051 0.0258499702126 -0.000946600629706)
(-0.0129338613165 0.0216335740534 -0.0021494377761)
(-0.010334728329 0.0252966554639 -0.000863843435593)
(-0.0095716556407 0.0254706938804 -0.00134886740133)
(-0.0183169677896 0.0208533007762 -0.00302223525052)
(-0.0165732277448 0.0246276375956 -0.00152923418429)
(-0.0153984769848 0.0247894643704 -0.00230965574846)
(-0.0221757765867 0.0199578369058 -0.0041960371263)
(-0.0214220108964 0.0237775182561 -0.00259043116053)
(-0.0200775529533 0.023900652477 -0.00383516092917)
(-0.0240042630154 0.0189794321242 -0.005613067996)
(-0.0242708999497 0.0228230170451 -0.00392464813664)
(-0.0230847330259 0.0228356052876 -0.00579151763232)
(-0.0232036660858 0.0178901511247 -0.00730026959625)
(-0.0249922336046 0.0217055528705 -0.00559427455584)
(-0.024194105599 0.0215400275464 -0.00815981080072)
(-0.0193572844105 0.0169016940122 -0.0087041787592)
(-0.0223995511166 0.0203918120775 -0.00755919656126)
(-0.0226726836341 0.0199956789487 -0.0108063243845)
(-0.0128872914347 0.0162112661437 -0.00884957124396)
(-0.0169022764224 0.0193572062086 -0.00870443879223)
(-0.0185470052781 0.0185447047194 -0.012939085977)
(-0.00514594875372 0.0156644271314 -0.00614832973298)
(-0.00899119630654 0.0185767199179 -0.00813693729766)
(-0.0119027779949 0.0173728312833 -0.0136572674438)
(-0.0016366314956 0.0177084339676 -0.00323471244305)
(-0.00414059956839 0.016653779325 -0.0103021544622)
(0.00509896365208 0.0202369585029 -0.00522304548295)
(0.00146330871991 0.0207087682296 -0.00187483678841)
(0.0044102228588 0.0204066086651 -0.00810141615801)
(0.0134364047251 0.0213050842045 -0.00799346730139)
(0.00945348679142 0.0220744379775 -0.00693981050882)
(0.0128872859192 0.0213149006267 -0.0118345869096)
(0.0204019130803 0.0224020723571 -0.00756281269091)
(0.017898684846 0.023206582122 -0.00730452378826)
(0.0200081334736 0.0226754381269 -0.0108124785635)
(0.0245345800075 0.0237371109544 -0.00585857093893)
(0.0237456531934 0.0245241535049 -0.0058586436328)
(0.024336353762 0.0243263378198 -0.00826072234649)
(0.0254458809929 0.0250706927699 -0.00391207310826)
(0.0265042251785 0.0260357286598 -0.00363719148496)
(0.0258729866968 0.0259945338739 -0.00523610411316)
(0.0235426251078 0.026163943982 -0.00232512324073)
(0.0257844202791 0.027283707172 -0.00172020486371)
(0.0246519405011 0.0273494878154 -0.00254961833968)
(0.0194914635235 0.0270731053374 -0.00110327341851)
(0.0227728177087 0.0282282578393 -0.000225452708923)
(0.0214397264053 0.0283767793102 -0.000392129833424)
(0.013823157476 0.0278224907485 -0.000248013288604)
(0.0176469093661 0.0290178606743 0.000965542213746)
(0.0164927321096 0.0291705318869 0.00128434399556)
(0.00714268259478 0.02833281193 0.000197979362724)
(0.0110448993721 0.029622144683 0.00169108742802)
(0.0103205944829 0.0297384178481 0.00235905816839)
(2.4820893148e-05 0.0285146848545 0.000322696752001)
(0.00376027241476 0.0299561856228 0.00194871473021)
(0.00352018212259 0.0300485982091 0.00283791264573)
(-0.00709444377437 0.0283298908602 0.000200179645787)
(-0.00370928605197 0.0299543964314 0.00194989875096)
(-0.00346955163948 0.0300466101134 0.00283965969665)
(-0.0137790677277 0.0278169588337 -0.000243639843781)
(-0.0109967747702 0.0296169882981 0.00169483976323)
(-0.0102725596559 0.0297328006735 0.00236428741524)
(-0.0194540112661 0.0270657201662 -0.0010974300943)
(-0.0176047812628 0.0290099569408 0.000971644833871)
(-0.0164499292787 0.0291618063821 0.00129261955409)
(-0.023512910338 0.0261556813243 -0.00231904217087)
(-0.0227389842804 0.0282188999741 -0.000218573258512)
(-0.0214041757885 0.0283664494705 -0.000382488764804)
(-0.0254239148673 0.0250634701212 -0.00390585469647)
(-0.0257585850837 0.0272740527376 -0.00171388530421)
(-0.0246239867702 0.0273389616401 -0.00254003901302)
(-0.0245203273403 0.0237317711836 -0.00585320152084)
(-0.0264858393463 0.0260287399798 -0.00363038088617)
(-0.0258522092197 0.0259859652106 -0.00522678405528)
(-0.0203935933852 0.0223984476874 -0.00755945659429)
(-0.0237347003005 0.0245184800446 -0.0058540453276)
(-0.0243224657072 0.0243196139989 -0.00825341247413)
(-0.0134324226029 0.021303680372 -0.00799180484593)
(-0.0178924169889 0.0232034358191 -0.00730145696103)
(-0.0199994113709 0.022670938288 -0.0108074116932)
(-0.00509768289861 0.0202383638445 -0.00522332000773)
(-0.00945064989965 0.0220738222347 -0.00693825945999)
(-0.01288224254 0.0213126015406 -0.0118318539676)
(-0.0014632606532 0.0207122613535 -0.0018756093345)
(-0.00440916930601 0.0204073889428 -0.00810151803676)
(0.00544013636325 0.022213256768 -0.00359160181428)
(0.00154238336757 0.0209702656215 -0.000747823827606)
(0.00476121250025 0.0216944241671 -0.00570163844249)
(0.0143532569415 0.0236501347683 -0.00625086699569)
(0.0101123511907 0.0226469698652 -0.00553163192904)
(0.0140004137983 0.0227386735015 -0.00948565817818)
(0.0217184513989 0.0249966658652 -0.00560035473015)
(0.018991025714 0.0240099544034 -0.00561922680584)
(0.0215554148596 0.024199267705 -0.00816857315805)
(0.0260476268415 0.0264905779047 -0.00363726417883)
(0.0250805687656 0.0254313892209 -0.00391322994022)
(0.0260055761653 0.0258596041637 -0.00523641775944)
(0.0269936003117 0.0279500066736 -0.00144532324041)
(0.0279646412852 0.0269779837686 -0.00144636157489)
(0.027498845341 0.0274850266491 -0.00188823464715)
(0.0249792968353 0.0291012670942 0.000379465668098)
(0.0271837012157 0.0282207764784 0.00073362175501)
(0.0261258176197 0.0287993950931 0.00107722945922)
(0.0206748612996 0.0299700227563 0.00184336292334)
(0.0239688221123 0.0290892366705 0.00245204852111)
(0.0226793856475 0.0297244337947 0.00344345400348)
(0.0146561940155 0.0306451907155 0.00290464293037)
(0.0185405978532 0.029769097428 0.00384134243144)
(0.0174241239093 0.0303896019129 0.00526743014078)
(0.00757035119658 0.0310927298688 0.0034418227955)
(0.0115883490752 0.0302764262751 0.00470937799819)
(0.0108982600532 0.0308403239737 0.00643156285917)
(2.59435242695e-05 0.0312511719958 0.00357591672917)
(0.00394210697389 0.0305646131942 0.00503564469948)
(0.00371872756183 0.0310787777485 0.00693598314297)
(-0.00751996675474 0.0310888414608 0.00344455886841)
(-0.00388974197456 0.0305624792183 0.00503695643934)
(-0.00366647076535 0.0310764794755 0.00693783110443)
(-0.0146103280853 0.030637912594 0.00291012444088)
(-0.0115389508883 0.0302702051926 0.00471375550583)
(-0.0108488197037 0.030833729004 0.00643714767204)
(-0.0206360191297 0.0299604703917 0.00185050166966)
(-0.0184973586017 0.0297595161447 0.00384809718034)
(-0.0173801854439 0.0303796441027 0.00527613373355)
(-0.0249484636094 0.029090913803 0.000386583608146)
(-0.0239339120567 0.0290778523595 0.00245943258144)
(-0.022642870424 0.0297127348865 0.0034534917993)
(-0.0269708024997 0.027941017907 -0.00143841149391)
(-0.0271567902286 0.0282092764441 0.000740319534773)
(-0.026096961134 0.0287875973499 0.00108711229664)
(-0.0260324477727 0.0264835442089 -0.00363122469294)
(-0.0279452977282 0.0269692044873 -0.00143917524658)
(-0.0274771718849 0.0274753522473 -0.00187882470316)
(-0.0217092040544 0.0249915449722 -0.00559604569435)
(-0.025068515223 0.0254238522125 -0.00390827503547)
(-0.025990589613 0.0258516071448 -0.00522862344819)
(-0.0143485120622 0.0236477280449 -0.00624791157508)
(-0.018983692074 0.0240053391532 -0.00561557057628)
(-0.0215457809137 0.0241939286179 -0.00816260442821)
(-0.00543857327395 0.0222146110948 -0.00359054878675)
(-0.0101086249498 0.0226453716642 -0.00552912335693)
(-0.0139945585177 0.0227361142112 -0.00948149842878)
(-0.00154231162207 0.0209738447266 -0.00074786950587)
(-0.00475989864946 0.0216961363821 -0.00570016341086)
(0.00585487893705 0.0213487508265 -0.00268785394237)
(0.00181835949465 0.0191657646898 -0.000133327255239)
(0.00508336316842 0.0205303129794 -0.00405038332108)
(0.0152130750215 0.0228802827163 -0.0048999917392)
(0.0108203840861 0.0208132474 -0.0044013521874)
(0.014954557111 0.0216293592507 -0.00752447978441)
(0.0228395300443 0.0242793230541 -0.00393210201591)
(0.0199726199842 0.0221863448243 -0.00420397289206)
(0.0228546064441 0.0230940788047 -0.00580285182639)
(0.0272965069066 0.0257681204664 -0.00172232733628)
(0.0261755896935 0.0235263300708 -0.00232813718627)
(0.0273617527034 0.024636868972 -0.00255192359442)
(0.0282368872839 0.0271667004228 0.000732583420533)
(0.0291172187587 0.0249623427981 0.000376361734298)
(0.0288138202563 0.0261108504251 0.00107525604269)
(0.0260922480969 0.0282075848943 0.00280620460802)
(0.0282254669668 0.0260750623154 0.00280501955224)
(0.0272825548035 0.0272675251008 0.00429035094082)
(0.021557955245 0.0289531674134 0.00445002802921)
(0.024824205722 0.0268150082661 0.00472044699243)
(0.0236153220203 0.028041872233 0.00680852157074)
(0.0152538722343 0.0295096283021 0.00564607749927)
(0.0191538800604 0.0273678054787 0.00627191824218)
(0.0180993853804 0.0285728964094 0.00870537795401)
(0.00786513603821 0.0298668321933 0.00630319990217)
(0.0119409768887 0.0277698333806 0.00720465108855)
(0.0112983021393 0.0289313096193 0.00989533431397)
(2.61874636159e-05 0.029989129286 0.00649668440965)
(0.00405199856218 0.0279793319721 0.00745979562209)
(0.00384879909013 0.0291187910844 0.0104242364544)
(-0.00781420697262 0.0298622636193 0.00630615307676)
(-0.00400009745742 0.0279767899435 0.00746067668542)
(-0.00379637839566 0.0291163393448 0.0104260908892)
(-0.0152074503093 0.0295011221626 0.00565172824528)
(-0.0118919578717 0.0277625865503 0.0072077799188)
(-0.0112487464534 0.0289242526497 0.00990086866945)
(-0.0215183945956 0.028941981727 0.00445702809211)
(-0.0191107849887 0.0273567543588 0.00627885243944)
(-0.0180553357297 0.0285621754747 0.00871371120167)
(-0.0260604889358 0.0281953830944 0.00281316850807)
(-0.0247892589179 0.0268017708456 0.00472774778245)
(-0.0235785213563 0.028029106121 0.00681817856704)
(-0.0282129122587 0.0271557739849 0.000739555782102)
(-0.0281982928188 0.0260616144439 0.00281181815942)
(-0.0272531628324 0.0272545562717 0.00430008502396)
(-0.0272800740412 0.0257591742843 -0.00171622558912)
(-0.0290973783948 0.0249512492219 0.000383899466065)
(-0.0287914891869 0.0260998581035 0.00108511374811)
(-0.022828964418 0.0242725653016 -0.00392779991741)
(-0.0261630720494 0.0235166323295 -0.00232313649581)
(-0.0273461195861 0.0246274117544 -0.00254389559204)
(-0.0152071350687 0.0228766890931 -0.00489678235813)
(-0.0199644964388 0.0221798586705 -0.00420001725477)
(-0.0228441002483 0.0230875938106 -0.00579635661843)
(-0.00585266035551 0.0213495440823 -0.00268644407605)
(-0.0108158634284 0.020810175984 -0.00439817616479)
(-0.0149479184859 0.0216261134666 -0.007519288107)
(-0.00181818116296 0.0191685736678 -0.000132901514356)
(-0.00508168460048 0.0205320379531 -0.00404739547239)
(0.0064395490522 0.0186628975908 -0.00184682550027)
(0.00229808357551 0.0156541056183 0.000300531602334)
(0.00547780602931 0.0176396669798 -0.00292789612704)
(0.0160964770959 0.0201230223148 -0.00370533334027)
(0.0115842496651 0.0170581005629 -0.00341732501137)
(0.0158409848493 0.0186915557443 -0.00590178815185)
(0.0237964910383 0.0214369906254 -0.00260000806242)
(0.0208707179776 0.0183356189435 -0.00303197576707)
(0.0239227758632 0.0200935578422 -0.00384929497728)
(0.0282433322542 0.0227558984628 -0.000229448115691)
(0.0270875204541 0.0194762917632 -0.00110815572546)
(0.0283915831189 0.0214246088203 -0.000396809007008)
(0.0291069969648 0.0239516328878 0.00244879786601)
(0.0299882210713 0.0206597321794 0.00183776217801)
(0.0297407217245 0.0226649770294 0.0034389414198)
(0.0268332907614 0.0248065729716 0.00471926193666)
(0.028972826796 0.0215429065837 0.00444582090281)
(0.0280581136685 0.0236013356366 0.00680585979226)
(0.022121442596 0.0253849742752 0.0065423372054)
(0.0254039836954 0.0221059480362 0.00654024677296)
(0.0242195295444 0.0242049589763 0.00942090887559)
(0.0156053359942 0.0257854006646 0.00783049183147)
(0.0195473013075 0.0224827852769 0.0080810415664)
(0.0185254215012 0.0246120972889 0.011401129783)
(0.008015664232 0.0260519433541 0.00836124680847)
(0.0121413018209 0.022698054842 0.0087678385318)
(0.0115435509807 0.0248801028013 0.0126614551976)
(2.54449572731e-05 0.0261554609074 0.00842378789786)
(0.00409904211195 0.0228555223434 0.00886189331741)
(0.00392737208209 0.0250404640315 0.0131140349912)
(-0.00796616928678 0.0260469759627 0.00836230352745)
(-0.00404995766591 0.0228528910391 0.0088622568797)
(-0.00387625717485 0.0250379000382 0.013115519627)
(-0.015559851326 0.0257757590853 0.00783490411296)
(-0.0120948651612 0.0226902543912 0.00876917188114)
(-0.0114953921427 0.0248726895577 0.0126660201868)
(-0.0220828192147 0.0253720322764 0.00654957212978)
(-0.0195065458939 0.0224703043428 0.00808570229386)
(-0.0184827461118 0.0246005438856 0.0114094225268)
(-0.0268022565109 0.0247924366327 0.00472639743381)
(-0.025370822053 0.0220910463096 0.00654745800073)
(-0.024184022534 0.0241910935277 0.00943016419884)
(-0.0290835022072 0.0239384318778 0.00245616184339)
(-0.0289472098954 0.0215274538667 0.00445252124881)
(-0.0280297902366 0.0235869682049 0.00681540589513)
(-0.0282272047211 0.022744531075 -0.000223011440622)
(-0.029969403297 0.0206460405206 0.00184527328096)
(-0.0297191920688 0.0226521104034 0.00344890801217)
(-0.023785930284 0.0214279381709 -0.00259535383317)
(-0.0270758150868 0.0194640521155 -0.00110326642714)
(-0.0283765716061 0.021413215757 -0.000388699843639)
(-0.0160901465471 0.0201173139045 -0.00370141106143)
(-0.0208628921761 0.018326439364 -0.00302776086575)
(-0.0239124057206 0.0200850946309 -0.00384237187629)
(-0.00643705042252 0.018662014087 -0.0018446336031)
(-0.0115796783662 0.0170525694315 -0.00341346968568)
(-0.0158342037278 0.0186864374895 -0.00589549829371)
(-0.00229812071544 0.0156547844947 0.000301511704944)
(-0.00547593190616 0.0176397574009 -0.00292326732395)
(0.00710236291617 0.0142662081099 -0.00126996790876)
(0.00286875712916 0.0109476978483 0.000451649784655)
(0.00596278619489 0.0132930062948 -0.00239596231803)
(0.016950416429 0.0154795694943 -0.00274396743817)
(0.0122958082206 0.0119343033613 -0.00273938459683)
(0.0166434540842 0.0141700243324 -0.00472426435474)
(0.0246486970009 0.0165983193975 -0.00154012343012)
(0.0216523296561 0.0129625528297 -0.00215932907602)
(0.0248136066461 0.0154240453896 -0.00232522245152)
(0.0290357448168 0.0176329451307 0.000959054568233)
(0.0278392829748 0.0138122991913 -0.000254439371245)
(0.0291882546738 0.0164802309342 0.00127693754977)
(0.0297892268394 0.0185270076796 0.00383478521481)
(0.0306653540803 0.0146465431743 0.00289698563644)
(0.030408357085 0.0174130332013 0.00525970124104)
(0.0273881420618 0.0191405177046 0.00626680573911)
(0.0295311771939 0.0152449178529 0.00563830524263)
(0.0285911457364 0.0180891470046 0.00869906970242)
(0.0224999682335 0.0195333674499 0.00807895113396)
(0.0258057898079 0.0155970383509 0.00782785047643)
(0.0246283015958 0.0185153016742 0.0113970818293)
(0.0157963232172 0.0197856558837 0.00901838826674)
(0.0198012731585 0.0157873604967 0.00901841079259)
(0.0188127370542 0.0188016123707 0.013399069964)
(0.00809273392205 0.019949939772 0.00926848504074)
(0.0122441077739 0.0158979131569 0.00939645527913)
(0.0116956874872 0.0189810675887 0.0145037325205)
(2.33661988296e-05 0.0200178423989 0.00930036229925)
(0.00410839448343 0.0159985940252 0.00945385643903)
(0.00396129335867 0.0190935667786 0.0149262984002)
(-0.00804732205579 0.0199445802574 0.00926912523338)
(-0.00406455015054 0.0159960651098 0.0094541232161)
(-0.0039138235593 0.0190909201178 0.0149275168049)
(-0.0157547868889 0.0197752949602 0.00901997006203)
(-0.0122026988852 0.0158901710962 0.0093973972733)
(-0.0116510199943 0.0189732763434 0.014507550438)
(-0.0224643752475 0.0195190701879 0.00808358816481)
(-0.0197652798149 0.0157747569531 0.0090202149125)
(-0.01877357727 0.0187895535407 0.0134051370477)
(-0.0273599046911 0.0191242761013 0.00627358181573)
(-0.0257766974411 0.0155809617313 0.00783249680256)
(-0.0245959209131 0.0185003573641 0.0114056136914)
(-0.0297679611301 0.0185111304917 0.00384163268638)
(-0.0295088997405 0.0152279363854 0.00564373275195)
(-0.0285656708669 0.0180733085564 0.00870757148877)
(-0.0290211973558 0.0176185529665 0.000965018294438)
(-0.0306491334937 0.0146305651233 0.00290304461113)
(-0.030389157995 0.0173980824752 0.00526870700705)
(-0.0246392324964 0.0165861993634 -0.00153567345972)
(-0.0278296218785 0.0137977735891 -0.000250480722535)
(-0.0291752447039 0.0164666318195 0.00128430714065)
(-0.0169446913884 0.0154708045098 -0.00273981949)
(-0.0216461016025 0.0129507019632 -0.00215573268016)
(-0.0248047846683 0.0154129304415 -0.00231881168191)
(-0.00710029861228 0.0142624803324 -0.00126732437764)
(-0.0122922941847 0.0119261500817 -0.00273579726725)
(-0.0166378025201 0.0141620978204 -0.00471798247607)
(-0.00286919867403 0.0109454933626 0.000452900734545)
(-0.00596129376378 0.013289828087 -0.00239101386763)
(0.00771483620409 0.00879575640143 -0.00101776690341)
(0.00333940701505 0.00558800031629 0.000425650373341)
(0.00645500164206 0.00811636834039 -0.00235514700819)
(0.0176662355499 0.00959726713355 -0.00215474623468)
(0.0128201396666 0.00608554720008 -0.00242080987094)
(0.0172845398882 0.00869571914528 -0.00410265252795)
(0.0253173830343 0.0103711572375 -0.000873645017151)
(0.0222025122674 0.00667361280615 -0.00167510984909)
(0.0254940513719 0.00960699930983 -0.00136221685027)
(0.0296415649194 0.0110377829235 0.00168349169696)
(0.0283499119939 0.00713792312823 0.000191514206064)
(0.0297575775899 0.0103133809029 0.00235018539581)
(0.030297830308 0.0115827776898 0.00470050566426)
(0.0311128058419 0.00756841988675 0.00343439965184)
(0.0308604604278 0.0108933833789 0.0064218502142)
(0.027791855734 0.0119362482238 0.00719934997995)
(0.0298882909485 0.00786504843328 0.00629452409505)
(0.0289508150777 0.0112949870232 0.00988583774093)
(0.0227166012879 0.012136875437 0.00876731013506)
(0.0260721658092 0.00801655146928 0.00836065185101)
(0.0248972746313 0.0115410177027 0.0126557365074)
(0.0159090905962 0.0122385788839 0.00939647780498)
(0.019966020084 0.00809381949903 0.0092690475615)
(0.0189938370342 0.0116932256283 0.0145010480654)
(0.0081324224494 0.0123012304276 0.00958182667743)
(0.0123081461654 0.00813156329803 0.00958209747888)
(0.0117758488417 0.0117717340039 0.0155430152001)
(2.02574005088e-05 0.0123324211418 0.00960761735589)
(0.00411625824232 0.00817269327151 0.00962516522087)
(0.00397355050931 0.0118264141918 0.0159380634588)
(-0.00809316237328 0.012296139745 0.00958239525603)
(-0.00407857527414 0.00817050357715 0.00962539650169)
(-0.00393170580406 0.0118239307784 0.0159389791438)
(-0.0158735675546 0.0122283641883 0.00939764212378)
(-0.0122728712252 0.00812468149439 0.00958287109534)
(-0.0117366570148 0.0117642270357 0.0155458924985)
(-0.0226866501033 0.0121223643745 0.00876912355025)
(-0.0199357547062 0.00808226697261 0.00927028737695)
(-0.0189598177631 0.0116812264004 0.0145055697515)
(-0.0277682108431 0.0119192109869 0.00720264773877)
(-0.0260483248038 0.00800140538702 0.00836229528845)
(-0.0248697865329 0.0115258889505 0.0126611133392)
(-0.0302804827362 0.0115653228579 0.0047051446767)
(-0.0298704010134 0.00784833146408 0.00629718741982)
(-0.0289296660662 0.0112785259605 0.00989187173691)
(-0.0296301578194 0.011021365799 0.00168754559416)
(-0.0311002310349 0.00755201333108 0.00343779412988)
(-0.0308450804989 0.0108772373161 0.00642822031953)
(-0.0253105522869 0.0103567498465 -0.000870539942972)
(-0.0283433175037 0.0071228083206 0.000193620562517)
(-0.0297480658768 0.0102983964058 0.00235535184517)
(-0.0176624813833 0.00958597485056 -0.00215171045741)
(-0.0221991082671 0.00666070038596 -0.00167333734438)
(-0.0254883617578 0.00959409133082 -0.00135807826357)
(-0.00771383073568 0.00878912145251 -0.00101557215506)
(-0.0128187299714 0.00607587657063 -0.00241896004254)
(-0.0172813578384 0.00868544650467 -0.00409838694845)
(-0.00334006536171 0.00558326525576 0.000426658584854)
(-0.00645437497863 0.00810989690829 -0.0023516095858)
(0.0080853303889 0.00295511865388 -0.000977392594191)
(0.00352101685065 3.39767126562e-07 0.000391320486777)
(0.00676873158491 0.00271489776902 -0.00249767939792)
(0.0180818084839 0.00323995576869 -0.00194117348535)
(0.0130131756913 1.1558998592e-05 -0.00234496245771)
(0.0176282610582 0.00291929434488 -0.00392250057355)
(0.0256918202117 0.00352396527781 -0.000609950625874)
(0.0223997722873 1.99292327172e-05 -0.00153478788746)
(0.0258686895479 0.00326032593755 -0.000956338930582)
(0.0299742454226 0.00376080549756 0.00194242216094)
(0.0285290439829 2.57395522696e-05 0.000317532790579)
(0.0300664876075 0.00351882086864 0.00282974810383)
(0.0305842018875 0.00394564192992 0.00502841808263)
(0.0312678976529 3.12629088487e-05 0.00357033511271)
(0.0310973372069 0.00372080091693 0.00692719116212)
(0.0280001901786 0.00405742902911 0.0074558259661)
(0.0300068891839 3.44057347664e-05 0.00648991281998)
(0.0291367396722 0.00385342955121 0.0104146461503)
(0.0228728888951 0.00410543517825 0.00886238927745)
(0.0261723702002 3.53506727118e-05 0.00842385527645)
(0.0250562954872 0.00393381089193 0.0131084948579)
(0.016009592202 0.00411427156565 0.0094546672354)
(0.020031126709 3.36701456392e-05 0.00930135147675)
(0.0191053179956 0.00396850487632 0.0149234396147)
(0.00817463773878 0.00412056294428 0.00962543602232)
(0.0123382300517 2.94538646103e-05 0.00960793041944)