/*--------------------------------*- C++ -*----------------------------------*\
| =========                 |                                                 |
| \\      /  F ield         | OpenFOAM: The Open Source CFD Toolbox           |
|  \\    /   O peration     | Version:  3.0.1                                 |
|   \\  /    A nd           | Web:      www.OpenFOAM.org                      |
|    \\/     M anipulation  |                                                 |
\*---------------------------------------------------------------------------*/
FoamFile
{
    version     2.0;
    format      ascii;
    class       surfaceVectorField;
    location    "7.9";
    object      Uf_0;
}
// * * * * * * * * * * * * * * * * * * * * * * * * * * * * * * * * * * * * * //

dimensions      [0 1 -1 0 0 0 0];

internalField   nonuniform List<vector> 
22672
(
(0.00606399979227 0.00274941421555 -0.00457563029661)
(0.00274655986785 0.00606779828787 -0.00457494388932)
(0.00374145363374 0.00374486869589 -0.0121318001134)
(0.0125021744342 0.0020769166988 -0.0041481114454)
(0.0090750015434 0.00547404024259 -0.0062211538814)
(0.0106700419498 0.00389994966917 -0.0119122180767)
(0.017649929125 0.00162199871029 -0.00322227796636)
(0.0156119449144 0.00512066498725 -0.00613522017757)
(0.0166117369679 0.00412588996433 -0.0102684250155)
(0.0206548093508 0.00144839552002 -0.00186847373372)
(0.0201811235771 0.00507205159674 -0.00521364385586)
(0.0203655017568 0.00439318945119 -0.00807693985345)
(0.0209262225198 0.00152759458311 -0.000744695510488)
(0.0221668447708 0.00541278061774 -0.0035891598959)
(0.0216646890119 0.00474348353635 -0.00568420470927)
(0.0191324572989 0.00180321694825 -0.000130545901507)
(0.0213101509931 0.00582882677302 -0.00268525434535)
(0.0205105722576 0.0050650341381 -0.00403507519537)
(0.0156322847303 0.00228155894904 0.00030263650908)
(0.0186361648129 0.0064124540507 -0.001845832757)
(0.0176320797083 0.0054578163334 -0.00291229740734)
(0.0109378289941 0.00285101819044 0.000452605242973)
(0.0142511494008 0.00707379491496 -0.00127007168382)
(0.0132944621395 0.00594066766386 -0.00237935677863)
(0.00559117661847 0.00332113587184 0.00042501150181)
(0.00879123465176 0.00768574109381 -0.00101917396138)
(0.00812240441441 0.00643180738568 -0.00233910740756)
(1.80596472203e-05 0.00350256752817 0.000390284323054)
(0.00296209544684 0.00805645646782 -0.000980535566825)
(0.00272426615278 0.00674531718798 -0.00248335883627)
(-0.00555623188621 0.00332195826669 0.000425756266439)
(-0.00292311024508 0.0080562776007 -0.00097972292705)
(-0.00268584670868 0.0067452668294 -0.00248200580832)
(-0.0109061216003 0.0028521376686 0.000454069655051)
(-0.00875437457763 0.00768513436139 -0.00101687144986)
(-0.00808621156862 0.00643151486481 -0.00233526467568)
(-0.0156057309968 0.00228230723971 0.000304816488704)
(-0.0142188036058 0.00707257607145 -0.0012664130757)
(-0.0132628449086 0.00593978671817 -0.00237298688656)
(-0.0191121296575 0.00180343455292 -0.000128081953249)
(-0.0186105876759 0.00641058263596 -0.00184156284288)
(-0.0176070577836 0.00545620980257 -0.00290420412738)
(-0.0209118562099 0.00152764828731 -0.000742263703709)
(-0.0212917647802 0.00582672966507 -0.00268145107538)
(-0.0204924615556 0.00506309639217 -0.00402702277069)
(-0.0206465203495 0.00144837390589 -0.0018666463202)
(-0.022153558526 0.00541157316515 -0.00358497898934)
(-0.0216517583749 0.00474173858971 -0.00567692766407)
(-0.0176456692254 0.00162194021724 -0.00322158462971)
(-0.0201749357525 0.0050708706898 -0.00521144823364)
(-0.0203581248161 0.00439172470739 -0.00807173890512)
(-0.0125003395676 0.00207692607043 -0.00414840365958)
(-0.0156084884518 0.00512000312506 -0.00613438292434)
(-0.0166073994952 0.00412487420081 -0.0102653482842)
(-0.00606349642673 0.00274941651195 -0.00457652274113)
(-0.00907385942369 0.00547364482584 -0.00622155914048)
(-0.01066811033 0.00389905524492 -0.0119105028993)
(-0.0027463701236 0.00606783702646 -0.00457610306663)
(-0.00374114983242 0.00374397824783 -0.0121313433051)
(0.00547166192827 0.00907819001216 -0.00622046747411)
(0.00207481508235 0.0125052535869 -0.00414645973371)
(0.00389870657332 0.0106721952388 -0.0119091198358)
(0.0126142829343 0.00887919924016 -0.00820826261358)
(0.00887749831642 0.0126149771226 -0.00820764820724)
(0.0111559010323 0.011155178211 -0.0142835619915)
(0.0185245868061 0.00895427699641 -0.00812658606708)
(0.0161626964156 0.0128428625687 -0.00884001905924)
(0.0173362058349 0.0118690258731 -0.0136325078283)
(0.0220246431186 0.00941389209498 -0.00693433001804)
(0.0212529260229 0.0133884929205 -0.00798611647459)
(0.0212756073042 0.0128450531406 -0.0118165066562)
(0.0226067417824 0.0100740489144 -0.00552971873076)
(0.0236059124727 0.014306514998 -0.00625031984735)
(0.0227079731173 0.0139558752281 -0.00947584470417)
(0.0207826405304 0.010783122628 -0.00440054120084)
(0.0228440624484 0.0151706553548 -0.00489963364409)
(0.0216074663724 0.0149099337762 -0.00751774125689)
(0.0170380994182 0.0115460057973 -0.0034185409499)
(0.0200967846717 0.0160548372924 -0.0037076936674)
(0.0186802123465 0.01579483712 -0.00589785773458)
(0.0119243036568 0.0122566690842 -0.00274185088817)
(0.0154632942773 0.0169088050162 -0.00274858031481)
(0.0141676083691 0.0165962621113 -0.004721230969)
(0.00608457246622 0.0127811257265 -0.00242472103001)
(0.00958922483736 0.0176251269325 -0.00216109568542)
(0.00869807951966 0.0172386552989 -0.00409967177122)
(2.0823921205e-05 0.0129759054072 -0.00235054281693)
(0.00324070138548 0.0180419621609 -0.00194990506613)
(0.00292420832472 0.0175843355563 -0.0039217744718)
(-0.00604399352254 0.0127795761943 -0.00242235064335)
(-0.00319655902361 0.0180409392954 -0.00194870438121)
(-0.00288055973959 0.0175830273142 -0.00391986171354)
(-0.0118869186944 0.0122538220177 -0.00273735418061)
(-0.00954733831573 0.017622161829 -0.00215765408681)
(-0.00865646299769 0.017234782982 -0.00409411997141)
(-0.0170064966097 0.0115422725743 -0.00341279240729)
(-0.015426467054 0.0169045349288 -0.00274303370795)
(-0.0141305351872 0.0165907253738 -0.00471239889473)
(-0.0207581490375 0.0107789877676 -0.00439493196501)
(-0.0200675548578 0.016049748387 -0.0037015426836)
(-0.0186501118491 0.0157881630051 -0.00588753145429)
(-0.0225888417623 0.0100706812747 -0.00552416636101)
(-0.0228224677297 0.0151653056667 -0.00489419588501)
(-0.021584767229 0.0149030767337 -0.00750790127202)
(-0.0220138454692 0.00941152716936 -0.00692978090278)
(-0.0235903715743 0.0143031084837 -0.00624417453717)
(-0.0226911933945 0.0139503557973 -0.00946654901123)
(-0.0185188636781 0.00895254754108 -0.00812424652827)
(-0.0212449473221 0.0133857233282 -0.00798260919725)
(-0.0212654406894 0.0128405755821 -0.0118098507464)
(-0.0126117834469 0.00887825100797 -0.00820753840524)
(-0.0161583342406 0.012841285404 -0.00883817465531)
(-0.0173299831776 0.0118657357455 -0.0136283776567)
(-0.00547091739688 0.00907802358687 -0.00622113946598)
(-0.00887594379503 0.012614385996 -0.00820747886185)
(-0.0111527128784 0.0111526550086 -0.0142816218512)
(-0.00207471203933 0.0125060839024 -0.00414776396096)
(-0.00389818355745 0.0106708080812 -0.0119091736926)
(0.00511918433626 0.0156123185758 -0.00613364046684)
(0.00162043076 0.017650326119 -0.00322025903985)
(0.00412563986096 0.0166108359285 -0.0102642600302)
(0.0128434922232 0.0161609171463 -0.0088394046529)
(0.00895360765544 0.0185215430976 -0.00812487003099)
(0.0118712253269 0.0173318743272 -0.0136308784557)
(0.0193088105254 0.01685341029 -0.00869954946675)
(0.0168565127986 0.0193041876405 -0.00869915381112)
(0.0185071243376 0.0185013106506 -0.0129266498763)
(0.0231586083393 0.0178456540555 -0.00730210630391)
(0.022353327532 0.0203428330449 -0.00755824356691)
(0.0226336363223 0.0199513727376 -0.0108041464451)
(0.0239701276699 0.0189419794683 -0.00562023476068)
(0.024954695646 0.0216628088639 -0.0056013904994)
(0.0241637323215 0.0214981698372 -0.00816782345264)
(0.022155062379 0.0199277764385 -0.00420678611065)
(0.0242454837921 0.0227915561791 -0.00393350422844)
(0.0230661863357 0.0228001403883 -0.00580584697267)
(0.0183131294567 0.0208279567518 -0.00303773303231)
(0.0214111376089 0.0237530389585 -0.00260356344589)
(0.0200738638877 0.0238699074976 -0.00385628068813)
(0.0129485049068 0.021611108494 -0.00216782511206)
(0.0165801740451 0.024608950661 -0.00154593207122)
(0.0154122754993 0.024762208186 -0.00233553294417)
(0.00666668750959 0.0221632930117 -0.00168627972154)
(0.0103594207297 0.0252805241391 -0.000881888732657)
(0.00960077252513 0.025444541604 -0.00137359122239)
(2.32053609504e-05 0.0223637721582 -0.00154806663041)
(0.00351978167931 0.025659150789 -0.000620950195788)
(0.00325928791812 0.0258225713144 -0.000973717435444)
(-0.00662169302079 0.0221609150472 -0.00168400782468)
(-0.00347173038227 0.0256577383109 -0.000619827283027)
(-0.0032117942678 0.025820861146 -0.000971911387939)
(-0.012907198823 0.0216067095496 -0.00216333361415)
(-0.0103139663129 0.0252765539709 -0.000878548995864)
(-0.00955542971517 0.0254396562539 -0.00136889728379)
(-0.0182783846889 0.0208221542858 -0.00303178398426)
(-0.0165403287971 0.0246027604457 -0.00154042016631)
(-0.0153717668237 0.02475481147 -0.00232705116699)
(-0.0221279474186 0.0199213245521 -0.0042008066036)
(-0.0213793015234 0.0237456481446 -0.00259729218874)
(-0.0200408236373 0.0238611047336 -0.00384634933761)
(-0.0239503013656 0.018936527258 -0.00561420406117)
(-0.0242214477186 0.0227837781347 -0.00392771900734)
(-0.0230406589741 0.0227911967446 -0.00579613157549)
(-0.0231461792381 0.017841734849 -0.00729700283164)
(-0.0249375882416 0.0216574438529 -0.00559493884093)
(-0.0241448768156 0.0214910769054 -0.00815847099009)
(-0.0193018769445 0.016850648056 -0.00869653732429)
(-0.022343691302 0.0203385735039 -0.0075542370766)
(-0.0226214771187 0.0199457567299 -0.01079716594)
(-0.0128404065398 0.0161595892086 -0.00883811511192)
(-0.0168511967605 0.019301824878 -0.00869679461428)
(-0.0184996259528 0.0184973560849 -0.0129220231162)
(-0.00511832377374 0.0156126599464 -0.00613410335682)
(-0.00895149486426 0.0185210270437 -0.00812427655119)
(-0.0118671330103 0.0173292856286 -0.0136287371021)
(-0.00162034901 0.0176525080344 -0.00322158791252)
(-0.00412500649423 0.0166101848486 -0.0102647564621)
(0.00507128451481 0.0201784311282 -0.005211488604)
(0.00144769986058 0.0206509146973 -0.0018662062991)
(0.00439350070076 0.020360579004 -0.0080718767206)
(0.0133902060405 0.0212472733727 -0.00798461918922)
(0.0094145182888 0.0220164038267 -0.00693184448975)
(0.0128482880808 0.0212672336529 -0.0118137870959)
(0.0203486584137 0.022346182798 -0.00755784791128)
(0.0178502436717 0.0231490465143 -0.00730125192016)
(0.0199581833729 0.0226242089036 -0.0108033173843)
(0.0244804530602 0.0236857559735 -0.00585752776241)
(0.0236943237533 0.0244700054069 -0.00585760871396)
(0.0242836533236 0.0242736288245 -0.00825897420355)
(0.0253955342815 0.0250274688368 -0.00391465996717)
(0.0264547792446 0.0259885662312 -0.00364022301003)
(0.0258227454404 0.0259450363954 -0.00524084632206)
(0.023498170742 0.0261301378254 -0.00233028156369)
(0.0257405437727 0.0272477645757 -0.0017246949843)
(0.0246073363349 0.0273071380934 -0.00255885239987)
(0.0194547700145 0.0270479388255 -0.0011117624848)
(0.0227347156454 0.0282025039883 -0.000232215597782)
(0.0214019066244 0.0283424086274 -0.000406070941769)
(0.0137966929888 0.0278045978402 -0.000259995691818)
(0.0176170160657 0.0290019819065 0.000955729700801)
(0.0164636233503 0.0291441733361 0.00126504050382)
(0.0071284699153 0.0283197153633 0.00018344079309)
(0.0110255213493 0.0296134794191 0.00167969984916)
(0.0103021161615 0.0297175816098 0.00233526395909)
(2.46825727663e-05 0.0285034020461 0.000307289151597)
(0.00375347224002 0.0299515237808 0.00193662517191)
(0.00351373979482 0.0300315082723 0.00281141160033)
(-0.00708049443217 0.0283168557382 0.000185631545786)
(-0.00370274395013 0.0299497613563 0.00193780922374)
(-0.00346337188341 0.0300295525747 0.0028131516948)
(-0.013752781524 0.0277991501919 -0.000255635548033)
(-0.0109776185192 0.0296083987668 0.00168344617262)
(-0.0102542939786 0.0297121354586 0.00234043977727)
(-0.0194174759612 0.0270406232598 -0.0011059283708)
(-0.0175750689481 0.0289941493012 0.000961825238997)
(-0.0164209803303 0.0291355238153 0.00127330205575)
(-0.0234686030927 0.0261219266803 -0.00232420459248)
(-0.0227010454094 0.0281932032234 -0.000225341218025)
(-0.0213665038234 0.028332137424 -0.000396433062285)
(-0.0253736956328 0.0250202594771 -0.0039084537871)
(-0.0257148636951 0.0272381384236 -0.00171837377641)
(-0.0245795149805 0.0272966403396 -0.00254927472042)
(-0.0244662208568 0.0236804233567 -0.00585217308589)
(-0.026436474579 0.0259815258824 -0.00363349494846)
(-0.025802042572 0.0259363703346 -0.00523156546723)
(-0.0203403405944 0.0223425959045 -0.00755449436659)
(-0.023683354525 0.024464349577 -0.00585301554681)
(-0.0242697701543 0.0242669131865 -0.0082516662344)
(-0.0133862255445 0.0212459232547 -0.00798295605355)
(-0.0178439718585 0.0231459432024 -0.00729818262555)
(-0.0199494664729 0.0226197405376 -0.0107982441032)
(-0.00507000523335 0.0201799009148 -0.00521176110689)
(-0.00941168639101 0.022015841176 -0.00693028866591)
(-0.0128432531829 0.0212649768891 -0.0118110458801)
(-0.00144765415267 0.0206544713028 -0.00186697536975)
(-0.00439244520952 0.0203614154243 -0.00807197595681)
(0.00541349237323 0.0221572650065 -0.00358656218486)
(0.00152795702373 0.0209169025539 -0.000742832161834)
(0.00474484238747 0.0216531403051 -0.00567948437949)
(0.0143099689195 0.0235937824454 -0.0062484772207)
(0.0100759930529 0.0225931798847 -0.00552804143761)
(0.0139605689323 0.0226939603934 -0.00947325772028)
(0.0216703466219 0.0249419322099 -0.00560101272284)
(0.0189480850809 0.0239559010565 -0.00562037133878)
(0.0215064519149 0.0241499823592 -0.00816723801134)
(0.026000494816 0.0264411089516 -0.00364030396158)
(0.0250373717457 0.0253810314989 -0.00391583968669)
(0.0259560961105 0.0258093619116 -0.00524118016275)
(0.026950558501 0.0279100630671 -0.00145025802716)
(0.0279247279994 0.0269349169375 -0.00145130369574)
(0.0274528069351 0.0274389755322 -0.00189641964679)
(0.0249418850103 0.0290730054613 0.00037337098161)
(0.0271495962554 0.0281900293853 0.000729231345086)
(0.0260856936817 0.0287625628208 0.00106640488392)
(0.0206439231558 0.0299529081813 0.00183527658782)
(0.02393950295 0.0290700265689 0.00244709361114)
(0.0226456575458 0.0296977435222 0.00343043759253)
(0.0146337199869 0.0306375842776 0.00289542524177)
(0.0185175678322 0.0297607638452 0.00383469074302)
(0.017398019991 0.030373051178 0.00525142196102)
(0.00755836355918 0.0310912958652 0.00343288422798)
(0.0115733617362 0.0302760058167 0.0047020537011)
(0.0108814891929 0.0308315677171 0.00641283287219)
(2.58221957998e-05 0.0312518769759 0.00356714524405)
(0.00393679658779 0.0305680185823 0.00502923975495)
(0.00371282421394 0.0310741558759 0.0069160508836)
(-0.00750821014081 0.0310874493429 0.00343562385057)
(-0.00388466825762 0.0305658999837 0.0050305613574)
(-0.00366079803935 0.0310718789986 0.00691789863689)
(-0.0145880507679 0.0306303696776 0.00290090695965)
(-0.0115241796386 0.0302698293554 0.0047064275993)
(-0.0108322570409 0.0308250364193 0.00641841457707)
(-0.0206052576762 0.0299434187185 0.00184241239177)
(-0.0184745174999 0.0297512360534 0.00384143804782)
(-0.0173542639111 0.0303631531839 0.00526012328657)
(-0.0249112271456 0.02906271051 0.000380489598045)
(-0.0239047606614 0.0290586971633 0.00245447598783)
(-0.0226093154047 0.0296860973788 0.00344047636321)
(-0.0269279581122 0.0279011250668 -0.00144341493777)
(-0.0271228406725 0.0281786037823 0.000735935113364)
(-0.0260570871324 0.0287508088259 0.00107626371506)
(-0.0259852672028 0.0264341222602 -0.00363433740938)
(-0.0279054631323 0.0269262744121 -0.00144419208036)
(-0.0274312080676 0.0274293336972 -0.0018874440561)
(-0.0216610832397 0.0249368604808 -0.00559670380577)
(-0.0250253009629 0.0253735669008 -0.0039108833064)
(-0.0259410024924 0.0258013955948 -0.00523340813589)
(-0.0143052287845 0.0235914251014 -0.0062455152379)
(-0.0189407504313 0.0239513363479 -0.00561670697)
(-0.02149680549 0.0241446737729 -0.00816125611219)
(-0.00541193935625 0.0221586724235 -0.00358550292877)
(-0.0100722776757 0.0225916263564 -0.00552552782571)
(-0.0139547228469 0.0226914289255 -0.00946908432333)
(-0.00152789204424 0.0209205327316 -0.000742873926672)
(-0.00474353341691 0.0216548947964 -0.00567800726588)
(0.00583043609481 0.021297462971 -0.00268431141459)
(0.0018048663957 0.0191201024514 -0.000129730216296)
(0.0050675206175 0.0204946546114 -0.00403364080793)
(0.0151752873961 0.0228287708262 -0.00489993555569)
(0.0107870033659 0.0207662712757 -0.00440078779637)
(0.0149163063596 0.0215900849147 -0.00751794829879)
(0.022800261115 0.0242297572261 -0.00393519830263)
(0.0199360435191 0.0221384166522 -0.00420877247691)
(0.0228101507906 0.0230499243136 -0.00580749507434)
(0.0272605963348 0.0257242316551 -0.00172683942084)
(0.0261418064733 0.0234818896863 -0.00233333348052)
(0.0273194243771 0.0245922773535 -0.00256119858596)
(0.0282061690257 0.0271325732766 0.000728185676512)
(0.0290889884081 0.0249249289792 0.000370242226353)
(0.0287770067281 0.0260707289782 0.00106441151048)
(0.0260662801926 0.0281852076671 0.00280295397461)
(0.0282031141853 0.0260490856988 0.00280175979875)
(0.0272520692384 0.0272370368186 0.00428083099366)
(0.0215366192589 0.0289418362773 0.00444650776634)
(0.0248055838923 0.0267999611276 0.00471823096196)
(0.0235901789209 0.0280216725815 0.00679972765409)
(0.0152383303516 0.0295076844958 0.00564131920235)
(0.0191392611019 0.0273629914585 0.00626917103435)
(0.0180799900624 0.0285626701426 0.00869606532471)
(0.00785698029234 0.029870747501 0.00629840922808)
(0.0119312478327 0.0277728061341 0.00720295849892)
(0.0112857826777 0.0289287956022 0.00988455607003)
(2.60722913004e-05 0.0299948695524 0.0064926558683)
(0.00404852334143 0.0279862946348 0.00745874714312)
(0.00384434935041 0.0291202876823 0.010412639772)
(-0.00780627446634 0.0298662024604 0.00630136510612)
(-0.00399685606005 0.027983761496 0.00745963728309)
(-0.00379215389949 0.0291178482398 0.0104144936288)
(-0.0151921073476 0.0294992181117 0.00564695868747)
(-0.0118824468701 0.0277655887945 0.00720608074836)
(-0.0112364351503 0.0289217728671 0.00989008133965)
(-0.0214972304618 0.0289306934717 0.00445350164389)
(-0.0190963562187 0.0273519726098 0.00627609056846)
(-0.0180361241408 0.0285519871081 0.00870439285313)
(-0.0260346706844 0.0281730558821 0.00280992150315)
(-0.0247707945657 0.0267867548769 0.00472552742037)
(-0.0235535361026 0.0280089428319 0.00680938630817)
(-0.0281823160157 0.0271217237507 0.000735157970768)
(-0.0281760616559 0.0260356775048 0.00280856454038)
(-0.0272228106579 0.0272241175522 0.00429057228793)
(-0.0272441787914 0.0257153625968 -0.00172073797739)
(-0.0290692225674 0.0249138937818 0.000377772305979)
(-0.0287547458464 0.026059893212 0.00107424095865)
(-0.0227896965885 0.0242230506692 -0.00393088647063)
(-0.0261292969218 0.0234722359328 -0.00232832348582)
(-0.0273037922211 0.0245828669108 -0.00255315637149)
(-0.0151693609039 0.0228252200258 -0.0048967195578)
(-0.0199279338486 0.0221319715972 -0.0042047973002)
(-0.0227996520082 0.0230434734376 -0.00580097810345)
(-0.00582823189253 0.0212983007645 -0.00268289882361)
(-0.0107825043868 0.020763234899 -0.00439760560098)
(-0.0149096831706 0.0215868563467 -0.00751274614997)
(-0.00180470058107 0.0191229550097 -0.000129300435956)
(-0.00506585268898 0.0204964063783 -0.00403066007479)
(0.00641637538722 0.018620925356 -0.00184620659808)
(0.00228485781457 0.0156188090535 0.000302804864252)
(0.00546234618948 0.0176132695948 -0.00291508767619)
(0.0160625718756 0.0200795649387 -0.00370962471759)
(0.0115529253488 0.0170215920244 -0.0034206894792)
(0.0158043777252 0.0186609364494 -0.00590152366455)
(0.0237645663633 0.0213941802743 -0.0026069076548)
(0.020839487282 0.0182969640792 -0.00304158387882)
(0.0238831544954 0.0200567379495 -0.00386054824609)
(0.0282176081774 0.0227178201649 -0.000236251833324)
(0.027062365 0.0194396625432 -0.00111670000826)
(0.0283572394577 0.0213868324673 -0.000410820109362)
(0.0290878152074 0.0239223224066 0.00244381634859)
(0.0299711294173 0.0206288368313 0.00182963242304)
(0.0297140546027 0.022631284069 0.00342588135825)
(0.0268182538361 0.0247879528969 0.0047170367861)
(0.0289615145344 0.0215216006979 0.00444227456968)
(0.0280379185422 0.0235762203304 0.00679704500498)
(0.0221093018999 0.0253765543869 0.00654089422997)
(0.0253955623012 0.0220938301851 0.006538798776)
(0.0242036960996 0.0241891497891 0.00941508415747)
(0.0155964723728 0.0257853316862 0.00783081033092)
(0.0195406700413 0.0224795243834 0.00808169592282)
(0.0185133048021 0.0246052663539 0.0113963003949)
(0.00801069273924 0.0260572414882 0.00836329641396)
(0.0121365890504 0.0227009456446 0.00877056450309)
(0.0115354535296 0.0248798853413 0.012657645858)
(2.53278469197e-05 0.0261627630947 0.00842572855791)
(0.00409732223487 0.0228616795085 0.00886468764799)
(0.00392446497736 0.0250439237598 0.0131099869827)
(-0.00796142517037 0.0260522891179 0.00836435292533)
(-0.00404847825337 0.0228590533232 0.00886505144421)
(-0.00387358335115 0.025041367087 0.0131114685826)
(-0.0155511943827 0.025775712789 0.00783521262934)
(-0.0120903793383 0.0226931594272 0.00877189852768)
(-0.0114875112566 0.0248724890385 0.0126622055035)
(-0.0220708522478 0.0253636322106 0.00654811634494)
(-0.0195001137296 0.0224670589451 0.0080863418817)
(-0.0184708194394 0.0245937306033 0.0114045770852)
(-0.0267873579139 0.0247738337 0.0047241704576)
(-0.0253625589654 0.0220789312874 0.00654599593301)
(-0.024168343742 0.0241752945503 0.00942433252869)
(-0.0290644168546 0.0239091442719 0.00245117887559)
(-0.028936009591 0.0215061438879 0.00444897067725)
(-0.0280097074954 0.0235618604853 0.0068065930352)
(-0.028201513675 0.0227064766113 -0.000229813202456)
(-0.0299523814778 0.020615140913 0.00183713461039)
(-0.0296925884915 0.022618435325 0.00343584726509)
(-0.0237540148216 0.0213851505706 -0.00260223431539)
(-0.0270506697796 0.019427419211 -0.0011117971277)
(-0.0283422344162 0.021375451372 -0.000402687076906)
(-0.0160562765754 0.0200738796229 -0.00370568334338)
(-0.0208316828425 0.0182877979026 -0.00303731331187)
(-0.0238728045422 0.0200483172484 -0.00385357143903)
(-0.00641390399922 0.0186200684664 -0.00184400721333)
(-0.011548388206 0.0170160696557 -0.00341681919283)
(-0.0157976345607 0.0186558199661 -0.00589521559183)
(-0.00228491225693 0.0156195117443 0.000303791515549)
(-0.00546049426705 0.0176133674061 -0.00291046654395)
(0.00708002760281 0.0142361138902 -0.00127167801687)
(0.00285511295284 0.0109241599742 0.000453317128063)
(0.00594714180297 0.0132761863381 -0.00238538527213)
(0.0169199688749 0.0154474989353 -0.00275264864043)
(0.0122660342844 0.0119102943793 -0.00274550096095)
(0.0166088649493 0.0141498999046 -0.00472865118821)
(0.0246237399983 0.0165653785583 -0.00155137623227)
(0.0216253751616 0.0129359384957 -0.00217317466142)
(0.0247788640256 0.0153974636449 -0.00234275298551)
(0.0290198788308 0.0176031379999 0.000949184248106)
(0.0278213659491 0.0137859788697 -0.000266471611099)
(0.0291619340906 0.0164512399917 0.00125753824466)
(0.0297809076829 0.0185040369703 0.00382809064413)
(0.0306577442798 0.0146241702699 0.00288770782676)
(0.0303918249144 0.0173870163286 0.00524363261054)
(0.0273833310117 0.0191259433143 0.00626403655958)
(0.0295292341016 0.015229451617 0.00563351653656)
(0.0285809170562 0.0180698228435 0.00868972257563)
(0.0224966838132 0.0195267746201 0.00807960046885)
(0.0258057045763 0.0155882354335 0.00782816088917)
(0.0246214440001 0.0185032454146 0.0113922408473)
(0.0157936799985 0.019785838215 0.00902145009499)
(0.0198014195521 0.015784771822 0.00902147293397)
(0.0188075905339 0.0187965241341 0.013397757072)
(0.00809115688686 0.019954500356 0.00927195573711)
(0.012244000147 0.0159000797154 0.00940026671905)
(0.0116921731102 0.0189814597759 0.0145033910831)
(2.32440076799e-05 0.0200238220297 0.00930401053428)
(0.0041082816724 0.0160029985819 0.00945825555015)
(0.0039599701506 0.0190966341845 0.0149265966762)
(-0.00804598258347 0.0199491463744 0.00927259704655)
(-0.00406468348777 0.0160004711364 0.00945852239604)
(-0.00391274575175 0.0190939902137 0.0149278119448)
(-0.0157523620827 0.0197754850634 0.00902302778003)
(-0.0122028254593 0.0158923406674 0.00940120969849)
(-0.0116477356622 0.0189736732105 0.0145072011582)
(-0.0224612748148 0.0195124763459 0.00808422146977)
(-0.0197656323737 0.0157721687995 0.0090232698964)
(-0.0187686320917 0.0187844665527 0.013403804809)
(-0.0273552334091 0.0191096850849 0.00627079615266)
(-0.0257767753329 0.0155721408231 0.00783278977914)
(-0.0245892228819 0.0184882862108 0.0114007493964)
(-0.0297597323562 0.0184881330078 0.00383492641204)
(-0.0295070684944 0.0152124332421 0.00563892444744)
(-0.0285555507686 0.0180539541181 0.00869820784854)
(-0.0290053624065 0.0175887106375 0.000955150685148)
(-0.0306415918192 0.0146081396594 0.00289375204902)
(-0.0303726759685 0.0173720236157 0.00525262736007)
(-0.024614270851 0.0165532180337 -0.00154687612417)
(-0.0278117159648 0.0137713811397 -0.000262508990789)
(-0.0291488911146 0.0164375844113 0.00126494060484)
(-0.01691429286 0.0154387025302 -0.00274844916132)
(-0.0216191611584 0.0129239954482 -0.00216954296465)
(-0.0247700609556 0.0153862685836 -0.00233618298257)
(-0.00707799454282 0.0142323772069 -0.00126902046396)
(-0.0122625420537 0.0119020914002 -0.00274190359902)
(-0.016603286963 0.0141419205409 -0.00472232866191)
(-0.00285556549986 0.0109219412626 0.000454575382625)
(-0.0059456805859 0.0132729860584 -0.0023804301905)
(0.00769281804885 0.00877816687238 -0.00102050581602)
(0.00332496387761 0.00557640400101 0.000427268173929)
(0.00643875363926 0.00810751490606 -0.00234507001528)
(0.0176382834118 0.00957791751725 -0.00216602698195)
(0.012790885766 0.00607358800535 -0.0024280624595)
(0.0172526253629 0.00868511697146 -0.00410876787518)
(0.0252971157269 0.0103503227736 -0.000888270040251)
(0.0221780482163 0.00665894931198 -0.00169161416113)
(0.0254629289186 0.00959076406975 -0.00138185199912)
(0.0296328669093 0.0110185427012 0.00167205196755)
(0.0283367619569 0.00712385773558 0.000176948541624)
(0.0297366746816 0.0102950711648 0.00232636174014)
(0.0302973971826 0.0115679004896 0.00469313371919)
(0.0311113417155 0.00755656595895 0.00342540693029)
(0.0308516862026 0.0108767458591 0.00640306692115)
(0.0277948039834 0.0119266063127 0.00719764086615)
(0.0298922026555 0.00785699981285 0.00628961990366)
(0.0289482755334 0.0112825799296 0.00987503925289)
(0.0227194592217 0.01213223653 0.00877003335429)
(0.0260774300208 0.00801166712191 0.00836270972885)
(0.0248970156459 0.0115330149862 0.0126519086441)
(0.0159112103763 0.0122385344447 0.00940028955803)
(0.0199705367212 0.00809231117951 0.00927252956216)
(0.0189941730143 0.011689792707 0.0145007061432)
(0.00813355078281 0.0123040449919 0.00958656653209)
(0.0123109001412 0.00813274289531 0.00958684136581)
(0.0117759050678 0.011771864228 0.0155449938165)
(2.01336217192e-05 0.0123361065657 0.00961276741192)
(0.00411716240619 0.00817506179826 0.0096308270613)
(0.00397346493987 0.0118281931701 0.0159413517929)
(-0.00809453139329 0.01229895368 0.00958713504798)
(-0.0040797272436 0.00817286985323 0.00963105819001)
(-0.00393187141957 0.0118257090983 0.0159422643573)
(-0.0158759075979 0.0122283158732 0.00940145181486)
(-0.0122758608671 0.00812585469056 0.00958761338889)
(-0.0117369494543 0.0117643540153 0.0155478601801)
(-0.0226896936654 0.0121177087545 0.00877183820577)
(-0.0199404783571 0.00808074511222 0.00927376309324)
(-0.0189603595517 0.0116777818259 0.0145052073432)
(-0.0277713015912 0.0119095321424 0.00720091807391)
(-0.0260537520257 0.00799648927373 0.00836433766294)
(-0.0248696902684 0.011517855039 0.0126572561876)
(-0.0302801386959 0.0115503904059 0.00469775008441)
(-0.0298744224039 0.00784023181613 0.00629225294674)
(-0.0289272381116 0.011266066789 0.00988103398682)
(-0.0296214987019 0.0110020568642 0.00167609237308)
(-0.0310988306715 0.0075400932791 0.00342877396695)
(-0.0308363668328 0.0108605258638 0.00640940040278)
(-0.0252902947602 0.0103358375124 -0.000885175831264)
(-0.0283301750758 0.00710867090787 0.000179039003876)
(-0.0297271850712 0.0102799854616 0.00233149895452)
(-0.0176345355824 0.0095665600636 -0.00216299740235)
(-0.0221746396809 0.00664596726871 -0.00168984895313)
(-0.0254572429668 0.00957771287341 -0.00137773943966)
(-0.00769182013365 0.00877149720815 -0.00101830775244)
(-0.0127894700034 0.00606386991204 -0.00242621162262)
(-0.01724943828 0.00867475687355 -0.00410450334075)
(-0.00332562169125 0.00557164089805 0.000428281573102)
(-0.00643813584238 0.00810099534144 -0.00234152648076)
(0.00806280034261 0.00294942679215 -0.000980288469559)
(0.00350612529869 2.76655909402e-07 0.00039301568485)
(0.00675141186246 0.00271225683523 -0.00248668217994)
(0.0180540543653 0.00323345568552 -0.00195364963869)
(0.0129838302592 1.15269093395e-05 -0.00235245094404)
(0.0175968684904 0.00291604465786 -0.0039292031672)
(0.0256746722693 0.0035167521978 -0.000626395579258)
(0.0223760756769 1.99213305014e-05 -0.00155224823716)
(0.0258395254239 0.00325449807912 -0.000981600190764)
(0.0299695399965 0.00375415420702 0.00193030350437)
(0.0285177075828 2.57576177845e-05 0.000302112293126)
(0.0300493584816 0.00351254458292 0.00280322268157)
(0.0305875865243 0.00394046505839 0.00502189311477)
(0.0312685663048 3.12819554811e-05 0.00356153271696)
(0.031092687184 0.00371504304313 0.0069072286575)
(0.0280071384912 0.00405406448579 0.00745468876636)
(0.0300126319341 3.44122235782e-05 0.00648571205786)
(0.029138203778 0.00384910605603 0.0104030278005)
(0.0228789993723 0.00410379789693 0.00886520593672)
(0.0261796374049 3.53282498036e-05 0.00842582048398)
(0.0250596957756 0.00393100489213 0.0131044710564)
(0.0160139373347 0.00411421697004 0.00945908136994)
(0.0200370568101 3.36087171227e-05 0.00930502250176)
(0.0191083160397 0.00396725814718 0.0149237582104)
(0.00817695586063 0.00412151172327 0.00963110189502)
(0.0123418557084 2.93613537498e-05 0.00961308890756)