/*--------------------------------*- C++ -*----------------------------------*\
| =========                 |                                                 |
| \\      /  F ield         | OpenFOAM: The Open Source CFD Toolbox           |
|  \\    /   O peration     | Version:  3.0.1                                 |
|   \\  /    A nd           | Web:      www.OpenFOAM.org                      |
|    \\/     M anipulation  |                                                 |
\*---------------------------------------------------------------------------*/
FoamFile
{
    version     2.0;
    format      ascii;
    class       volScalarField;
    location    "3.8";
    object      k;
}
// * * * * * * * * * * * * * * * * * * * * * * * * * * * * * * * * * * * * * //

dimensions      [0 2 -2 0 0 0 0];

internalField   nonuniform List<scalar> 
7968
(
0.00091718945511
0.00102684876113
0.00111173868451
0.00116382333957
0.00119281337657
0.00120641668325
0.00121049111562
0.00120931019297
0.00120620484379
0.00120341978019
0.00120347098965
0.00120632984934
0.0012095016503
0.00121076003239
0.00120677086249
0.00119325537706
0.0011643134093
0.00111220615539
0.00102719658141
0.00091734072188
0.00102689711015
0.00147307367184
0.00176610693404
0.00193661967862
0.00202768858903
0.00206735315689
0.00207724207875
0.00207286972058
0.00206544603661
0.00206063709053
0.00206055907077
0.00206524539262
0.00207266607157
0.00207717448501
0.00206751235617
0.00202812424268
0.00193725165527
0.00176683222243
0.00147366753308
0.0010271442667
0.00111193963956
0.00176631026658
0.00218844801315
0.00243411401269
0.00256632621387
0.00262511017119
0.00264088034482
0.00263675282899
0.00262835381005
0.00262297583122
0.00262273231244
0.00262771813669
0.0026359931326
0.00264028321562
0.00262483152864
0.00256638330181
0.00243445270898
0.00218895426362
0.00176677154452
0.00111215788694
0.00116408391643
0.00193697686137
0.00243424173059
0.00272080086278
0.00287080251595
0.00293258248018
0.00294473944808
0.00293561634881
0.00292384731666
0.00291726992082
0.00291682680229
0.00292265395859
0.00293417186695
0.00294354892202
0.00293183561416
0.00287042787331
0.00272070006426
0.00243435210834
0.00193712966142
0.00116416571862
0.00119311576171
0.00202797360736
0.00256641963089
0.00287070927124
0.00302041155551
0.003073628159
0.00310015060819
0.0031072623283
0.00310380250583
0.00309980684667
0.00309941035378
0.00310279158994
0.00310607232242
0.00309916489076
0.00307273354735
0.00301989827759
0.00287035494541
0.00256618809184
0.00202781027331
0.00119302562909
0.00120672174029
0.00206756069382
0.00262499325992
0.00293212816371
0.00307315872638
0.00315902282139
0.00319834602773
0.0032063106465
0.00320172731638
0.00319671477369
0.00319621033824
0.00320046503646
0.00320486501744
0.00319725360782
0.00315839498968
0.00307293167817
0.00293190570476
0.00262469303368
0.00206729168662
0.00120651241468
0.0012107551084
0.00207724256105
0.00264038036222
0.00294368013566
0.0030995657545
0.00319800736657
0.00323668859419
0.00324000549274
0.00323094882038
0.00322332127735
0.00322267496883
0.00322934714582
0.00323820251776
0.00323542079836
0.00319742650503
0.00309942332616
0.00294388389052
0.00264027014975
0.00207698583764
0.00121050336268
0.00120949518946
0.00207261648464
0.00263587956792
0.00293403916994
0.00310638207736
0.00320569380936
0.0032397381362
0.00323628607977
0.00322114450323
0.00320983584348
0.00320905427487
0.00321922363889
0.00323411564136
0.00323823943404
0.00320508518247
0.00310637842803
0.00293464344611
0.00263604028216
0.00207250484798
0.00120926120481
0.00120628649725
0.00206498115912
0.00262726395707
0.00292211217409
0.00310283769581
0.00320111172329
0.00323075140577
0.00322123248223
0.00319973744483
0.00318397953522
0.003183089143
0.00319757861423
0.00321876596492
0.00322899276775
0.00320038108307
0.00310286108405
0.00292288064278
0.00262761510194
0.00206501633641
0.00120609056982
0.00120336615377
0.00206003046578
0.00262184775397
0.0029157685579
0.00309900195326
0.00319635735006
0.00322347936533
0.00321029898063
0.00318431752987
0.00316490831486
0.0031639573474
0.00318201804009
0.00320763794195
0.00322151456762
0.00319548432935
0.00309895450164
0.00291645026028
0.00262225011565
0.00206012460022
0.00120317676478
0.00120324885257
0.00205987142919
0.00262164973133
0.00291554136089
0.00309879814565
0.00319614345277
0.00322323555142
0.00320999931397
0.00318393425359
0.00316444050896
0.00316347919594
0.00318161287259
0.00320731602834
0.00322125001389
0.00319524858291
0.00309872102758
0.00291616591409
0.00262198531045
0.00205990276672
0.00120301616535
0.00120604129747
0.0020645353974
0.00262669268037
0.00292143856228
0.00310225580069
0.00320051040961
0.00323008214345
0.00322044206538
0.0031987837853
0.00318288607668
0.00318196944172
0.00319657359917
0.00321792550235
0.00322827231629
0.00319972052128
0.00310219534193
0.00292204425031
0.00262686596638
0.00206440886016
0.00120575310293
0.00120919832587
0.00207194495324
0.00263498478408
0.00293294286867
0.00310546612136
0.00320474995398
0.00323870217585
0.00323510285134
0.00321980540678
0.00320837779981
0.00320757418447
0.00321784058158
0.00323288142332
0.0032371370265
0.00320405281413
0.00310533482262
0.00293331108446
0.00263489295952
0.00207160904358
0.00120885105468
0.00121046347284
0.00207646157087
0.00263928902782
0.00294228428997
0.0030983674766
0.00319679283422
0.00323536875154
0.00323853750527
0.00322933745316
0.00322161738881
0.00322095443751
0.00322769718277
0.00323667773834
0.0032340149777
0.00319608974311
0.00309805083669
0.00294219767331
0.00263887742036
0.00207594089275
0.00121009235014
0.0012064869209
0.00206682238355
0.00262389416039
0.00293064384956
0.00307134984202
0.00315755286077
0.00319684802965
0.00320467173292
0.00319995881285
0.00319486992102
0.00319434656424
0.00319864570887
0.0032031438637
0.00319563454972
0.00315674721101
0.0030708372758
0.0029300870482
0.00262325686927
0.00206625240601
0.00120616259457
0.00119297530882
0.00202737790291
0.00256549766277
0.00286938024019
0.00301861098096
0.00307149970623
0.00309848508689
0.00310546694427
0.0031018672257
0.00309781398067
0.00309739250761
0.00310078270743
0.00310415048436
0.00309731770369
0.0030702987326
0.00301775390031
0.00286866147356
0.00256491657426
0.00202693965345
0.00119278391825
0.00116405411813
0.00193663808428
0.00243365159773
0.00271983731037
0.00286936624513
0.00293068774786
0.00294243746417
0.00293299923571
0.00292104206182
0.00291447397752
0.00291398933544
0.00291972704766
0.00293131731972
0.00294093928692
0.00292959118744
0.00286861772581
0.00271935928079
0.00243341448479
0.00193652652782
0.00116404407193
0.00111198661663
0.00176625101493
0.0021882396979
0.00243360983088
0.00256542335279
0.0026238014769
0.00263920875077
0.00263479746112
0.00262619084384
0.00262069248438
0.00262039402093
0.00262539525557
0.00263378224996
0.00263829249109
0.00262316817399
0.00256510673916
0.0024335868861
0.00218843665543
0.00176647688273
0.00111213521492
0.00102699692676
0.00147321269967
0.00176620235226
0.00193652621316
0.00202730668217
0.00206666674675
0.00207628737693
0.00207169016858
0.00206409089257
0.00205916344
0.00205903555657
0.00206375061137
0.00207127046697
0.00207595668271
0.00206653863114
0.00202742683821
0.00193688772106
0.00176668941969
0.00147362564871
0.00102719611968
0.000917236658921
0.00102695317759
0.00111185889859
0.00116390548911
0.0011928079935
0.00120630039748
0.00121026815976
0.00120898679522
0.00120579244616
0.0012029293896
0.00120294382854
0.00120583531716
0.00120906871671
0.00121041519478
0.00120653329584
0.00119313583983
0.00116429979164
0.00111225028372
0.00102724694261
0.000917363290437
0.00101414674395
0.00140628210324
0.00168057291579
0.00184943425591
0.00194733562502
0.00199799844251
0.00201886631992
0.00202326891366
0.00202114011176
0.0020185852346
0.00201853691811
0.00202101433798
0.00202312483608
0.00201876474367
0.00199797469149
0.00194739849285
0.00184955475472
0.001680704061
0.00140639434941
0.00101437041035
0.00140632705288
0.00281225686634
0.00352639138891
0.00394625542436
0.00418246786045
0.00429947574294
0.00434405398934
0.00435037209051
0.00434295572601
0.00433597991033
0.00433561724076
0.004341967496
0.00434900459713
0.0043425648192
0.00429802246943
0.00418111298916
0.00394499603849
0.00352519846599
0.00281113765511
0.00140623099833
0.00168077610746
0.00352677365293
0.00446583360688
0.00503107120888
0.0053605585622
0.00553340432998
0.00560785389477
0.00562851060671
0.0056271703863
0.00562231310304
0.0056217582496
0.00562565842159
0.00562644154886
0.00560563877026
0.00553127404545
0.0053585363579
0.00502912871386
0.00446397456763
0.0035250848386
0.00168047277824
0.00184976233726
0.00394690252388
0.00503136687681
0.0056913353645
0.00608063547757
0.00628811986433
0.00637993438621
0.00640798160296
0.00640988451569
0.00640749387002
0.00640679202798
0.00640791703907
0.00640518280692
0.0063770574497
0.00628549517216
0.00607813176039
0.00568883892103
0.00502890047826
0.00394467273223
0.00184923826314
0.00194773305456
0.0041831899679
0.00536091916313
0.00608066768964
0.00650508307268
0.00673149780317
0.00683121535933
0.00685823373755
0.0068576522126
0.0068524952465
0.00685138815413
0.00685471983626
0.0068545176208
0.00682778547913
0.00672883238544
0.00650248495942
0.00607796267958
0.00535811373253
0.00418060854851
0.00194700312493
0.00199837520848
0.00430003524648
0.00553354334398
0.00628782684985
0.00673120914785
0.00695783986948
0.00704646068896
0.0070643427096
0.00705699586438
0.00704817064538
0.007046672117
0.00705307614028
0.00705952625318
0.00704237900536
0.00695497086307
0.00672887894797
0.00628534799098
0.00553079529677
0.00429742687987
0.00199753861137
0.00201913528449
0.00434430003791
0.00560756056449
0.00637903137676
0.0068300391537
0.00704568123419
0.0071213679591
0.00712699041093
0.00711055353429
0.0070969538294
0.00709505025622
0.00710557877733
0.00712089630894
0.00711644343437
0.00704268900314
0.00682813798488
0.0063770348342
0.00560516268354
0.0043419293964
0.0020183203241
0.00202338088051
0.00435029507158
0.00562783708516
0.00640668424805
0.00685658008989
0.00706315453188
0.00712668272407
0.00711963630679
0.00709408392023
0.0070757481986
0.0070734904175
0.00708817083004
0.0071122496607
0.00712071096013
0.00705972847805
0.00685478975801
0.0064050185052
0.00562580582888
0.00434824290342
0.00202266742284
0.00202108595301
0.00434267064536
0.00562634504205
0.0064087897632
0.00685618131631
0.00705627964798
0.00711102157409
0.00709498866342
0.00706177753644
0.0070383327011
0.00703581566473
0.00705516729906
0.00708662228591
0.00710403225666
0.00705221801118
0.00685418836604
0.00640709669393
0.00562452688795
0.00434086487983
0.00202048391408
0.00201838638404
0.0043356384434
0.0056215868147
0.00640682597253
0.00685172404002
0.00704854656833
0.00709887787448
0.00707826388722
0.00703994520079
0.0070133791793
0.00701075180109
0.00703297797662
0.00706930804368
0.00709121566161
0.007043981021
0.00684945157541
0.00640497823411
0.00561980087571
0.00433392561135
0.00201783602741
0.00201824323914
0.00433531941887
0.00562120966951
0.00640644791075
0.00685131523604
0.00704812305962
0.00709842470623
0.00707775421391
0.0070393467327
0.00701270735673
0.00701006470333
0.00703234521138
0.00706876315354
0.00709072887464
0.00704352212631
0.00684899913542
0.00640455105286
0.0056193569118
0.00433354024825
0.00201764825283
0.0020206933734
0.00434174617527
0.0056252440941
0.00640766671337
0.00685497348413
0.00705503557147
0.0071097142199
0.00709356895051
0.00706018083914
0.00703659277136
0.00703403580777
0.00705348424909
0.00708512042117
0.00710264163257
0.00705087597898
0.00685285203485
0.00640582119204
0.0056232414213
0.00433976676414
0.00201997940703
0.00202281004547
0.00434884086981
0.00562608636588
0.00640479484704
0.00685460310718
0.00706109791431
0.00712452861077
0.00711732589524
0.00709164958071
0.00707318580091
0.00707089303324
0.00708566522433
0.00710986074809
0.00711845372409
0.00705752446367
0.00685261040782
0.00640288124516
0.00562378196814
0.00434654208429
0.00202194627917
0.00201848673227
0.00434247134878
0.00560532830742
0.0063765589291
0.00682745297911
0.0070428997805
0.00711840101996
0.0071238410151
0.00710724621722
0.0070935455816
0.00709161688238
0.00710221232681
0.00711766111167
0.00711333769707
0.0070397003715
0.00682527794296
0.00637423278761
0.00560258242878
0.00433979841781
0.00201750181259
0.0019977546441
0.00429805041123
0.00553109259191
0.00628508174049
0.0067285065023
0.00695464213981
0.00704289145346
0.00706053121794
0.00705302175786
0.0070441106929
0.00704258126512
0.00704901845996
0.00705557392024
0.00703860140562
0.00695150014365
0.00672585731036
0.00628219956169
0.00552792642572
0.00429508816589
0.0019967396502
0.00194723306249
0.00418127248005
0.00535852384452
0.00607788127355
0.00650200587464
0.00672844912698
0.00682742060777
0.00685412244839
0.00685338250581
0.006848181155
0.00684703647027
0.00685034518972
0.00685020041333
0.00682370173076
0.00672545375504
0.00649898297428
0.00607469677495
0.005355239294
0.00417828754251
0.00194632379195
0.00184944097568
0.00394527886628
0.00502929817694
0.00568882961381
0.0060776956962
0.00628480352708
0.00637620073221
0.00640404907864
0.00640615913936
0.00640391208776
0.00640317776858
0.00640413264636
0.00640099943651
0.00637296452806
0.0062817458465
0.00607469372991
0.00568580123174
0.00502631353547
0.00394261376296
0.00184874136359
0.00168063563954
0.00352557754232
0.00446427995099
0.00502909812347
0.00535812704209
0.00553053917691
0.00560460974856
0.00562499724074
0.00562347440599
0.00561853167674
0.00561791716978
0.0056217923063
0.00562263157581
0.00560200202664
0.00552794541923
0.00535559074187
0.00502662337366
0.00446190972029
0.0035234560021
0.0016801742656
0.00140633996844
0.00281157207349
0.00352546821278
0.00394500025194
0.0041808215028
0.0042974494156
0.00434170651967
0.00434777229592
0.00434016075563
0.00433305856552
0.00433263774594
0.00433900563745
0.00434613672913
0.00433987419482
0.00429559935777
0.00417903184203
0.00394329258472
0.00352384064978
0.00281007025566
0.00140612071078
0.00101420894272
0.00140618902173
0.00168039189899
0.00184914562839
0.00194689447595
0.00199737978323
0.00201807581754
0.00202232297946
0.00202006041824
0.00201740836685
0.00201732226926
0.00201983225744
0.00202202521075
0.00201779229812
0.00199716313502
0.00194676497359
0.00184908507684
0.00168035923753
0.00140617403272
0.00101440890168
0.00108817242105
0.00165260430377
0.00204580129786
0.00229116132142
0.00243734227767
0.00251707513866
0.00255424196139
0.00256714894663
0.00256920674882
0.00256842096299
0.00256827083434
0.0025687947583
0.00256657098953
0.00255359399669
0.00251642310331
0.00243672373664
0.00229059060729
0.00204529824458
0.00165227702921
0.00108845794449
0.00165267353599
0.00345235664939
0.00437221852001
0.00492689670634
0.00525185318467
0.00542488466443
0.00550254049092
0.00552708387003
0.00552868723143
0.00552518621639
0.00552456138693
0.00552695093889
0.00552455633102
0.00549954760263
0.00542164254754
0.00524847975614
0.00492349360628
0.00436890354253
0.00344934452107
0.00165202407973
0.0020460440802
0.00437271440407
0.00555325478729
0.00627996136997
0.00672116953096
0.00696901907983
0.00709108619027
0.00714012665925
0.00715382617441
0.00715476871861
0.00715394960087
0.0071515936768
0.00713695366438
0.00708740059672
0.00696511050105
0.00671708307887
0.00627570057468
0.00554893334329
0.00436867730605
0.00204491422764
0.00229157144696
0.00492777712383
0.00628038577225
0.00712151491701
0.00764046006651
0.00793881919875
0.00809048000659
0.00815732580733
0.00818170472869
0.00818602210931
0.0081849852902
0.00817895922654
0.00815366103159
0.00808619130523
0.00793447016248
0.00763596560657
0.00711670156152
0.00627531099149
0.00492291324597
0.00229008182894
0.00243785127506
0.00525291241399
0.00672178467234
0.00764062582881
0.00821137729121
0.00854347013136
0.00870946970081
0.00877841872787
0.0087994914021
0.00880226577808
0.00880081559468
0.00879560766852
0.00877303263252
0.00870396703348
0.00853874839711
0.00820676163174
0.00763561660543
0.00671631595887
0.00524754431325
0.00243608092165
0.00251756648765
0.00542584488448
0.00696951386492
0.00793878592415
0.00854322962119
0.00888353438969
0.00904913264289
0.00911211808203
0.0091263173813
0.00912497865339
0.00912298724445
0.00912090369542
0.00910412420916
0.0090406469123
0.0088771847233
0.00853860732385
0.00793393242337
0.00696407432528
0.00542041784598
0.00251567083651
0.00255459521844
0.00550320109171
0.00709124274691
0.00809007431783
0.00870891790187
0.00904956525532
0.00920741394284
0.00925870134086
0.00926245412969
0.00925515371224
0.00925259986928
0.00925537922346
0.00924761346606
0.00919459896891
0.00903986609734
0.00870361044062
0.00808546505129
0.00708611128464
0.0054980613141
0.00255275939586
0.0025673028434
0.0055274319487
0.00714002637668
0.00815700287934
0.00877835613647
0.009114427525
0.0092613476929
0.00929893099971
0.00929091190471
0.00927685961101
0.00927380952359
0.0092823244383
0.00928517117711
0.0092448683768
0.00910122438664
0.00877167138756
0.00815234406747
0.00713518127876
0.00552267726289
0.00256564302181
0.00256916493984
0.00552885591913
0.00715364733505
0.00818143690071
0.0088003968183
0.00913072226338
0.0092680558541
0.00929423573021
0.00927600061726
0.00925604475778
0.00925265216061
0.00926631154945
0.00927861570873
0.00924927912751
0.0091154309695
0.00879259321136
0.00817662272542
0.00714896329681
0.00552440357302
0.00256769557921
0.00256824004778
0.00552535988496
0.00715474540121
0.0081861749204
0.00880423547043
0.00913118238629
0.00926320793243
0.00928300616156
0.0092590145009
0.00923562685476
0.00923203039346
0.00924874941138
0.00926643669861
0.00924331649939
0.0091149769224
0.0087958900639
0.00818120377479
0.00715009936197
0.00552103336891
0.00256686995768
0.00256804903354
0.00552490018418
0.00715425429183
0.0081857211627
0.00880381867245
0.00913079847161
0.00926283967342
0.00928261015372
0.00925856725892
0.00923513576193
0.0092315221995
0.00924827525719
0.00926601655674
0.00924292700621
0.00911457248206
0.00879543719225
0.00818070080161
0.00714954122645
0.00552049820371
0.00256662696504
0.00256861138487
0.00552750021925
0.00715220494131
0.00818010823921
0.00879916300933
0.00912959924753
0.00926700004782
0.00929314469102
0.00927480559569
0.00925475949522
0.00925135526203
0.00926507258363
0.00927747222965
0.00924816747136
0.00911423877128
0.00879125213044
0.00817515785857
0.00714734123085
0.00552285695518
0.00256701302325
0.00256645062699
0.00552526136417
0.00713771241707
0.00815488741234
0.00877634130153
0.0091126439862
0.00925976924099
0.00929741966203
0.00928933682726
0.00927520377004
0.00927213334343
0.00928069226208
0.009283587165
0.00924319981337
0.00909930651394
0.00876947048898
0.00815001650708
0.00713260029507
0.00552024227563
0.00256461741528
0.00255356505967
0.00550040308062
0.0070882064415
0.00808709615921
0.0087061219945
0.00904707689178
0.00920529101073
0.00925677433642
0.00926053568165
0.00925317336342
0.00925059619785
0.00925338778423
0.00924558149492
0.00919232499449
0.00903716638319
0.00870054071405
0.00808216846876
0.00708272275525
0.00549493592713
0.00255152789087
0.00251650607205
0.00542270422972
0.006966047686
0.00793526979648
0.00853979023145
0.00888021752623
0.00904606521369
0.00910926881088
0.00912348066153
0.00912207243572
0.00912004825813
0.00911796919584
0.00910111287916
0.0090373524419
0.00887357454978
0.00853480811032
0.00793000091207
0.00696016364975
0.00541687657753
0.00251438729971
0.00243689893686
0.00524974696206
0.00671821875666
0.00763686946914
0.0082074958573
0.00853953095895
0.00870543928777
0.00877442411201
0.00879540911922
0.00879805955628
0.00879656301706
0.00879138462563
0.0087688220974
0.00869963472263
0.00853442784263
0.00820242816312
0.00763134597594
0.0067122127537
0.00524389683287
0.00243489010252
0.00229082782005
0.00492490583417
0.00627704761706
0.00711783992454
0.00763648122795
0.00793457376409
0.00808605075626
0.00815313742376
0.00817713579612
0.00818119810483
0.00818009411079
0.00817417491117
0.00814920522212
0.00808138721389
0.00792975498563
0.00763144010351
0.00711242529271
0.00627135957772
0.00491949642247
0.00228909336097
0.00204555636929
0.00437036549695
0.00555041815297
0.00627667569131
0.00671743923121
0.00696488290303
0.00708662101354
0.00713545805884
0.00714891658146
0.0071496534062
0.00714875947722
0.00714646222016
0.0071319462236
0.00708248990633
0.00696044160529
0.006712753193
0.00627177542237
0.00554545906886
0.00436576690542
0.00204419625187
0.00165246446388
0.00345072568999
0.00437015221536
0.00492436470338
0.00524883181486
0.00542141331851
0.00549870184875
0.00552296440336
0.00552433185246
0.00552065517755
0.00551995762998
0.00552238604838
0.00552010260081
0.00549528292959
0.00541767570185
0.00524490901402
0.00492038228728
0.00436626570852
0.00344720839263
0.00165163235068
0.00108824095541
0.00165223005646
0.00204519121414
0.00229035563997
0.00243631398028
0.00251580735659
0.00255274967204
0.00256546468585
0.00256736231741
0.00256646391768
0.00256626851998
0.00256682453618
0.00256469111345
0.00255186590934
0.00251489926061
0.00243543271493
0.00228952819732
0.00204445203037
0.00165171658912
0.00108850911562
0.00113676551008
0.00181728391106
0.0022898808633
0.00258773402644
0.00276909677453
0.00287205735786
0.00292418930689
0.00294645873613
0.00295403036828
0.00295583879584
0.00295559554651
0.0029533449772
0.0029454512323
0.00292296566759
0.00287069815932
0.00276768945375
0.00258637352965
0.00228867930961
0.00181648560888
0.00113714816854
0.00181740860205
0.00388492147072
0.00494762239633
0.00560017918489
0.00599376782857
0.0062139751716
0.00632308379167
0.00636781234697
0.00638123402914
0.0063831498705
0.0063822509094
0.00637869094987
0.0063640163341
0.006318411734
0.00620867639103
0.00598804637635
0.00559430122188
0.00494190017914
0.00387973044157
0.00181612819116
0.00229020713067
0.0049482441013
0.00629514093787
0.00713568700684
0.00765907756104
0.00796551490392
0.00812794703174
0.0082030160215
0.00823101113675
0.0082381747999
0.00823704435771
0.0082278922305
0.00819853445235
0.00812270308337
0.00795978892152
0.00765289629496
0.00712904827691
0.006288209458
0.00494151183185
0.00228811568862
0.002588264517
0.00560133036995
0.00713625824826
0.0080998160567
0.00870825699562
0.0090719179827
0.00926942254495
0.00936547253198
0.00940196241262
0.00941174461402
0.00941023949795
0.00939784463973
0.00935925126655
0.00926219607759
0.00906521485052
0.00870178429075
0.00809268978565
0.00712842357295
0.00559332491299
0.00258559819564
0.00276976300071
0.00599524061563
0.00765999337666
0.00870856784331
0.00937489190166
0.00977629720526
0.00998964646629
0.0100869255446
0.0101218219066
0.0101297755465
0.0101275740085
0.0101155913155
0.0100767944543
0.00997712622191
0.00976503301822
0.00936676831904
0.0087012004491
0.00765162537026
0.00598641391714
0.00276666640438
0.0028727198168
0.00621546268557
0.00796644178764
0.00907225482929
0.00977734313498
0.0101918641979
0.0104055159631
0.0104952643029
0.0105216701656
0.0105241778288
0.0105210890242
0.0105125356718
0.0104795355697
0.0103845846287
0.0101715724144
0.00976375974996
0.00906412503662
0.00795796497451
0.00620642323544
0.00286943627456
0.00292467647996
0.00632429695364
0.00812860522198
0.00927046547534
0.00999438159911
0.0104106498049
0.0106147634444
0.0106897775834
0.0107029945822
0.010697837212
0.0106940259766
0.0106912785328
0.0106686666213
0.0105851230667
0.0103799805053
0.00997236448507
0.0092598835991
0.00812032261429
0.00631555442198
0.00292150013532
0.0029466712818
0.00636867827726
0.00820342988938
0.00936833812872
0.010096430258
0.0105071971123
0.0106975311894
0.0107557651156
0.0107546562578
0.0107413698822
0.0107371270515
0.0107412854635
0.0107309858371
0.0106616533627
0.0104687000123
0.010067448461
0.00935457457812
0.0081953289747
0.00636042838182
0.00294380221023
0.00295396987686
0.00638188808416
0.00823144617321
0.00940624263463
0.0101347416797
0.0105387158885
0.0107170178782
0.0107613330812
0.0107480831229
0.0107278759804
0.0107233830464
0.0107337350523
0.0107345229974
0.0106779719836
0.0104965013585
0.0101024503701
0.00939087930122
0.00822341540377
0.00637407170783
0.00295144145184
0.00295560230537
0.00638383428224
0.00823894975261
0.00941704564939
0.0101448825189
0.0105446446171
0.0107161781445
0.0107526770045
0.0107325755585
0.0107083673008
0.010703714184
0.0107177381251
0.0107249431322
0.0106758396151
0.0105010832703
0.0101115016838
0.00940117394574
0.0082308901617
0.00637621328442
0.00295326187903
0.00295535216869
0.00638321365006
0.00823835930458
0.00941657016654
0.0101445437393
0.0105444307621
0.0107160194912
0.0107524871095
0.0107323282688
0.0107080797198
0.0107034110032
0.0107174719009
0.010724738656
0.0106756695308
0.010500862192
0.0101111449316
0.00940065564954
0.00823022528406
0.00637549200452
0.00295294552758
0.00295321964038
0.00638002046792
0.00822968500379
0.00940482611158
0.0101337395831
0.0105381315526
0.0107166737354
0.0107609922423
0.0107476357107
0.0107273409347
0.010722839814
0.0107332574295
0.0107341483411
0.0106775972072
0.0104958874044
0.0101013935843
0.00938934186526
0.00822146077054
0.00637196321133
0.0029505331068
0.00294548200621
0.00636564757694
0.00820056595094
0.00936605616798
0.0100948834588
0.0105064628561
0.0106973777434
0.0107558223864
0.0107546672229
0.0107412911031
0.01073702685
0.0107412405746
0.0107309753039
0.010661432285
0.0104678803667
0.0100657831481
0.00935209009707
0.00819218842957
0.00635708151393
0.00294240458764
0.00292319461432
0.00632034769209
0.00812481699074
0.00926735847152
0.00999225076852
0.0104097425601
0.0106148856478
0.0106904356493
0.0107037357418
0.010698507538
0.0106946620977
0.0106919184945
0.0106691874139
0.0105850883141
0.0103788894926
0.0099700098968
0.00925647483251
0.00811617228627
0.00631122017814
0.00291977368796
0.00287114165545
0.00621097045411
0.00796201955964
0.00906827948374
0.00977427858322
0.0101901008147
0.010405026603
0.0104955545381
0.0105221346509
0.010524588017
0.0105214500832
0.0105128533789
0.010479600923
0.0103838271051
0.0101695159754
0.00976035454536
0.00905974170739
0.00795306713577
0.00620144982484
0.00286757792315
0.00276828040563
0.00599064182499
0.00765530706718
0.00870403961908
0.00937070756088
0.00977290344502
0.00998726259505
0.0100852223925
0.0101202690548
0.0101281427749
0.0101258794201
0.0101138560088
0.0100748108841
0.00997440214805
0.00976124615669
0.00936213461411
0.00869613671739
0.00764633744358
0.0059812232717
0.00276487368119
0.00258702286667
0.0055970435317
0.00713166919926
0.00809508926186
0.00870340324908
0.00906701686318
0.00926474730233
0.00936099019378
0.00939740569316
0.00940702019044
0.00940544206659
0.00939306991305
0.00935444595689
0.00925722481921
0.00905981965853
0.00869634204791
0.00808729211041
0.00712311049628
0.00558834505866
0.00258402892247
0.00228929066407
0.00494458485078
0.00629096360374
0.00713106078514
0.00765400910245
0.00796003304012
0.00812210973841
0.00819686031543
0.00822456741912
0.00823151226895
0.00823028997888
0.00822118308534
0.00819196287466
0.00811634056361
0.00795368067891
0.00764712248128
0.00712365411018
0.0062832360899
0.00493711418781
0.00228688974902
0.00181689362966
0.00388214944289
0.00494421580733
0.00559610765514
0.00598902074281
0.00620861481504
0.00631722107482
0.00636155349845
0.00637464917923
0.00637633442403
0.00637533311852
0.00637181717183
0.00635729575339
0.00631197824569
0.00620266438076
0.00598258551869
0.00558947383298
0.00493773570158
0.00387629278873
0.00181538494819
0.00113685474646
0.00181656054281
0.00228876709409
0.00258630896813
0.00276733697539
0.00286995357728
0.00292177562451
0.00294379498824
0.00295116793833
0.0029528430089
0.00295253987384
0.00295031661949
0.00294252462213
0.0029202359827
0.00286825064708
0.0027655743404
0.00258459702218
0.00228724723435
0.00181553132176
0.00113722464638
0.00117196450624
0.00194566626967
0.00247897529514
0.00281757268475
0.00302802546919
0.00315191097908
0.00321884065609
0.0032510993129
0.00326492688816
0.003269778262
0.00326951063944
0.00326416450714
0.00324997486326
0.0032173988004
0.00315016088956
0.00302610544824
0.00281569293246
0.00247730553229
0.00194453963238
0.00117248478457
0.00194589338742
0.00422844986597
0.00540114278298
0.0061328145678
0.00658548448081
0.00684951250272
0.00699032958048
0.00705668337129
0.00708359740671
0.00709199080136
0.00709093838589
0.0070805849613
0.00705213931412
0.00698456619573
0.00684268345649
0.00657783252903
0.00612483600572
0.00539338922719
0.00422126190544
0.00194402273568
0.00247945773208
0.0054019398587
0.0068747520896
0.00780199184063
0.00838911952016
0.00874245529815
0.00893839207368
0.00903442728304
0.00907454931215
0.00908718615931
0.00908575715379
0.00907059832988
0.00902827847621
0.008930848299
0.00873507614193
0.00838169586788
0.00779384756437
0.00686595715928
0.00539276434135
0.00247648277586
0.00281831019753
0.00613434334946
0.00780276367366
0.00885309702351
0.009524546612
0.00993345314576
0.0101619313753
0.0102722845704
0.0103164088935
0.0103290913031
0.0103268094999
0.0103099054887
0.0102614778782
0.0101482102305
0.00992016534039
0.00951418752635
0.00884450537099
0.00779292550428
0.00612328243578
0.00281453393306
0.00302895091339
0.0065875364443
0.00839045330423
0.00952544853182
0.0102528970642
0.0106936613709
0.0109299331406
0.0110373689529
0.0110755026119
0.0110834389849
0.0110797931089
0.0110644248129
0.0110177699398
0.0109026944697
0.0106654711949
0.0102322137872
0.00951304524301
0.00837980430606
0.00657520476586
0.0030245347083
0.00315284631922
0.00685173431576
0.0087442963037
0.00993800122007
0.0107003758551
0.0111488191779
0.0113771884217
0.0114691802058
0.0114931146112
0.0114926657526
0.0114877307378
0.0114773714118
0.0114396969941
0.0113329670096
0.0110983108704
0.0106596623745
0.00991558593014
0.00873208230543
0.00683900587541
0.00314817739957
0.00321951308844
0.00699228504832
0.00894166955128
0.0101739668354
0.0109497277737
0.0113922565509
0.0116003973229
0.0116692886157
0.0116743769612
0.0116636144597
0.0116580489909
0.0116558949105
0.0116327694769
0.0115425827705
0.011320347137
0.0108859938248