/*--------------------------------*- C++ -*----------------------------------*\
| =========                 |                                                 |
| \\      /  F ield         | OpenFOAM: The Open Source CFD Toolbox           |
|  \\    /   O peration     | Version:  3.0.1                                 |
|   \\  /    A nd           | Web:      www.OpenFOAM.org                      |
|    \\/     M anipulation  |                                                 |
\*---------------------------------------------------------------------------*/
FoamFile
{
    version     2.0;
    format      ascii;
    class       surfaceVectorField;
    location    "3.8";
    object      Uf_0;
}
// * * * * * * * * * * * * * * * * * * * * * * * * * * * * * * * * * * * * * //

dimensions      [0 1 -1 0 0 0 0];

internalField   nonuniform List<vector> 
22672
(
(0.00129429721345 0.000396260278228 -0.00115649533018)
(0.000401071174362 0.001285545049 -0.00115826678395)
(0.000828222832899 0.000821795201121 -0.00257984170951)
(0.00315867551673 0.000129180522529 -0.0011380938371)
(0.0019189574478 0.000914218516259 -0.00185419548158)
(0.00254857351474 0.000780647323333 -0.00277859582375)
(0.00502587216252 9.13543037167e-05 -0.00101231644229)
(0.00420840180039 0.000903677410836 -0.00207167848968)
(0.00464343473013 0.000888254095361 -0.00277087158353)
(0.00642634513717 0.000255030593794 -0.000847563849126)
(0.00604971261692 0.00122096384184 -0.00203729424793)
(0.00632412639767 0.00118401312084 -0.00262143265482)
(0.00707431022464 0.000575610523514 -0.000702744271388)
(0.00721026939387 0.00181043083351 -0.00194941585217)
(0.00736296208909 0.00162786229135 -0.00245839066428)
(0.00686165110577 0.000936907501727 -0.000597363773424)
(0.00743968110274 0.00253659895229 -0.0018594133445)
(0.0075091267884 0.0021450472652 -0.00232393436646)
(0.00588511092971 0.00127336921402 -0.000529488947267)
(0.00680365167814 0.00320933374569 -0.00179860034541)
(0.00684390258343 0.00259307643328 -0.00223278890566)
(0.00427472965559 0.0015564310588 -0.000492047191126)
(0.00539767810829 0.00379199466757 -0.00176503319285)
(0.00542565735106 0.00299404875073 -0.00218161067733)
(0.00225253691061 0.00173241249588 -0.00047929378257)
(0.00345057468891 0.00419665386558 -0.00176244075946)
(0.00346919440718 0.00327228585066 -0.00217446155026)
(3.46698381607e-05 0.00179200809589 -0.000476622506351)
(0.00120537038239 0.0044006536163 -0.00177019768496)
(0.00121260345007 0.00341245929991 -0.0021827912433)
(-0.0021868804654 0.00173429761849 -0.000477819989106)
(-0.00113699826307 0.0044033363656 -0.00176978288761)
(-0.0011424961285 0.00341430395941 -0.00218179591625)
(-0.00421943920725 0.00155930246396 -0.000489225648122)
(-0.00339106886549 0.00420384381376 -0.00176101354268)
(-0.00340756822537 0.00327731300512 -0.00217130050495)
(-0.0058437749689 0.00127595883531 -0.000525950868424)
(-0.00535272450932 0.0038013139364 -0.0017631601992)
(-0.00537814603256 0.00300067541707 -0.0021769989742)
(-0.00683397100976 0.000938850962602 -0.000594031873424)
(-0.00677484160514 0.00321839252681 -0.00179740368957)
(-0.00681245970858 0.00259979535054 -0.00222822182457)
(-0.00705780909421 0.000577001866684 -0.000701089241295)
(-0.00742431506564 0.00254530106981 -0.00186025954788)
(-0.00749158974605 0.00215215883822 -0.00232149167187)
(-0.00641576764258 0.000256792844975 -0.000848888722861)
(-0.00720387886121 0.00181893843858 -0.00195463847316)
(-0.00735622918111 0.00163533207635 -0.00246101079123)
(-0.00501669724827 9.51900884539e-05 -0.00101684041306)
(-0.00604544889465 0.00123154325977 -0.00204672270052)
(-0.00632166479105 0.00119313760106 -0.00263064628926)
(-0.00314843156713 0.000136398617135 -0.00114524046814)
(-0.00420181846926 0.000918197873525 -0.00208506479137)
(-0.00464067652591 0.000899934023909 -0.00278649891888)
(-0.00128488014465 0.000409050280287 -0.00116468862772)
(-0.00190621769939 0.000934129289611 -0.00186748504106)
(-0.00254213012325 0.00079563365626 -0.00279772216569)
(-0.000392136168081 0.00131362170441 -0.00116354032338)
(-0.000823686516121 0.000841882365071 -0.00259853430303)
(0.000918923432912 0.00191036238465 -0.00185596693535)
(0.000133304339724 0.00315012076662 -0.00114574522842)
(0.000782006898353 0.00253791291294 -0.00278349814653)
(0.00305851138238 0.00181640606479 -0.00278778013416)
(0.00182158277803 0.0030567348354 -0.00278921120345)
(0.00258162519815 0.00257935346141 -0.0042821021672)
(0.00529364886593 0.00218916009229 -0.00309665629532)
(0.00459864993553 0.00346653878791 -0.00337993972867)
(0.00487684506702 0.00297825835268 -0.00479799488801)
(0.006930734089 0.00297723738367 -0.00313914625097)
(0.00678252469927 0.0044220399949 -0.0034315073827)
(0.00667096262965 0.00378962007071 -0.00483815556785)
(0.00767570847119 0.00402563759146 -0.00310608492528)
(0.00810999241302 0.00578993130727 -0.0033236212114)
(0.00773125228797 0.00489858399639 -0.00472446792987)
(0.00745733839844 0.00511295833591 -0.00306064991649)
(0.00837040189224 0.00732057364642 -0.003178131554)
(0.00788277801995 0.00611025866394 -0.00456559754799)
(0.00635863590314 0.00607370222878 -0.00303414459099)
(0.00760236736337 0.00873965896135 -0.00306129810509)
(0.00714077971506 0.00722400382428 -0.00443161659444)
(0.00459651838973 0.0068112766027 -0.00303542676118)
(0.0059918595842 0.00990801726382 -0.00300128432209)
(0.00563813749819 0.00813951930793 -0.00435390109765)
(0.00241319590464 0.00726466929827 -0.00305334466184)
(0.00380873997846 0.0107164603954 -0.00299676822763)
(0.0035960725684 0.00877293009994 -0.00433648345312)
(3.40009786979e-05 0.00741882597966 -0.00306335806621)
(0.00132552314423 0.0111249387895 -0.00301162970605)
(0.00125524474158 0.00909373111422 -0.00434509425289)
(-0.00234981984004 0.00727301753756 -0.00305297644118)
(-0.00125196154349 0.0111314834108 -0.00301080605316)
(-0.0011828575117 0.00909945925973 -0.00434433578264)
(-0.00454603299824 0.0068255472236 -0.00303494809376)
(-0.00374677784201 0.0107341728633 -0.00299430024236)
(-0.00353386859886 0.00878867555081 -0.00433413144061)
(-0.00632530292143 0.00609026244666 -0.00303461302035)
(-0.00594881466627 0.00993183453592 -0.00299862371164)
(-0.00559312126822 0.00816131678528 -0.00435127196166)
(-0.00744033829124 0.0051296085843 -0.00306363136402)
(-0.00757915781338 0.0087644156316 -0.0030606490919)
(-0.00711497355292 0.00724772241996 -0.00443101383228)
(-0.00767040228211 0.00404236015 -0.00311380877974)
(-0.00836227819148 0.00734521378646 -0.00318159257427)
(-0.00787336907056 0.00613498154262 -0.00456987840005)
(-0.00693025213464 0.00299560881866 -0.00315247245082)
(-0.00811008954491 0.00581582947172 -0.0033333567291)
(-0.00773317401515 0.00492513414539 -0.00473707347958)
(-0.00529171969529 0.00221172057923 -0.00311494707884)
(-0.00678343254441 0.00445205382138 -0.00344725331695)
(-0.0066776091395 0.00381985797557 -0.0048590777691)
(-0.00305010390713 0.0018451733687 -0.0028073093643)
(-0.00459447660753 0.00350316773015 -0.00340029215565)
(-0.00488206809151 0.00301376612473 -0.00482662411631)
(-0.000906511982223 0.00194692227349 -0.00186633673672)
(-0.00180647502333 0.00310065830821 -0.00280643190362)
(-0.00257913518772 0.00262084475084 -0.00431016575702)
(-0.00012086252316 0.00320086031377 -0.00114493305703)
(-0.000778719989192 0.00258610040631 -0.00279378496706)
(0.000908331125689 0.00420715756492 -0.00207898949652)
(9.56710903242e-05 0.00502704480835 -0.00102308774139)
(0.000888347887992 0.00463948398135 -0.00278525274737)
(0.00346583367543 0.00460261990035 -0.00338137079796)
(0.00219332020662 0.00530111963558 -0.00310057033813)
(0.00297753926204 0.00488151582782 -0.00480188350088)
(0.00614583746086 0.00557880868751 -0.00371479081606)
(0.00557232279648 0.00615733868386 -0.00371483579188)
(0.00563179247208 0.00564096932231 -0.00537079785607)
(0.00807042034598 0.00708838684455 -0.00361598234313)
(0.00819403409601 0.0077061419779 -0.00355856755252)
(0.0076553602134 0.00696250090152 -0.00520867723298)
(0.00890644586792 0.0089010956051 -0.00339566784012)
(0.00972978585803 0.00973949233189 -0.00315838815034)
(0.00879957012918 0.00866328841512 -0.00478557782176)
(0.00859700392503 0.0107206724051 -0.0031787797426)
(0.00996393345107 0.0119349904923 -0.00272057044835)
(0.00890452431726 0.0104829444863 -0.00430496597639)
(0.00727856957873 0.0123052058789 -0.0030284378362)
(0.00896869843389 0.0139542072223 -0.00236161166475)
(0.00799962608918 0.0121564700217 -0.00389610575189)
(0.00522394988458 0.0135072699487 -0.00296262578854)
(0.00700581082978 0.0155920522198 -0.0021421073159)
(0.00626802729282 0.0135171832775 -0.00362940892683)
(0.00272911199044 0.0142462999577 -0.00295505327184)
(0.00441992495318 0.016719200428 -0.00205696614459)
(0.0039751439679 0.0144584930512 -0.00350789882992)
(3.99994754252e-05 0.0144985933386 -0.002959077693)
(0.0015327832858 0.0172878181669 -0.0020440185195)
(0.00138514596874 0.014936092023 -0.00347376785172)
(-0.00265557457024 0.0142617209592 -0.00295212985433)
(-0.00144315551853 0.0172976258905 -0.00204103525419)
(-0.00129890874845 0.0149455409213 -0.00347057484348)
(-0.00516808071137 0.0135337429727 -0.00295797586023)
(-0.00434664901305 0.0167458255217 -0.00204876795195)
(-0.00390270734698 0.0144842259812 -0.00349915898974)
(-0.00724503980016 0.0123363039126 -0.00302465978319)
(-0.00695871003974 0.0156274807148 -0.00213219468292)
(-0.00621835198125 0.013552681435 -0.00361870551668)
(-0.00858253770877 0.010752424377 -0.00317861030215)
(-0.00894663509255 0.0139901003837 -0.00235475076671)
(-0.00797361041232 0.0121945325669 -0.00388821037927)
(-0.00890365322336 0.00893379027567 -0.00340114052363)
(-0.0099577459893 0.0119697560213 -0.00271937672676)
(-0.00889652677117 0.0105217711074 -0.00430345421749)
(-0.00807149645166 0.00712470751749 -0.00362813759523)
(-0.00973004804082 0.0097763218813 -0.00316361518014)
(-0.00880258083696 0.00870493674425 -0.00479267987986)
(-0.00614386965589 0.0056215578197 -0.00373259839376)
(-0.00819351721845 0.00774956422355 -0.00357032649195)
(-0.0076630009072 0.00701001596354 -0.00522517122658)
(-0.00345585305403 0.00465293427317 -0.00339941469498)
(-0.0055655811086 0.00620940487468 -0.00373119842523)
(-0.00563793823697 0.00569581269898 -0.00539429254235)
(-0.000893348472574 0.00426392594556 -0.00208502822394)
(-0.00217435486424 0.00536129810782 -0.00311261597727)
(-0.00297493267569 0.00494328810562 -0.00482319046031)
(-8.01176887039e-05 0.00509197818404 -0.00101446204227)
(-0.000884527683719 0.0047062878129 -0.00278450176435)
(0.00122488874333 0.00605965352622 -0.002044668583)
(0.000259818056206 0.00643721362797 -0.000857617137089)
(0.00118385567489 0.00632986518473 -0.00263505348081)
(0.00442020172671 0.00679825528126 -0.00343403533205)
(0.00298172667903 0.00695011873659 -0.00314176520922)
(0.00378766619079 0.00668512191638 -0.00484430648617)
(0.0076925508274 0.00821331188615 -0.00355861252835)
(0.00708180085624 0.00809442220244 -0.00361522310199)
(0.00695150273904 0.00767425456303 -0.00520942507072)
(0.00998736399455 0.0102531774638 -0.00310097335973)
(0.0102326458791 0.0100155210475 -0.00309937920204)
(0.00931447393208 0.00933630328657 -0.00460418292491)
(0.0109116874797 0.0126228098515 -0.00248329075858)
(0.0120090929949 0.0124533993082 -0.00224860892046)
(0.0105824284379 0.0114314567781 -0.00363821997445)
(0.0104264793651 0.0149668556904 -0.0019034023705)
(0.0121770700458 0.0150387617861 -0.00135838860979)
(0.010595377036 0.0136475026381 -0.00261855215375)
(0.0087455002066 0.0169927235256 -0.00147528114445)
(0.0108612228035 0.0173917908596 -0.000621459725466)
(0.00942279866627 0.0156748680878 -0.00175659355578)
(0.00622433746781 0.018518582262 -0.00123644767194)
(0.00841364515345 0.0192878787255 -0.000135677486102)
(0.00731523792697 0.0173112213467 -0.0011746537246)
(0.00323240562373 0.0194519260917 -0.00114593139225)
(0.00527217530069 0.0205882006348 9.77031072648e-05)
(0.00460479215637 0.0184359180392 -0.000877060285824)
(5.02116261644e-05 0.0197702513252 -0.00112597608069)
(0.00182313945519 0.0212445640288 0.000171880614241)
(0.00159978682211 0.0190061531111 -0.000774547155113)
(-0.00314126821509 0.0194726246106 -0.00113767335181)
(-0.00171065917061 0.0212564740979 0.000178273631155)
(-0.0014926547525 0.0190182793919 -0.000767368504595)
(-0.00615834477106 0.018553514308 -0.00122298677464)
(-0.00518323063023 0.0206204035098 0.000115172083139)
(-0.00451693729747 0.0184690509195 -0.00085750751321)
(-0.00870983408807 0.0170320712376 -0.00146228566645)
(-0.00836184161979 0.0193289161674 -0.000115049215977)
(-0.00725876718798 0.0173552233701 -0.00114995846822)
(-0.0104129892345 0.0150047930723 -0.00189551719133)
(-0.0108413978517 0.0174299472869 -0.000606766668742)
(-0.0093962818564 0.0157192496675 -0.00173670979716)
(-0.0109085327513 0.012660573582 -0.00248185138327)
(-0.0121726491878 0.0150727365192 -0.00135237485784)
(-0.010587510738 0.0136899991785 -0.00260745981349)
(-0.00998543278026 0.0102956606418 -0.00310580407686)
(-0.0120067553463 0.0124885767876 -0.00224888555617)
(-0.0105832229319 0.0114762123468 -0.00363538195667)
(-0.00768617851034 0.00826438603704 -0.00356892652342)
(-0.0102264559918 0.0100591164179 -0.00310441688923)
(-0.00931834631651 0.00938872491697 -0.00460883811848)
(-0.00440532355534 0.00685838106551 -0.00344439970753)
(-0.0070689400961 0.00814888899127 -0.00362376933355)
(-0.00695398025151 0.00773612688157 -0.00522037680473)
(-0.00120577662857 0.00612588916393 -0.00204204979561)
(-0.00295735447979 0.00701353680707 -0.00314509670615)
(-0.00378162619943 0.00675504273561 -0.00485183163891)
(-0.000241185811499 0.00650465982882 -0.000840235792991)
(-0.00117785425124 0.0064039604336 -0.00261849372883)
(0.00181595165768 0.00723032563278 -0.00195471376332)
(0.000582087350868 0.00709420003723 -0.000712967529432)
(0.00162819129077 0.00737947700878 -0.00247293273236)
(0.00578932778191 0.00813719809942 -0.00332295297916)
(0.00403299593216 0.00770374844002 -0.00310711469593)
(0.00489769444349 0.00775544589257 -0.00472699899085)
(0.00972686583189 0.00976261476316 -0.00315598977567)
(0.00889792584747 0.00894137431037 -0.00339290852193)
(0.00865317922476 0.00882907544894 -0.00478448143802)
(0.0124239141992 0.0120462173256 -0.00224701476276)
(0.0126054713169 0.0109533462502 -0.00247759573915)
(0.0114097890313 0.01061674994 -0.00363486308391)
(0.0134227062573 0.0146644801047 -0.00112370677168)
(0.0146273361094 0.0134694342203 -0.0011192530605)
(0.01281393086 0.0128509926053 -0.00201481502889)
(0.0127083265422 0.0172324372243 -7.64459647585e-05)
(0.0146868784545 0.0160998916835 0.000275654830022)
(0.0127019733858 0.015199921186 -0.000346736972031)
(0.0105776123755 0.0194377279784 0.00071814393288)
(0.012997610344 0.0184683372829 0.00142656874581)
(0.0111979627568 0.0173409516403 0.00105418211952)
(0.00748186524201 0.0210961691501 0.00119847329311)
(0.0100007019413 0.0203737403478 0.0022002286285)
(0.00862828679243 0.0190643490757 0.00200990072232)
(0.0038721848984 0.0221124325714 0.00141551511376)
(0.00623116274557 0.0216797447143 0.00258816517782)
(0.0054013625511 0.0202487004556 0.00251815137208)
(6.2980178472e-05 0.0224597927234 0.00147613032609)
(0.00214910004187 0.0223372730368 0.00272312427233)
(0.00187364311615 0.0208509724191 0.0027165090428)
(-0.00375962658663 0.0221355386214 0.0014311190661)
(-0.00201168459157 0.0223497108954 0.00273327733097)
(-0.00174179362779 0.0208645421435 0.00272937940177)
(-0.00740539669866 0.021134117303 0.0012231096418)
(-0.00612618216009 0.0217133679361 0.0026161685103)
(-0.00529705774297 0.0202857593973 0.00255280929808)
(-0.0105422746878 0.0194772996381 0.000740469781734)
(-0.00994720839705 0.020415443558 0.00223148511535)
(-0.00856803342157 0.0191112836554 0.00205034732577)
(-0.0126983222015 0.0172663694823 -6.36243352549e-05)
(-0.012984054748 0.0185024146623 0.0014449901076)
(-0.0111752306553 0.0173833182702 0.00108356997611)
(-0.0134192905928 0.0146955288584 -0.00111940903074)
(-0.014686006367 0.0161257263344 0.000280328041371)
(-0.0126967040066 0.0152363633722 -0.000332037853678)
(-0.0124163202147 0.0120818956032 -0.00224749836854)
(-0.014621147474 0.013494301091 -0.00112097740147)
(-0.0128115266489 0.0128874700687 -0.00200871700348)
(-0.00971265388645 0.00980861338344 -0.00315925969936)
(-0.0125904687002 0.0109870367926 -0.0024800065389)
(-0.0114065685746 0.0106615980226 -0.00363161527658)
(-0.00576760805054 0.00819364796125 -0.00332446633217)
(-0.00887640087253 0.00898709988072 -0.00339528362502)
(-0.00864866044144 0.00888496620271 -0.00478329289102)
(-0.00179261551551 0.00729353745928 -0.00194328270353)
(-0.00400231126705 0.00775881982637 -0.00310385150482)
(-0.0048863964416 0.00782019877102 -0.00472032094048)
(-0.000560402362789 0.00715402776527 -0.000688801313389)
(-0.00161976197053 0.00744865908369 -0.00244201835614)
(0.00254504598049 0.00746772910179 -0.00186536846205)
(0.000944573877579 0.00688745569822 -0.000607472244305)
(0.00214766221818 0.00753474289492 -0.00233829550147)
(0.00732508365879 0.00840644404486 -0.0031770702387)
(0.00512442586335 0.00749218640513 -0.00306183399522)
(0.00611284187029 0.00791523274057 -0.00456846805301)
(0.0119281814145 0.0100073852978 -0.0027145144854)
(0.0107235964905 0.00863850972824 -0.00317295087378)
(0.0104776763174 0.00894258454121 -0.0043002237405)
(0.0150138328469 0.0122276858381 -0.00134983403689)
(0.0149564966112 0.0104751870468 -0.00189117690554)
(0.013630974524 0.0106397976085 -0.00260748088824)
(0.0160542344412 0.0147411799717 0.000280108541199)
(0.0171995942452 0.0127636068093 -6.08980290199e-05)
(0.0151653857886 0.0127520910999 -0.000334560795243)
(0.0150696848113 0.0171657591943 0.00177866954059)
(0.0171121334162 0.0151263442198 0.00178662992169)
(0.014905847631 0.0149572662091 0.00195811302466)
(0.0124562744406 0.0192300542508 0.00290865344143)
(0.0150483913118 0.0172337152793 0.00328436411677)
(0.0130530926249 0.0169538142115 0.00384805152094)
(0.00876124906699 0.020779227639 0.00358992051322)
(0.0115117393397 0.0189405704682 0.00429091945283)
(0.00999865044593 0.0185605324158 0.00512821786892)
(0.00451686386565 0.0217240629325 0.00389577433639)
(0.00713325182195 0.0201175604005 0.00479389260033)
(0.00622871629584 0.01966360139 0.00580659478752)
(7.51892664902e-05 0.0220458470642 0.00398027127721)
(0.00245246965954 0.0207090898129 0.00496607455758)
(0.00215559428662 0.0202223142659 0.00606988359508)
(-0.00438434505209 0.0217469591056 0.00391832677516)
(-0.00229214791144 0.0207207492637 0.00497957874047)
(-0.00200052471645 0.0202358684784 0.00608851906968)
(-0.00867716192024 0.0208165513307 0.00362454398384)
(-0.00701421787924 0.020148801556 0.00483123530338)
(-0.00611033260693 0.0197005892422 0.00585740051075)
(-0.0124259248222 0.0192662804774 0.00293600544121)
(-0.0114603671214 0.018979454352 0.00433081400494)
(-0.00993996765551 0.0186068017556 0.00518476130491)
(-0.0150663890262 0.0171918878292 0.00178894248422)
(-0.015045345286 0.0172624961203 0.00330064712843)
(-0.0130399526336 0.0169898933661 0.00388038314234)
(-0.0160510787047 0.0147610648371 0.00027875967064)
(-0.0171170277448 0.0151446696307 0.00178337374087)
(-0.014906110201 0.0149837543251 0.00196573825708)
(-0.0149989365236 0.0122507426171 -0.00135348557183)
(-0.0171899612254 0.0127784916263 -7.07176719787e-05)
(-0.0151599554139 0.0127763043506 -0.000336348991661)
(-0.0119036806681 0.0100407815879 -0.00271603046455)
(-0.0149315760104 0.0104974758376 -0.00189654874368)
(-0.0136185472197 0.0106713233526 -0.00260571949429)
(-0.00729492205821 0.00845063543989 -0.00317466879766)
(-0.010692390338 0.00867185400497 -0.00317338350564)
(-0.0104638259113 0.00898497649647 -0.00429354659913)
(-0.00251665415941 0.00751903899279 -0.00184937011468)
(-0.00508711767721 0.00753502338177 -0.00305464063134)
(-0.00609479969453 0.00796627761377 -0.00455451542214)
(-0.000920504935468 0.00693532820339 -0.000579621044134)
(-0.002135718494 0.00758992998531 -0.00229798829638)
(0.00322007077067 0.00683599045179 -0.00180393777747)
(0.00128191497379 0.00591368779784 -0.000539273692183)
(0.00259635137496 0.00687432896379 -0.0022462961998)
(0.0087496030724 0.00764202141436 -0.0030577146303)
(0.00608841063551 0.00639479227857 -0.0030338245994)
(0.00723021248496 0.00717706454568 -0.00443213012609)
(0.0139546541457 0.00901463088707 -0.00234961329392)
(0.0123133258113 0.00731905704797 -0.00301917067719)
(0.0121571596251 0.00804003168416 -0.00388558846751)
(0.0173736240742 0.010913530429 -0.000602240897668)
(0.0169889414674 0.00879010063247 -0.00145607602005)
(0.0156655260065 0.00946815886177 -0.00173387134525)
(0.0184263033197 0.0130540637351 0.00144562335147)
(0.0194098530712 0.0106260114015 0.000745114522152)
(0.017311750359 0.0112484599221 0.00108493134263)
(0.0171776585759 0.015106083343 0.00329232449786)
(0.0191787747858 0.0125050530786 0.00293144128521)
(0.0169043471741 0.0131069008924 0.00386995547591)
(0.0141170975541 0.0168602584663 0.00466663012817)
(0.0168026054103 0.0141649661656 0.00467505350947)
(0.014734362738 0.0147887196255 0.00612933575776)
(0.00988187492953 0.0181897150991 0.00549489153994)
(0.0127977246257 0.015519040389 0.00586385649368)
(0.0112366912499 0.0161548164682 0.00765678527737)
(0.00507630993563 0.0190002774426 0.00586419282151)
(0.00790396851536 0.0164574808911 0.00639133373203)
(0.00697218700705 0.017099913423 0.00846568326724)
(8.5825080042e-05 0.0192747278268 0.00596538202084)
(0.00271236646388 0.0169209225418 0.00653113834035)
(0.00240769782422 0.0175776509699 0.00877869418451)
(-0.00492659458157 0.0190200691069 0.00589248726869)
(-0.00253319543752 0.0169303513704 0.00654572046227)
(-0.00223227385142 0.0175894086464 0.00880285830519)
(-0.00979260981292 0.0182226703289 0.00553750532448)
(-0.00777298739788 0.0164825179942 0.00643058257547)
(-0.00684188250968 0.0171317672132 0.00853233331366)
(-0.014095451396 0.0168924845165 0.00469545569216)
(-0.0127479113363 0.0155521807199 0.00591069817351)
(-0.0111832246555 0.0161963185571 0.00773013987728)
(-0.0171839326213 0.0151276913776 0.00329507838507)
(-0.0168104647968 0.014191244385 0.00468817670914)
(-0.0147346179106 0.0148200075041 0.00615974618081)
(-0.0184256605796 0.0130677447826 0.00143389639825)
(-0.019190543156 0.0125204959796 0.00291930087726)
(-0.0169117003561 0.013126526626 0.00386590342432)
(-0.0173525401462 0.0109280971649 -0.000613780843828)
(-0.0193986809817 0.0106368956906 0.000726170798426)
(-0.0173044269814 0.0112647347969 0.00106846642045)
(-0.0139203347926 0.00903720695215 -0.00235390178476)
(-0.016956356678 0.00880561126733 -0.00146676272086)
(-0.0156447443824 0.00948915519742 -0.0017403605076)
(-0.00871110196617 0.00767398497517 -0.00305335533932)
(-0.0122744649998 0.007342306175 -0.00302061733264)
(-0.0121343230988 0.00806943195336 -0.00387971573004)
(-0.00318782981317 0.00687516545705 -0.0017848915608)
(-0.00604616120854 0.00642546188053 -0.00302475703908)
(-0.00720598449634 0.00721386289985 -0.00441375234823)
(-0.00125658303882 0.00594971846115 -0.000510235757068)
(-0.00258230714442 0.00691572517795 -0.00220225199305)
(0.00380454383785 0.00543014176215 -0.00176916051412)
(0.00156586685094 0.00430271862392 -0.000501240795939)
(0.00299823572672 0.005457113515 -0.00219356763041)
(0.00992116220231 0.00602885659232 -0.0029952806463)
(0.00682693410875 0.00462988431727 -0.0030335122636)
(0.00814754383477 0.00567313967621 -0.00435170201953)
(0.0155969469249 0.00704477934718 -0.00212563340332)
(0.0135169751135 0.0052577192334 -0.00295135479001)
(0.0135214161955 0.00630358767894 -0.00361443652753)
(0.0192744689108 0.00845405095762 -0.000108720600229)
(0.0185169267679 0.00625643028464 -0.0012139784136)
(0.0173065183702 0.00735073098253 -0.00114383850305)
(0.0203353999462 0.0100409552686 0.00223093245589)
(0.0210695773166 0.00751195539981 0.00123043962555)
(0.0190397901938 0.00866433958224 0.00205314237434)
(0.018885735074 0.011549828799 0.00431417029682)
(0.020727313952 0.00878641623005 0.00361892007048)
(0.0185140427912 0.0100347516995 0.00516832582084)
(0.015472022958 0.0128336571403 0.00587227987498)
(0.0181302520413 0.00990153106077 0.00550976158221)
(0.0161010816201 0.0112699046515 0.00767718065119)
(0.0107933962656 0.0138242465486 0.00676029868576)
(0.0137890142194 0.0108104275465 0.00675820406086)
(0.0122461016278 0.0122770831325 0.0093872838769)
(0.00553648379131 0.0144502183291 0.00705827925087)
(0.00850834416631 0.0114547098248 0.00720860325324)
(0.00758874002698 0.0129884970162 0.0102597379979)
(9.37908421729e-05 0.0146670203218 0.00711147678178)
(0.00291455386283 0.0117815731144 0.00732438956797)
(0.00261934004366 0.0133505513966 0.0105821030045)
(-0.00537342792676 0.0144658431349 0.00708381576905)
(-0.00272150586557 0.0117884150189 0.00733923360761)
(-0.00242674611982 0.0133593565224 0.0106092155744)
(-0.0106969194429 0.013849727802 0.0068037754245)
(-0.00836690790725 0.0114720737679 0.00724662198712)
(-0.00744608569349 0.0130114500193 0.0103339891872)
(-0.015455177902 0.0128602330242 0.00590341919049)
(-0.013737649066 0.0108344050142 0.00680496699112)
(-0.0121919424935 0.0123085749608 0.00947607543532)
(-0.0189006875339 0.0115695391846 0.00431239920133)
(-0.0181443673335 0.0099241745604 0.00552409143461)
(-0.0161112931723 0.0112968935967 0.00771260624644)
(-0.0203377049941 0.0100534061761 0.00221157527744)
(-0.020744282079 0.00880107694538 0.00360282520411)
(-0.018528194487 0.0100506638917 0.00515644872897)
(-0.0192503612351 0.00846589349157 -0.000126811078603)
(-0.0210581657478 0.00752265907183 0.00120627700773)
(-0.0190316451433 0.00867753153164 0.00202689136429)
(-0.0155569515241 0.0070612318946 -0.00213347826873)
(-0.0184804168661 0.0062696379953 -0.00122841117969)
(-0.0172806764622 0.00736641394565 -0.00115745088355)
(-0.00987788498118 0.00605122838506 -0.0029920190324)
(-0.013474177019 0.00527488770218 -0.00295446691404)
(-0.0134931416565 0.00632397164659 -0.00361167517319)
(-0.00377004040194 0.00545808796955 -0.00175010123535)
(-0.00678225064989 0.00465171559282 -0.0030252156654)
(-0.00812005152936 0.00569824130782 -0.00433413715058)
(-0.00153975121826 0.00432902556021 -0.000472327846099)
(-0.00298303711715 0.00548596202232 -0.00214937737395)
(0.00420921094478 0.00348012841934 -0.00176559254542)
(0.00174186309166 0.0022784307142 -0.000487951511635)
(0.00327624055461 0.00349847696019 -0.00218491570681)
(0.0107291313355 0.00383976067835 -0.00298958640731)
(0.00727884771698 0.00244246622014 -0.00305029444062)
(0.00877988420264 0.00362677735464 -0.00433249360384)
(0.0167230377339 0.00444802814285 -0.00203969980029)
(0.0142535555866 0.00275568092439 -0.00294357013025)
(0.0144614302799 0.00400275162503 -0.00349185723957)
(0.0205735071113 0.00529556519836 0.000125181812181)
(0.0194469682119 0.00325289805285 -0.00112442484179)
(0.0184297749669 0.00462707987495 -0.000846922967052)
(0.0216387743423 0.00624815752022 0.00261842724014)
(0.0220816160896 0.00388601621727 0.00144420373695)
(0.0202223847479 0.00541787735754 0.00256069173167)
(0.020058243839 0.00714282047549 0.00481451135587)
(0.0216669784593 0.00452230496309 0.00391808421036)
(0.0196128881643 0.00623885572722 0.0058446705457)
(0.0164080229743 0.00790867976091 0.00639568576809)
(0.0189368981026 0.00507474216641 0.00586979338869)
(0.0170416288051 0.0069748930842 0.0084770510915)
(0.0114374854373 0.00851172001938 0.00720650862834)
(0.0144154176266 0.00553203164529 0.00704886559047)
(0.0129575477853 0.00758763946756 0.0102489894751)
(0.00587276038051 0.00888777698662 0.00747471357034)
(0.00888590863211 0.00586777075963 0.00747170297347)
(0.00802168798537 0.00801915690574 0.0111517337666)
(9.95224085232e-05 0.00901277586991 0.0075521463938)
(0.00303833979675 0.00603537285003 0.00761875102436)
(0.00276426764031 0.00823098250888 0.0115195163611)
(-0.00569927362835 0.00889633497139 0.00750203982568)
(-0.00283625791666 0.00603869633183 0.00763345533142)
(-0.0025583453689 0.0082358892548 0.0115485933223)
(-0.0113347538588 0.00852766477712 0.00724781355374)
(-0.00873573205075 0.00587742290618 0.00751073704316)
(-0.00786741493359 0.00803232165092 0.0112302016272)
(-0.0163907488536 0.00792824673147 0.00642563923524)
(-0.0143599925207 0.00554650090863 0.00709428691783)
(-0.012898004352 0.00760769450178 0.0103439551432)
(-0.02007765849 0.00715972559132 0.00481451743738)
(-0.0189520850975 0.0050897249197 0.00588888547261)
(-0.0170548861786 0.00699482642119 0.0085213979826)
(-0.0216424961807 0.00626062696775 0.0025975269344)
(-0.0216861646275 0.00453437188255 0.00390369077303)
(-0.019630183367 0.00625254942503 0.00583156414843)
(-0.0205482226355 0.00530712955689 0.000104676906639)
(-0.0220702819925 0.00389604454166 0.00141935691682)
(-0.0202132565789 0.00542978046686 0.00253234626369)
(-0.016680941581 0.00446161737483 -0.002049399825)
(-0.0194091554826 0.00326465279284 -0.0011403057679)
(-0.0184017685964 0.00464001000271 -0.000862305420199)
(-0.0106839478875 0.00385627481031 -0.00298766354704)
(-0.0142094268402 0.00276900766648 -0.00294755165094)
(-0.0144310042325 0.00401772630323 -0.0034911372104)
(-0.00417379868146 0.00350031997771 -0.00174744227615)
(-0.00723335761724 0.00245844531117 -0.00304293325095)
(-0.00875132555387 0.00364439213467 -0.00431691485039)
(-0.00171548207682 0.00229736958804 -0.000459543899504)
(-0.00326077710516 0.00351883287802 -0.00214217056951)
(0.00441177324357 0.00123152337019 -0.00177265340683)
(0.00180106237096 5.86959385809e-05 -0.00048500681317)
(0.00341531297647 0.00123884198711 -0.00219203085516)
(0.0111342632809 0.00135121856028 -0.00300427816356)
(0.00743046330817 6.02473127127e-05 -0.00305972928441)
(0.00909752574475 0.00128161776573 -0.00434026214915)
(0.0172864629568 0.00155315837238 -0.00202829517175)
(0.0145016007755 6.25761243005e-05 -0.00294848291666)
(0.014934647752 0.00140651353068 -0.00345908360971)
(0.0212238333854 0.00183589459419 0.000194597082986)
(0.0197595903093 6.63970258915e-05 -0.00110767336482)
(0.0189938067876 0.00161359687361 -0.000750854349003)
(0.0222898729435 0.00215329656932 0.00274386070717)
(0.0224225616903 7.16431927891e-05 0.00149768461682)
(0.0208172322288 0.00187861747969 0.00274835518273)