/*--------------------------------*- C++ -*----------------------------------*\
| =========                 |                                                 |
| \\      /  F ield         | OpenFOAM: The Open Source CFD Toolbox           |
|  \\    /   O peration     | Version:  3.0.1                                 |
|   \\  /    A nd           | Web:      www.OpenFOAM.org                      |
|    \\/     M anipulation  |                                                 |
\*---------------------------------------------------------------------------*/
FoamFile
{
    version     2.0;
    format      ascii;
    class       volScalarField;
    location    "6.4";
    object      epsilon;
}
// * * * * * * * * * * * * * * * * * * * * * * * * * * * * * * * * * * * * * //

dimensions      [0 2 -3 0 0 0 0];

internalField   nonuniform List<scalar> 
7968
(
0.000110091942325
0.000135472477915
0.000157187991229
0.000171513810668
0.000180000283591
0.000184248548653
0.000185733354185
0.000185850854835
0.000185551165198
0.000185089515849
0.000185109841187
0.000185662773345
0.000185982983287
0.000185822067738
0.000184012872669
0.000179442288395
0.000170781330885
0.000156486367737
0.000135024134614
0.000109916177495
0.00013542663078
0.000253573099482
0.000349153981974
0.000414928895256
0.000456938920359
0.000480832163081
0.000492094093965
0.000495392268545
0.000494886564015
0.000493607401722
0.00049327067382
0.000493706288273
0.000492930067821
0.000488029525187
0.000475310818093
0.00045063028149
0.000409016234457
0.000344870079944
0.000251545213609
0.000135021414213
0.000157123986147
0.000349225741181
0.000507012220434
0.000617937185918
0.000690878110118
0.000734126416572
0.000755923160112
0.000763816354432
0.000764444800852
0.000762582461856
0.000760739781627
0.000758789070019
0.000754192529525
0.000742589999954
0.000718160032908
0.000674293649444
0.000603424122854
0.000497035758191
0.000344748253289
0.000156551492099
0.000171561877018
0.000415448311468
0.00061865773391
0.000763035488159
0.000858896554674
0.000916333047236
0.000945871940371
0.000957291433254
0.0009602615375
0.00095874391998
0.000954349816569
0.000947487753399
0.000938789213588
0.000921683413633
0.000888560518872
0.000830894410931
0.000739072397045
0.000602478640568
0.00040841211611
0.000170801090585
0.000180228434491
0.000458302147569
0.000693062132168
0.000860723465554
0.000972047241445
0.00103911263988
0.00107874582015
0.00109767234912
0.00110193300576
0.00109870828349
0.00109216579441
0.00108282314434
0.00106768276703
0.00104101105048
0.00099979026502
0.000933247916003
0.000827846314928
0.00067107146781
0.000449057357006
0.00017922721443
0.000184671947114
0.000483277570383
0.000738352113888
0.000920953548211
0.00104224338051
0.00112253540754
0.00116871598801
0.00118748671943
0.00118963468899
0.00118408536802
0.00117582922299
0.00116548841186
0.00114933402151
0.00112043151974
0.00107045766507
0.00099401589201
0.000880516730917
0.000711485952213
0.000472200105418
0.000183589843718
0.000186309412914
0.000495666729945
0.000762507671569
0.000953909299213
0.00108518851694
0.00117301081617
0.00121913139128
0.00123539562026
0.00123455313335
0.00122667635769
0.00121728920499
0.00120699620224
0.00119157424616
0.00116324981315
0.00111214081244
0.00102835017541
0.000907543309182
0.000731895322346
0.00048324461934
0.000185239961609
0.00018628037475
0.000499989466974
0.000772826148872
0.000968951449946
0.00110891718467
0.00119747347386
0.00124146006448
0.00125453837848
0.00125072888664
0.00124091639193
0.00123098997987
0.00122140968285
0.00120749963175
0.00118088809215
0.00113091605417
0.00104639403779
0.00091848259687
0.000739581921013
0.000486724233022
0.000185742923461
0.000185859289803
0.000500298960209
0.000775728017152
0.000974364462276
0.00111849617348
0.00120608684512
0.00124767286249
0.00125800090858
0.00125188506612
0.00124075495764
0.00123073862701
0.00122210968949
0.00120972928851
0.00118486751522
0.00113645297407
0.00105271075594
0.000922563512288
0.000740808284236
0.000486507342512
0.000185590351429
0.000185321727639
0.000499594677225
0.000775884916977
0.000976438298127
0.001120786452
0.00120719527358
0.00124715626787
0.00125588532383
0.00124856380199
0.00123680944123
0.00122690433662
0.00121900812964
0.00120762317588
0.00118383945712
0.00113648428974
0.00105360071961
0.000923675319783
0.000740018793434
0.000485401647805
0.000185138751944
0.000185229936511
0.000499656672017
0.000775788485706
0.000975806184596
0.00111952171464
0.0012053714876
0.00124498238092
0.00125362280506
0.00124642320365
0.0012348649952
0.00122511518817
0.00121731441562
0.0012059815531
0.00118226609005
0.00113507023191
0.00105247707337
0.000922938552075
0.000739450883836
0.00048498885014
0.000184828830989
0.000185750525335
0.000500431351312
0.00077531482124
0.000972602604179
0.00111474328382
0.0012006821688
0.00124119358313
0.00125117331165
0.00124531354365
0.00123470035425
0.0012251511694
0.00121680597851
0.00120461190075
0.00117999781247
0.00113210400182
0.00104925573755
0.00092023199267
0.000738917782796
0.000485341240797
0.000185039836525
0.000186188819361
0.000499978510929
0.000771805690911
0.000966049724323
0.00110288218795
0.0011887854047
0.00123094013484
0.00124324442004
0.00123957323461
0.00123038772044
0.00122114890898
0.00121206948543
0.00119857437988
0.00117252013219
0.00112353830301
0.00104051925162
0.000913664543995
0.00073590248837
0.000484590242748
0.000185062082824
0.000186169020908
0.000495241588488
0.000760609538916
0.000949716639199
0.00107744038473
0.00116188057944
0.00120550704858
0.0012204835993
0.00121945644376
0.00121208205401
0.0012034543465
0.00119384903281
0.00117913109405
0.00115176047692
0.00110212210188
0.0010202094093
0.000899933466254
0.000726001982156
0.000479780885385
0.000184209825971
0.000184420207674
0.000482284995727
0.000735518369827
0.000915634027436
0.00103407366781
0.00111057355877
0.00115390732379
0.00117101483521
0.00117262917127
0.00116734576979
0.00115977984933
0.0011502125155
0.00113497795184
0.00110730012057
0.00105888346168
0.000982794557932
0.000870317819607
0.000703437156153
0.000467310620813
0.000181995682648
0.000179875819832
0.000456806589883
0.000689603642805
0.000854910503149
0.000963758248151
0.00102841942512
0.00106539431333
0.00108269514555
0.00108626662764
0.00108311579953
0.00107710808127
0.00106847239322
0.00105418750096
0.00102848296197
0.000986999180866
0.000920480348769
0.000816081894966
0.000661560979754
0.00044302758592
0.000177369864032
0.000171176044689
0.000413775264785
0.000615240963211
0.000757770765022
0.000851822150195
0.000907667647658
0.000936002679186
0.000946740444932
0.000949202442723
0.000947721945002
0.00094368953211
0.000937368132063
0.000928519782032
0.000910636078902
0.000876708667763
0.000818688189719
0.000727510399181
0.000592848792273
0.00040202343396
0.00016899499418
0.000156778208453
0.000347785161324
0.000504359433589
0.00061421162988
0.000686248573417
0.000728812810395
0.000750205456861
0.000758036100013
0.000758884239758
0.000757334873194
0.000755611051629
0.00075334955737
0.000747977134638
0.000735191145377
0.000709534113796
0.000664808513892
0.000593971627965
0.00048884311954
0.000339119888018
0.000154979777153
0.000135185307816
0.000252691585038
0.000347653015672
0.000413108171212
0.00045509010508
0.000479078400928
0.000490579636799
0.000494277814092
0.000494235829653
0.000493305488065
0.000492934888741
0.000492901914821
0.000491261403571
0.000485135776492
0.000471091028892
0.000445275477894
0.000403117685972
0.000339459184164
0.000247779883502
0.000133905919317
0.000109981912596
0.000135185686866
0.000156823217955
0.000171133420117
0.000179623422103
0.000183993638478
0.000185651224998
0.000186084121561
0.00018599052396
0.000185660648418
0.000185536212602
0.000185817254787
0.00018584525871
0.000185116504234
0.000182809030327
0.000177815863339
0.000169018062699
0.000154846924462
0.000133814389355
0.000109441248625
0.000133847322261
0.000241354033452
0.000331847938123
0.000396875249479
0.000440688280171
0.000467820531604
0.000482610943411
0.000488792050471
0.000490042633326
0.00048955414142
0.000489031563433
0.000488392470746
0.000485756676635
0.000478024767674
0.000462319776549
0.00043516287433
0.000392409548501
0.000329272545021
0.000240616328724
0.000133551703078
0.000241355437797
0.000307767258543
0.000390079313795
0.000454668265936
0.000500336147636
0.000529691010103
0.000546385356911
0.000554216314764
0.000556665268932
0.000556423098674
0.000554949186234
0.000552265752327
0.000547025954093
0.000536885822187
0.000518901458389
0.000489737364548
0.000445900932979
0.000384357047457
0.000305212866236
0.000240440399614
0.000331897285822
0.000390286982297
0.000486252470941
0.000565253707719
0.0006227488452
0.000660438727263
0.000682140168752
0.000692322231079
0.000695190929688
0.000694010318698
0.000690636007899
0.000685295223926
0.000676631872382
0.000662052300064
0.000638090760711
0.000600947549428
0.000546976243937
0.000473734118964
0.000383939045066
0.000328978507186
0.000397198175052
0.000455365817878
0.000565917427327
0.000658852530927
0.000727347177065
0.000772626386233
0.00079885560106
0.000811154334479
0.00081440066295
0.000812090018731
0.00080643121904
0.000797956416666
0.000785644922782
0.000766810808198
0.000737391242371
0.000693108277844
0.000629978958402
0.000545741655641
0.000444645735865
0.000391741836047
0.000441553295127
0.000501849018238
0.000624641635893
0.000728848152871
0.00080607725434
0.000857533351223
0.000888145701899
0.000902102304135
0.000904621254705
0.000900518747996
0.00089278664214
0.000882111772707
0.000866932847282
0.000844029719851
0.000809848878221
0.000760085273046
0.000690051119384
0.000597308632652
0.000487033969465
0.000433656509622
0.00046943644407
0.000532303970433
0.000664107891885
0.000776476133958
0.000860175807703
0.000917086213982
0.00094962844552
0.000962846328207
0.000963404542149
0.000957214036029
0.000947857616185
0.000936095455203
0.000919952343851
0.000895531960774
0.000858276052944
0.000804116482424
0.000729384775078
0.00063087887779
0.000514158310632
0.000459543280373
0.000485116116671
0.00055030530545
0.000688033035069
0.00080577422831
0.000894420890419
0.000953719053553
0.000985686232981
0.000996720111318
0.000994722812006
0.000986513085165
0.000976108079549
0.000964242718057
0.000948535052276
0.000924465361006
0.000886708253402
0.000830386872085
0.000752401438339
0.000650440290332
0.000529749869696
0.000473758456301
0.000492489191097
0.000559578464079
0.000700754775712
0.000821614153932
0.000913070401554
0.000972354198767
0.00100244680661
0.00101079511286
0.00100628953202
0.000996442769296
0.00098555205683
0.000974236560826
0.000959729623381
0.000937007002747
0.000900181594694
0.000843791745574
0.000764119763781
0.000660289134057
0.000537443204099
0.000479681165344
0.000494729741414
0.000563501286501
0.000706377482051
0.000828847076135
0.000920981439816
0.000979219282398
0.00100725011132
0.00101326585852
0.00100684537127
0.000995942358241
0.000984985384559
0.00097443779333
0.000961230288607
0.000939997607902
0.000904501324771
0.00084890506653
0.000769056402107
0.000664303134049
0.000540488960864
0.000481212878736
0.000495002544892
0.000564707413033
0.000708030183062
0.000830892458856
0.000922611087516
0.00097973797538
0.00100632480199
0.00101095646213
0.00100354488803
0.000992214254647
0.000981410537796
0.000971470747056
0.000959151544046
0.000938940954898
0.00090445686358
0.000849695059519
0.000770289472983
0.000665349399035
0.000541292413322
0.000481080210645
0.00049516730191
0.000564631116706
0.000707412979115
0.000829534364502
0.000920500302885
0.00097699199122
0.00100315577059
0.00100761261173
0.00100023889022
0.000989075563749
0.000978488033415
0.000968766389921
0.000956677306218
0.00093674730355
0.000902634499454
0.000848337255874
0.000769431216997
0.000664898816068
0.000541118081121
0.000480787173326
0.00049517455627
0.000563197775783
0.000704484564096
0.00082482773602
0.000914744872682
0.000971097234633
0.000997836856853
0.00100326454623
0.00099687268408
0.000986398256566
0.000976053944642
0.000966164869893
0.00095368343675
0.000933342716614
0.000899000087257
0.000844810134497
0.000766437434494
0.000662872145278
0.000539905208706
0.000480474623893
0.000492968346385
0.000558868916109
0.000697527073711
0.000815150712111
0.000903071879723
0.000959305191887
0.000987215890444
0.000994433529159
0.000989759483014
0.00098042909926
0.000970452809244
0.000960238440226
0.000947035656006
0.000925925065437
0.000891110250843
0.0008370560868
0.000759679603051
0.000657742980674
0.000536287760513
0.000478421423157
0.000485397936875
0.000549042958416
0.000683550800309
0.000797289672783
0.000881531734851
0.000936873342833
0.000965876907886
0.000975197611372
0.000972689358985
0.00096491209174
0.000955594996538
0.000945222177004
0.000931401230075
0.000909668265928
0.000874712109479
0.000821458105522
0.000746242613599
0.000646756949577
0.000527897383086
0.000471883252963
0.000469410072731
0.000530517848511
0.000658731462022
0.000766767777594
0.000845933013963
0.000898469577097
0.000927609139907
0.00093870473517
0.000938433533248
0.000932514552804
0.000924289513425
0.000914262518416
0.000900407970366
0.000878798606898
0.000844752063684
0.000793787533738
0.00072206373672
0.000626335923774
0.000511686666281
0.000457293608119
0.000441275523425
0.000499814858874
0.00061908709152
0.000719142450822
0.000792174248543
0.000839757743537
0.000867115773113
0.000878941273498
0.000880517911841
0.000876564198471
0.000869891461947
0.000860953238607
0.000848082487719
0.000827918731748
0.000796573773768
0.000749669973734
0.000682548837025
0.000592511981617
0.000484256834207
0.000431118617062
0.000396882433867
0.000453539502743
0.000561119034818
0.000650604265243
0.000715703882671
0.000757982809199
0.000781839671209
0.000792553307669
0.000795041917041
0.000792860692062
0.000788087984646
0.000781056062676
0.000770538232739
0.000753582908219
0.000726241457056
0.000684211866722
0.000623451734356
0.00054145711191
0.000442050312347
0.000389410159505
0.00033175329256
0.000389078189027
0.000483005386324
0.000559664958591
0.000614910284712
0.00065068780636
0.000670963106727
0.00068028672206
0.000682875963683
0.000681917921686
0.000679140382492
0.000674603214741
0.000666880154628
0.00065333078567
0.000630533127009
0.000594731849963
0.000542266546718
0.000470538494359
0.000381956361239
0.000327325758085
0.000241379276012
0.000307266808132
0.000388588526773
0.000452063695046
0.000496704023051
0.000525239076699
0.000541390642665
0.000548980770353
0.000551477934156
0.000551468758124
0.000550290740199
0.000547863248411
0.000542823448548
0.00053285898582
0.000515088045762
0.000486287189849
0.000443041729678
0.000382289195926
0.000303959777162
0.000239569235925
0.000133671339301
0.000241186718165
0.00033141047643
0.000396114885861
0.000439651756508
0.00046659932872
0.000481331589165
0.000487512428177
0.000489017891824
0.000488772833405
0.000488241695846
0.00048735055005
0.000484325134716
0.000476293005454
0.000460173721746
0.000432782707378
0.000390159772919
0.000327570008456
0.000239648558271
0.000132733716738
0.000155143399238
0.000332838742676
0.000489905657269
0.00060758893991
0.000689602072829
0.00074168695014
0.000770491774171
0.000782980853789
0.00078560364267
0.00078339102143
0.000779181847705
0.00077318064137
0.000763003539286
0.000744543857717
0.000712685069838
0.000661584439428
0.000584913940985
0.000475839543511
0.000327708186323
0.000154413480187
0.000332981200904
0.000398947660083
0.000504893300498
0.000593532652597
0.000658605645181
0.000701124219964
0.000724968577977
0.000735140399173
0.000736570639447
0.000733172173634
0.000727178908689
0.000718994886464
0.000707205892801
0.00068900407976
0.000660833615921
0.000618861140161
0.000559594229302
0.000480970862027
0.000386357011988
0.000327399972964
0.000490314172549
0.000505558295646
0.00061092779748
0.000705948780746
0.000777948655188
0.000825622959944
0.000852151851781
0.000862605328976
0.000862292520307
0.000855698318536
0.000845537387998
0.000832618616112
0.000815768395054
0.000792230757883
0.000758572810459
0.000711211060572
0.000647486461294
0.000567415085626
0.000479776870418
0.000475045699641
0.000608856673704
0.000595532763245
0.000707628566036
0.000812330342526
0.000892592500979
0.000945775221963
0.000974800992489
0.000985295723147
0.000982612557969
0.000972237030316
0.000957675724343
0.000940110366543
0.000918441403869
0.000889797856633
0.000850928488988
0.000797977543978
0.000728553973772
0.000643737686216
0.000555689274623
0.000582487918128
0.000692503669798
0.000662734901717
0.000782515352697
0.000895937281392
0.000983038794896
0.00104051921428
0.00107057593152
0.0010786098084
0.00107188004527
0.00105713344553
0.00103868754834
0.00101797235112
0.000993603851891
0.000962248675045
0.000919905511399
0.000863013511515
0.000789348645768
0.000700345497337
0.0006102006943
0.000655722995808
0.00074697999967
0.000708161573257
0.000834289323096
0.000954161761076
0.00104603296754
0.00110522813692
0.00113322202811
0.00113650996814
0.00112434701554
0.00110499877286
0.00108349519044
0.00106135276353
0.00103665959076
0.00100537735734
0.000962816060733
0.000904634009146
0.000828737894963
0.000737264180475
0.000645416487215
0.000701595832891
0.00077881979802
0.000735592845385
0.000866013749143
0.000989787301638
0.0010838840704
0.00114177261973
0.001165114358
0.00116197755994
0.00114378930234
0.0011202001125
0.00109672543298
0.00107477959213
0.00105177282909
0.00102286329548
0.000982629779374
0.000925988647948
0.000850128938764
0.000757957287601
0.000665411130998
0.000727030300953
0.000794821176219
0.000749895371083
0.000882605196616
0.00100825622873
0.00110175822314
0.00115628920934
0.00117382457645
0.0011641774904
0.00114057424275
0.00111370939986
0.00108938141786
0.00106872000064
0.00104846634601
0.00102304313521
0.00098635327442
0.000932755772572
0.000858835273259
0.0007672000804
0.000674849347976
0.000738703253147
0.000801206149372
0.000755829008237
0.000889115683903
0.00101478368764
0.00110631138868
0.00115700142159
0.00116942297826
0.00115467181919
0.00112721066532
0.00109837069573
0.00107402242014
0.00105494007847
0.00103735084739
0.00101518064467
0.000981874372508
0.000931384788654
0.000859879166055
0.000769682555441
0.000678063004009
0.000742486824399
0.000802843192604
0.000757144771866
0.000889752159299
0.00101424092067
0.00110359870199
0.00115134382524
0.00116051081859
0.00114289580863
0.00111354834551
0.00108401233969
0.00106007299793
0.00104221786493
0.00102639399587
0.00100632928794
0.000975304820382
0.000927093407965
0.000857636449638
0.00076906699935
0.000678313802806
0.000742751833653
0.000802426537132
0.000755846586483
0.000886832222714
0.00100948644824
0.00109715424911
0.00114352298456
0.00115177628846
0.00113378737953
0.00110453182702
0.00107538184434
0.00105195898276
0.0010346404181
0.00101936743659
0.00099994753971
0.000969762879228
0.000922624879105
0.000854407625765
0.000767079131252
0.000677289508923
0.000741917503458
0.000799836772036
0.000751871347011
0.000880414100314
0.00100072817905
0.0010872782499
0.00113385365773
0.00114344649928
0.00112739731435
0.00109999751424
0.0010721269959
0.00104922008942
0.00103174464775
0.00101590356417
0.000995817311936
0.000965170800932
0.000917986677344
0.000850214008478
0.000763695857103
0.000674929786707
0.000740054409537
0.000792245610713
0.000743175312545
0.00086837350683
0.000985610310459
0.00107115057708
0.00111891560833
0.00113155001781
0.0011193117437
0.00109526347418
0.00106951610211
0.00104729391292
0.00102929356527
0.00101220193656
0.000990636133829
0.000958719331307
0.000910794600527
0.000843039832712
0.000757244633882
0.000669537704613
0.000734677783424
0.000774901721628
0.000726258258968
0.000847044432414
0.00096026485747
0.00104400968851
0.0010929199956
0.0011094098625
0.0011021917211
0.00108264633013
0.00105987940607
0.00103884654571
0.00102048806262
0.00100211432843
0.000978957603474
0.000945636990564
0.000896870386137
0.000829278397844
0.000744602078163
0.000658088871677
0.000721467828917
0.000742011449367
0.000696927695409
0.000812193891022
0.000920360459683
0.00100076810016
0.00104982306112
0.00106977548005
0.00106781371017
0.00105336545396
0.00103432395729
0.00101527762827
0.00099731191952
0.000978343385904
0.000954242385373
0.000920123684059
0.000871214191778
0.000804590216347
0.00072174014666
0.00063673767032
0.000694991561749
0.000687312646988
0.000650999483415
0.000759789728936
0.00086154838884
0.000937475484351
0.000984972454233
0.00100699456523
0.00100950935372
0.00100002868377
0.000985176126128
0.000968988779971
0.000952548125127
0.000934217856833
0.000910440133558
0.000876863519395
0.00082919351331
0.000764892352853
0.000684614377387
0.000601346412068
0.000649117231618
0.000604586964691
0.000585154635555
0.000687347940083
0.00078164323125
0.000852119290278
0.000896750662436
0.000918913554478
0.000924534682715
0.000919327198839
0.000908753055135
0.000896161750333
0.000882440818723
0.000866216233042
0.000844284967486
0.000812945788935
0.000768171825553
0.000707090985713
0.000630034769985
0.000548072524819
0.000577188051894
0.00048787032971
0.000498244548097
0.000595961755744
0.000682929692296
0.00074744620751
0.000788720476732
0.000810236386516
0.000817283047436
0.000815270829836
0.000808649800034
0.000800014674522
0.000789911046815
0.000776977879311
0.000758307175785
0.000730258930207
0.000689046948881
0.000631647411043
0.000557476829728
0.000474489360939
0.000472000922644
0.000332332227309
0.000395411992266
0.000496726564919
0.000580355072513
0.000640755022135
0.000679328558413
0.000700166498167
0.000708382279618
0.000708917540578
0.000705606000964
0.00070056584989
0.000694001989003
0.000684404098845
0.000668912504839
0.000643923006901
0.000605544583547
0.000550108597898
0.000475189977421
0.000383617146486
0.000326359884155
0.00015485071188
0.000331926792489
0.000486816492421
0.000601664031634
0.00068075214202
0.000730191872461
0.000756903624075
0.000768017054557
0.000769997931217
0.000767725950427
0.00076387593848
0.000758531656318
0.00074933855819
0.000732189065561
0.000702009826135
0.000653047149932
0.000578948727126
0.000472613786488
0.000326596385654
0.000153174269937
0.000174000043736
0.000427245799473
0.000661161277992
0.000841269439942
0.000968180713992
0.00104779476255
0.00108931909801
0.00110371795877
0.00110162574964
0.00109126670748
0.00107726277598
0.00106055999892
0.00103834781367
0.0010050319465
0.000953394295557
0.000875450561101
0.000763074838468
0.000608172632185
0.000403709120922
0.000171337085049
0.000427825135686
0.000514765260145
0.000665404820046
0.000794430425607
0.000889629829781
0.000950614796709
0.000982366901008
0.00099226048354
0.000987963911261
0.00097562028543
0.000958924748211
0.00093904639059
0.000914586386048
0.00088204891919
0.000836968527791
0.000774811225516
0.000691994653406
0.000587463386473
0.000467730187127
0.000403196219015
0.000662728343794
0.000667107691878
0.000811516149897
0.000944275745703
0.00104467193578
0.0011093319071
0.00114214724209
0.00115012185827
0.00114137457256
0.0011226783092
0.00109832889871
0.00107022958593
0.00103749748435
0.000996864985906
0.000944316908115
0.000876031701221
0.000789862868868
0.000687842514361
0.000584126967472
0.000605940043053
0.000845275967883
0.000799301600018
0.000947995909597
0.00108947986339
0.00119712103872
0.00126598678205
0.00129970208787
0.00130424321077
0.00128896764531
0.00126248484477
0.00123034841272
0.00119490810931
0.00115512443058
0.00110758287551
0.00104889425229
0.00097490561942
0.000883869798763
0.000779446675629
0.000680658965298
0.000755237946305
0.000976494786326
0.000899376466654
0.00105439395801
0.00120375541783
0.0013172910202
0.00138892406652
0.0014186731033
0.00141468207851
0.00138947629768
0.00135390694008
0.00131467793967
0.00127452005551
0.00123182153267
0.00118249200378
0.00112193082593
0.0010457116445
0.000952531102619
0.000846452274848
0.000749579404536
0.000856457710641
0.00106231972436
0.000966961744193
0.00112735879488
0.00128223160353
0.0013996364504
0.00146782096886
0.00148742532916
0.00147016495329
0.00143229711755
0.00138702149203
0.00134221531222
0.00130051356869
0.00125943314625
0.00121353436474
0.00115677606735
0.00108391966629
0.000992394918295
0.000887161196743
0.000792189574253
0.000917776429694
0.00111177493355
0.0010069201154
0.00117065399781
0.00132844403272
0.00144475965044
0.00150403224888
0.00150923394846
0.00147591032049
0.00142435819324
0.00137022820111
0.00132202299205
0.00128190068826
0.00124617628041
0.00120773494749
0.00115891986492
0.00109326881047
0.00100766825707
0.000905805428843
0.000813652273277
0.00094895381413
0.00113546406803
0.00102641041353
0.00119111060017
0.00134903452112
0.00145991542537
0.00150795422171
0.00149794869014
0.00144908363115
0.00138556103772
0.00132473651583
0.00127535122156
0.00123874056158
0.00120991938077
0.00118023498501
0.00114071078674
0.00108382841126
0.00100575518798
0.000909245327368
0.000820745645573
0.000960305122336
0.00114356433431
0.00103281341621
0.00119641576815
0.00135168384601
0.00145611349084
0.0014940131924
0.00147166308339
0.0014111587806
0.00133942060384
0.0012747365207
0.00122568763455
0.00119270547789
0.00116975800558
0.00114731904267
0.001115645937
0.0010665820344
0.000995598927326
0.000904915393937
0.000820099462926
0.000961129602717
0.00114389821152
0.00103197340615
0.00119304608275
0.00134458124021
0.00144353840478
0.00147448281674
0.0014447226495
0.00137799076224
0.00130243308524
0.00123654843709
0.00118853555163
0.001158129484
0.0011387166363
0.00112053237139
0.00109370391085
0.00104987817977
0.000984096117669
0.000898089816625
0.000816653242781
0.000958216052694
0.00114062076852
0.0010270159562
0.00118461391518
0.00133242618597
0.00142795750716
0.00145607030025
0.00142447828577
0.00135712240236
0.00128192018538
0.00121693768141
0.00117000435139
0.0011406162143
0.00112211473168
0.00110496871565
0.00107964590439
0.00103798281752
0.000974917620809
0.000891867794635
0.000813014705647
0.00095518748113
0.00113366626768
0.00101797993118
0.00117142907447
0.00131578312051
0.00141007555228
0.0014394237737
0.00141126249013
0.00134835810636
0.00127709447956
0.00121461841013
0.00116853482752
0.00113862330733
0.00111871209997
0.00109986283901
0.00107317091791
0.00103091381645
0.000968209061811
0.00088636020004
0.000809160064631
0.000952037005518
0.00111891751311
0.00100193344573
0.00115055313929
0.00129113276716
0.00138563535427
0.00141948547444
0.00139915592048
0.00134498553104
0.00128067661322
0.0012221597556
0.00117693311651
0.00114545993641
0.00112251997055
0.00110007895891
0.00107002972323
0.00102521009501
0.000961091016583
0.000879015076659
0.000802677547376
0.000945249085013
0.00108919381233
0.000973805127059
0.00111678207285
0.00125237996309
0.0013472511859
0.00138744925399
0.0013778588795
0.00133553212067
0.00128066670138
0.00122769266268
0.00118400043983
0.00115088939164
0.00112435774822
0.00109757392963
0.00106329944038
0.00101501197095
0.000948520296958
0.000865540421742
0.000789374396953
0.000928651980565
0.001035695522
0.000927683980705
0.00106441645893
0.00119464670668
0.0012877433144
0.00133379643928
0.00133546135395
0.00130607391453
0.00126222711206
0.00121640851972
0.00117575545725
0.00114224980125
0.00111305147254
0.00108257257632
0.00104453187034
0.000993029191395
0.000924121698301
0.000840566622778
0.000763940267221
0.000894256811725
0.000949388935397
0.000858091255591
0.000988486147402
0.00111277415054
0.00120230008721
0.00125168612409
0.00126271696661
0.00124529619778
0.00121258785679
0.00117518508193
0.00113948265312
0.0011077522969
0.00107807262773
0.00104590793819
0.00100581310966
0.000952350318992
0.000882448405214
0.000798869262731
0.000720896329925
0.000833131490561
0.000822134623384
0.00076141571482
0.000886681844516
0.00100472874656
0.00109058546217
0.00114001558878
0.001157206227
0.00114933506029
0.00112669986449
0.00109803976561
0.00106887232625
0.00104126970284
0.00101380933232
0.000982644053786
0.000942836597645
0.000889787690795
0.000820507539022
0.000736983901447
0.000655637990358
0.0007360530586
0.000647320591335
0.000638002382228
0.00076242079222
0.000875370796983
0.000957688896789
0.00100666789698
0.00102666353033
0.00102521008937
0.00101088912651
0.000990719970084
0.000968981256611
0.00094728850507
0.000924496524083
0.000896934285706
0.000859892761587
0.00080883519944
0.000740573534841
0.000655638775974
0.000566077286517
0.000593822247177
0.000421320906075
0.000497812927372
0.000633869745811
0.000748219561024
0.00083008132475
0.000879707806123
0.000902438749107
0.000905929308003
0.000898034463261
0.000884989282094
0.000870465354184
0.000855349132752
0.00083795725811
0.000814557893326
0.000780335917539
0.000730293242887
0.000660101931168
0.000567577855708
0.000457730255115
0.000398227710054
0.000173097238265
0.00042049653219
0.000644289688037
0.000812927547639
0.000928609089195
0.000998253450376
0.00103176773888
0.00104053287081
0.00103527995931
0.0010241253664
0.00101156056178
0.000998159120754
0.000980994438815
0.000954345190185
0.00091088142971
0.000842406935234
0.000740251560213
0.000595318514072
0.000398802696222
0.000169154681148
0.000197795761278
0.000567436017756
0.000916320036234
0.00118790548461
0.00137881207645
0.0014953248336
0.0015506826205
0.00156209942083
0.00154654902627
0.00151716598712
0.00148172380678
0.00144249958206
0.00139646941498
0.00133639052883
0.00125270056502
0.00113528618344
0.000974543274406
0.000761613025804
0.00048932192091
0.000188226086825
0.000569141162126
0.000703949296955
0.000929467342812
0.00112242936958
0.00126360152567
0.00135183739583
0.0013944196995
0.00140245848045
0.00138749823406
0.00135876783863
0.00132221250547
0.00128010061463
0.00123124179716
0.00117153302828
0.00109548459017
0.000997868997887
0.000875251987869
0.000728223173249
0.000567812789844
0.000488287434912
0.000920724925848
0.000933029095723
0.00114639566419
0.0013405169831
0.00148556780433
0.00157709899307
0.00162060061888
0.00162560309057
0.00160444284298
0.00156683534217
0.00151914947893
0.00146467653107
0.00140317041466
0.0013308554477
0.00124314082258
0.00113557658043
0.00100650141305
0.000860722552995