/*--------------------------------*- C++ -*----------------------------------*\
| =========                 |                                                 |
| \\      /  F ield         | OpenFOAM: The Open Source CFD Toolbox           |
|  \\    /   O peration     | Version:  3.0.1                                 |
|   \\  /    A nd           | Web:      www.OpenFOAM.org                      |
|    \\/     M anipulation  |                                                 |
\*---------------------------------------------------------------------------*/
FoamFile
{
    version     2.0;
    format      ascii;
    class       volScalarField;
    location    "6.8";
    object      nut;
}
// * * * * * * * * * * * * * * * * * * * * * * * * * * * * * * * * * * * * * //

dimensions      [0 2 -1 0 0 0 0];

internalField   nonuniform List<scalar> 
7968
(
0.000105015362807
0.00011489544569
0.000121651509566
0.000125190607707
0.000126307857209
0.000125992953673
0.000124857153223
0.000123329999728
0.00012186157673
0.000120779384754
0.000120775452268
0.000121854526845
0.000123322148586
0.00012485017505
0.00012598834287
0.000126305815401
0.000125191694148
0.000121654832721
0.000114899934609
0.000105018777052
0.000114892591704
0.00014146450493
0.000155574117754
0.000162239983443
0.000164165683987
0.000163290515242
0.000160873209404
0.000157803695316
0.000155039744764
0.000153357002086
0.000153351139262
0.00015502600669
0.000157785844518
0.000160855340872
0.000163275854208
0.000164155172719
0.000162235075733
0.000155573771668
0.000141467583926
0.000114896581203
0.000121646491812
0.000155570990465
0.000172751575049
0.000180817526546
0.000183289845937
0.000182349626212
0.000179536071908
0.000175959302046
0.000172749318853
0.000170810310487
0.000170803369913
0.000172732561014
0.000175936802514
0.000179512642733
0.000182329175641
0.00018327414526
0.000180807943107
0.000172747377763
0.000155571337428
0.00012164978206
0.000125183372685
0.00016223446825
0.000180815388509
0.000189600761141
0.000192370246609
0.000191402044891
0.000188415843781
0.000184830672342
0.000182211863748
0.000180623486844
0.00018061750992
0.000182197212206
0.000184808804831
0.000188387942677
0.00019137637749
0.000192349571367
0.000189586458313
0.000180806916341
0.000162231249046
0.000125185288321
0.000126299184013
0.000164159940321
0.000183288425632
0.000192371455739
0.00019521490399
0.000194565406081
0.000193540748123
0.000191592195974
0.000189513905807
0.000188096094369
0.00018809008321
0.000189499575451
0.000191572252721
0.000193518578488
0.00019454295848
0.000195189258455
0.000192352037255
0.000183274935286
0.000164151952858
0.00012629860171
0.000125986478373
0.000163289674923
0.000182354127407
0.000191409970397
0.000194569712976
0.000196448725878
0.000196627022814
0.000195379407483
0.000193565041092
0.00019219463192
0.000192188403412
0.000193550539878
0.000195360098987
0.00019660608241
0.000196427600423
0.000194548192571
0.000191386380442
0.000182336358335
0.000163277613056
0.000125983198764
0.000124854325448
0.000160879702855
0.000179549987836
0.00018843460104
0.000193552986339
0.000196634619506
0.000197426232613
0.000196428367108
0.000194613300899
0.000193159954852
0.000193153634
0.000194598804952
0.000196409593763
0.000197406303263
0.000196614820155
0.000193532736968
0.000188409591374
0.000179529585173
0.000160864256219
0.000124847952468
0.000123331194802
0.000157818358433
0.000175983683841
0.000184855033526
0.000191613566807
0.000195397377302
0.000196439686826
0.000195403827637
0.000193394506429
0.000191719970168
0.000191713958848
0.000193381263568
0.00019538736512
0.000196422719581
0.00019538104536
0.000191597194701
0.000184836948071
0.000175964844071
0.000157802707559
0.000123322860842
0.000121863723345
0.000155058612143
0.000172779488005
0.000182237840648
0.000189540570523
0.000193591648746
0.000194635654937
0.000193406804183
0.000191016525766
0.000188956287378
0.000188951336714
0.000191006589802
0.000193395748479
0.000194625546377
0.000193582990346
0.000189532639277
0.000182229444337
0.000172768623198
0.000155048281095
0.000121856284451
0.000120778728533
0.000153372629424
0.000170837075139
0.000180646354523
0.00018812161372
0.000192222597933
0.000193185713952
0.000191738473594
0.000188964805692
0.000186484805023
0.000186482110677
0.00018896095018
0.000191736501667
0.000193186594462
0.000192225813389
0.000188125897144
0.000180650594033
0.000170840459176
0.000153373628984
0.000120776387765
0.00012077696442
0.000153359911663
0.00017081965093
0.000180630743109
0.000188105737893
0.000192207040312
0.000193172229979
0.000191729169227
0.000188961556822
0.000186487957149
0.000186488863493
0.00018896598168
0.00019173841994
0.000193185975498
0.000192223828182
0.000188123789074
0.000180649122463
0.000170839698511
0.000153375081203
0.000120783236721
0.000121857823751
0.000155029585632
0.000172739571132
0.000182201366922
0.000189504584883
0.000193557473308
0.000194606893757
0.000193388450767
0.000191012650092
0.000188966906944
0.00018896947955
0.00019102052596
0.00019340206288
0.000194625403355
0.000193579067302
0.000189527790299
0.00018222552873
0.000172766364776
0.000155050736957
0.000121867508153
0.000123325477267
0.000157785269898
0.000175936274111
0.000184805761505
0.000191568332232
0.00019535663414
0.000196407032496
0.00019538517679
0.000193394707286
0.000191738026099
0.000191741020453
0.000193403039279
0.000195398568144
0.000196424439964
0.000195376605185
0.000191590125876
0.000184829455472
0.000175960757525
0.000157804737271
0.000123334004637
0.000124851731107
0.000160851592533
0.000179506861105
0.000188379126464
0.000193508491512
0.000196595794581
0.000197396601203
0.000196413905842
0.000194618800882
0.000193183724461
0.000193186695441
0.000194626480156
0.000196425219456
0.000197410242956
0.000196610602507
0.000193524059224
0.00018839680845
0.000179523588638
0.000160864774692
0.000124856422547
0.000125987599334
0.000163270753148
0.000182321296195
0.000191364856391
0.000194530162612
0.00019641472999
0.000196602569498
0.000195369978261
0.000193574743497
0.00019222234021
0.000192225240408
0.000193581742119
0.000195379141443
0.000196612249806
0.000196423865023
0.000194538298135
0.000191373027044
0.000182329545049
0.000163276836408
0.000125988047658
0.000126302895805
0.000164150727592
0.000183267197547
0.000192339476189
0.00019517530679
0.000194535939272
0.000193521235984
0.000191587428283
0.00018952698564
0.000188125829536
0.0001881287698
0.000189533629951
0.000191594979912
0.000193527549971
0.000194540009435
0.000195175635412
0.00019234085286
0.00018326903163
0.000164151285136
0.000126300201443
0.000125186368717
0.000162232612657
0.000180804057409
0.000189580633965
0.000192344067959
0.000191376123005
0.000188398444236
0.000184829909053
0.000182228427005
0.000180656005885
0.000180659064476
0.000182234964198
0.000184836222913
0.000188401055311
0.000191375776993
0.000192342204206
0.000189578906527
0.000180802378043
0.000162229960231
0.000125182103988
0.000121647403598
0.000155573263693
0.000172747218939
0.000180806188253
0.000183273593809
0.000182333556264
0.000179526444988
0.000175963280083
0.000172771960597
0.000170850963194
0.000170854312099
0.000172778708603
0.000175969150973
0.00017952920361
0.000182333276
0.000183271261899
0.000180803285448
0.000172744036523
0.000155569365305
0.000121642961163
0.000114891276752
0.000141468005442
0.000155574494312
0.000162235493403
0.000164157097012
0.000163281571055
0.000160868312908
0.000157808933807
0.000155059668255
0.000153391742546
0.000153394797871
0.000155065644041
0.000157813867493
0.000160870190968
0.000163280528753
0.000164153936472
0.00016223167097
0.000155570579435
0.00014146388245
0.000114887294424
0.00010501177721
0.000114896337599
0.000121654320245
0.000125193212671
0.000126309460294
0.000125994405652
0.000124860005504
0.000123337292329
0.000121875473095
0.00012080063629
0.000120801973626
0.000121878345397
0.000123338868759
0.000124859101977
0.000125991515897
0.000126305408367
0.000125189075135
0.000121650927607
0.000114893594857
0.000105009031916
0.000117266650996
0.000136805811956
0.000149562178289
0.000156767080947
0.000160074755492
0.000160872374446
0.000160278406757
0.000159159695735
0.000158232682167
0.000157778483919
0.000157773581304
0.00015822077508
0.000159144024944
0.000160262430084
0.000160859205377
0.000160066239415
0.000156763716863
0.000149563203031
0.000136809494667
0.000117269884552
0.000136803168344
0.000359683969063
0.000468375741938
0.000515566052154
0.000529015657648
0.00052480472752
0.000512275994439
0.000497119304387
0.00048358370136
0.00047534402638
0.000475330340761
0.000483551823341
0.000497077517324
0.000512231954176
0.000524765260506
0.000528986559857
0.000515551016253
0.000468376331116
0.000359696591237
0.000136807226489
0.000149557850403
0.000468345607969
0.000649160707459
0.000739156689681
0.000774069425848
0.000777190034251
0.000763863819935
0.000744451533066
0.000725663730609
0.000713953880361
0.000713928064508
0.000725600752022
0.000744368642754
0.000763774641799
0.000777102804313
0.000773997700869
0.00073910879847
0.000649141730724
0.000468351696935
0.000149560010467
0.000156760931608
0.000515511087588
0.000739121711716
0.000861551323195
0.000917807742401
0.000933173822243
0.000926137202144
0.000910564628919
0.000888884195534
0.000874960435033
0.000874917168571
0.00088877676245
0.000910430737862
0.000926027571326
0.000933044035668
0.000917699693314
0.000861473674363
0.000739081279775
0.000515504810201
0.000156759713603
0.000160068989619
0.000528951664616
0.000774018516078
0.00091779023282
0.000991647431117
0.00102045890124
0.00100746896917
0.000981192551871
0.000955348338182
0.000939824920982
0.000939767602162
0.000955199256
0.000980987215396
0.00100724719869
0.00102025231949
0.000991507569117
0.00091768987056
0.000773958706648
0.000528931256679
0.000160063366143
0.0001608715974
0.000524747851873
0.000777147602144
0.00093316776652
0.00102049571802
0.00103836255882
0.00101930326651
0.000987324540594
0.000958231630438
0.000941360051812
0.000941297289961
0.000958064543106
0.000987085019571
0.00101903563972
0.00103811132133
0.00102029846703
0.000933051633201
0.000777074182139
0.000524716089107
0.00016086125578
0.000160286983969
0.000512234604948
0.000763844863781
0.000926148490989
0.00100758374585
0.00101940416797
0.000995830888838
0.00095990086014
0.000927799591074
0.0009098092924
0.000909749746374
0.000927635944242
0.00095966294536
0.00099556257039
0.00101914921587
0.00100738225567
0.000926058966741
0.000763772743833
0.000512199219427
0.000160272643968
0.000159179079304
0.000497094650461
0.00074446648302
0.000910679488483
0.000981416327224
0.000987556356292
0.000960041942097
0.000921029521479
0.000887926615004
0.000869091342573
0.000869040623962
0.000887790781748
0.00092083495798
0.000959818936186
0.000987347101457
0.000981248759466
0.000910581112694
0.000744409282423
0.000497066115056
0.000159164162272
0.000158257910639
0.000483572000844
0.000725707971447
0.000889071723489
0.000955654213785
0.000958558812416
0.000928049616936
0.00088803620621
0.000853478282311
0.000833671265169
0.000833634103058
0.000853383498026
0.000887909193613
0.000927917990864
0.000958447729751
0.000955571936538
0.000889025769597
0.000725686989544
0.000483562141671
0.000158248485565
0.000157799861524
0.000475334238342
0.000713997904402
0.000875144805539
0.000940121589047
0.000941688022461
0.000910058867248
0.000869236811876
0.000833730839976
0.000813398013026
0.000813379253207
0.000833689145749
0.000869196729172
0.000910045003815
0.000941710518239
0.000940166174997
0.000875194724943
0.000714034363299
0.000475353936312
0.000157802369492
0.000157785197898
0.000475310667743
0.000713944009792
0.000875037017933
0.000939974179809
0.000941538498484
0.000909945567711
0.000869177262832
0.000833728444577
0.000813440894424
0.000813441701541
0.000833741806156
0.000869223635856
0.000910044020144
0.000941689689455
0.000940144381647
0.000875187983046
0.000714042654158
0.000475364628148
0.000157801600376
0.000158224059264
0.000483519746975
0.00072558126851
0.000888816694757
0.000955290213452
0.000958184459395
0.000927757948691
0.000887892467572
0.000853489198629
0.000833801206239
0.0008338147229
0.000853537154299
0.000887991624689
0.000927922092661
0.000958398846709
0.000955518488632
0.00088901314694
0.00072571177409
0.000483592663836
0.000158246273481
0.000159140021112
0.000497036531217
0.000744318728773
0.000910397478208
0.000980966340401
0.000987077454052
0.000959670467517
0.00092085953887
0.000887973328349
0.000869298763339
0.000869318745104
0.000888035377679
0.000920972410174
0.000959838855181
0.000987285500907
0.000981178984584
0.000910575159967
0.00074444808206
0.000497113112913
0.000159160277885
0.000160252589241
0.000512187535893
0.000763707644042
0.000925950789922
0.00100715027471
0.00101893076427
0.000995469499589
0.00095975483933
0.000927902038716
0.000910084094807
0.000910106688293
0.000927965268021
0.000959856894542
0.000995605887251
0.00101908971516
0.00100730950592
0.000926080160317
0.000763818014343
0.000512256357947
0.000160266455918
0.000160845890246
0.000524723991573
0.000777032843167
0.000932953335936
0.00102013380388
0.00103797205831
0.00101901504273
0.000987237715172
0.000958383837811
0.000941707829961
0.000941731228992
0.000958445888907
0.000987324676261
0.00101911521556
0.00103807768268
0.00102024133424
0.000933057124595
0.00077711950914
0.000524779501666
0.000160852389509
0.00016005071436
0.000528957977589
0.000773941506821
0.000917626985003
0.000991429021245
0.00102019828565
0.00100729178711
0.000981179875147
0.000955541474656
0.000940193280167
0.000940219020311
0.000955606294141
0.000981262510205
0.00100737660862
0.00102027821336
0.000991517984514
0.000917708589772
0.000774008700097
0.000529001242725
0.000160051304061
0.000156746990652
0.000515543399642
0.000739079570421
0.000861437728721
0.000917664314004
0.000933047857207
0.000926101121062
0.000910633985531
0.000889107957565
0.00087532259522
0.00087535060582
0.000889178848402
0.000910726910146
0.000926207831008
0.000933141630708
0.00091774849236
0.000861510410799
0.000739137153302
0.000515579320436
0.000156743994096
0.000149545054009
0.00046838916225
0.000649145081748
0.000739090962418
0.000773989944026
0.000777136475275
0.000763873625821
0.000744547388
0.00072586033601
0.000714241199576
0.000714267440102
0.000725928845094
0.000744640438818
0.000763973986265
0.000777230967469
0.000774073697532
0.000739161411964
0.000649198740666
0.000468420410901
0.000149540094735
0.000136789172498
0.000359719750833
0.000468378456141
0.000515544957039
0.000528991882322
0.000524800270996
0.000512309490034
0.000497202084409
0.00048372163146
0.000475532701332
0.000475550993926
0.000483770332428
0.000497270230692
0.000512385182174
0.000524874289133
0.000529059106214
0.000515601765427
0.000468420694259
0.000359741766781
0.0001367828528
0.000117248192348
0.000136796802458
0.000149555488996
0.000156758726446
0.000160063663014
0.000160860021759
0.000160268449907
0.000159157567386
0.000158241655584
0.000157798470412
0.000157801261469
0.000158246892407
0.000159161557874
0.000160269472751
0.00016085816197
0.000160059833279
0.000156754141238
0.000149550646943
0.000136791471654
0.000117241795241
0.000131561291079
0.000157315360622
0.000173532767093
0.000182669249579
0.000187159370857
0.000188835320527
0.000189374264147
0.000190120182427
0.000191541324295
0.000192832792601
0.000192827053328
0.000191525107033
0.000190095796725
0.000189346980986
0.000188811351113
0.000187142873814
0.000182660990526
0.000173531131982
0.0001573174015
0.000131563023888
0.000157315666502
0.000442533576005
0.000581338066447
0.000635358503349
0.0006442226767
0.000630734951851
0.000608081549243
0.000584018190282
0.000564151170998
0.000552717541093
0.000552697608011
0.000564103542782
0.000583953353656
0.000608009922831
0.000630666139103
0.000644164944126
0.000635319969876
0.00058132660046
0.000442549249765
0.000157319691689
0.000173531988417
0.000581280686304
0.000836496231662
0.000967056751039
0.00101730114874
0.00102035771346
0.000999211105643
0.000968456291136
0.000939869002724
0.000922577821899
0.000922545437563
0.000939787526047
0.000968344157625
0.000999086034997
0.00102023482429
0.00101719148048
0.000966975058277
0.000836458503765
0.00058128843923
0.000173534156731
0.000182666907047
0.000635264724585
0.000966991792873
0.00116876704962
0.00127200498869
0.00130834362518
0.00130524298506
0.00127876539436
0.00124867068615
0.00122918593776
0.00122913243591
0.00124853594928
0.00127858351928
0.00130505073722
0.00130818000207
0.00127185978092
0.00116865554717
0.000966930478871
0.000635255138522
0.000182665026324
0.000187158694457
0.00064412266456
0.00101720513644
0.00127196340615
0.00142291952017
0.00148971005745
0.00149708163243
0.00147385416453
0.00144350319829
0.00142312092504
0.00142304889852
0.0014433164198
0.00147359650928
0.00149680776098
0.00148947327007
0.00142275971353
0.00127183416565
0.00101712288677
0.000644091102589
0.000187150999991
0.000188843663384
0.000630653686276
0.00102027059085
0.00130830617509
0.0014897291299
0.00157143402265
0.00158535491145
0.00156328544596
0.0015314356783
0.00150955981945
0.00150947739165
0.00153121643716
0.00156297366745
0.00158501494691
0.00157113467629
0.00148950837266
0.00130816617297
0.00102017148109
0.000630601739405
0.00018882900683
0.000189399947996
0.00060803346309
0.0009991631748
0.00130527197801
0.00149719158752
0.00158546468652
0.00160196975464
0.00157875558169
0.00154369958384
0.00151930477378
0.00151922194675
0.00154347415324
0.00157842720226
0.00160160192634
0.00158513526516
0.00149694717358
0.00130511052278
0.000999057637045
0.000607970592244
0.000189379592323
0.000190163570933
0.000584008903625
0.000968460148388
0.00127888399908
0.00147409221431
0.00156355542639
0.00157893119416
0.0015519966594
0.00151249621082
0.00148530506289
0.00148523193801
0.001512295598
0.00155170058717
0.0015785976564
0.00156325711891
0.00147387547724
0.0012787409494
0.0009683670967
0.000583947028988
0.0001901446878
0.000191589711704
0.000564170703174
0.000939912717142
0.00124886128606
0.00144384162674
0.00153183186378
0.00154402473114
0.00151265629748
0.00146896554383
0.00143927298279
0.00143921948732
0.00146882040804
0.00151244674508
0.001543795944
0.00153164020133
0.00144371585742
0.00124878183938
0.000939857385946
0.000564125890378
0.000191582812524
0.000192869594254
0.000552743814629
0.000922625228951
0.00122938608539
0.00142346899281
0.00150997624891
0.00151967236455
0.00148554061605
0.00143937449279
0.0014082831404
0.00140825782632
0.00143930880166
0.00148545472398
0.00151959697203
0.00150994478597
0.00142348505833
0.00122941016318
0.00092263029683
0.000552731216566
0.000192881707731
0.00019284525191
0.000552713169009
0.000922573845961
0.00122927727806
0.00142331052741
0.00150980178278
0.00151952637614
0.00148545962036
0.00143937231667
0.00140834676844
0.00140835194192
0.00143939124425
0.00148550171523
0.00151960666333
0.00150993286144
0.00142347306281
0.00122941314768
0.000922646264703
0.000552740680903
0.000192875321329
0.000191527149228
0.000564099990704
0.000939786059226
0.00124859903057
0.00144345074657
0.00153139691381
0.0015436615508
0.00151246384871
0.00146898198726
0.00143946287588
0.00143948819108
0.00146905540143
0.00151258497358
0.0015438326408
0.00153161585143
0.00144368837629
0.001248792526
0.000939899968312
0.00056415236085
0.000191565730127
0.000190083497077
0.00058392667615
0.000968306957994
0.00127856670448
0.00147360580801
0.00156300585731
0.00157847700074
0.00155177174664
0.0015125589528
0.0014856056993
0.00148563977827
0.00151265384215
0.00155191853132
0.00157866886509
0.00156323524985
0.00147384377142
0.00127875930209
0.000968426813013
0.000583986473776
0.000190119610081
0.000189322793855
0.000607960941271
0.000999018789817
0.00130497662255
0.00149672977166
0.0015849399151
0.00160154548239
0.00157857807561
0.00154383519676
0.00151970064808
0.00151973635199
0.00154393133559
0.00157871902808
0.00160171825248
0.00158513634793
0.0014969264966
0.00130513579091
0.000999120794399
0.000608013912991
0.000189348822569
0.000188780329074
0.000630597259222
0.00102014698277
0.00130808232597
0.00148936778256
0.00157102927221
0.00158505033136
0.00156321517505
0.0015316633258
0.00151004308791
0.0015100794879
0.00153175854831
0.00156334692437
0.00158520176035
0.00157119034277
0.0014895225587
0.00130820701606
0.0010202259002
0.000630637944688
0.000188794266132
0.000187108012192
0.000644083690757
0.0010170964364
0.00127176740509
0.00142269373345
0.00148945834436
0.00149693489944
0.00147391725492
0.00144382731199
0.001423672651
0.0014237116536
0.00144392815632
0.00147405294095
0.00149708366646
0.00148960792249
0.00142283683228
0.00127187348847
0.00101716175155
0.000644115832775
0.000187112118089
0.000182624438824
0.000635232724302
0.000966884738957
0.0011685925634
0.00127182279425
0.0013082245002
0.00130523678152
0.00127894014932
0.00124905550378
0.00122975295152
0.00122979402752
0.00124916268482
0.00127908616139
0.0013053969826
0.00130838457275
0.00127195962867
0.00116869623101
0.000966950153471
0.000635264481441
0.000182622213865
0.000173493395224
0.000581239470741
0.000836384763381
0.000966909592355
0.00101717585455
0.0010203103156
0.000999284083207
0.000968673041439
0.000940233081931
0.000923061442015
0.000923098529197
0.000940332276558
0.000968811970916
0.000999438558289
0.00102046060483
0.00101730804623
0.000967014405985
0.000836455286888
0.000581273835171
0.000173487282768
0.000157279276552
0.000442482443586
0.000581244897143
0.000635260919909
0.000644154009977
0.000630723571153
0.000608148374265
0.000584169580494
0.000564383951468
0.000553016398588
0.000553039317242
0.000564445816738
0.000584258425304
0.000608249817086
0.000630825026477
0.000644247934581
0.000635341842728
0.000581304718127
0.000442511491722
0.000157270086217
0.000131525322636
0.000157283871294
0.00017350154746
0.000182635151921
0.000187120535047
0.000188792898213
0.000189333070608
0.000190087310894
0.000191519031877
0.000192819790506
0.000192822154434
0.000191522706999
0.000190088138651
0.000189329363165
0.000188785528766
0.000187111387124
0.00018262587184
0.000173492431595
0.000157274256274
0.000131514083455
0.00014726823626
0.000180307773962
0.00020069582737
0.000212590251683
0.000219518609479
0.000223922359385
0.000227883720856
0.000232580587984
0.000237369924379
0.000240465624571
0.00024046108414
0.000237355816208
0.000232556292789
0.000227852508379
0.000223892503526
0.000219497050688
0.000212579200879
0.000200693244415
0.000180309457522
0.000147268690272
0.000180312609628
0.000532343080389
0.00068960770593
0.000737278533445
0.000731100940145
0.000701165808846
0.00066504469103
0.000633442642609
0.000612138552645
0.000601897853483
0.000601859393166
0.000612035499059
0.000633286646123
0.000664860154656
0.000700982992112
0.00073093870364
0.000737154164716
0.000689538299637
0.00053234217617
0.000180315432518
0.000200700235026
0.000689526771149
0.000992557954817
0.00113539251048
0.00117865075166
0.00116652684133
0.00112806073363
0.00108322475816
0.00104670137561
0.00102589367176
0.00102583725388
0.00104655691064
0.00108300744092
0.00112780320751
0.0011662643047
0.00117840412779
0.00113519327795
0.000992442390542
0.000689516000755
0.000200702141633
0.000212593467867
0.000737169218702
0.00113532297087
0.00137750372894
0.00150008507902
0.00154246558841
0.00153356377738
0.00150081592457
0.00146525057816
0.00144245491095
0.00144238533937
0.00146506747877
0.00150055167509
0.00153325968701
0.00154217302171
0.00149981480259
0.00137727641986
0.00113517414834
0.000737127757916
0.000212592896019
0.000219524824859
0.000731017369309
0.0011785732194
0.0015000534683
0.00169969111354
0.00179562994722
0.00182035011523
0.00180463842987
0.00177520329138
0.00175369793578
0.00175362083409
0.00177499355192
0.00180432866406
0.00181998908272
0.00179528225167
0.00169939746245
0.00149981276016
0.00117838776759
0.000730928230641
0.000219519809423
0.000223941187392
0.000701151347744
0.00116650426309
0.00154246950068
0.00179566736656
0.00193343766852
0.00198500076777
0.00198243817946
0.00195691437189
0.00193572640547
0.0019356469832
0.00195668819806
0.00198208853569
0.00198457572211
0.00193301954582
0.00179532448932
0.00154220867282
0.00116628145946
0.000701010844011
0.000223930028954
0.000227921597299
0.000665127470681
0.00112814014857
0.00153367698514
0.00182051235823
0.00198513847613
0.00205317273191
0.00205682783152
0.00203101529844
0.00200814147535
0.00200806579984
0.00203078805675
0.0020564582976
0.00205270143706
0.00198465704939
0.0018201128311
0.00153337785203
0.0011278867744
0.000664947840984
0.000227907921167
0.000232630486124
0.000633628389731
0.00108341772559
0.00150106684887
0.0018049657821
0.00198276457668
0.00205702834657
0.00206023216827
0.00203053961509
0.00200456844317
0.00200450397749
0.00203033687975
0.00205988736415
0.00205657102065
0.00198228240128
0.00180455844755
0.00150076153609
0.00108316313131
0.00063343480851
0.000232625137106
0.000237413443588
0.000612374995329
0.00104696449118
0.00146560623268
0.00177565688499
0.00195738815962
0.00203138195366
0.00203071719096
0.00199607526865
0.00196692406492
0.00196688027624
0.0019959281911
0.00203045531707
0.0020310185852
0.00195699541446
0.00177532333555
0.00146535379652
0.00104675121301
0.000612208532347
0.000237426597448
0.000240489824818
0.000602124198261
0.00102617733724
0.00144283377746
0.00175417835346
0.00193623679078
0.00200856841341
0.00200483875369
0.00196704108473
0.00193601123487
0.00193599746648
0.00196697700269
0.00200470195716
0.00200835608503
0.00193599942833
0.00175398451839
0.00144268950318
0.00102603754675
0.000602014288124
0.00024052400937
0.000240464039358
0.000602045076263
0.00102608292314
0.00144270852337
0.00175402287417
0.00193607570199
0.00200843979213
0.00200477501527
0.00196705554701
0.00193609247888
0.00193611132307
0.00196708150694
0.00200477144187
0.0020083871523
0.00193600578867
0.00175398277879
0.0014426890715
0.00102603576964
0.000602001520392
0.000240514807973
0.00023734162455
0.000612171019808
0.00104673582997
0.00146529607391
0.00177526664873
0.00195697916698
0.00203105320885
0.0020305578242
0.00199612311912
0.00196714811776
0.00196718779051
0.00199620683842
0.0020306390352
0.00203110104684
0.00195701127075
0.00177531644818
0.00146534982824
0.00104674500507
0.00061217209873
0.000237400587892
0.000232527413594
0.00063336148646
0.0010831137642
0.00150067833661
0.00180446965485
0.00198223825113
0.00205660555952
0.00206003680554
0.00203062931734
0.00200489977766
0.0020049459113
0.00203073249426
0.00206014849677
0.00205669175526
0.001982307172
0.0018045458477
0.00150074902827
0.00108314425436
0.0006333789467
0.000232584193213
0.000227809975864
0.000664868646264
0.00112783361179
0.00153329719108
0.00182002648838
0.00198462192439
0.00205276548967
0.00205666595419
0.00203116391855
0.00200855461483
0.00200859790833
0.00203126301127
0.00205677754801
0.00205285903203
0.0019846988242
0.0018201012337
0.00153335526884
0.00112784887149
0.00066487635718
0.000227855213277
0.000223840533738
0.000700925730389
0.00116622155823
0.0015421393048
0.00179525937057
0.00193302213817
0.00198470130065
0.0019823826721
0.00195716455616
0.00193623811997
0.00193627857644
0.00195725925556
0.00198249371317
0.00198480233925
0.00193310970245
0.00179533558694
0.0015421837258
0.00116621673936
0.000700916869282
0.000223870088915
0.000219440189458
0.000730825110367
0.00117829702041
0.00149973113283
0.00169935699748
0.00179534504943
0.00182020999947
0.00180474182044
0.00177559725058
0.00175434132577
0.00175438258725
0.0017756980191
0.00180486621822
0.00182033239552
0.00179545740891
0.00169944766081
0.00149977557974
0.00117829001827
0.000730810361107
0.000219455146088
0.000212521184911
0.000736987518831
0.00113503292506
0.00137716810022
0.00149978557402
0.00154228876707
0.00153357115984
0.00150106778714
0.00146576719845
0.0014431928579
0.00144323553328
0.00146587530547
0.00150120837896
0.00153371815914
0.0015424285113
0.00149989465312
0.00137722776561
0.00113504510283
0.000736982918862
0.000212525271046
0.000200636239727
0.000689329996091
0.00099225147736
0.00113506049493
0.00117837942974
0.00116639427116
0.00112812016016
0.00108350333353
0.00104718841334
0.00102654811605
0.00102658528339
0.00104728436234
0.00108363305135
0.00112825855914
0.00116652455418
0.0011784882542
0.0011351381066
0.000992292384976
0.000689344182242
0.00020063287678
0.000180256969025
0.000532149885064
0.000689350533809
0.000737029190116
0.000730904525893
0.000701056767652
0.000665050423314
0.000633572268873
0.000612379667112
0.000602222363026
0.0006022416538
0.000612428727185
0.000633637986326
0.000665122115259
0.00070112889623
0.000730975593965
0.000737096212738
0.000689403350073
0.000532176455643
0.000180247922765
0.000147223903761
0.000180253947617
0.000200636677831
0.000212524261955
0.000219443897848
0.00022384079996
0.000227801457969
0.000232504915728
0.000237301627912
0.0002404033633
0.000240404627019
0.000237302695335
0.000232502463868
0.000227793947197
0.00022382977664
0.000219432166104
0.000212513377891
0.000200626566492
0.00018024337824
0.000147210047182
0.000163730603763
0.000205989835212
0.000231924415554
0.000248312598467
0.000259530769063
0.000268438775718
0.000276644364688
0.000284592258757
0.000291212795449
0.000295051459249
0.000295048525766
0.000291204837352
0.000284578054083
0.000276623640135
0.000268418115864
0.000259515809856
0.000248306447977
0.000231926706121
0.000205995191585
0.000163731212224
0.000205999840251
0.000647753589941
0.000830294721853
0.000875860673281
0.000859574684858
0.000819815818102
0.000779139828626
0.000750218703128
0.000735638145344
0.000730660329421
0.000730603231751
0.000735474126239
0.000749954363625
0.000778803763042
0.000819468643416
0.000859260245105
0.000875609151185
0.000830135426497
0.00064772284075
0.00020600126352
0.000231934666088
0.000830197589562
0.00118564291668
0.0013356864875
0.00136555118693
0.00133401738959
0.00127873379321
0.00122486531692
0.00118664600216
0.00116707500854
0.00116698416414
0.00118639233862
0.00122447417838
0.00127822941172
0.0013334961238
0.00136507249103
0.00133529960728
0.00118540673949