/*--------------------------------*- C++ -*----------------------------------*\
| =========                 |                                                 |
| \\      /  F ield         | OpenFOAM: The Open Source CFD Toolbox           |
|  \\    /   O peration     | Version:  3.0.1                                 |
|   \\  /    A nd           | Web:      www.OpenFOAM.org                      |
|    \\/     M anipulation  |                                                 |
\*---------------------------------------------------------------------------*/
FoamFile
{
    version     2.0;
    format      ascii;
    class       volScalarField;
    location    "8.6";
    object      alpha.air;
}
// * * * * * * * * * * * * * * * * * * * * * * * * * * * * * * * * * * * * * //

dimensions      [0 0 0 0 0 0 0];

internalField   nonuniform List<scalar> 
7968
(
1.32198775496e-17
9.13854239323e-17
1.73318011116e-16
1.00550606157e-16
5.32142560133e-17
1.62779440481e-17
3.77833465473e-18
2.01666898794e-19
7.61157928942e-21
1.71884022445e-22
2.02002992536e-23
2.34586386501e-21
8.37905488628e-20
2.11318964708e-18
9.53615449451e-18
3.79154425719e-17
6.96459411117e-17
9.40629283311e-17
4.23285740955e-17
1.00769487002e-17
1.02347791124e-16
4.77659309485e-16
4.47746544857e-16
2.87829823346e-16
1.59659375034e-16
1.1767854382e-16
4.16028061108e-17
9.10726053949e-18
1.7618213398e-18
6.01641038725e-19
4.81932962116e-19
1.50400161996e-18
7.01164665893e-18
2.94640658752e-17
9.19536092192e-17
1.52122430006e-16
1.75022210216e-16
2.73978978564e-16
9.59914652179e-17
6.00813900567e-17
1.34954581824e-16
5.41293185653e-16
7.61561764249e-16
3.84568592561e-16
1.41486590788e-16
4.0898316412e-17
8.84531267786e-18
1.42929472934e-18
2.1079378955e-19
5.5772322811e-20
4.62365238248e-20
1.74164848906e-19
1.00276265519e-18
5.32858449002e-18
2.314929462e-17
7.38143356416e-17
1.84391986838e-16
2.50019578677e-16
3.63455408899e-16
7.70185536729e-17
1.33236344892e-16
5.93006513048e-16
3.01370301649e-16
1.35661245846e-16
3.43759537148e-17
6.47358727854e-18
1.00009763649e-18
1.2625419375e-19
1.45167801672e-20
3.04172633e-21
2.49975229697e-21
1.08457632824e-20
7.6155982023e-20
5.01039544367e-19
2.88861377095e-18
1.43641265705e-17
6.20237012917e-17
1.68172264074e-16
2.42641541573e-16
6.51818522761e-17
6.42713470252e-17
2.64956480236e-16
1.59628493672e-16
3.90079475002e-17
6.24555876565e-18
8.12144374646e-19
9.82872497596e-20
1.09606092953e-20
1.10908720373e-21
1.85066044978e-22
1.48317301722e-22
7.03426848559e-22
5.30859265819e-21
3.784548673e-20
2.7233324756e-19
1.99932755119e-18
1.38329747941e-17
7.11192470275e-17
1.76130950724e-16
2.78345780336e-17
3.07571156397e-17
1.03535200373e-16
4.76180854998e-17
8.16134978999e-18
9.61042833905e-19
1.01614233075e-19
1.04256132379e-20
9.89464413145e-22
8.52218589975e-23
1.10725966792e-23
8.43478598042e-24
4.37418213717e-23
3.59391469423e-22
2.89936547255e-21
2.49337178823e-20
2.34690054643e-19
2.33862469856e-18
1.81902082548e-17
7.00784924371e-17
7.97436005057e-18
9.82792375158e-18
4.85419365629e-17
1.21666235189e-17
1.48410794803e-18
1.39591337541e-19
1.30634994481e-20
1.14426621583e-21
9.00582258194e-23
6.28743531084e-24
6.00191272916e-25
4.15099626866e-25
2.37264456491e-24
2.19737215917e-23
2.14187307814e-22
2.2983953263e-21
2.60776371534e-20
3.06645073463e-19
3.13223338909e-18
1.62456440401e-17
5.93282072564e-19
1.47887038068e-18
1.62091667451e-17
2.76291436201e-18
2.54678664147e-19
2.0912026852e-20
1.70823097439e-21
1.27845618585e-22
8.26183256144e-24
4.46915208015e-25
2.82064045518e-26
1.59981544963e-26
1.03151855703e-25
1.15701309173e-24
1.46506885595e-23
1.95853886682e-22
2.53138446608e-21
3.12775790125e-20
3.86201753466e-19
2.56349139998e-18
3.69035746727e-20
4.82220528198e-20
5.2484483362e-18
7.04547105574e-19
5.15750610938e-20
3.66364074979e-21
2.56652746895e-22
1.62001756689e-23
8.51652604795e-25
3.46552189036e-26
1.24339883735e-27
4.25882046389e-28
3.27863530441e-27
5.03451149344e-26
8.68281475487e-25
1.40966857031e-23
2.04110981766e-22
2.73200396926e-21
3.68448264804e-20
3.24578634287e-19
1.62508958753e-21
6.92455125933e-22
2.3838145867e-18
2.76249732946e-19
1.71623548809e-20
1.07340887113e-21
6.58253977868e-23
3.58936458267e-24
1.58627769833e-25
5.09511585266e-27
1.05587466715e-28
6.82788378301e-30
7.17197130596e-29
1.9257399265e-27
4.80042737802e-26
9.72370799995e-25
1.66220481415e-23
2.58782340155e-22
4.06410413382e-21
5.18580375779e-20
4.27590277243e-23
3.86258962928e-22
2.19515160351e-18
2.50598126771e-19
1.52166259861e-20
9.18984371713e-22
5.42376114285e-23
2.83473311998e-24
1.19456561894e-25
3.62833543564e-27
6.81840806568e-29
1.4282397799e-30
1.4687860801e-29
6.17535516773e-28
1.95831554087e-26
4.57224599193e-25
8.70613627106e-24
1.48823519091e-22
2.5433255073e-21
3.71442067341e-20
6.01437583542e-25
5.58063136253e-20
4.58103409678e-18
5.95118211357e-19
4.13381279962e-20
2.69572004279e-21
1.70900448151e-22
9.58278371356e-24
4.3792048104e-25
1.50494997323e-26
4.13875985586e-28
1.04296399699e-28
6.21733028993e-28
6.9649797978e-27
1.37914459965e-25
2.79128302767e-24
4.9129299118e-23
7.84672908366e-22
1.24580749566e-20
1.44812789623e-19
4.21986588161e-23
1.57717282651e-18
1.67191502007e-17
2.58064362998e-18
2.10578690735e-19
1.46408125124e-20
9.96087368674e-22
6.12674397508e-23
3.25660531135e-24
1.4858563163e-25
8.36277963902e-27
4.86057275564e-27
2.63504819679e-26
1.73178485204e-25
1.63679849466e-24
2.27885779289e-23
3.46695099701e-22
5.10781166271e-21
7.71461149843e-20
6.7477487259e-19
1.62369510684e-21
8.22669199731e-18
5.89896757332e-17
1.0987714817e-17
1.06510674351e-18
7.89808702188e-20
5.93028072925e-21
4.30201400098e-22
2.99692220494e-23
1.99697395568e-24
1.93841044496e-25
1.45089816035e-25
7.49208776651e-25
4.32717616134e-24
2.7560582547e-23
2.38193438389e-22
2.85772654267e-21
3.75064317191e-20
4.98072837962e-19
3.29330408057e-18
3.07161698141e-20
2.09975426023e-17
1.41009964384e-16
3.534253398e-17
4.47983195077e-18
4.30903782257e-19
3.88508016474e-20
3.62711428751e-21
3.3835441066e-22
2.95597460538e-23
3.93055814808e-24
3.26291116551e-24
1.60228745222e-23
8.79302722347e-23
4.83954568817e-22
2.87502151578e-21
2.49887626901e-20
2.63973484999e-19
2.35294112951e-18
9.2763229659e-18
4.01695327833e-19
5.22652655404e-17
2.20380309551e-16
9.3082940433e-17
1.82046395461e-17
2.6644550042e-18
3.19132435435e-19
3.69668304435e-20
4.15067070293e-21
4.21587033646e-22
7.0242493503e-23
6.18971704658e-23
2.87188510105e-22
1.50621160979e-21
7.94323079169e-21
3.76667168732e-20
2.6071358502e-19
1.81966747321e-18
1.06285305914e-17
2.85970908141e-17
4.37663604068e-18
1.01268775692e-16
4.90612603797e-16
2.15582388072e-16
7.10960269966e-17
1.72896983415e-17
2.87169571697e-18
4.16829660442e-19
5.19808439679e-20
5.84923819532e-21
1.20182653002e-21
1.10033818589e-21
4.79052954001e-21
2.35737195983e-20
1.2432035327e-19
5.0702828939e-19
2.39042412152e-18
8.33514227618e-18
1.85787140996e-17
2.83879981504e-17
7.90127261329e-18
1.10681644121e-16
4.83065215816e-16
4.54495097052e-16
2.29176506816e-16
9.18505282316e-17
2.02044793727e-17
4.00792486912e-18
6.375824811e-19
8.7262516393e-20
2.24525757677e-20
2.09654969675e-20
8.47841000588e-20
3.68325964457e-19
1.66814122976e-18
4.95135026817e-18
1.59337691905e-17
2.39138534511e-17
4.39274854902e-17
1.83892664913e-17
5.10013169924e-18
8.12853287153e-17
3.98116483425e-16
2.68974706486e-16
4.32538273903e-16
2.34902055312e-16
6.49256806554e-17
1.9525413194e-17
4.19677650376e-18
7.70926707534e-19
2.7411743925e-19
2.5599096964e-19
8.60141175853e-19
2.94316032047e-18
1.08880027089e-17
2.11255874357e-17
4.64656031492e-17
4.90457554771e-17
2.08878460491e-17
1.13028824829e-17
3.91096434424e-18
2.14402718721e-17
8.47862245048e-17
1.17393183071e-16
1.09643984558e-16
4.58223364267e-17
1.54862971731e-17
2.12119016095e-18
1.08847226054e-19
4.26809971377e-21
1.12437205123e-22
3.31537546402e-24
2.70324319119e-22
1.32621099734e-20
3.13521770838e-19
2.13548943366e-18
7.01282478469e-18
1.2525568595e-17
4.62987413049e-18
3.63363947294e-18
2.02225489337e-19
1.46003041254e-15
6.04427004076e-15
1.02468828818e-14
6.72368897896e-15
4.66572112668e-15
2.35086761841e-15
1.4591018036e-15
6.55063627497e-16
2.45849885216e-16
1.45744161668e-16
9.96962257028e-17
1.95491056979e-16
5.19616089489e-16
1.00520613537e-15
1.66823433464e-15
4.07244475888e-15
5.63124386745e-15
7.01092928856e-15
3.43917243076e-15
1.46914486353e-15
6.94122745964e-15
1.34813559496e-14
9.98189499579e-15
6.35942798069e-15
3.7442750003e-15
3.37219032726e-15
1.40273527994e-15
3.77740407346e-16
9.71986291634e-17
4.43211231601e-17
3.45581221828e-17
8.60438001266e-17
3.16544027167e-16
1.09078474035e-15
2.94556549326e-15
4.1865394853e-15
4.56461328807e-15
6.93549164461e-15
3.00659622388e-15
4.82257915005e-15
8.20235010184e-15
1.24283603463e-14
1.45383990401e-14
7.57268679325e-15
3.0112943671e-15
1.02309450625e-15
2.64007114228e-16
5.21146566845e-17
1.01740153179e-17
3.6801584545e-18
3.01509344496e-18
9.01563578839e-18
4.13457275821e-17
1.81219782003e-16
6.73333040376e-16
1.83966696998e-15
4.20923867237e-15
5.47739415449e-15
9.60341295291e-15
5.42349848537e-15
8.62593636592e-15
1.37515702402e-14
6.05333023126e-15
2.80306505175e-15
7.56385566945e-16
1.54502340201e-16
2.69784416753e-17
4.10519825618e-18
6.90614165593e-19
2.13147101744e-19
1.78095716131e-19
5.76628509101e-19
2.88938048776e-18
1.60146364538e-17
8.08651454517e-17
3.6310585946e-16
1.48855860781e-15
3.9124952914e-15
6.25356480244e-15
4.76524284111e-15
5.39904842217e-15
6.06168226572e-15
3.38199940362e-15
8.55033085484e-16
1.36328636582e-16
1.75445392171e-17
2.34633886216e-18
3.10452485011e-19
4.53080151341e-20
1.19891759943e-20
1.0131664727e-20
3.50260158814e-20
1.87639234124e-19
1.134773792e-18
6.90367103229e-18
4.97713374884e-17
3.51727038946e-16
1.82102289335e-15
5.02699972769e-15
2.80620984321e-15
3.81534114199e-15
2.6813341029e-15
1.10727882962e-15
1.8969128446e-16
2.08440206236e-17
2.07940463672e-18
2.12793426269e-19
2.27352297161e-20
2.77104216299e-21
6.19338742788e-22
5.22413726125e-22
1.9119976016e-21
1.0985728836e-20
7.53154597668e-20
5.92044221574e-19
5.80661075662e-18
6.37041012126e-17
5.2399984218e-16
2.26072389158e-15
1.58757486276e-15
2.22918211175e-15
1.55266749897e-15
3.43054019569e-16
3.91679128562e-17
3.39806775848e-18
2.7805216394e-19
2.17991603573e-20
1.72070402876e-21
1.57317643883e-22
2.78296173204e-23
2.29165339386e-23
8.85006577674e-23
5.6051670975e-22
4.78096850377e-21
5.32809957129e-20
7.00442616421e-19
9.06280757588e-18
1.02793501078e-16
6.02551897747e-16
4.91920587772e-16
1.08833234429e-15
6.2242462952e-16
9.61599656205e-17
8.15797399044e-18
6.06699016339e-19
4.22878040683e-20
2.68046215513e-21
1.54322009827e-22
9.1175036782e-24
1.04432515835e-24
7.90801890441e-25
3.23877523853e-24
2.45881535045e-23
3.06165542779e-22
4.96216124706e-21
8.06318736975e-20
1.17451554174e-18
1.4923764803e-17
1.16358749622e-16
1.44684150934e-16
5.22406969025e-16
2.48665715759e-16
3.10107831917e-17
2.16173740512e-18
1.4515167991e-19
9.01708099434e-21
4.92045680944e-22
2.239845906e-23
8.36279635185e-25
3.85812099213e-26
1.93454473891e-26
8.64093296195e-26
9.87435350139e-25
2.09295829961e-23
4.57533945491e-22
8.55722975981e-21
1.35505951138e-19
1.82332859156e-18
2.03037793307e-17
4.12295687623e-17
3.4521190964e-16
1.35444536695e-16
1.47246352522e-17
9.28747820812e-19
5.73538902044e-20
3.27536452323e-21
1.63456771551e-22
6.67113565242e-24
2.05451916296e-25
4.44592802993e-27
3.13922838004e-28
1.67590185035e-27
5.26582250123e-26
1.92274676208e-24
5.26137672181e-23
1.12951718075e-21
2.02919640859e-20
3.22122351932e-19
4.79603677664e-18
1.11029947691e-17
3.23907091677e-16
1.27330205413e-16
1.37060097781e-17
8.44002328445e-19
5.08390027202e-20
2.8280642298e-21
1.3729105907e-22
5.44370090931e-24
1.62345230389e-25
3.24458899952e-27
5.51641035787e-29
3.26027661468e-28
2.66957385791e-26
1.18380892403e-24
3.49022064271e-23
7.88308154034e-22
1.48060531931e-20
2.45651982222e-19
3.77681741762e-18
7.44637217574e-18
4.68181689807e-16
2.26408266915e-16
2.76260146189e-17
1.85015550583e-18
1.16298146547e-19
6.74643781208e-21
3.40967666455e-22
1.41296758001e-23
4.53699061756e-25
1.30990525875e-26
3.76899268325e-27
1.54542573016e-26
1.82003889118e-25
5.71287334881e-24
1.56821847665e-22
3.36163367587e-21
5.89204183781e-20
8.76110837134e-19
1.14429905413e-17
2.10989546247e-17
9.66432849122e-16
6.71341362658e-16
9.81611531569e-17
7.68212458305e-18
5.03873719008e-19
3.03691383336e-20
1.62090395747e-21
7.57073795724e-23
3.38943154057e-24
2.91002796531e-25
2.22307234283e-25
8.83525868792e-25
4.26730007736e-24
4.48836791307e-23
8.56102608399e-22
1.67609092252e-20
2.81428548797e-19
3.93550278855e-18
4.05188163065e-17
6.29513508449e-17
1.85812621143e-15
1.9963113748e-15
3.53948046156e-16
3.32123331511e-17
2.33498645697e-18
1.54238292615e-19
9.76227391848e-21
6.50330568887e-22
5.25612285865e-23
8.89667198375e-24
8.04579957026e-24
3.16701691752e-23
1.32776962443e-22
7.67146225881e-22
7.20079917263e-21
1.05657819311e-19
1.57375445937e-18
2.14098400005e-17
1.64182797361e-16
1.99992936035e-16
2.69524341388e-15
4.16305670026e-15
9.73427576981e-16
1.20635260714e-16
1.06934782689e-17
8.9208863027e-19
8.16502451651e-20
8.58699454165e-21
1.01202501582e-21
2.25092138653e-22
2.12634862893e-22
8.21547059302e-22
3.2844140667e-21
1.58629272825e-20
8.73001695979e-20
8.0835630984e-19
8.77440329579e-18
8.35566686706e-17
3.88610132372e-16
3.88431414809e-16
4.52396927749e-15
5.56569501567e-15
2.21479182201e-15
4.40643947351e-16
6.38195247821e-17
7.48244820926e-18
9.59904821942e-19
1.30056328875e-19
1.812552265e-20
4.75892690033e-21
4.55904303365e-21
1.7098906017e-20
6.56722719507e-20
2.95414723249e-19
1.24496156626e-18
7.88031438717e-18
5.73356413888e-17
3.39968145864e-16
1.06581798613e-15
1.21095170452e-15
6.83285606127e-15
1.20020381193e-14
4.77909100917e-15
1.62565384341e-15
4.20547259607e-16
7.37109071512e-17
1.2129647692e-17
1.86753043977e-18
2.92442201091e-19
8.93628262183e-20
8.54116301434e-20
3.05411751353e-19
1.12144593846e-18
4.73109614708e-18
1.6967868896e-17
7.45891765327e-17
2.47314051152e-16
5.39485793686e-16
1.00063192827e-15
1.26203009339e-15
7.05489350629e-15
1.12777800595e-14
9.03348386254e-15
5.03363607734e-15
2.2272664408e-15
5.3751547768e-16
1.29000149262e-16
2.48972639966e-17
4.42429885334e-18
1.59021163023e-18
1.49277752459e-18
4.93524140913e-18
1.70732000584e-17
6.74204933717e-17
1.71283872166e-16
4.94179364973e-16
6.92379482211e-16
1.20496522312e-15
6.77546839174e-16
7.06550850098e-16
5.77102504769e-15
1.21457959996e-14
6.75456204998e-15
1.06891278716e-14
6.28969195758e-15
1.96590105548e-15
7.15203380987e-16
1.86025019823e-16
4.62290765482e-17
2.27445282809e-17
2.09757578424e-17
5.66037887129e-17
1.50019163765e-16
4.78819779943e-16
8.2052930404e-16
1.62540788835e-15
1.66033540505e-15
7.69675875692e-16
5.53151753723e-16
6.23292812782e-16
2.51149450856e-15
5.7363382262e-15
7.23183723009e-15
7.33124813191e-15
4.058909119e-15
2.33816848143e-15
8.07698593672e-16
2.55058778431e-16
1.15058537782e-16
8.34429700065e-17
7.26064373716e-17
1.51925042729e-16
2.45684402994e-16
5.76927217298e-16
7.56857402079e-16
1.35500077172e-15
1.85935282924e-15
6.36682988918e-16
5.78927749392e-16
1.17975104741e-16
3.26571127086e-14
9.57300384676e-14
1.47332951973e-13
9.88630618144e-14
7.60936302284e-14
4.64448787031e-14
3.71042287951e-14
2.28097538383e-14
1.1878782104e-14
8.93245956724e-15
6.1363708994e-15
9.06647820879e-15
1.7408250055e-14
2.58061870858e-14
3.34653174085e-14
7.01611017449e-14
9.0498135868e-14
1.19039554016e-13
6.53346450273e-14
3.92888571202e-14
1.09200113024e-13
1.66835922863e-13
1.03734627809e-13
6.69085765235e-14
4.23993924791e-14
4.90105754894e-14
2.39301810759e-14
7.9651850221e-15
2.71545442273e-15
1.59689519777e-15
1.22067229415e-15
2.44767577574e-15
7.10046078358e-15
2.02069293823e-14
4.73083264224e-14
5.50641711177e-14
5.61286041715e-14
8.57806701136e-14
4.0737490083e-14
9.37526865726e-14
1.17077126619e-13
1.378929254e-13
1.50331876874e-13
8.15412071057e-14
3.52879562076e-14
1.39771527216e-14
4.28062710662e-15
1.04210435299e-15
2.71428258337e-16
1.30055663781e-16
1.04823173793e-16
2.51127949819e-16
9.07607785649e-16
3.25573659334e-15
1.03846551558e-14
2.46595758997e-14
5.26929757157e-14
6.13772505978e-14
1.26019798678e-13
9.30248070164e-14
1.19384971406e-13
1.58931993838e-13
6.43572151717e-14
3.17072017325e-14
9.19583063016e-15
2.06457043175e-15
4.20794562074e-16
8.70842072303e-17
2.02123386163e-17
8.50180456199e-18
7.09867115845e-18
1.82831147691e-17
7.04688176148e-17
2.85562308986e-16
1.23794686333e-15
4.99660135291e-15
1.95551877476e-14
4.93569865418e-14
7.71358014365e-14
7.44981904603e-14
8.33075155135e-14
6.71142953547e-14
3.89904933217e-14
1.03335729892e-14
1.68146051283e-15
2.34964634876e-16
3.63966924942e-17
6.39202280071e-18
1.32968112516e-18
4.98722325296e-19
4.29887251385e-19
1.16760616572e-18
4.71989858594e-18
2.08948021051e-17
1.09094617045e-16
6.95290990012e-16
4.89672697058e-15
2.5226396988e-14
7.22380391351e-14
4.92304955365e-14
6.68910256582e-14
3.4012375141e-14
1.4090828326e-14
2.46965963644e-15
2.75613495972e-16
2.8742665918e-17
3.15368631492e-18
4.25313767131e-19
7.82341763955e-20
2.71489179135e-20
2.35995084989e-20
6.46196654622e-20
2.710061308e-19
1.35148094474e-18
9.4066660766e-18
9.08599568724e-17
9.67392291912e-16
8.14916725548e-15
3.69509632214e-14
3.52140628432e-14
4.78166489313e-14
2.46851035647e-14
5.2671727421e-15
5.94470876683e-16
5.27473488196e-17
4.23094136399e-18
3.23955731707e-19
3.67627388087e-20
1.90682604223e-20
1.29656963953e-20
1.07912370146e-20
1.00448652943e-20
1.47808838388e-20
8.37912454282e-20
8.92686679929e-19
1.25674436378e-17
1.68211092399e-16
1.86233455631e-15
1.15927956462e-14
1.51723031367e-14
2.94636822529e-14
1.17459621746e-14
1.78166286088e-15
1.55977023828e-16
1.21064107116e-17
8.22684557072e-19
5.4815949609e-20
3.88756293821e-20
3.53320822287e-20
4.70149541869e-20
3.31351597713e-20
1.52086315439e-20
7.2825835232e-21
6.53295229938e-21
1.03087864772e-19
1.86763261737e-18
2.84214113591e-17
3.37704693147e-16
2.90759818385e-15
7.76416573632e-15
1.85648195539e-14
5.73418549264e-15
7.14285908531e-16
5.6201024057e-17
3.98357482109e-18
2.4651792407e-19
2.46295647174e-20
3.13681630504e-20
1.08165727849e-20
9.96524157387e-21
7.05109702765e-21
4.12883471801e-21
5.50374626683e-21
1.23561674873e-21
1.3781186452e-20
2.86109721522e-19
4.85227000566e-18
6.70481362236e-17
7.81276127391e-16
4.44522730719e-15
1.41958207246e-14
3.65099638513e-15
4.02045519771e-16
2.92400083554e-17
1.93878393415e-18
1.13437373037e-19
1.78801477304e-20
3.94653032619e-20
6.67066402303e-21
9.02319015693e-22
8.45795325528e-22
5.51115245049e-21
2.13617297217e-20
3.02899747435e-21
2.80199029528e-21
6.52827897558e-20
1.29597002377e-18
2.15115092772e-17
3.03852328317e-16
2.81858826044e-15
1.27549544093e-14
3.45344289962e-15
3.80007084854e-16
2.71233788868e-17
1.76055026728e-18
1.00326330517e-19
1.6439199262e-20
3.47182701902e-20
5.51539150022e-21
4.3498166912e-22
4.32482278081e-22
4.13215742244e-21
1.68669192485e-20
2.51911047226e-21
2.32327152094e-21
5.65408471806e-20
1.14830263011e-18
1.92725375923e-17
2.68342148622e-16
2.60251827965e-15
1.61618021759e-14
5.35743216356e-15
6.59502008485e-16
4.9539625183e-17
3.34419491711e-18
1.9549017805e-19
1.91285964121e-20
1.42624596464e-20
2.87941647061e-21
3.49063407802e-21
2.76531595951e-21
5.77994078553e-22
1.57641232843e-21
1.63801975137e-21
7.52690044226e-21
1.72631386521e-19
3.16256161289e-18
4.70285065154e-17
5.73688820995e-16
3.76662940748e-15
2.69077399947e-14
1.31387770006e-14
1.92873538924e-15
1.57526739372e-16
1.09817970409e-17
6.59707918453e-19
3.50387246907e-20
1.21403435562e-20
5.60794603283e-21
1.65648192768e-20
1.40141604117e-20
2.36815864165e-21
4.00916306849e-21
3.23549739131e-21
2.79722299643e-20
6.00410278796e-19
1.02399445081e-17
1.35062074767e-16
1.39542318111e-15
5.67657244186e-15
4.13676921437e-14
3.32255678614e-14
5.87244610431e-15
5.59807317567e-16
4.08175582644e-17
2.63700806623e-18
1.59538475622e-19
1.36338781685e-20
2.02381599426e-21
3.08186967619e-21
2.25446031546e-21
2.61189357974e-21
4.85101724907e-21
1.78735684475e-20
1.71578064577e-19
2.81115637722e-18
4.33069067938e-17
5.27944873414e-16
4.37098084954e-15
1.0688394765e-14
4.98069897665e-14
6.10574263572e-14
1.3955212153e-14
1.7402878169e-15
1.5353225042e-16
1.32157199695e-17
1.30538394191e-18
1.75730271109e-19
2.93589551601e-20
9.98482121288e-21
1.00220374133e-20
3.19137377899e-20
9.75249645201e-20
3.76001801181e-19
1.86605195475e-18
1.70215089369e-17
1.79732002292e-16
1.65949030309e-15
8.36716990127e-15
1.35470689102e-14
7.10469443815e-14
6.66910574039e-14
2.78821338763e-14
5.73999573706e-15
8.47874773798e-16
1.07267352167e-16
1.62773799682e-17
2.96986842002e-18
5.75399230035e-19
2.20204353604e-19
2.18942002545e-19
6.7801669337e-19
2.02380338121e-18
7.24583889352e-18
2.59406032585e-17
1.46065488265e-16
1.01053451663e-15
5.97474647843e-15
2.00038031164e-14
3.56650929469e-14
9.84531920183e-14
1.45143940682e-13
5.57222357797e-14
2.00284328359e-14
5.54300448728e-15
1.05114842415e-15
2.06035206288e-16
4.36778257226e-17
9.37663694468e-18
4.07452206737e-18
3.96862493289e-18
1.15843398751e-17
3.33954382645e-17
1.14535944324e-16
3.2297942669e-16
1.28760009304e-15
4.09695316771e-15
8.54628864437e-15
1.76600670462e-14
3.33006745438e-14
1.07240843503e-13
1.22876569662e-13
9.23168187095e-14
5.86709699446e-14
2.89084857882e-14
7.73995011597e-15
2.29292052617e-15
5.45508905934e-16
1.31100573043e-16
6.59580993173e-17
6.22925654417e-17
1.62938592969e-16
4.38324266267e-16
1.47025393065e-15
3.22631462561e-15
8.31090911442e-15
1.0826826268e-14
1.80590738911e-14
1.24492245558e-14
1.94350918684e-14
9.76210979226e-14
1.64930458782e-13
7.85782384755e-14
1.31506235075e-13
8.44677194813e-14
2.98817091393e-14
1.33836181171e-14
4.29507409484e-15
1.50402143413e-15
1.00323613558e-15
9.12793795169e-16
1.95946550407e-15
3.97123683505e-15
1.06862628477e-14
1.60372191122e-14
2.83910010033e-14
2.7928963792e-14
1.41114171149e-14
1.20568206017e-14
1.97580754632e-14
6.08008738321e-14
9.60017315263e-14
1.12928934905e-13
1.13001445408e-13
6.94969940594e-14
4.88948957226e-14
2.1771063925e-14
9.92772775896e-15
7.45679460631e-15
7.13418202846e-15
6.12004966213e-15
9.83446324159e-15
1.13240566416e-14
1.95278784998e-14
2.00529371877e-14
3.30722524002e-14
4.50663754829e-14
1.68058112571e-14
1.64401266933e-14
5.86604185839e-15
3.0080977217e-13
6.3559012984e-13
9.0666028598e-13
6.13261469588e-13
5.28144063391e-13
3.7790194167e-13
3.48727648058e-13
2.67434628757e-13
1.72920226625e-13
1.39427582899e-13
1.02104670593e-13
1.22067350652e-13
1.8292227229e-13
2.26579120442e-13
2.50245867805e-13
4.66245642987e-13
5.92363055499e-13
8.40969464691e-13
5.26585444191e-13
3.95652751839e-13
7.01229901317e-13
1.13739777368e-12
5.8852814753e-13
3.91455336226e-13
2.72462425717e-13
4.29746638151e-13
2.35146026299e-13
9.17191364631e-14
3.88330545219e-14
2.73892112832e-14
2.13023331573e-14
3.6536744002e-14
8.73822600563e-14
2.16280692639e-13
4.53959440023e-13
3.98967437265e-13
3.81122759265e-13
6.3175565769e-13
3.02600666953e-13
7.85539466134e-13
7.0255179641e-13
8.97565439119e-13
1.00277836297e-12
5.77791944392e-13
2.7325637955e-13
1.23374690145e-13
4.35537841353e-14
1.27016338599e-14
4.24611028272e-15
2.55735730832e-15
2.05687670825e-15
4.14252965895e-15
1.20614267955e-14
3.60473389373e-14
1.01183514518e-13
2.13734152103e-13
4.35877992392e-13
4.07532433299e-13
9.97104796558e-13
6.77052838957e-13
6.94293880943e-13
1.10873866569e-12
4.38144933621e-13
2.40004805974e-13
7.49689934301e-14
1.81419497682e-14
4.55747267683e-15
1.18661575522e-15
3.62617291124e-16
1.99365261314e-16
1.65336042671e-16
3.51241712659e-16
1.07211281937e-15
3.3600078909e-15
1.22683184515e-14
4.54573123207e-14
1.72161874317e-13
4.08589484275e-13
5.32679655972e-13
4.80337625332e-13
5.32646936169e-13
4.20204971869e-13
2.94960737889e-13
8.37591592123e-14
1.38400194015e-14
2.12468899073e-15
3.96906430292e-16
9.32585953872e-17
3.02396260458e-17
1.83915581482e-17
1.48855874846e-17
2.84606832385e-17
8.08152977112e-17
2.62634052808e-16
1.16645805522e-15
6.51442237323e-15
4.54170260983e-14
2.2797721667e-13
6.28916581674e-13
3.41799378811e-13
4.71480772594e-13
2.49639104047e-13
1.17052609906e-13
2.14506461719e-14
2.54607955083e-15
2.69934307876e-16
4.24347481629e-17
2.34482465662e-17
2.13663706658e-17
1.98438445284e-17
1.61982316252e-17
1.24470463228e-17
1.20728000586e-17
2.38229067471e-17
1.12670700788e-16
9.81459560827e-16
9.82811744834e-15
8.15659275975e-14
3.60721024038e-13
2.9293847361e-13
3.96893048124e-13
2.25610953323e-13
5.1518002176e-14
6.09174380683e-15
5.73945987985e-16
5.25317052296e-17
1.84932817919e-17
2.75935338637e-17
3.92898480287e-17
3.6703925139e-17
3.32118713748e-17
2.44645941483e-17
1.18057146165e-17
1.00518685337e-17
1.87735748783e-17
1.70779373674e-16
2.16268608855e-15
2.18011291183e-14
1.32383228302e-13
1.78802897644e-13
2.79934050294e-13
1.21408600535e-13
2.00694452909e-14
1.99456678185e-15
1.65621790303e-16
2.74934794977e-17
2.46436390519e-17
5.73453741394e-17
5.72429893953e-17
7.57902726501e-17
5.82363942528e-17
3.52829542371e-17
2.13182224199e-17
1.03538483759e-17
8.70027024319e-18
3.67727064136e-17
4.86848918101e-16
5.32816816082e-15
4.27102993701e-14
1.30193427174e-13
2.297391703e-13
6.98331215866e-14
9.69022339194e-15
8.84529091145e-16
7.07783090767e-17
2.01581747362e-17
3.62725224252e-17
4.52298337455e-17
9.94948339897e-18
1.28480842215e-17
1.21752608981e-17
1.26865763253e-17
1.97810600571e-17
1.11376190612e-17
8.16753340429e-18
9.28478992158e-18
1.227752755e-16
1.59924398916e-15
1.65654743257e-14
9.66100000462e-14
1.82282315331e-13
4.97636668227e-14
6.26267000818e-15
5.40444450919e-16
4.25155888025e-17
1.88237268558e-17
4.30814625393e-17
5.94178614435e-17
2.85529140788e-18
1.19142399959e-18
5.69924024674e-18
2.53964827569e-17
5.67486828959e-17
2.44989884732e-17
1.11358733076e-17
4.11795718615e-18
4.91801364842e-17
7.51869172037e-16
9.14494690849e-15
8.37004783769e-14
1.52032197795e-13
4.69601732423e-14
5.95999428106e-15
5.04071254838e-16
3.82444864356e-17
1.62452426782e-17
4.53082649894e-17
5.86500543446e-17
3.34929249201e-18
1.26581560569e-18
5.02884478966e-18
2.2330196503e-17
5.05262621896e-17
2.16426213121e-17
9.69399862873e-18
4.12516297233e-18
4.87089050155e-17
7.40672721581e-16
8.86967834858e-15
8.59787844695e-14
1.78836525511e-13
6.64479615166e-14
9.14706303346e-15
7.92708206703e-16
5.92623528255e-17
1.72701005773e-17
3.85034173993e-17
3.23624833437e-17
5.87092093972e-18
1.10571257263e-17
9.12931039213e-18
6.39359999852e-18
1.39048949601e-17
1.32323957081e-17
6.12646815259e-18
7.92282283856e-18
1.09607803813e-16
1.47214617908e-15
1.51559733929e-14
1.00946116962e-13
2.70185602992e-13
1.4148048689e-13
2.25871346343e-14
2.05820375653e-15
1.52122102855e-16
1.86215564579e-17
1.90602257657e-17
3.37268259086e-17
2.35641070569e-17
4.97314418256e-17
4.16206454452e-17
1.64682132171e-17
2.29687700765e-17
1.78983743522e-17
7.84096827397e-18
1.84771615032e-17
2.57891512533e-16
3.08087515674e-15
2.74309459038e-14
1.1965097959e-13
3.49056951711e-13
3.15566547683e-13
5.88843421099e-14
5.85317276361e-15
4.42207792414e-16
3.56016609848e-17
1.79175885205e-17
1.94593314992e-17
1.32074854872e-17
2.57069960836e-17
1.96518305926e-17
1.56458657083e-17
1.61104416117e-17
1.26520533141e-17
9.30689836934e-18
5.93869387512e-17
8.29697409132e-16
9.14726649965e-15
6.81393331044e-14
1.7657712866e-13
3.67222512583e-13
5.30504181135e-13
1.23923420513e-13
1.57714286534e-14
1.45622017965e-15
1.28471872486e-16
2.17151925431e-17
1.39525944629e-17
8.18423439178e-18
1.23711870705e-17
1.03679839101e-17
8.39377944077e-18
1.07701294007e-17
1.22286738985e-17
3.40370660058e-17
2.74727795592e-16
2.71238329158e-15
2.19428037941e-14
1.06793534877e-13
1.59303622733e-13
4.46990958753e-13
4.38543712448e-13
2.24288510505e-13
4.85676424214e-14
7.32913625628e-15
1.03959988054e-15
2.05838392731e-16
5.0876578193e-17
1.42906196782e-17
8.13613654603e-18
8.39485544639e-18
1.89665637872e-17
4.42440186965e-17
1.27477402437e-16
3.96201150615e-16
1.99157048183e-15
1.2366221218e-14
6.92443590745e-14
2.21545635777e-13
3.88651920802e-13
5.87908918808e-13
1.05260427094e-12
4.16678635754e-13
1.63228402781e-13
4.79252376567e-14
9.87406900081e-15
2.59420544463e-15
6.97701241659e-16
1.9704770684e-16
1.18814828892e-16
1.1610449476e-16
2.78879078535e-16
6.47504652071e-16
1.84655021091e-15
4.45428729575e-15
1.5071086251e-14
4.65450836942e-14
8.91606098546e-14
1.86261926288e-13
3.41269181547e-13
6.91719170983e-13
7.29393759859e-13
5.55323766773e-13
4.39651573942e-13
2.42033785574e-13
7.16661831004e-14
2.63713415054e-14
7.6103173025e-15
2.45791842045e-15
1.7157840602e-15
1.61837434523e-15
3.44013684555e-15
7.24495466502e-15
2.02754273368e-14
3.939730665e-14
9.09315476559e-14
1.1025450014e-13
1.75050435692e-13
1.38070749358e-13
2.14157413354e-13
6.78100098676e-13
1.2516444686e-12
5.01913943536e-13
9.73891694117e-13
6.83748855961e-13
2.6890866591e-13
1.47069303173e-13
5.63522114994e-14
2.61323483303e-14
2.14162886354e-14
1.94427308124e-14
3.54040762721e-14
5.9451559069e-14
1.36576882194e-13
1.84218311349e-13
2.93047748452e-13
2.77714385535e-13
1.5571401619e-13
1.46995730527e-13
2.71818330277e-13
5.84251462082e-13
6.71415045184e-13
7.91848096285e-13
7.8087403736e-13
5.18538100513e-13
4.20091322593e-13
2.28248167487e-13
1.26446839571e-13
1.35464281699e-13
1.41474903464e-13
1.20472394487e-13
1.79771448916e-13
1.75738629994e-13
2.32227497392e-13
1.90289091493e-13
3.14638910459e-13
4.24848727126e-13
1.81579006607e-13
1.83300488437e-13
1.10239043114e-13
1.43072038655e-12
2.17718951412e-12
2.82967160856e-12
1.8676395291e-12
2.0877014578e-12
1.7981074059e-12
1.77934397337e-12
1.67259852794e-12
1.31542985056e-12
8.59132708997e-13
7.21972148625e-13
7.29184282615e-13
9.00098248607e-13
9.40221288473e-13
9.8466862099e-13
1.51037499618e-12
1.97365728872e-12
2.81161986619e-12
2.15448889275e-12
1.78767944062e-12
2.23017823788e-12
4.5905453047e-12
1.80706482272e-12
1.26689888011e-12
1.0543534824e-12
2.3645118206e-12
1.35972755288e-12
5.90173547551e-13