/*--------------------------------*- C++ -*----------------------------------*\
| =========                 |                                                 |
| \\      /  F ield         | OpenFOAM: The Open Source CFD Toolbox           |
|  \\    /   O peration     | Version:  3.0.1                                 |
|   \\  /    A nd           | Web:      www.OpenFOAM.org                      |
|    \\/     M anipulation  |                                                 |
\*---------------------------------------------------------------------------*/
FoamFile
{
    version     2.0;
    format      ascii;
    class       surfaceScalarField;
    location    "8.6";
    object      meshPhiCN_0;
}
// * * * * * * * * * * * * * * * * * * * * * * * * * * * * * * * * * * * * * //

dimensions      [0 3 -1 0 0 0 0];

internalField   nonuniform List<scalar> 
22672
(
0
0
0
0
0
0
0
0
0
0
0
0
0
0
0
0
0
0
0
0
0
0
0
0
0
0
0
0
0
0
0
0
0
0
0
0
0
0
0
0
0
0
0
0
0
0
0
0
0
0
0
0
0
0
0
0
0
0
0
0
0
0
0
0
0
0
0
0
0
0
0
0
0
0
0
0
0
0
0
0
0
0
0
0
0
0
0
0
0
0
0
0
0
0
0
0
0
0
0
0
0
0
0
0
0
0
0
0
0
0
0
0
0
0
0
0
0
0
0
0
0
0
0
0
0
0
0
0
0
0
0
0
0
0
0
0
0
0
0
0
0
0
0
0
0
0
0
0
0
0
0
0
0
0
0
0
0
0
0
0
0
0
0
0
0
0
0
0
0
0
0
0
0
0
0
0
0
0
0
0
0
0
0
0
0
0
0
0
0
0
0
0
0
0
0
0
0
0
0
0
0
0
0
0
0
0
0
0
0
0
0
0
0
0
0
0
0
0
0
0
0
0
0
0
0
0
0
0
0
0
0
0
0
0
0
0
0
0
0
0
0
0
0
0
0
0
0
0
0
0
0
0
0
0
0
0
0
0
0
0
0
0
0
0
0
0
0
0
0
0
0
0
0
0
0
0
0
0
0
0
0
0
0
0
0
0
0
0
0
0
0
0
0
0
0
0
0
0
0
0
0
0
0
0
0
0
0
0
0
0
0
0
0
0
0
0
0
0
0
0
0
0
0
0
0
0
0
0
0
0
0
0
0
0
0
0
0
0
0
0
0
0
0
0
0
0
0
0
0
0
0
0
0
0
0
0
0
0
0
0
0
0
0
0
0
0
0
0
0
0
0
0
0
0
0
0
0
0
0
0
0
0
0
0
0
0
0
0
0
0
0
0
0
0
0
0
0
0
0
0
0
0
0
0
0
0
0
0
0
0
0
0
0
0
0
0
0
0
0
0
0
0
0
0
0
0
0
0
0
0
0
0
0
0
0
0
0
0
0
0
0
0
0
0
0
0
0
0
0
0
0
0
0
0
0
0
0
0
0
0
0
0
0
0
0
0
0
0
0
0
0
0
0
0
0
0
0
0
0
0
0
0
0
0
0
0
0
0
0
0
0
0
0
0
0
0
0
0
0
0
0
0
0
0
0
0
0
0
0
0
0
0
0
0
0
0
0
0
0
0
0
0
0
0
0
0
0
0
0
0
0
0
0
0
0
0
0
0
0
0
0
0
0
0
0
0
0
0
0
0
0
0
0
0
0
0
0
0
0
0
0
0
0
0
0
0
0
0
0
0
0
0
0
0
0
0
0
0
0
0
0
0
0
0
0
0
0
0
0
0
0
0
0
0
0
0
0
0
0
0
0
0
0
0
0
0
0
0
0
0
0
0
0
0
0
0
0
0
0
0
0
0
0
0
0
0
0
0
0
0
0
0
0
0
0
0
0
0
0
0
0
0
0
0
0
0
0
0
0
0
0
0
0
0
0
0
0
0
0
0
0
0
0
0
0
0
0
0
0
0
0
0
0
0
0
0
0
0
0
0
0
0
0
0
0
0
0
0
0
0
0
0
0
0
0
0
0
0
0
0
0
0
0
0
0
0
0
0
0
0
0
0
0
0
0
0
0
0
0
0
0
0
0
0
0
0
0
0
0
0
0
0
0
0
0
0
0
0
0
0
0
0
0
0
0
0
0
0
0
0
0
0
0
0
0
0
0
0
0
0
0
0
0
0
0
0
0
0
0
0
0
0
0
0
0
0
0
0
0
0
0
0
0
0
0
0
0
0
0
0
0
0
0
0
0
0
0
0
0
0
0
0
0
0
0
0
0
0
0
0
0
0
0
0
0
0
0
0
0
0
0
0
0
0
0
0
0
0
0
0
0
0
0
0
0
0
0
0
0
0
0
0
0
0
0
0
0
0
0
0
0
0
0
0
0
0
0
0
0
0
0
0
0
0
0
0
0
0
0
0
0
0
0
0
0
0
0
0
0
0
0
0
0
0
0
0
0
0
0
0
0
0
0
0
0
0
0
0
0
0
0
0
0
0
0
0
0
0
0
0
0
0
0
0
0
0
0
0
0
0
0
0
0
0
0
0
0
0
0
0
0
0
0
0
0
0
0
0
0
0
0
0
0
0
0
0
0
0
0
0
0
0
0
0
0
0
0
0
0
0
0
0
0
0
0
0
0
0
0
0
0
0
0
0
0
0
0
0
0
0
0
0
0
0
0
0
0
0
0
0
0
0
0
0
0
0
0
0
0
0
0
0
0
0
0
0
0
0
0
0
0
0
0
0
0
0
0
0
0
0
0
0
0
0
0
0
0
0
0
0
0
0
0
0
0
0
0
0
0
0
0
0
0
0
0
0
0
0
0
0
0
0
0
0
0
0
0
0
0
0
0
0
0
0
0
0
0
0
0
0
0
0
0
0
0
0
0
0
0
0
0
0
0
0
0
0
0
0
0
0
0
0
0
0
0
0
0
0
0
0
0
0
0
0
0
0
0
0
0
0
0
0
0
0
0
0
0
0
0
0
0
0
0
0
0
0
0
0
0
0
0
0
0
0
0
0
0
0
0
0
0
0
0
0
0
0
0
0
0
0
0
0
0
0
0
0
0
0
0
0
0
0
0
0
0
0
0
0
0
0
0
0
0
0
0
0
0
0
0
0
0
0
0
0
0
0
0
0
0
0
0
0
0
0
0
0
0
0
0
0
0
0
0
0
0
0
0
0
0
0
0
0
0
0
0
0
0
0
0
0
0
0
0
0
0
0
0
0
0
0
0
0
0
0
0
0
0
0
0
0
0
0
0
0
0
0
0
0
0
0
0
0
0
0
0
0
0
0
0
0
0
0
0
0
0
0
0
0
0
0
0
0
0
0
0
0
0
0
0
0
0
0
0
0
0
0
0
0
0
0
0
0
0
0
0
0
0
0
0
0
0
0
0
0
0
0
0
0
0
0
0
0
0
0
0
0
0
0
0
0
0
0
0
0
0
0
0
0
0
0
0
0
0
0
0
0
0
0
0
0
0
0
0
0
0
0
0
0
0
0
0
0
0
0
0
0
0
0
0
0
0
0
0
0
0
0
0
0
0
0
0
0
0
0
0
0
0
0
0
0
0
0
0
0
0
0
0
0
0
0
0
0
0
0
0
0
0
0
0
0
0
0
0
0
0
0
0
0
0
0
0
0
0
0
0
0
0
0
0
0
0
0
0
0
0
0
0
0
0
0
0
0
0
0
0
0
0
0
0
0
0
0
0
0
0
0
0
0
0
0
0
0
0
0
0
0
0
0
0
0
0
0
0
0
0
0
0
0
0
0
0
0
0
0
0
0
0
0
0
0
0
0
0
0
0
0
0
0
0
0
0
0
0
0
0
0
0
0
0
0
0
0
0
0
0
0
0
0
0
0
0
0
0
0
0
0
0
0
0
0
0
0
0
0
0
0
0
0
0
0
0
0
0
0
0
0
0
0
0
0
0
0
0
0
0
0
0
0
0
0
0
0
0
0
0
0
0
0
0
0
0
0
0
0
0
0
0
0
0
0
0
0
0
0
0
0
0
0
0
0
0
0
0
0
0
0
0
0
0
0
0
0
0
0
0
0
0
0
0
0
0
0
0
0
0
0
0
0
0
0
0
0
0
0
0
0
0
0
0
0
0
0
0
0
0
0
0
0
0
0
0
0
0
0
0
0
0
0
0
0
0
0
0
0
0
0
0
0
0
0
0
0
0
0
0
0
0
0
0
0
0
0
0
0
0
0
0
0
0
0
0
0
0
0
0
0
0
0
0
0
0
0
0
0
0
0
0
0
0
0
0
0
0
0
0
0
0
0
0
0
0
0
0
0
0
0
0
0
0
0
0
0
0
0
0
0
0
0
0
0
0
0
0
0
0
0
0
0
0
0
0
0
0
0
0
0
0
0
0
0
0
0
0
0
0
0
0
0
0
0
0
0
0
0
0
0
0
0
0
0
0
0
0
0
0
0
0
0
0
0
0
0
0
0
0
0
0
0
0
0
0
0
0
0
0
0
0
0
0
0
0
0
0
0
0
0
0
0
0
0
0
0
0
0
0
0
0
0
0
0
0
0
0
0
0
0
0
0
0
0
0
0
0
0
0
0
0
0
0
0
0
0
0
0
0
0
0
0
0
0
0
0
0
0
0
0
0
0
0
0
0
0
0
0
0
0
0
0
0
0
0
0
0
0
0
0
0
0
0
0
0
0
0
0
0
0
0
0
0
0
0
0
0
0
0
0
0
0
0
0
0
0
0
0
0
0
0
0
0
0
0
0
0
0
0
0
0
0
0
0
0
0
0
0
0
0
0
0
0
0
0
0
0
0
0
0
0
0
0
0
0
0
0
0
0
0
0
0
0
0
0
0
0
0
0
0
0
0
0
0
0
0
0
0
0
0
0
0
0
0
0
0
0
0
0
0
0
0
0
0
0
0
0
0
0
0
0
0
0
0
0
0
0
0
0
0
0
0
0
0
0
0
0
0
0
0
0
0
0
0
0
0
0
0
0
0
0
0
0
0
0
0
0
0
0
0
0
0
0
0
0
0
0
0
0
0
0
0
0
0
0
0
0
0
0
0
0
0
0
0
0
0
0
0
0
0
0
0
0
0
0
0
0
0
0
0
0
0
0
0
0
0
0
0
0
0
0
0
0
0
0
0
0
0
0
0
0
0
0
0
0
0
0
0
0
0
0
0
0
0
0
0
0
0
0
0
0
0
0
0
0
0
0
0
0
0
0
0
0
0
0
0
0
0
0
0
0
0
0
0
0
0
0
0
0
0
0
0
0
0
0
0
0
0
0
0
0
0
0
0
0
0
0
0
0
0
0
0
0
0
0
0
0
0
0
0
0
0
0
0
0
0
0
0
0
0
0
0
0
0
0
0
0
0
0
0
0
0
0
0
0
0
0
0
0
0
0
0
0
0
0
0
0
0
0
0
0
0
0
0
0
0
0
0
0
0
0
0
0
0
0
0
0
0
0
0
0
0
0
0
0
0
0
0
0
0
0
0
0
0
0
0
0
0
0
0
0
0
0
0
0
0
0
0
0
0
0
0
0
0
0
0
0
0
0
0
0
0
0
0
0
0
0
0
0
0
0
0
0
0
0
0
0
0
0
0
0
0
0
0
0
0
0
0
0
0
0
0
0
0
0
0
0
0
0
0
0
0
0
0
0
0
0
0
0
0
0
0
0
0
0
0
0
0
0
0
0
0
0
0
0
0
0
0
0
0
0
0
0
0
0
0
0
0
0
0
0
0
0
0
0
0
0
0
0
0
0
0
0
0
0
0
0
0
0
0
0
0
0
0
0
0
0
0
0
0
0
0
0
0
0
0
0
0
0
0
0
0
0
0
0
0
0
0
0
0
0
0
0
0
0
0
0
0
0
0
0
0
0
0
0
0
0
0
0
0
0
0
0
0
0
0
0
0
0
0
0
0
0
0
0
0
0
0
0
0
0
0
0
0
0
0
0
0
0
0
0
0
0
0
0
0
0
0
0
0
0
0
0
0
0
0
0
0
0
0
0
0
0
0
0
0
0
0
0
0
0
0
0
0
0
0
0
0
0
0
0
0
0
0
0
0
0
0
0
0
0
0
0
0
0
0
0
0
0
0
0
0
0
0
0
0
0
0
0
0
0
0
0
0
0
0
0
0
0
0
0
0
0
0
0
0
0
0
0
0
0
0
0
0
0
0
0
0
0
0
0
0
0
0
0
0
0
0
0
0
0
0
0
0
0
0
0
0
0
0
0
0
0
0
0
0
0
0
0
0
0
0
0
0
0
0
0
0
5.51638338863e-09
-4.2749255934e-09
-5.33284402139e-10
9.92388746607e-09
-1.17352768028e-08
-1.49680821964e-09
9.92205238123e-09
-1.46847016325e-08
-1.92977431335e-09
9.92021731148e-09
-1.42735541785e-08
-1.94282422952e-09
9.91838232056e-09
-1.38624115349e-08
-1.95586928247e-09
9.91654719458e-09
-1.34512737273e-08
-1.96890946987e-09
5.51296807108e-09
-1.01748358177e-08
-1.53802974248e-09
0
-3.56479490452e-09
-5.52236993729e-10
0
0
0
0
0
0
0
0
0
0
0
0
0
0
0
0
0
0
0
0
0
0
0
0
0
0
0
0
0
0
0
0
1.53871284407e-08
-1.25106222266e-08
-1.50263586869e-09
4.65564447735e-08
-4.48469658987e-08
-6.06846972901e-09
6.25685440726e-08
-7.17873071255e-08
-1.06217033706e-08
6.25186113403e-08
-7.79663139553e-08
-1.21526655237e-08
6.24686783205e-08
-7.57868285256e-08
-1.22305744701e-08
6.24187449993e-08
-7.36074804867e-08
-1.2308350859e-08
6.23688114438e-08
-7.14282698485e-08
-1.23859947791e-08
4.6369501309e-08
-6.14868415595e-08
-1.0807061559e-08
1.53505908482e-08
-3.60192412627e-08
-6.15282056813e-09
0
-9.72859628663e-09
-1.5599110846e-09
0
0
0
0
0
0
0
0
0
0
0
0
0
0
0
0
0
0
0
0
0
0
0
0
0
0
5.28880664686e-09
-4.50550096622e-09
-5.21388651945e-10
5.54415109302e-08
-3.79344247733e-08
-6.05328713078e-09
1.19489750238e-07
-9.65914484783e-08
-1.74811879739e-08
1.47023578911e-07
-1.35228965612e-07
-2.62824613796e-08
1.46904512896e-07
-1.42414899632e-07
-2.88228610181e-08
1.467854468e-07
-1.38440082174e-07
-2.90081010987e-08
1.46666380097e-07
-1.34465723963e-07
-2.919301945e-08
1.46547313364e-07
-1.30491824932e-07
-2.93776161154e-08
1.189682453e-07
-1.15138060129e-07
-2.65223156414e-08
5.52256355621e-08
-7.61580157471e-08
-1.73187328975e-08
5.28311947903e-09
-2.86632453011e-08
-6.12036466416e-09
0
-3.33653381353e-09
-5.5495049287e-10
0
0
0
0
0
0
0
0
0
0
0
0
0
0
0
0
0
0
0
0
0
0
0
1.45768554271e-08
-8.11110900944e-09
-1.45839798748e-09
8.94409136587e-08
-5.1056796757e-08
-1.06633122109e-08
1.69067370204e-07
-1.18891878572e-07
-2.65598720629e-08
2.01915163477e-07
-1.6131770309e-07
-3.75030788819e-08
2.01853905941e-07
-1.68610053754e-07
-4.04989533447e-08
2.01792648555e-07
-1.63906984387e-07
-4.07723981765e-08
2.01731391163e-07
-1.59204559001e-07
-4.10456581097e-08
2.01670133737e-07
-1.54502777586e-07
-4.13187333095e-08
1.68783745641e-07
-1.37051010554e-07
-3.77151230674e-08
8.92925928212e-08
-9.31319715034e-08
-2.59970222301e-08
1.45644590546e-08
-3.81705313141e-08
-1.05874151269e-08
0
-5.97760408805e-09
-1.54202826862e-09
0
0
0
0
0
0
0
0
0
0
0
0
0
0
0
0
0
0
0
0
0
0
0
1.83331666133e-08
-8.11165639232e-09
-1.86911671745e-09
9.77811939849e-08
-5.10718427682e-08
-1.21884112437e-08
1.79447032835e-07
-1.1892858073e-07
-2.91896272807e-08
2.1286966906e-07
-1.61338009789e-07
-4.06193621811e-08
2.12882064674e-07
-1.68608419237e-07
-4.37064996979e-08
2.12894460321e-07
-1.63905196451e-07
-4.40117844483e-08
2.12906856062e-07
-1.59202617641e-07
-4.43170692473e-08
2.1291925189e-07
-1.54500682745e-07
-4.46223540194e-08
1.79500051963e-07
-1.37027380032e-07
-4.08244001162e-08
9.78023422804e-08
-9.30927562734e-08
-2.847479008e-08
1.83341025938e-08
-3.81543158903e-08
-1.20395602399e-08
0
-5.97700179616e-09
-1.9707227078e-09
0
0
0
0
0
0
0
0
0
0
0
0
0
0
0
0
0
0
0
0
0
0
0
1.79219731905e-08
-8.11220380356e-09
-1.86108177255e-09
9.5600517439e-08
-5.10868884473e-08
-1.2141320954e-08
1.75468581498e-07
-1.1896528258e-07
-2.90779844579e-08
2.08161982414e-07
-1.61358316612e-07
-4.04522644919e-08
2.08174699998e-07
-1.68606784836e-07
-4.35180736288e-08
2.08187417643e-07
-1.63903408575e-07
-4.38233583812e-08
2.08200135226e-07
-1.59200676213e-07
-4.41286431497e-08
2.08212853088e-07
-1.54498587956e-07
-4.44339279517e-08
1.75522978052e-07
-1.37003749652e-07
-4.06434660595e-08
9.56222152676e-08
-9.30535413463e-08
-2.83390618492e-08
1.79229335637e-08
-3.81381007065e-08
-1.1982547159e-08
0
-5.9763995554e-09
-1.96232335927e-09
0
0
0
0
0
0
0
0
0
0
0
0
0
0
0
0
0
0
0
0
0
0
0
1.75107774788e-08
-8.11275124997e-09
-1.85304459401e-09
9.34197752913e-08
-5.11019338434e-08
-1.20941675488e-08
1.71489911358e-07
-1.19001984258e-07
-2.89661883078e-08
2.03453988971e-07
-1.61378623383e-07
-4.02850786995e-08
2.03467028531e-07
-1.68605150583e-07
-4.33296475608e-08
2.0348006807e-07
-1.63901620782e-07
-4.36349323711e-08
2.03493107687e-07
-1.59198735077e-07
-4.39402171629e-08
2.03506147499e-07
-1.54496493318e-07
-4.42455018958e-08
1.71545685119e-07
-1.36980119307e-07
-4.04626200753e-08
9.34420227823e-08
-9.30143266401e-08
-2.82034869935e-08
1.75117621544e-08
-3.81218857425e-08
-1.19255973067e-08
0
-5.9757971826e-09
-1.95392636257e-09
0
0
0
0
0
0
0
0
0
0
0
0
0
0
0
0
0
0
0
0
0
0
0
1.70995794195e-08
-8.11329861021e-09
-1.84500503984e-09
9.12389676621e-08
-5.1116979111e-08
-1.20469509702e-08
1.67511022351e-07
-1.19038685822e-07
-2.88542388347e-08
1.98745688592e-07
-1.61398930236e-07
-4.01178048078e-08
1.9875905007e-07
-1.68603516385e-07
-4.31412215352e-08
1.98772411631e-07
-1.63899833137e-07
-4.34465062939e-08
1.98785773201e-07
-1.59196793831e-07
-4.37517910852e-08
1.98799134847e-07
-1.54494398609e-07
-4.40570758745e-08
1.67568173509e-07
-1.369564889e-07
-4.02818621103e-08
9.12617646727e-08
-9.29751122286e-08
-2.80680654934e-08
1.7100588497e-08
-3.81056711524e-08
-1.18687106859e-08
0
-5.97519494718e-09
-1.94553171926e-09
0
0
0
0
0
0
0
0
0
0
0
0
0
0
0
0
0
0
0
0
0
0
0
1.2999298347e-08
-4.50652003231e-09
-1.42814417677e-09
7.89199897814e-08
-3.79905923007e-08
-1.04502575999e-08
1.48532149199e-07
-9.67518298884e-08
-2.60204632684e-08
1.77252118965e-07
-1.35322309686e-07
-3.66889917113e-08
1.77335476585e-07
-1.42407910161e-07
-3.95939596209e-08
1.77418834196e-07
-1.38432436049e-07
-3.98833433232e-08
1.77502191963e-07
-1.3445742118e-07
-4.0172911905e-08
1.77585549652e-07
-1.30482865475e-07
-4.04626653164e-08
1.48909242986e-07
-1.15030570773e-07
-3.69124028325e-08
7.91038797497e-08
-7.59868815973e-08
-2.54127559455e-08
1.30129944424e-08
-2.86024186061e-08
-1.03534987114e-08
0
-3.33541256027e-09
-1.51172628353e-09
0
0
0
0
0
0
0
0
0
0
0
0
0
0
0
0
0
0
0
0
0
0
0
4.57101500262e-09
0
-5.07505325005e-10
4.63198594198e-08
-1.25215163047e-08
-5.88142220905e-09
9.83353837212e-08
-4.49127923749e-08
-1.69647411866e-08
1.20597779067e-07
-7.18350602586e-08
-2.54595450194e-08
1.20729020837e-07
-7.79635271173e-08
-2.79094436861e-08
1.20860262727e-07
-7.57837794262e-08
-2.81224371992e-08
1.2099150493e-07
-7.3604169217e-08
-2.83357524298e-08
1.21122747305e-07
-7.14246963897e-08
-2.85493893508e-08
9.89063560293e-08
-6.1433526242e-08
-2.57724891698e-08
4.65518223621e-08
-3.59490159367e-08
-1.68159898571e-08
4.57704424726e-09
-9.71660936008e-09
-5.94874350837e-09
0
0
-5.41288583338e-10
0
0
0
0
0
0
0
0
0
0
0
0
0
0
0
0
0
0
0
0
0
0
0
0
0
0
1.25557927303e-08
0
-1.45007113654e-09
3.70322844982e-08
-4.27662143782e-09
-5.84825404884e-09
4.94105396546e-08
-1.17391132808e-08
-1.02173309717e-08
4.94635576799e-08
-1.4684578458e-08
-1.16865250382e-08
4.95165759691e-08
-1.42734192925e-08
-1.1775872625e-08
4.95695945063e-08
-1.38622649861e-08
-1.1865352643e-08
4.96226130854e-08
-1.3451115604e-08
-1.19549652522e-08
3.72305147302e-08
-1.01707349548e-08
-1.04337113903e-08
1.2594527671e-08
-3.56292882442e-09
-5.93952853294e-09
0
0
-1.5078125187e-09
0
0
0
0
0
0
0
0
0
0
0
0
0
0
0
0
0
0
0
0
0
0
0
0
0
0
0
0
0
0
0
0
4.34279191687e-09
0
-5.10416585745e-10
7.78040529034e-09
0
-1.43232268114e-09
7.78235067731e-09
0
-1.84643408724e-09
7.78429603106e-09
0
-1.85990426766e-09
7.78624148596e-09
0
-1.87337922921e-09
7.78818686371e-09
0
-1.88685908144e-09
4.34641257421e-09
0
-1.4739560924e-09
0
0
-5.29263903931e-10
0
0
0
0
0
0
0
0
0
0
0
0
0
0
0
0
0
0
0
0
0
0
0
0
0
0
0
0
0
0
0
0
0
0
0
0
0
0
0
0
0
0
0
0
0
0
0
0
0
0
0
0
0
0
0
0
0
0
0
0
0
0
0
0
0
0
0
0
0
0
0
0
0
0
0
0
0
0
0
0
0
0
0
0
0
0
0
0
0
0
0
0
0
0
0
0
0
0
0
0
0
0
0
0
0
0
0
0
0
0
0
0
0
0
0
0
0
0
0
0
0
0
0
0
0
0
0
0
0
0
0
0
0
0
0
0
0
0
0
0
0
0
0
0
0
0
0
0
0
0
0
0
0
0
0
0
0
0
0
0
0
0
0
0
0
0
0
0
0
0
0
0
0
0
0
0
0
0
0
0
0
0
0
0
0
0
0
0
0
0
0
0
0
0
0
0
0
0
0
0
0
0
0
0
0
0
0
0
0
0
0
0
0
0
0
0
0
0
0
0
0
0
0
0
0
0
0
0
0
0
0
0
0
0
0
0
0
0
0
0
0
0
0
0
0
0
0
0
0
0
0
0
0
0
0
0
0
0
0
0
0
0
0
0
0
0
0
0
0
0
0
0
0
0
0
0
0
0
0
0
0
0
0
0
0
0
0
0
0
0
0
0
0
0
0
0
0
0
0
0
0
0
0
0
0
0
0
0
0
0
0
0
0
0
0
0
0
0
0
0
0
0
0
0
0
0
0
0
0
0
0
0
0
0
0
0
0
0
0
0
0
0
0
0
0
0
0
0
0
0
0
0
0
0
0
0
0
0
0
0
0
0
0
0
0
0
0
0
0
0
0
0
0
0
0
0
0
0
0
0
0
0
0
0
0
0
0
0
0
0
0
0
0
0
0
0
0
0
0
0
0
0
0
0
0
0
0
0
0
0
0
0
0
0
0
0
0
0
0
0
0
0
0
0
0
1.01392700154e-08
-7.90555260634e-09
-9.57287402079e-10
3.22854316321e-08
-3.23761090113e-08
-4.02324531343e-09
4.27381043217e-08
-5.53930802021e-08
-7.08456959438e-09
4.2706343614e-08
-6.10679213834e-08
-8.06756445411e-09
4.26745826521e-08
-5.93610997308e-08
-8.11898279465e-09
4.26428214514e-08
-5.76543623188e-08
-8.17031695444e-09
4.26110601262e-08
-5.59477090082e-08
-8.22156692856e-09
3.21758444763e-08
-4.75591431765e-08
-7.23412790931e-09
1.01245764939e-08
-2.61938086051e-08
-4.10764218173e-09
0
-6.18780622077e-09
-9.99971514231e-10
0
0
0
0
0
0
0
0
0
0
0
0
0
0
0
0
0
0
0
0
0
0
0
0
0
0
2.2950290964e-08
-1.87537265234e-08
-2.18788028685e-09
9.32515214076e-08
-8.47239824832e-08
-1.11495209181e-08
1.7916292231e-07
-1.75930553844e-07
-2.53831725e-08
2.17433219881e-07
-2.33270550173e-07
-3.54879566814e-08
2.16988045941e-07
-2.4314660489e-07
-3.82763784787e-08
2.16542867065e-07
-2.36375725763e-07
-3.84897214156e-08
2.16097683292e-07
-2.29606024695e-07
-3.87019657471e-08
2.15652494583e-07
-2.22837501595e-07
-3.89131113595e-08
1.77189680983e-07
-1.97328352017e-07
-3.55540204964e-08
9.23054551473e-08
-1.36354349593e-07
-2.47854722591e-08
2.28536344e-08
-6.23028315476e-08
-1.10443941113e-08
0
-1.36484535592e-08
-2.28400271411e-09
0
0
0
0
0
0
0
0
0
0
0
0
0
0
0
0
0
0
0
0
9.73284449154e-09
-8.32165462847e-09
-9.36015913738e-10
1.04221312611e-07
-7.65054223443e-08
-1.11328703717e-08
2.83948408639e-07
-2.308613301e-07
-3.66324216983e-08
4.61554525187e-07
-4.01083544746e-07
-6.56679248857e-08
5.34345354854e-07
-4.92062267614e-07
-8.21860754247e-08
5.32960849294e-07
-5.00488532809e-07
-8.59828728893e-08
5.31576328726e-07
-4.86587193953e-07
-8.64464543661e-08
5.30191793152e-07
-4.72689786256e-07
-8.69071507581e-08
5.28807242619e-07
-4.58796309444e-07
-8.73649621087e-08
4.54917746441e-07
-4.10881880328e-07
-8.10502171514e-08
2.79777346946e-07
-2.99343916979e-07
-6.13823343742e-08
1.0312021889e-07
-1.61070231379e-07
-3.40128848545e-08
9.71082370924e-09
-5.26204188122e-08
-1.09658462929e-08
0
-5.77917477406e-09
-1.00468970537e-09
0
0
0
0
0
0
0
0
0
0
0
0
0
0
0
0
0
4.00669380728e-08
-2.6576224463e-08
-3.92642511182e-09
2.18782302258e-07
-1.47567314276e-07
-2.57490800099e-08
5.00804480144e-07
-3.76071387004e-07
-6.70438095529e-08
7.54646421651e-07
-6.03691410563e-07
-1.0685546927e-07
8.53498305897e-07
-7.1023882477e-07
-1.2694247528e-07
8.51725702898e-07
-7.13252137124e-07
-1.30805111228e-07
8.49953084138e-07
-6.93467596403e-07
-1.31560421581e-07
8.48180449826e-07
-6.73690055274e-07
-1.3231234207e-07
8.46407799948e-07
-6.53919513985e-07
-1.33060872786e-07
7.45815847563e-07
-5.87835549129e-07
-1.23963879902e-07
4.94441006916e-07
-4.39155563818e-07
-9.67859341726e-08
2.16561317466e-07
-2.52360300025e-07
-5.92788328509e-08
3.98707146588e-08
-9.74681974153e-08
-2.39348733583e-08
0
-1.80427934595e-08
-4.10619305176e-09
0
0
0
0
0
0
0
0
0
0
0
0
0
0
0
0
0
6.89949997646e-08
-3.52599073643e-08
-6.96181200685e-09
2.93303221902e-07
-1.79718632081e-07
-3.67990901738e-08
6.23902639056e-07
-4.36847853512e-07
-8.66240014548e-08
9.05174576847e-07
-6.83914896134e-07
-1.31751791643e-07
1.01332457527e-06
-7.94258242948e-07
-1.53099718608e-07
1.01258123946e-06
-7.94317538816e-07
-1.56727020801e-07
1.01183789833e-06
-7.72291827203e-07
-1.57751320554e-07
1.01109455199e-06
-7.50274448298e-07
-1.58774102768e-07
1.0103512006e-06
-7.28265402177e-07
-1.5979536739e-07
9.01412837715e-07
-6.55013780096e-07
-1.49047383853e-07
6.210371868e-07
-4.92407449103e-07
-1.17560244167e-07
2.92160007392e-07
-2.88675198321e-07
-7.46914259996e-08
6.88436293292e-08
-1.16813856559e-07
-3.3165281472e-08
0
-2.36718635626e-08
-7.12423904769e-09
0
0
0
0
0
0
0
0
0
0
0
0
0
0
0
0
0
7.65038157017e-08
-3.52693754673e-08
-7.91494699603e-09
3.08010921468e-07
-1.79853032741e-07
-3.99636551313e-08
6.40678986524e-07
-4.37270824264e-07
-9.18427968703e-08
9.19709453479e-07
-6.84467054886e-07
-1.38108640082e-07
1.02699501682e-06
-7.94514057202e-07
-1.59553224411e-07
1.02714130241e-06
-7.94310718697e-07
-1.63044100943e-07
1.02728758922e-06
-7.72283029733e-07
-1.64184997309e-07
1.02743387718e-06
-7.50263673514e-07
-1.65325893593e-07
1.02758016634e-06
-7.28252650029e-07
-1.66466789948e-07
9.20450990124e-07
-6.54738268745e-07
-1.55284398049e-07
6.41245251244e-07
-4.91833220483e-07
-1.22693277131e-07
3.08231990707e-07
-2.88232855253e-07
-7.85867857176e-08
7.65232461477e-08
-1.16670587903e-07
-3.56865291768e-08
0
-2.36614471322e-08
-8.03994264301e-09
0
0
0
0
0
0
0
0
0
0
0
0
0
0
0
0
0
7.47961397167e-08
-3.52788433174e-08
-7.88373536197e-09
3.01229003505e-07
-1.79987428648e-07
-3.98401413616e-08
6.26743895809e-07
-4.37693780704e-07
-9.15806465372e-08
8.99870229688e-07
-6.85019198985e-07
-1.37674254335e-07
1.00491046516e-06
-7.94769866983e-07
-1.58938932282e-07
1.00506091637e-06
-7.94303900362e-07
-1.62344171236e-07
1.00521136866e-06
-7.72274233976e-07
-1.63485067541e-07
1.00536182215e-06
-7.50252900432e-07
-1.64625963816e-07
1.00551227677e-06
-7.282398997e-07
-1.65766860136e-07
9.00632761173e-07
-6.54462765092e-07
-1.54556579846e-07
6.27325881482e-07
-4.91259007649e-07
-1.22005266507e-07
3.01455962106e-07
-2.87790526195e-07
-7.81087233177e-08
7.4816075031e-08
-1.1652732377e-07
-3.54807733865e-08
0
-2.36510308473e-08
-8.00242956603e-09
0
0
0
0
0
0
0
0
0
0
0
0
0
0
0
0
0
7.30884236415e-08
-3.52883109604e-08
-7.85248360479e-09
2.94446524544e-07
-1.80121819914e-07
-3.97161042556e-08
6.12806936275e-07
-4.38116723242e-07
-9.13171249506e-08
8.80027682873e-07
-6.855713284e-07
-1.3723826069e-07
9.82821960105e-07
-7.95025671846e-07
-1.58323921191e-07
9.82976576706e-07
-7.94297083775e-07
-1.61644241472e-07
9.83131194536e-07
-7.72265440084e-07
-1.62785137796e-07
9.8328581351e-07
-7.50242129079e-07
-1.63926034066e-07
9.83440433732e-07
-7.28227150966e-07
-1.65066930396e-07
8.80811209394e-07
-6.54187268824e-07
-1.53829480578e-07
6.13404643005e-07
-4.90684810587e-07
-1.21318863778e-07
2.94679372358e-07
-2.87348211009e-07
-7.76320320912e-08
7.31088638621e-08
-1.16384063958e-07
-3.52755408015e-08
0
-2.36406148024e-08
-7.9649566492e-09
0
0
0
0
0
0
0
0
0
0
0
0
0
0
0
0
0
7.13806673886e-08
-3.5297778286e-08
-7.82119166454e-09
2.87663484573e-07
-1.80256206383e-07
-3.95915438929e-08
5.98868107999e-07
-4.38539651399e-07
-9.10522321986e-08
8.60181813348e-07
-6.86123443458e-07
-1.36800659075e-07
9.60729501501e-07
-7.95281472377e-07
-1.57708191123e-07
9.6088828349e-07
-7.94290268833e-07
-1.60944311754e-07
9.61047066882e-07
-7.7225664793e-07
-1.62085208037e-07
9.61205851475e-07
-7.50231359572e-07
-1.63226104371e-07
9.61364636998e-07
-7.28214404029e-07
-1.64367000674e-07
8.6098633464e-07
-6.53911780223e-07
-1.5310310028e-07
5.99481535751e-07
-4.90110629327e-07
-1.20634068942e-07
2.87902221807e-07
-2.86905909703e-07
-7.71567121972e-08
7.14016125528e-08
-1.16240808765e-07
-3.50708316432e-08
0
-2.36301990096e-08
-7.92752392785e-09
0
0
0
0
0
0
0
0
0
0
0
0
0
0
0
0
0
6.09405141795e-08
-2.66089046675e-08
-6.81919752555e-09
2.55571565147e-07
-1.48162270362e-07
-3.61446619193e-08
5.38169217793e-07
-3.78098355701e-07
-8.51062966107e-08
7.76728275241e-07
-6.06441868821e-07
-1.2920947571e-07
8.69213401737e-07
-7.11530999679e-07
-1.49647050054e-07
8.70238755605e-07
-7.13213412559e-07
-1.52957398886e-07
8.71264116656e-07
-6.93418900269e-07
-1.54112065479e-07
8.72289484594e-07
-6.73631387688e-07
-1.55268249628e-07
8.73314859424e-07
-6.53850875123e-07
-1.56425951283e-07
7.81914063706e-07
-5.86435992183e-07
-1.45692773513e-07
5.42107167214e-07
-4.36287809631e-07
-1.14503299385e-07
2.57119004581e-07
-2.50235142896e-07
-7.26248019702e-08
6.11238378946e-08
-9.68314941949e-08
-3.22975573041e-08
0
-1.80068402554e-08
-6.97094873353e-09
0
0
0
0
0
0
0
0
0
0
0
0
0
0
0
0
0
3.36189232082e-08
-8.32604000291e-09
-3.81181528461e-09
1.76127101184e-07
-7.67892202334e-08
-2.50237094277e-08
3.90192152215e-07
-2.32133347046e-07
-6.50947409705e-08
5.77743097665e-07
-4.03063124177e-07
-1.03453575093e-07
6.51974970219e-07
-4.93039074064e-07
-1.22407660168e-07
6.53954431081e-07
-5.00448249397e-07
-1.2600463264e-07
6.55933906837e-07
-4.86539433555e-07
-1.27051391515e-07
6.57913397557e-07
-4.72634548866e-07
-1.28101540192e-07
6.5989290331e-07
-4.58733594986e-07
-1.29155078646e-07
5.87603069771e-07
-4.09804025616e-07
-1.2026285429e-07
3.97291176959e-07
-2.97262492902e-07
-9.3602252165e-08
1.78590021394e-07
-1.59726372943e-07
-5.72631846333e-08
3.38286462562e-08
-5.23127848479e-08
-2.31705886684e-08
0
-5.77435024632e-09
-3.99620395871e-09
0
0
0
0
0
0
0
0
0
0
0
0
0
0
0
0
0
7.98542359152e-09
0
-9.02616347908e-10
8.03086218967e-08
-1.87825528699e-08
-1.07191244767e-08
2.08473239689e-07
-8.50574119136e-08
-3.52110396952e-08
3.2876846957e-07
-1.76617675739e-07
-6.29080765108e-08
3.78551293536e-07
-2.3365212195e-07
-7.84146465079e-08
3.80038180134e-07
-2.43122429886e-07
-8.19972180736e-08
3.81525079977e-07
-2.36348745001e-07
-8.27091957597e-08
3.8301199279e-07
-2.29576237983e-07
-8.34240584418e-08
3.84498918961e-07
-2.22804909165e-07
-8.41418061945e-08
3.35896263993e-07
-1.96893449435e-07
-7.8077056708e-08
2.12950426452e-07
-1.35622347031e-07
-5.89925638719e-08
8.14828023988e-08
-6.19457987325e-08
-3.26781645301e-08
8.00876829968e-09
-1.36167386509e-08
-1.05644982811e-08
0
0
-9.72050703033e-10
0
0
0
0
0
0
0
0
0
0
0
0
0
0
0
0
0
0
0
0
1.77145710961e-08
0
-2.09198975018e-09
6.80874778322e-08
-7.91212147912e-09
-1.06447312414e-08
1.26387154446e-07
-3.24357426377e-08
-2.41552558829e-08
1.52099871233e-07
-5.54414635623e-08
-3.36532502403e-08
1.52571896913e-07
-6.10653610689e-08
-3.62895209641e-08
1.53043926813e-07
-5.93582985365e-08
-3.6597592973e-08
1.53515960936e-07
-5.76513200465e-08
-3.69067636326e-08
1.53987999258e-07
-5.59444258556e-08
-3.7217032942e-08
1.28479779363e-07
-4.75056645976e-08
-3.40218789133e-08
6.9090424711e-08
-2.61300576964e-08
-2.36868071685e-08
1.78170358706e-08
-6.18057876207e-09
-1.05605659836e-08
0
0
-2.18934420883e-09
0
0
0
0
0
0
0
0
0
0
0
0
0
0
0
0
0
0
0
0
0
0
0
0
0
0
7.57691009908e-09
0
-9.07971962754e-10
2.36034106649e-08
0
-3.81566642444e-09
3.0977007665e-08
0
-6.70735561789e-09
3.1010675744e-08
0
-7.63580830737e-09
3.10443440517e-08
0
-7.69449121129e-09
3.10780125905e-08
0
-7.75325832334e-09
3.11116812396e-08
0
-7.81210957562e-09
2.37195793211e-08
0
-6.87419530496e-09
7.59248614621e-09
0
-3.90005286071e-09
0
0
-9.50363595841e-10
0
0
0
0
0
0
0
0
0
0
0
0
0
0
0
0
0
0
0
0
0
0
0
0
0
0
0
0
0
0
0
0
0
0
0
0
0
0
0
0
0
0
0
0
0
0
0
0
0
0
0
0
0
0
0
0
0
0
0
0
0
0
0
0
0
0
0
0
0
0
0
0
0
0
0
0
0
0
0
0
0
0
0
0
0
0
0
0
0
0
0
0
0
0
0
0
0
0
0
0
0
0
0
0
0
0
0
0
0
0
0
0
0
0
0
0
0
0
0
0
0
0
0
0
0
0
0
0
0
0
0
0
0
0
0
0
0
0
0
0
0
0
0
0
0
0
0
0
0
0
0
0
0
0
0
0
0
0
0
0
0
0
0
0
0
0
0
0
0
0
0
0
0
0
0
0
0
0
0
0
0
0
0
0
0
0
0
0
0
0
0
0
0
0
0
0
0
0
0
0
0
0
0
0
0
0
0
0
0
0
0
0
0
0
0
0
0
0
0
0
0
0
0
0
0
0
0
0
0
0
0
0
0
0
0
0
0
0
0
0
0
0
0
0
0
0
0
0
0
0
0
0
0
0
0
0
0
0
0
0
0
0
0
0
0
0
0
0
0
0
0
0
0
0
0
0
0
0
0
0
0
0
0
0
0
0
0
0
0
0
0
0
0
0
0
0
0
0
0
0
0
0
0
0
1.03509809713e-08
-7.90913926903e-09
-9.61332469486e-10
3.29489293466e-08
-3.2388452038e-08
-4.03977408282e-09
4.36104923302e-08
-5.54192637858e-08
-7.11420265054e-09
4.35787035586e-08
-6.11022557103e-08
-8.10178217646e-09
4.35469145284e-08
-5.93954539836e-08
-8.15318061302e-09
4.35151253252e-08
-5.76887363998e-08
-8.20449486676e-09
4.34833359572e-08
-5.59821030463e-08
-8.25572495155e-09
3.28392452368e-08
-4.7593410114e-08
-7.26462422629e-09
1.03362745271e-08
-2.62159413106e-08
-4.12527800257e-09
0
-6.19248750686e-09
-1.00414114067e-09
0
0
0
0
0
0
0
0
0
0
0
0
0
0
0
0
0
0
0
0
0
0
0
6.12608741732e-10
-5.02206379662e-10
-5.69603075738e-11
4.28615339035e-08
-3.4854585046e-08
-4.07937659585e-09
1.43541369526e-07
-1.37415959858e-07
-1.65309097013e-08
2.62648191238e-07
-2.69251070681e-07
-3.34860097621e-08
3.13064434328e-07
-3.48314253644e-07
-4.48250594235e-08
3.12140968073e-07
-3.59466973073e-07
-4.7824317744e-08
3.11217486055e-07
-3.4946375619e-07
-4.806365298e-08
3.10293988235e-07
-3.39462475383e-07
-4.8301052113e-08
3.09370474614e-07
-3.2946313061e-07
-4.85365152686e-08
2.58475757663e-07
-2.93028840194e-07
-4.46546378879e-08
1.4142137943e-07
-2.05405131022e-07
-3.23069072703e-08
4.25437830797e-08
-9.91140783914e-08
-1.61010002183e-08
6.12527601894e-10
-2.49039077079e-08
-4.17781667941e-09
0
-3.52241346673e-10
-6.17484365622e-11
0
0
0
0
0
0
0
0
0
0
0
0
0
0
0
0
0
4.26626752304e-08
-3.52491457774e-08
-4.03757620737e-09
2.32827428554e-07
-1.90990106509e-07
-2.41798286395e-08
5.42458765187e-07
-4.72179229291e-07
-6.22376905744e-08
8.23836214651e-07
-7.37941242495e-07
-9.99690807886e-08
9.32564611524e-07
-8.54879462773e-07
-1.19456015655e-07
9.28424703368e-07
-8.54391347367e-07
-1.23271393126e-07
9.24284726076e-07
-8.30667118578e-07
-1.23804472257e-07
9.20144679481e-07
-8.06950683182e-07
-1.24330595822e-07
9.16004563769e-07
-7.83242041161e-07
-1.24849763817e-07
8.03279417485e-07
-7.05212189675e-07
-1.16239140179e-07
5.27833685295e-07
-5.31875098137e-07
-9.06056886165e-08
2.27911523197e-07
-3.1242191867e-07
-5.52119307731e-08
4.22815743622e-08
-1.2442906305e-07
-2.25493059134e-08
0
-2.37197780444e-08
-4.18414189503e-09
0
0
0
0
0
0
0
0
0
0
0
0
0
0
9.74134743182e-09
-8.53329833828e-09
-9.29423980432e-10
1.69441104391e-07
-1.18930290865e-07
-1.65378705042e-08
5.82659430557e-07
-4.47835012168e-07
-6.33140196673e-08
1.11496408098e-06
-9.05432853221e-07
-1.28678193954e-07
1.54284117525e-06
-1.26678340287e-06
-1.83235552411e-07
1.69973681019e-06
-1.38899511702e-06
-2.06419046815e-07
1.69207383797e-06
-1.36387759171e-06
-2.09044789125e-07
1.68441076861e-06
-1.32603655998e-06
-2.09972058257e-07
1.67674760189e-06
-1.28821195338e-06
-2.10887811605e-07
1.66908433814e-06
-1.25040377179e-06
-2.11792049229e-07
1.50313929343e-06
-1.12770888359e-06
-1.97435422282e-07
1.08219423336e-06
-8.71609653665e-07
-1.57700799109e-07
5.67033389904e-07
-5.57621087681e-07
-1.05208894455e-07
1.66634838744e-07
-2.67370390777e-07
-5.34475695241e-08
9.71564525388e-09
-7.45041170709e-08
-1.57970617518e-08
0
-5.57954406075e-09
-1.01121487886e-09
0
0
0
0
0
0
0
0
0
0
0
4.01111634515e-08
-2.7256252734e-08
-3.89911746744e-09
3.3591263021e-07
-2.19367398829e-07
-3.43962607259e-08
9.26583751179e-07
-6.85217650762e-07
-1.0547371952e-07
1.5959906771e-06
-1.25852606459e-06
-1.91020396022e-07
2.10573474496e-06
-1.67156634712e-06
-2.55986840907e-07
2.28927630494e-06
-1.78234875037e-06
-2.79184325365e-07
2.28163356246e-06
-1.73329967695e-06
-2.79713926844e-07
2.27399075063e-06
-1.68520983249e-06
-2.81167823155e-07
2.26634786929e-06
-1.63714398459e-06
-2.82610759178e-07
2.25870491836e-06
-1.58910213334e-06
-2.84042734844e-07
2.06529012744e-06
-1.43202679293e-06
-2.64585077899e-07
1.56015057703e-06
-1.11521664612e-06
-2.1289702796e-07
9.06584873254e-07
-7.38405108167e-07
-1.47374962342e-07
3.30668788873e-07
-3.85372112222e-07
-8.26438120431e-08
3.98821345336e-08
-1.29930221306e-07
-3.03874505219e-08
0
-1.7426502817e-08
-4.1326509368e-09
0
0
0
0
0
0
0
0
0
0
0
6.90564157361e-08
-3.61644314384e-08
-6.91284228185e-09
4.3924746941e-07
-2.63040013306e-07
-4.73986757685e-08
1.09103049155e-06
-7.81037579818e-07
-1.31716666815e-07
1.78941412016e-06
-1.39470996734e-06
-2.27298164064e-07
2.3083377564e-06
-1.82322836087e-06
-2.96467381535e-07
2.49628938531e-06
-1.92625230525e-06
-3.18440587085e-07
2.49334538214e-06
-1.8668507894e-06
-3.17502132005e-07
2.49040135851e-06
-1.81504726847e-06
-3.19520071065e-07
2.48745731432e-06
-1.76327071112e-06
-3.21533526048e-07
2.48451324936e-06
-1.71152111729e-06
-3.23542496936e-07
2.29261060808e-06
-1.5410036365e-06
-3.012924395e-07
1.77504595407e-06
-1.20105809308e-06
-2.42915448207e-07
1.08248483487e-06
-8.02179047468e-07
-1.70459640769e-07
4.36652192613e-07
-4.28809569906e-07