/*--------------------------------*- C++ -*----------------------------------*\
| =========                 |                                                 |
| \\      /  F ield         | OpenFOAM: The Open Source CFD Toolbox           |
|  \\    /   O peration     | Version:  3.0.1                                 |
|   \\  /    A nd           | Web:      www.OpenFOAM.org                      |
|    \\/     M anipulation  |                                                 |
\*---------------------------------------------------------------------------*/
FoamFile
{
    version     2.0;
    format      ascii;
    class       surfaceScalarField;
    location    "8.6";
    object      phi;
}
// * * * * * * * * * * * * * * * * * * * * * * * * * * * * * * * * * * * * * //

dimensions      [0 3 -1 0 0 0 0];

internalField   nonuniform List<scalar> 
22672
(
5.18718337603e-07
3.30540256768e-07
-8.49257551613e-07
2.03268913318e-06
-7.01975514418e-08
-1.44377205077e-06
3.802831987e-06
-2.15212690399e-07
-1.55492887562e-06
5.28415835596e-06
-1.88492894586e-07
-1.29283209759e-06
6.16748440509e-06
3.38062984578e-08
-9.1713089048e-07
6.33489042438e-06
3.59309980677e-07
-5.26714492489e-07
5.86917306701e-06
6.75962201719e-07
-2.10243338439e-07
4.85531066497e-06
9.66107346134e-07
4.77564939221e-08
3.45466937393e-06
1.17657056752e-06
2.24072024551e-07
1.86697166898e-06
1.28507417535e-06
3.0262463481e-07
2.81183548635e-07
1.28919313374e-06
2.96595858416e-07
-1.12795435928e-06
1.19191429881e-06
2.17224238178e-07
-2.21171941534e-06
1.00805362585e-06
7.57118373887e-08
-2.85574495493e-06
7.5872219737e-07
-1.14696425005e-07
-3.01092334218e-06
4.92014174483e-07
-3.36835663647e-07
-2.63750879505e-06
2.3196043104e-07
-6.0537489442e-07
-1.83574053765e-06
7.26717864283e-08
-8.74439942512e-07
-8.32941592986e-07
6.91679536699e-08
-1.07196674412e-06
-3.5200816937e-08
1.85987585354e-07
-9.83728148775e-07
4.77689302376e-07
-5.12889972721e-07
1.70894614749e-07
1.53930956009e-06
-1.37966276313e-06
2.0714895584e-06
1.48443903686e-06
-3.45523023684e-06
4.2294324409e-06
1.57037354018e-06
-3.94352771416e-06
5.88299482974e-06
1.84074607719e-06
-3.68279985891e-06
6.79650063433e-06
2.30188905854e-06
-3.18158697204e-06
6.91468454916e-06
2.86804948066e-06
-2.6269217688e-06
6.32725095991e-06
3.3957309934e-06
-2.13233356459e-06
5.17587502847e-06
3.84585745947e-06
-1.72837262773e-06
3.63768748691e-06
4.16831133588e-06
-1.45355183169e-06
1.91276876231e-06
4.33877631525e-06
-1.32878224039e-06
1.96999555833e-07
4.35334751283e-06
-1.34838425347e-06
-1.33192995801e-06
4.21722922562e-06
-1.49638475328e-06
-2.52355764345e-06
3.94557278492e-06
-1.7458910448e-06
-3.25776256433e-06
3.56513896335e-06
-2.07221159185e-06
-3.44797103679e-06
3.1244888887e-06
-2.44226609311e-06
-3.04663816724e-06
2.6616052643e-06
-2.8309775873e-06
-2.09194904688e-06
2.27897403095e-06
-3.16099122752e-06
-7.71147158211e-07
2.04520781922e-06
-3.29684156737e-06
3.19201103572e-07
1.93286540018e-06
-2.83722584665e-06
1.87802322138e-06
-1.08113266533e-06
4.89697308099e-08
2.97684696086e-06
-1.48650598839e-06
2.19540329382e-06
3.29613828206e-06
-3.95813153035e-06
4.55438483738e-06
3.56705028096e-06
-4.35565689384e-06
6.28497166874e-06
4.01022695306e-06
-3.90006619929e-06
7.18160971856e-06
4.62367695287e-06
-3.21842433051e-06
7.24514984564e-06
5.32742119413e-06
-2.52291016215e-06
6.58582364665e-06
5.98053995083e-06
-1.92548108191e-06
5.35918259955e-06
6.53546382881e-06
-1.46296372769e-06
3.74884786908e-06
6.9409582686e-06
-1.16231076785e-06
1.95607708078e-06
7.16262419162e-06
-1.03107587522e-06
1.72735719212e-07
7.19713641332e-06
-1.06044658149e-06
-1.42282293832e-06
7.04800926393e-06
-1.23522067986e-06
-2.68422844715e-06
6.73678228048e-06
-1.52980351173e-06
-3.4848823694e-06
6.29341623842e-06
-1.92762304821e-06
-3.72248578371e-06
5.76288936181e-06
-2.40079685559e-06
-3.32932434961e-06
5.18764012895e-06
-2.91919612938e-06
-2.31315501375e-06
4.66525575098e-06
-3.40245087022e-06
-8.34917216674e-07
4.25821671648e-06
-3.6912464691e-06
4.45027973525e-07
3.9475695751e-06
-3.29464910865e-06
3.52346410103e-06
-1.20041274227e-06
7.02005887172e-08
4.16632634162e-06
-1.25967888482e-06
2.47312879084e-06
4.65933968927e-06
-3.76612839324e-06
5.01745155287e-06
4.99970638658e-06
-3.97697752819e-06
6.82294829572e-06
5.5089717188e-06
-3.30424003525e-06
7.70440309361e-06
6.17621562593e-06
-2.43399187499e-06
7.69692907379e-06
6.92895662895e-06
-1.59405973985e-06
6.94091074564e-06
7.63071403426e-06
-8.94154070849e-07
5.61554911933e-06
8.23315432659e-06
-3.72327259998e-07
3.90626276729e-06
8.67812622209e-06
-2.78801409913e-08
2.02207787731e-06
8.93313072777e-06
1.13679603762e-07
1.47436370644e-07
8.99064694201e-06
8.11319860084e-08
-1.54521933262e-06
8.8572007189e-06
-1.16534985352e-07
-2.90557390265e-06
8.55192013558e-06
-4.54782731225e-07
-3.80270454001e-06
8.10614640556e-06
-9.15599137685e-07
-4.11358959627e-06
7.56472011831e-06
-1.49094540831e-06
-3.74560572918e-06
6.96837433207e-06
-2.14871781904e-06
-2.67872493282e-06
6.40650727571e-06
-2.80813206721e-06
-1.05898641536e-06
5.9324384913e-06
-3.29396001533e-06
4.22922196042e-07
5.53611312047e-06
-3.07045186196e-06
4.92215282391e-06
-9.75766339711e-07
2.66077660412e-07
4.84290694753e-06
-9.42657260112e-07
2.9249937672e-06
5.3595445409e-06
-3.35911982361e-06
5.63231855089e-06
5.6882122865e-06
-3.39582941442e-06
7.50077261691e-06
6.17609405599e-06
-2.53557498403e-06
8.35926366536e-06
6.81270306953e-06
-1.49497693385e-06
8.27225579487e-06
7.53364135741e-06
-5.1767520591e-07
7.40411683364e-06
8.21113257347e-06
2.87722096756e-07
5.94946333194e-06
8.8039122497e-06
8.83897194724e-07
4.11722469606e-06
9.25190407785e-06
1.25846226268e-06
2.11135924951e-06
9.51901254554e-06
1.4199849221e-06
1.17130011599e-07
9.59688033412e-06
1.38799692132e-06
-1.69968001954e-06
9.49366080913e-06
1.18035079864e-06
-3.18816289291e-06
9.22923937602e-06
8.11164297428e-07
-4.20104783486e-06
8.83478669964e-06
2.84245160904e-07
-4.60259924898e-06
8.3513024457e-06
-3.85030501577e-07
-4.27805373638e-06
7.81380273904e-06
-1.16997356087e-06
-3.18135585374e-06
7.29920790843e-06
-1.98939817369e-06
-1.44513750155e-06
6.84856657549e-06
-2.6523460931e-06
2.35140857312e-07
6.45540236421e-06
-2.59956725646e-06
5.78854103013e-06
-6.31247129404e-07
5.73818566138e-07
4.88826392166e-06
-6.19174625039e-07
3.47165689543e-06
5.36199592779e-06
-2.90028867607e-06
6.3252789649e-06
5.63727346502e-06
-2.80268206439e-06
8.25087211999e-06
6.04998095903e-06
-1.79947871111e-06
9.08525113838e-06
6.60052059136e-06
-6.22195040249e-07
8.91466587444e-06
7.2293673433e-06
4.74860885589e-07
7.93107763396e-06
7.83151451025e-06
1.36320794936e-06
6.34104514604e-06
8.37062660981e-06
2.02331973475e-06
4.36724400396e-06
8.78677686444e-06
2.43892985442e-06
2.2206866622e-06
9.04508139335e-06
2.62048983408e-06
8.78410342885e-08
9.1373987969e-06
2.59232832001e-06
-1.86734366974e-06
9.07455888491e-06
2.37428759557e-06
-3.49081672869e-06
8.87374056261e-06
1.97897266906e-06
-4.62762928285e-06
8.56480420669e-06
1.40679570297e-06
-5.13015743131e-06
8.18395513472e-06
6.69876010634e-07
-4.858148308e-06
7.75977438531e-06
-2.17980286801e-07
-3.74710468715e-06
7.34650499946e-06
-1.15834026914e-06
-1.91764281022e-06
6.97708593164e-06
-1.95798081181e-06
-5.75209344762e-08
6.63962697845e-06
-2.04434608091e-06
5.98600618268e-06
-2.54985827488e-07
8.74384188284e-07
4.37073226873e-06
-3.56851720599e-07
3.98294836244e-06
4.73930875918e-06
-2.48587607115e-06
6.96892312554e-06
4.94368690175e-06
-2.29238711624e-06
8.95055096109e-06
5.25717506862e-06
-1.18882068895e-06
9.76792354794e-06
5.68900774067e-06
9.41416833404e-08
9.52925248651e-06
6.19434847639e-06
1.27369146783e-06
8.44323318209e-06
6.68602101163e-06
2.23151439801e-06
6.72792441678e-06
7.13732739288e-06
2.94860956301e-06
4.61957900645e-06
7.49352949177e-06
3.40159428745e-06
2.33900960542e-06
7.72514177593e-06
3.60051040061e-06
7.60833274714e-08
7.82668373582e-06
3.57364257326e-06
-2.00244995255e-06
7.80894537088e-06
3.34414787371e-06
-3.7441943932e-06
7.6876891119e-06
2.92779682395e-06
-4.98870852158e-06
7.48619966223e-06
2.32311947485e-06
-5.57814540136e-06
7.232589717e-06
1.54080299089e-06
-5.3599283018e-06
6.94669001719e-06
5.94867877564e-07
-4.24593418539e-06
6.66579057293e-06
-4.33279143233e-07
-2.34755227787e-06
6.40429253168e-06
-1.32558800402e-06
-3.29604653141e-07
6.14279594815e-06
-1.5211161164e-06
5.58799377173e-06
6.84080607393e-08
1.1511263922e-06
3.36247453693e-06
-1.4286795127e-07
4.42026578347e-06
3.61274490469e-06
-2.14257471428e-06
7.51391662934e-06
3.74525327404e-06
-1.8952162447e-06
9.5461696556e-06
3.95492943303e-06
-7.30006240225e-07
1.0359367169e-05
4.25579802829e-06
6.20013519135e-07
1.00723433472e-05
4.61795337579e-06
1.8634203732e-06
8.90522242771e-06
4.97688409336e-06
2.87625936166e-06
7.08313117973e-06
5.31432399385e-06
3.64509618299e-06
4.85659859059e-06
5.58764002983e-06
4.1324235444e-06
2.46106289418e-06
5.77700322882e-06
4.3436756524e-06
9.10035803971e-08
5.88194417678e-06
4.31480017122e-06
-2.09193771222e-06
5.91761033682e-06
4.07427750267e-06
-3.92990622396e-06
5.88664264482e-06
3.63901603017e-06
-5.25954835466e-06
5.80486417962e-06
3.01097854402e-06
-5.9179437106e-06
5.68991407412e-06
2.20107181793e-06
-5.74433567081e-06
5.55353999321e-06
1.21954270557e-06
-4.63679931842e-06
5.41176302842e-06
1.46491832391e-07
-2.6962847636e-06
5.26618821145e-06
-8.02409655126e-07
-5.7568660834e-07
5.0913669221e-06
-1.06916858623e-06
4.66339606234e-06
3.48911443095e-07
1.35584364514e-06
2.01303364219e-06
-6.40214453129e-09
4.73502036583e-06
2.13712410619e-06
-1.9035552092e-06
7.90818170845e-06
2.20383823467e-06
-1.63174544105e-06
9.98528753799e-06
2.31822133038e-06
-4.40396687942e-07
1.08010108666e-05
2.48635275899e-06
9.53723151567e-07
1.04851549948e-05
2.69750291409e-06
2.23630768222e-06
9.26288516715e-06
2.91321782256e-06
3.28593753549e-06
7.36179614731e-06
3.12340514278e-06
4.0920093435e-06
5.05002546164e-06
3.30733374297e-06
4.59207843283e-06
2.56834865806e-06
3.45400460182e-06
4.80467684024e-06
1.21371608073e-07
3.56235266718e-06
4.76656989179e-06
-2.11749558699e-06
3.64244434616e-06
4.51403442362e-06
-4.01373961205e-06
3.70250333724e-06
4.08038446585e-06
-5.39919405606e-06
3.74600710709e-06
3.44431253888e-06
-6.10653782339e-06
3.76971636076e-06
2.62754239093e-06
-5.97025125403e-06
3.77976330588e-06
1.63749092174e-06
-4.8792260669e-06
3.7728990075e-06
5.47839543078e-07
-2.92582759317e-06
3.73857438081e-06
-4.25784007695e-07
-7.54459036373e-07
3.64766358905e-06
-7.27664634273e-07
3.36508544399e-06
5.43851948089e-07
1.46355307497e-06
4.84821637444e-07
6.46594445203e-08
4.90249599805e-06
4.8829534197e-07
-1.79011354213e-06
8.12243984561e-06
4.95192609614e-07
-1.51129746113e-06
1.02287418864e-05
5.1847764375e-07
-3.06557420598e-07
1.10530724643e-05
5.59331742151e-07
1.10269154186e-06
1.07279423299e-05
6.18081754312e-07
2.40455253711e-06
9.48106108175e-06
6.88810422079e-07
3.47128998871e-06
7.54090449237e-06
7.70693889609e-07
4.29286923433e-06
5.19309298361e-06
8.58564379657e-07
4.7965822735e-06
2.67520907348e-06
9.58847810483e-07
5.01304207709e-06
1.99721799601e-07
1.07403719164e-06
4.96380407239e-06
-2.06165850212e-06
1.20683851353e-06
4.69698738484e-06
-3.97914808595e-06
1.35902270037e-06
4.26097138292e-06
-5.38714952547e-06
1.51955049976e-06
3.63445910774e-06
-6.12125618499e-06
1.67668278933e-06
2.82714118238e-06
-6.01397362555e-06
1.82433239978e-06
1.84814918801e-06
-4.94969629548e-06
1.94256904561e-06
7.66053370917e-07
-3.01846677305e-06
2.00876751772e-06
-2.014220034e-07
-8.4494631028e-07
2.00339259373e-06
-5.2924886673e-07
1.87207025997e-06
6.48069237096e-07
1.4725530224e-06
-1.03780515548e-06
5.00742153559e-08
4.9170445013e-06
-1.15130763214e-06
-1.80488796151e-06
8.14665911623e-06
-1.2031016889e-06
-1.53131963531e-06
1.02650467803e-05
-1.27136004931e-06
-3.28549126127e-07
1.11012673015e-05
-1.35839722034e-06
1.08150944759e-06
1.07863846575e-05
-1.45248213263e-06
2.3854476725e-06
9.54851716884e-06
-1.52557319285e-06
3.45225234223e-06
7.61731673448e-06
-1.56966871626e-06
4.27156433573e-06
5.2804546174e-06
-1.57363180818e-06
4.7690596198e-06
2.77810625216e-06
-1.51591074342e-06
4.97710822105e-06
3.22073627822e-07
-1.39156225759e-06
4.92163333693e-06
-1.92063346813e-06
-1.20543299197e-06
4.65497980604e-06
-3.82219822848e-06
-9.64442555103e-07
4.22503114395e-06
-5.2222913903e-06
-6.94415202618e-07
3.61405989991e-06
-5.9619197048e-06
-4.09575514624e-07
2.82588754989e-06
-5.87575401952e-06
-1.31286597457e-07
1.86945413437e-06
-4.84860522364e-06
1.05522482895e-07
8.09898483872e-07
-2.96936966772e-06
2.68183754901e-07
-1.38651165704e-07
-8.43335888388e-07
3.46229832841e-07
-4.68870456525e-07
3.62950568769e-07
6.6578412771e-07
1.38242943262e-06
-2.38302934732e-06
-3.72048393591e-08
4.77898394754e-06
-2.60731638479e-06
-1.94054526463e-06
7.9814527463e-06
-2.72127687772e-06
-1.68429298302e-06
1.00953280856e-05
-2.88538387139e-06
-4.99850738423e-07
1.09471874363e-05
-3.10722456556e-06
8.96968921993e-07
1.06626156797e-05
-3.35449145662e-06
2.1865821312e-06
9.4680202774e-06
-3.56918780968e-06
3.23821115709e-06
7.59449467172e-06
-3.73616743093e-06
4.04002550832e-06
5.31477581009e-06
-3.81913791598e-06
4.52522617304e-06
2.87700356244e-06
-3.79674919658e-06
4.71861189089e-06
4.85598783925e-07
-3.66552538382e-06
4.66536905855e-06
-1.69777669189e-06
-3.43439173543e-06
4.41233531879e-06
-3.54772598596e-06
-3.11526930853e-06
4.00077707672e-06
-4.91278769e-06
-2.73622549265e-06
3.40687293792e-06
-5.63662903027e-06
-2.32979747323e-06
2.64406414512e-06
-5.56185076307e-06
-1.92444734273e-06
1.7183832198e-06
-4.58154156468e-06
-1.56837332877e-06
6.93587250244e-07
-2.7795215768e-06
-1.30618391541e-06
-2.27651774504e-07
-7.49140150848e-07
-1.14668773601e-06
-5.37463389982e-07
-9.96440271758e-07
6.10250939266e-07
1.20003628267e-06
-3.39721946983e-06
-1.85845775585e-07
4.49695048237e-06
-3.72062729573e-06
-2.18360280956e-06
7.63977890112e-06
-3.90183953464e-06
-1.96226516307e-06
9.73306678614e-06
-4.17066507864e-06
-8.08005941076e-07
1.06073228912e-05
-4.52641901058e-06
5.44939209164e-07
1.03738046356e-05
-4.92229565913e-06
1.80132343308e-06
9.25402252445e-06
-5.27146068387e-06
2.82205602989e-06
7.47823344225e-06
-5.55145933222e-06
3.59108206086e-06
5.30435188438e-06
-5.71202671765e-06
4.06677143681e-06
2.97594328619e-06
-5.72641731996e-06
4.25807777228e-06
6.88796594694e-07
-5.59123598395e-06
4.21285829676e-06
-1.40864247858e-06
-5.31691394408e-06
3.97996222774e-06
-3.17787814466e-06
-4.92563097256e-06
3.57959820515e-06
-4.47834947982e-06
-4.44943340525e-06
3.01368004125e-06
-5.16468167957e-06
-3.92884889275e-06
2.28538432184e-06
-5.09036538062e-06
-3.40171933008e-06
1.40295629324e-06
-4.16009420093e-06
-2.929154237e-06
4.30510232616e-07
-2.45976459084e-06
-2.56620868261e-06
-4.40304434149e-07
-5.71196171432e-07
-2.32743977894e-06
-7.07816051993e-07
-2.06132014108e-06
4.93683844501e-07
9.46768868493e-07
-3.94962257909e-06
-3.9436536922e-07
4.0950216389e-06
-4.35869304217e-06
-2.51018654047e-06
7.14878504271e-06
-4.60515164129e-06
-2.35045070369e-06
9.21483933677e-06
-4.97326957112e-06
-1.26344908402e-06
1.01171887071e-05
-5.452977178e-06
2.42096305455e-08
9.95486026085e-06
-5.98025576942e-06
1.22028947674e-06
8.93647285888e-06
-6.44710088026e-06
2.19402856654e-06
7.28594169732e-06
-6.82088205515e-06
2.91995486185e-06
5.24999494407e-06
-7.04652461632e-06
3.3704456051e-06
3.05828378443e-06
-7.09382112417e-06
3.55911586788e-06
8.99958793891e-07
-6.9595457142e-06
3.52663556009e-06
-1.07357169016e-06
-6.65773256618e-06
3.31434987205e-06
-2.73191410519e-06
-6.21260389346e-06
2.94531602339e-06
-3.942566387e-06
-5.65963377617e-06
2.42085325808e-06
-4.57103201291e-06
-5.04376368786e-06
1.74338094075e-06
-4.4852256859e-06
-4.41204651022e-06
9.24521283264e-07
-3.60936019602e-06
-3.83794198783e-06
3.29225973181e-08
-2.03167442938e-06
-3.38344182457e-06
-7.60452381098e-07
-3.24643868617e-07
-3.07141338926e-06
-9.63056794669e-07
-2.7102372385e-06
3.24273262099e-07
6.70399094086e-07
-3.98085140184e-06
-6.39169859065e-07
3.62221458673e-06
-4.42184984775e-06
-2.88865818121e-06
6.55911078775e-06
-4.7153411315e-06
-2.82670610258e-06
8.58832575515e-06
-5.15777872067e-06
-1.84470509634e-06
9.52970021969e-06
-5.72892490747e-06
-6.65425910891e-07
9.45668946484e-06
-6.35881453184e-06
4.51570411764e-07
8.56052818677e-06
-6.91431432732e-06
1.36337564679e-06
7.05348456234e-06
-7.35610670199e-06
2.04226917706e-06
5.16919791462e-06
-7.63017797044e-06
2.4679408556e-06
3.12808738265e-06
-7.7058524667e-06
2.65314265088e-06
1.11575222328e-06
-7.58102097253e-06
2.63381110296e-06
-7.1845019982e-07
-7.27023392427e-06
2.44670437121e-06
-2.24801091193e-06
-6.79698364387e-06
2.11394095956e-06
-3.34929601882e-06
-6.19857850292e-06
1.64023024305e-06
-3.90248543838e-06
-5.52050160558e-06
1.02992766386e-06
-3.79645071395e-06
-4.81689140362e-06
2.98810413879e-07
-2.97466249386e-06
-4.171095161e-06
-4.88634886453e-07
-1.53915354233e-06
-3.65323494661e-06
-1.16571575523e-06
-5.31649254129e-08
-3.28834308646e-06
-1.26905893052e-06
-2.8826660114e-06
1.19263776724e-07
3.92489550525e-07
-3.44012324658e-06
-9.33217258111e-07
3.1190011665e-06
-3.85348535726e-06
-3.29487556246e-06
5.92019547611e-06
-4.15375400492e-06
-3.36278079312e-06
7.90655612394e-06
-4.61786588495e-06
-2.52627273242e-06
8.88955667274e-06
-5.2259399207e-06
-1.48598468892e-06
8.91843315901e-06
-5.90031265434e-06
-4.87377457619e-07
8.1569787023e-06
-6.499122018e-06
3.46263064371e-07
6.80386773587e-06
-6.9739910993e-06
9.70996242422e-07
5.07782707767e-06
-7.27436120523e-06
1.37022469226e-06
3.19140945601e-06
-7.37236737728e-06
1.55293322372e-06
1.32861119041e-06
-7.26700367367e-06
1.54878153657e-06
-3.60641174592e-07
-6.9715284428e-06
1.39054733085e-06
-1.75404823584e-06
-6.50478993948e-06
1.10121369119e-06
-2.73614117193e-06
-5.90802122521e-06
6.91535894772e-07
-3.20470243532e-06
-5.2217633833e-06
1.69823193783e-07
-3.07223346119e-06
-4.50345732541e-06
-4.45902975286e-07
-2.30740188103e-06
-3.84321801444e-06
-1.0927087244e-06
-1.02341368823e-06
-3.31650885814e-06
-1.62071435523e-06
2.28755735957e-07
-2.94309313169e-06
-1.59741952939e-06
-2.54087486267e-06
-1.13035563535e-07
2.19294544056e-07
-2.43507947694e-06
-1.22433781881e-06
2.70357810936e-06
-2.69044477139e-06
-3.64732355394e-06
5.34720037971e-06
-2.92251407895e-06
-3.87486149803e-06
7.27843905759e-06
-3.32599105155e-06
-3.22311270395e-06
8.29557036768e-06
-3.88930230757e-06
-2.35376802121e-06
8.4183795393e-06
-4.52979245911e-06
-1.4933284102e-06
7.78449500571e-06
-5.10438109859e-06
-7.60855429333e-07
6.575375756e-06
-5.56250855286e-06
-2.02362396573e-07
4.98885620476e-06
-5.86156608197e-06
1.73725224114e-07
3.23804412479e-06
-5.97330700947e-06
3.51752371246e-07
1.50735154712e-06
-5.8987813478e-06
3.62470757931e-07
-5.01308457363e-08
-5.64963807306e-06
2.35592377755e-07
-1.31679146499e-06
-5.23924997542e-06
1.12087414902e-09
-2.18230561297e-06
-4.70187878504e-06
-3.40628185092e-07
-2.56909360174e-06
-4.0814530622e-06
-7.53522313808e-07
-2.41276974695e-06
-3.43172332411e-06
-1.2280579104e-06
-1.70942984014e-06
-2.84197292886e-06
-1.70458511253e-06
-5.84227358859e-07
-2.38902541951e-06
-2.05268610485e-06
4.30628467054e-07
-2.07859728717e-06
-1.87935191882e-06
-1.77894091416e-06
-3.31305681521e-07
2.13358665222e-07
-1.21041276556e-06
-1.43802481437e-06
2.45262022789e-06
-1.12938281094e-06
-3.80032285341e-06
4.91187453637e-06
-1.19045745876e-06
-4.19131015198e-06
6.768719938e-06
-1.43560205963e-06
-3.74723350161e-06
7.80376232198e-06
-1.8607193894e-06
-3.06362431147e-06
8.00396712794e-06
-2.38228635597e-06
-2.34770986437e-06
7.47597965395e-06
-2.85949895889e-06
-1.71689362832e-06
6.37879415133e-06
-3.24804163789e-06
-1.21728044595e-06
4.90256604355e-06
-3.50917727251e-06
-8.76159861047e-07
3.25468520692e-06
-3.62183144197e-06
-7.03594054598e-07
1.62456468225e-06
-3.58693719271e-06
-6.81723136818e-07
1.67185478127e-07
-3.41179839496e-06
-7.80460160145e-07
-9.89324658012e-07
-3.10795467201e-06
-9.74785012508e-07
-1.75999167765e-06
-2.69922108113e-06
-1.23199065771e-06
-2.07735461637e-06
-2.22681878061e-06
-1.53727141319e-06
-1.90574729984e-06
-1.7377143406e-06
-1.86561644354e-06
-1.26816729942e-06
-1.31583097383e-06
-2.1637221581e-06
-3.01660396683e-07
-1.034005159e-06
-2.32152741901e-06
4.95098383798e-07
-8.80493245053e-07
-1.99486312771e-06
-8.21940161996e-07
-4.61902595378e-07
3.39927776541e-07
-1.99852816264e-07
-1.35048706319e-06
2.34064736184e-06
1.89215717262e-07
-3.31931735269e-06
4.59753087731e-06
3.31947557311e-07
-3.77928765692e-06
6.37041118113e-06
3.08166519195e-07
-3.51664788508e-06
7.41449278787e-06
1.03298063338e-07
-3.00809795941e-06
7.66897751262e-06
-2.04441260789e-07
-2.43232866785e-06
7.21485419234e-06
-4.97446949291e-07
-1.90792755315e-06
6.1986494476e-06
-7.57024502504e-07
-1.47481134054e-06
4.80261853629e-06
-9.45615476095e-07
-1.16752998153e-06
3.23059389742e-06
-1.04049519213e-06
-1.00931089628e-06
1.6739049297e-06
-1.04184648633e-06
-9.88401232091e-07
2.91537736208e-07
-9.54941712555e-07
-1.07448918565e-06
-7.92774493144e-07
-7.87875952273e-07
-1.23576636557e-06
-1.49678865264e-06
-5.60053268023e-07
-1.4351536707e-06
-1.7665668845e-06
-3.06037820573e-07
-1.65100284958e-06
-1.58489300344e-06
-5.78514967656e-08
-1.86153692048e-06
-1.00536417354e-06
1.24264619319e-07
-2.01962467266e-06
-1.82817078847e-07
1.78307571927e-07
-2.03486011931e-06
4.36974559195e-07
1.3347713969e-07
-1.63376236104e-06
-5.32984390291e-08
-3.31667390999e-07
6.6626855953e-07
-8.66120887888e-07
2.29967355668e-06
-1.44418872851e-06
4.17512032068e-06
-1.54349857563e-06
5.76284245963e-06
-1.27955490726e-06
6.76119114499e-06
-8.95049848509e-07
7.04313485732e-06
-4.86384177373e-07
6.69331752959e-06
-1.47628851257e-07
5.80564927357e-06
1.30644451565e-07
4.54320540435e-06
3.16828980395e-07
3.1038655432e-06
3.98845120516e-07
1.6693437212e-06
3.92675642766e-07
3.9243762974e-07
3.21964549068e-07
-6.03304851582e-07
2.07866582441e-07
-1.23462681678e-06
7.12686603123e-08
-1.468664292e-06
-7.20004466458e-08
-1.30407728652e-06
-2.22438647949e-07
-8.22312373237e-07
-3.57500470952e-07
-2.16384342977e-07
-4.27620664322e-07
1.99674921336e-07
-2.82582343688e-07
1.4637638212e-07
1.58555409082e-06
1.41420069614e-06
-3.84901132982e-06
3.35357346919e-06
1.72229948139e-06
-4.93408983747e-06
4.89112149509e-06
1.98555417839e-06
-5.0780299302e-06
5.97541995695e-06
2.22525820586e-06
-4.60238752715e-06
6.49777698878e-06
2.44671568463e-06
-3.8862022895e-06
6.43661287951e-06
2.65243222328e-06
-3.11798124347e-06
5.82471270565e-06
2.8253778592e-06
-2.42371966991e-06
4.76798417663e-06
2.96317910957e-06
-1.8586928085e-06
3.4094878326e-06
3.06095127518e-06
-1.47838177031e-06
1.89915974582e-06
3.11972214031e-06
-1.30676847725e-06
3.87325625051e-07
3.14102176588e-06
-1.33259106995e-06
-9.87226145523e-07
3.12181000708e-06
-1.5300335076e-06
-2.11078816621e-06
3.06045953833e-06
-1.86118538828e-06
-2.88707958259e-06
2.9527087495e-06
-2.29111361466e-06
-3.25310504809e-06
2.80585270295e-06
-2.77666284337e-06
-3.20011463749e-06
2.62295595736e-06
-3.28132122921e-06
-2.7555854463e-06
2.41416025128e-06
-3.73312933167e-06
-1.98871945438e-06
2.17031125216e-06
-4.00914389482e-06
-1.00310778221e-06
1.85063348566e-06
-3.81997318884e-06
1.39184317014e-06
-2.90784087836e-06
2.04971947135e-06
2.84835548129e-06
-4.86353600321e-06
3.67970739129e-06
3.00590462741e-06
-6.36882221967e-06
4.9227753156e-06
3.19028387648e-06
-6.39132416558e-06
5.7568826929e-06
3.44227390184e-06
-5.73392166008e-06
6.12446337255e-06
3.74548596647e-06
-4.84793657208e-06
6.01486643529e-06
4.07588446111e-06
-3.94077565776e-06
5.4521342459e-06
4.39393189191e-06
-3.13815400758e-06
4.51951572403e-06
4.67387488002e-06
-2.50644855975e-06
3.32654942744e-06
4.88923432692e-06
-2.08886742348e-06
1.99578585195e-06
5.02759241493e-06
-1.90588798249e-06
6.51863513141e-07
5.0834114359e-06
-1.94685086103e-06
-5.90779528714e-07
5.0548991621e-06
-2.18683037282e-06
-1.63265165187e-06
4.94487880355e-06
-2.58843789112e-06
-2.39332950648e-06
4.7609921873e-06
-3.11981702349e-06
-2.81693400317e-06
4.52380829443e-06
-3.73661711708e-06
-2.88898710083e-06
4.25322737758e-06
-4.38919586103e-06
-2.62176074589e-06
3.97659519936e-06
-4.99065246384e-06
-2.06085412147e-06
3.70405857849e-06
-5.39149542093e-06
-1.21584903283e-06
3.41556316517e-06
-5.24716050775e-06
3.02910362693e-06
-3.93424211912e-06
2.37634047712e-06
4.03698471073e-06
-5.05147472158e-06
3.93484459773e-06
3.93204985777e-06
-6.44277984036e-06
5.03160136701e-06
3.98054312637e-06
-6.24267177481e-06
5.73705762224e-06
4.18710704376e-06
-5.35035434499e-06
6.01772254604e-06
4.51161714636e-06
-4.26521908244e-06
5.86997114072e-06
4.9076797661e-06
-3.20695265239e-06
5.3191911721e-06
5.31704342959e-06
-2.29781124922e-06
4.43572243985e-06
5.69511606969e-06
-1.600734866e-06
3.31671412784e-06
5.99453590611e-06
-1.14860286802e-06
2.06672525712e-06
6.19723957603e-06
-9.50733201437e-07
7.95838778391e-07
6.28745249402e-06
-9.93600422961e-07
-3.94961371537e-07
6.26419456653e-06
-1.25371541592e-06
-1.41470273082e-06
6.13678546543e-06
-1.70196848182e-06
-2.18832000363e-06
5.91847464272e-06
-2.31148803241e-06
-2.66220462302e-06
5.64490343456e-06
-3.04800725356e-06
-2.81441133305e-06
5.34854723843e-06
-3.86230918109e-06
-2.65016957173e-06
5.07149262617e-06
-4.66158994963e-06
-2.20189944675e-06
4.84375158559e-06
-5.27920947462e-06
-1.42577093581e-06
4.67410222062e-06
-5.32931655115e-06
4.50465668221e-06
-4.1017366892e-06
2.63997162323e-06
4.82984243217e-06
-4.69250732236e-06
4.21360675785e-06
4.49982438726e-06
-5.90753708161e-06
5.2620610541e-06
4.42991761945e-06
-5.474805235e-06
5.91029820485e-06
4.58124700716e-06
-4.34661594196e-06
6.14394381904e-06
4.89741657488e-06
-3.05343559976e-06
5.96623998658e-06
5.31910253753e-06
-1.82777729591e-06
5.40456126125e-06
5.77563128718e-06
-7.91061822816e-07
4.5158787645e-06
6.20976959798e-06
1.70301175326e-09
3.40668883873e-06
6.57431880205e-06
5.01528049218e-07
2.16293317636e-06
6.8242181873e-06
7.30457626611e-07
8.9234087505e-07
6.94257169092e-06
6.96605855017e-07
-3.10911515192e-07
6.92718736753e-06
4.23725170777e-07
-1.36201211706e-06
6.79326418773e-06
-6.01604506283e-08
-2.17751769773e-06
6.57297327179e-06
-7.54591905542e-07
-2.70815933065e-06
6.30106680274e-06
-1.61646693502e-06
-2.92322127745e-06
6.0158865431e-06
-2.60099499884e-06
-2.81926897527e-06
5.77191146308e-06
-3.61250303311e-06
-2.41424193245e-06
5.61129298525e-06
-4.46652828403e-06
-1.62723293506e-06
5.56071792169e-06
-4.74407640197e-06
5.58722015673e-06
-3.68556268328e-06
2.87412108935e-06
5.14133638943e-06
-4.12827148008e-06
4.52688041287e-06
4.6657269719e-06
-5.17778083559e-06
5.59375971974e-06
4.51361235165e-06
-4.54640244224e-06
6.23387744218e-06
4.61626693134e-06
-3.21071148507e-06
6.44980457447e-06
4.90983907921e-06
-1.72332530659e-06
6.24920013025e-06
5.33017795614e-06
-3.28144845925e-07
5.66111026957e-06
5.80529522708e-06
8.46149355292e-07
4.74462489553e-06
6.2677818227e-06
1.74237161567e-06
3.5892219563e-06
6.65958355563e-06
2.32860159481e-06
2.29366234583e-06
6.93637826589e-06
2.60338543642e-06
9.63417029048e-07
7.07520527877e-06
2.58560945513e-06
-3.02925580802e-07
7.07506112907e-06
2.29882028447e-06
-1.41451503068e-06
6.95426277077e-06
1.7617556613e-06
-2.29289427669e-06
6.74596423519e-06
9.89633834786e-07
-2.88648451026e-06
6.49037064562e-06
1.92562093545e-08
-3.15052391521e-06
6.24095283225e-06
-1.13100016671e-06
-3.07555775316e-06
6.04510966299e-06
-2.33756228158e-06
-2.66375348845e-06
5.95096730545e-06
-3.40382444305e-06
-1.80914905039e-06
5.99206565514e-06
-3.88551922094e-06
6.14929830406e-06
-3.00247422854e-06
3.08707705342e-06
4.95015338193e-06
-3.51506793532e-06
4.85913125961e-06
4.4239674075e-06
-4.43058251296e-06
5.98714080618e-06
4.23240003813e-06
-3.64947837211e-06
6.65299783306e-06
4.29951919038e-06
-2.14858693175e-06
6.87372739845e-06
4.56114487671e-06
-4.94229215467e-07
6.66256324145e-06
4.95978114435e-06
1.05642311618e-06
6.0400614928e-06
5.41907011788e-06
2.3719360809e-06
5.06970945534e-06
5.87553977877e-06
3.3859150411e-06
3.84009280973e-06
6.26850075241e-06
4.05963042945e-06
2.45636950061e-06
6.55236988853e-06
4.38822251613e-06
1.03107005682e-06
6.70288665278e-06
4.38994724485e-06
-3.29722462552e-07
6.71971670782e-06
4.09042525916e-06
-1.52855348467e-06
6.62240705877e-06
3.50966001303e-06
-2.48478560622e-06
6.44578897667e-06
2.6632036012e-06
-3.13271865969e-06
6.23210231017e-06
1.57607784544e-06
-3.4357084946e-06
6.02635321174e-06
2.99609558267e-07
-3.36818899978e-06
5.88544928465e-06
-1.06619904084e-06
-2.91863571041e-06
5.8460362443e-06
-2.30260273406e-06
-1.96726676743e-06
5.94219412418e-06
-2.94584322559e-06
6.14849524204e-06
-2.22144939344e-06
3.26458195206e-06
4.28208226146e-06
-2.95336191509e-06
5.17437862269e-06
3.79674798449e-06
-3.76845261441e-06
6.38721762073e-06
3.61242209439e-06
-2.88524734424e-06
7.0998427835e-06
3.66002473415e-06
-1.26195042799e-06
7.34516699972e-06
3.88470358914e-06
5.25259845327e-07
7.13035108372e-06
4.23443786974e-06
2.21385182656e-06
6.47503261578e-06
4.64525543805e-06
3.66064873802e-06
5.44322578635e-06
5.06086839291e-06
4.79508894492e-06
4.12689896889e-06
5.42506059878e-06
5.56136235863e-06
2.63903224701e-06
5.695410616e-06
5.94533740273e-06
1.10370155594e-06
5.84815067761e-06
5.96371014645e-06
-3.62647910991e-07
5.88379571951e-06
5.64641913951e-06
-1.65470161209e-06
5.82288243085e-06
5.01937587679e-06
-2.68653203693e-06
5.69715454563e-06
4.10358497557e-06
-3.38819395217e-06
5.5439303112e-06
2.9306374752e-06
-3.71310325338e-06
5.40160147436e-06
1.54452941602e-06
-3.64042025499e-06
5.31002085057e-06
6.94667284049e-08
-3.13851478396e-06
5.31424627068e-06
-1.29570312086e-06
-2.08461601964e-06
5.42546017098e-06
-2.05828059385e-06
5.60714535073e-06
-1.47485788357e-06
3.40510063855e-06
3.22443440897e-06
-2.49032020103e-06
5.44685542162e-06
2.85612173178e-06
-3.24370264427e-06
6.74927536022e-06
2.7171992473e-06
-2.30241261594e-06
7.51745838994e-06
2.75783063169e-06
-5.95994308495e-07
7.79429401869e-06
2.93634056001e-06
1.2915419003e-06
7.58458291388e-06