/*--------------------------------*- C++ -*----------------------------------*\
| =========                 |                                                 |
| \\      /  F ield         | OpenFOAM: The Open Source CFD Toolbox           |
|  \\    /   O peration     | Version:  3.0.1                                 |
|   \\  /    A nd           | Web:      www.OpenFOAM.org                      |
|    \\/     M anipulation  |                                                 |
\*---------------------------------------------------------------------------*/
FoamFile
{
    version     2.0;
    format      ascii;
    class       volScalarField;
    location    "2.3";
    object      k;
}
// * * * * * * * * * * * * * * * * * * * * * * * * * * * * * * * * * * * * * //

dimensions      [0 2 -2 0 0 0 0];

internalField   nonuniform List<scalar> 
7968
(
0.00216391061812
0.00234268173381
0.00247100221949
0.00253935624916
0.00256913339368
0.00257704493593
0.00257418685248
0.00256688045113
0.00255918292489
0.00255347417889
0.00255346745727
0.00255917033298
0.00256687517109
0.00257419896597
0.00257707741449
0.00256918407995
0.0025394146844
0.00247105996257
0.00234274500748
0.0021639439829
0.00234266079174
0.00313977160869
0.00364487173208
0.00391654119877
0.00404409220567
0.00408699297
0.00408651602594
0.00406968040485
0.00405326081721
0.00404404785231
0.00404401940334
0.00405318877456
0.0040695868649
0.00408642755882
0.00408694086958
0.00404410559357
0.00391660868111
0.0036449651143
0.00313988616153
0.00234272331459
0.00247094157175
0.00364479466018
0.0043929525618
0.00480697894189
0.00501209181746
0.00509004081823
0.00509950153269
0.00508184068023
0.005062778762
0.00505227257862
0.00505221896069
0.00506263710724
0.00508163969432
0.00509927851954
0.00508985759855
0.00501199842301
0.00480697795247
0.00439301287623
0.00364489370197
0.00247101124415
0.00253922052914
0.00391631931657
0.00480685536045
0.00530546660954
0.00555317882404
0.0056444647311
0.00565201477761
0.00562744916218
0.00560310561343
0.00559033094548
0.00559025590232
0.00560290164937
0.00562713981376
0.00565165213035
0.00564412308418
0.00555294016123
0.0053053463185
0.00480683036909
0.00391636467927
0.00253928740368
0.00256890313974
0.00404374083562
0.00501190991019
0.00555318588434
0.00581296759551
0.00589827235778
0.00592483394652
0.00592593109429
0.00591328430808
0.00590358233997
0.00590352856177
0.00591313284188
0.00592570167385
0.00592455034029
0.00589782432719
0.00581258370141
0.00555291962008
0.00501176211382
0.00404369389649
0.00256894741904
0.00257673435642
0.0040866057384
0.00508997464959
0.00564477574872
0.0058986979514
0.00603223196882
0.00608602463779
0.00608754233487
0.00607150473183
0.00605917218666
0.00605912603501
0.00607136510582
0.00608731602362
0.00608574293605
0.00603189935364
0.00589821978833
0.0056443737166
0.00508970005263
0.00408645463394
0.0025767406709
0.0025738127943
0.00408617770324
0.00509971250655
0.00565286995573
0.0059252546976
0.00608624701588
0.0061384658621
0.00613065738111
0.00610581668226
0.00608840175963
0.00608835785364
0.00610568960921
0.00613045089331
0.00613819683325
0.00608594241898
0.00592490826546
0.00565242042202
0.005099361539
0.00408594571046
0.00257377929799
0.00256644921981
0.00406939831911
0.00508230905074
0.00562880754502
0.00592659959665
0.00608792591026
0.00613068199465
0.00611035788796
0.00607450237569
0.00605065273918
0.00605060218914
0.00607437821999
0.00611017832057
0.00613045989132
0.00608767277919
0.00592631181361
0.00562843473449
0.00508196727869
0.00406913240565
0.00256638352237
0.00255869776286
0.00405296952959
0.00506331082582
0.00560463167491
0.00591413591112
0.00607205992856
0.00610590815388
0.00607446967038
0.00602850504497
0.00599828006392
0.00599822407409
0.00602839831133
0.00607436199954
0.00610578801211
0.00607191281286
0.00591395750374
0.00560444653926
0.00506306389455
0.00405272615277
0.00255861171663
0.00255296592
0.00404370294808
0.0050526927696
0.00559172514788
0.00590450818966
0.00605991078792
0.00608871282031
0.00605077995027
0.00599834707839
0.0059630959516
0.00596309349905
0.00599834972172
0.00605080622098
0.00608873662176
0.00605991067149
0.00590447755342
0.00559177289432
0.00505259731743
0.00404353048608
0.00255288002554
0.00255305453418
0.00404370089814
0.00505257945122
0.00559153115305
0.0059044601026
0.00605990525582
0.00608876002313
0.00605087486742
0.00599846105579
0.00596325266017
0.00596330386479
0.00599859869055
0.00605105514812
0.00608893725791
0.00606005950823
0.0059045891196
0.00559182275412
0.00505264979518
0.00404361612126
0.00255298598165
0.00255887290458
0.00405296797713
0.00506300957029
0.00560409584176
0.00591403310705
0.0060720970003
0.00610610811575
0.00607482713528
0.00602897700664
0.00599888141911
0.00599893749188
0.00602914711977
0.00607506571375
0.00610636814921
0.00607235475934
0.00591428733898
0.00560460462258
0.00506321922675
0.00405295970384
0.00255882278224
0.00256666464716
0.00406945166198
0.00508196361284
0.00562814347972
0.00592654742743
0.00608809723044
0.00613109537699
0.00611099008677
0.00607534350077
0.00605169941474
0.00605175383328
0.00607549884035
0.00611121832984
0.00613136952067
0.00608839577033
0.00592685724367
0.00562874069183
0.00508222888794
0.00406947803137
0.00256662602216
0.0025740553812
0.00408634744617
0.00509948709293
0.00565232409187
0.00592531166521
0.00608659048081
0.0061390884233
0.00613152739534
0.00610691477724
0.0060897157686
0.00608976156693
0.00610703670043
0.00613171513122
0.0061393342945
0.0060868737147
0.0059256184111
0.00565284268402
0.00509969806544
0.00408634880511
0.00257401325061
0.00257699065344
0.00408692806385
0.00508998591755
0.00564450351676
0.00589852516958
0.00603269475692
0.00608681924341
0.00608862231164
0.00607284000743
0.00606071158131
0.0060607496011
0.00607293808543
0.0060887693553
0.00608701806199
0.00603295544256
0.00589904596244
0.0056448073736
0.00509005128681
0.00408686696205
0.00257694358387
0.00256915539021
0.00404419973624
0.0050121521703
0.00555318465142
0.0058129927486
0.00589874697493
0.00592569926931
0.00592712409976
0.00591474301052
0.0059052176394
0.00590524690685
0.00591482177524
0.00592724353428
0.00592586336375
0.00589907872491
0.00581322506365
0.00555324022652
0.0050120740153
0.00404408116771
0.0025691066673
0.00253942019996
0.00391681639141
0.0048072345136
0.00530566103101
0.00555333023388
0.00564486735328
0.00565290589229
0.00562884608603
0.00560483811589
0.00559224504717
0.00559228205458
0.00560493704408
0.0056289918188
0.00565308278709
0.00564501867097
0.00555336847642
0.00530558066749
0.00480708651477
0.00391667930793
0.0025393805344
0.00247107298403
0.00364523291721
0.00439335716739
0.00480727181593
0.00501231774194
0.00509033890994
0.0051000385724
0.00508266437522
0.0050638142771
0.00505342920005
0.00505347686502
0.00506393003194
0.00508281403808
0.00510018224906
0.00509042861323
0.00501230693454
0.00480717065645
0.00439321252819
0.00364511577574
0.0024710415987
0.00234273598649
0.00314008011048
0.00364519151178
0.00391681548988
0.00404430920211
0.0040872013585
0.00408680768097
0.00407010186026
0.00405379818742
0.00404467301167
0.00404472524333
0.00405393056641
0.0040702712837
0.00408696458926
0.00408730155551
0.00404432314724
0.00391674922027
0.00364508588893
0.00313999447533
0.00234271157357
0.00216392559663
0.00234274948176
0.00247107991463
0.00253942373383
0.00256918265564
0.00257706864753
0.00257420244438
0.00256690745187
0.00255923110427
0.00255355467446
0.0025535851333
0.00255930119801
0.00256699205811
0.00257427785101
0.00257711707545
0.00256919928205
0.00253941141927
0.00247105275328
0.00234273014762
0.00216391458293
0.00232226063833
0.0030265216415
0.0035018868987
0.00377335305991
0.00391387673382
0.00397451033253
0.00399050960439
0.00398579974926
0.00397592094828
0.00396907831585
0.00396906099561
0.00397587754218
0.00398574659375
0.0039904639477
0.00397448482722
0.00391387861811
0.00377337350468
0.00350191516695
0.00302656563981
0.00232229472562
0.00302642805515
0.00580695633631
0.00714393553454
0.00788760930161
0.00827963191544
0.00845626084438
0.00850998585949
0.00850503265068
0.00848392899324
0.00846893697906
0.00846888246525
0.00848378636487
0.00850483900237
0.00850978775494
0.00845611277579
0.0082795727285
0.00788762573612
0.0071439810632
0.0058069988536
0.00302644330004
0.00350172682863
0.00714375490648
0.00890709850115
0.00992264011944
0.0104861206533
0.0107625469292
0.0108672667125
0.0108842022229
0.0108706475943
0.0108575629686
0.0108574843145
0.0108704344317
0.0108838940605
0.0108669207765
0.0107622404031
0.0104859150911
0.00992253894808
0.00890706721482
0.00714376138928
0.00350172662041
0.00377308935434
0.00788716073099
0.00992238868988
0.0111203891939
0.0118014772974
0.0121458362311
0.0122840605359
0.0123130496078
0.0123027630523
0.0122901848746
0.0122900891614
0.0123024929232
0.0123126328043
0.0122835653653
0.0121453575741
0.0118010879376
0.0111201128165
0.00992221170178
0.0078870618833
0.00377306627621
0.00391350277304
0.00827898327967
0.0104857262334
0.0118013903532
0.0125554271686
0.0129377397032
0.0130957754402
0.0131242138288
0.0131091729111
0.0130933490619
0.0130932440659
0.0131088667465
0.0131237328657
0.0130951933178
0.0129371421527
0.0125548700922
0.0118009201154
0.0104853648922
0.00827873063443
0.00391343231082
0.0039740689865
0.00845559646675
0.0107622577821
0.0121460010363
0.012938076943
0.0133342338595
0.0134748821066
0.0134877391628
0.0134599502755
0.0134370412566
0.0134369527385
0.0134596696055
0.0134872575675
0.0134742663262
0.013333567995
0.01293740591
0.0121453680523
0.010761724722
0.00845518927857
0.00397393627222
0.00399005761635
0.00850946235466
0.0108673022792
0.0122847717718
0.013096794513
0.0134754923494
0.0135934083872
0.0135832084381
0.0135379964312
0.013506025886
0.0135059425948
0.0135377521421
0.0135827940997
0.0135928413216
0.0134748486888
0.0130961116127
0.0122840795782
0.0108666805314
0.00850895591315
0.00398987026829
0.00398535521503
0.00850466304611
0.0108845436378
0.0123142445745
0.0131258090493
0.0134887060967
0.0135832474453
0.0135499166766
0.0134877075291
0.0134468256294
0.0134467192372
0.0134874470103
0.013549545118
0.0135827993799
0.0134882052587
0.0131252665653
0.0123136528844
0.0108839614465
0.00850415022472
0.00398514038194
0.00397546859034
0.00848360924532
0.0108710864433
0.0123041117433
0.0131110992546
0.0134611931838
0.0135379972613
0.0134874956244
0.0134126480556
0.0133655487593
0.0133654284586
0.0134124084517
0.013487265056
0.0135377766595
0.0134609615143
0.0131108287578
0.0123037513835
0.010870661849
0.0084831821082
0.00397525877913
0.00396861696968
0.00846859820711
0.0108579430296
0.0122914841688
0.0130953899547
0.0134385871561
0.0135063435885
0.0134468059542
0.0133655528384
0.013315096344
0.0133150766984
0.0133655429575
0.0134468673578
0.0135064428748
0.0134387101962
0.01309546933
0.0122914208562
0.0108577498133
0.00846832247331
0.00396844506118
0.00396865717746
0.00846861431273
0.0108578632386
0.0122913559067
0.0130952661007
0.0134385456475
0.0135064296503
0.0134469776815
0.0133657297443
0.0133153256533
0.0133154098049
0.0133659982061
0.0134473754227
0.013506879935
0.0134390392615
0.0130957128907
0.0122916072926
0.0108579240632
0.00846851496999
0.00396853856799
0.00397558236556
0.00848369071169
0.0108709024702
0.0123037795801
0.0131108212401
0.0134612000314
0.0135384143742
0.0134882400126
0.0134135743395
0.0133666966883
0.0133668085462
0.013413945407
0.013488798848
0.013539094468
0.0134619708472
0.0131115658881
0.0123043086539
0.0108711796144
0.00848374386731
0.00397551030228
0.0039855552367
0.00850491637907
0.0108844232602
0.0123138818244
0.0131256032118
0.0134889895414
0.0135841536088
0.0135513164371
0.0134895226991
0.0134490485394
0.0134491719816
0.0134898966395
0.013551891965
0.0135849113095
0.0134898930805
0.0131265040146
0.0123145722371
0.0108848079502
0.00850504685246
0.00398550630753
0.00399036023721
0.00851001043949
0.0108674553738
0.0122846469243
0.0130968739567
0.0134761704645
0.0135948207236
0.013585208595
0.0135404664142
0.0135089331487
0.0135090509423
0.0135407964455
0.013585731701
0.0135955412627
0.0134770515068
0.0130977381483
0.0122852958504
0.0108678006396
0.00851012121372
0.00399030215174
0.00397447764649
0.00845652348686
0.010762839662
0.0121463048822
0.0129385404574
0.0133352966678
0.0134767350702
0.0134902766785
0.0134630450926
0.0134405780962
0.0134406864117
0.0134633387164
0.0134907268902
0.0134773530013
0.0133360153165
0.0129391864954
0.0121467415186
0.0107630275966
0.0084565398502
0.003974395417
0.00391398701906
0.00828027203818
0.0104867378344
0.011802114446
0.0125561967971
0.0129389959242
0.0130978098857
0.0131269723052
0.0131124937325
0.0130970461101
0.0130971319276
0.0131127348935
0.0131273475634
0.0130982991802
0.0129395109489
0.0125566000286
0.0118023205711
0.0104867620616
0.00828019207737
0.0039138864979
0.0037735746102
0.00788867146069
0.00992371728982
0.0111214574404
0.0118024803447
0.0121471211384
0.0122859109588
0.0123154932749
0.0123056353494
0.0122933293941
0.0122934132845
0.0123058668461
0.0123158401314
0.0122863235147
0.0121475035607
0.0118027291615
0.0111215368147
0.00992366181976
0.00788855324269
0.00377347744892
0.00350214809656
0.00714528994947
0.00890856867762
0.00992392481132
0.0104872996701
0.0107638303235
0.0108688766379
0.010886205861
0.0108729676109
0.0108601053068
0.0108602035219
0.0108732280834
0.0108865734169
0.0108692810302
0.0107641846049
0.0104875243856
0.00992399751313
0.00890852085995
0.00714518794371
0.00350206176071
0.00302671808142
0.00580824278588
0.00714528295146
0.00788887286487
0.00828080653305
0.00845744981833
0.00851134133838
0.00850662622271
0.0084857393031
0.00847092345885
0.00847102789568
0.00848601642374
0.00850701284604
0.00851176072391
0.00845782031206
0.0082810611734
0.00788898487432
0.00714527107059
0.00580816402992
0.00302664811543
0.00232229197762
0.0030268652346
0.00350229570284
0.00377373096459
0.00391420649775
0.0039748124411
0.00399083986132
0.00398619797598
0.00397639348904
0.00396962041732
0.00396966629785
0.00397650976807
0.00398634840285
0.0039909861182
0.00397492351598
0.00391426593199
0.00377373936604
0.00350227403845
0.0030268426275
0.00232227548253
0.00243515354769
0.00343917334666
0.00413091374507
0.004541874076
0.00476835717744
0.00487795945858
0.00491849535269
0.00492430215474
0.00491837886657
0.00491296212594
0.00491293991222
0.0049183242227
0.00492423466387
0.00491843408011
0.00487792292328
0.00476835753951
0.00454189988299
0.00413094975272
0.00343922682077
0.00243519438801
0.00343902992967
0.0069551606956
0.00868022464894
0.0096779292133
0.0102354300105
0.0105138156117
0.0106241111791
0.0106466677332
0.0106366310437
0.0106249782852
0.0106249261562
0.0106364997584
0.0106464967971
0.0106239470736
0.0105137185292
0.0102354464195
0.00967803729842
0.0086803604463
0.00695527064822
0.00343904454914
0.00413067434341
0.00867992735178
0.0109043050442
0.0122297944092
0.0130063106615
0.0134225727164
0.0136117126863
0.013674309282
0.0136818366454
0.0136761277617
0.0136760577383
0.0136816503725
0.0136740387897
0.0136114077502
0.0134223103425
0.0130061546629
0.0122297435669
0.0109043199373
0.008679973249
0.00413065556378
0.00454150101144
0.0096772696892
0.0122294422644
0.0137807331537
0.0147133421038
0.0152301547751
0.0154763339506
0.0155670857539
0.015588330743
0.0155877274672
0.0155876594582
0.0155881341352
0.0155667357974
0.0154758989293
0.0152297336589
0.0147129921301
0.0137804769799
0.0122292697299
0.00967717056604
0.00454143980688
0.00476785987687
0.0102345085506
0.0130057342581
0.0147131506973
0.0157536873877
0.0163399898249
0.0166200067994
0.0167227632091
0.0167427169306
0.0167384628187
0.0167383762831
0.0167424615316
0.0167223560087
0.0166195143802
0.0163395374907
0.015753182977
0.0147126810118
0.0130053407923
0.0102342115222
0.00476773069477
0.00487740002351
0.0105128754402
0.0134220474035
0.0152300854858
0.0163400541051
0.0169563292267
0.0172506390333
0.017356028651
0.0173687805464
0.0173576008693
0.0173575180926
0.0173685194002
0.0173555929169
0.0172500862865
0.0169557420697
0.0163394918617
0.0152294419979
0.0134214542517
0.010512385035
0.00487718903872
0.00491796583742
0.0106233707746
0.0136114835696
0.0154766865918
0.0166206305306
0.0172510516002
0.0175518807962
0.017651098589
0.0176503440212
0.0176290980248
0.017629015807
0.0176500977891
0.0176506949791
0.0175513366364
0.0172504344264
0.0166199760589
0.0154759676875
0.0136107933612
0.0106227687502
0.00491769159617
0.00492382605205
0.0106461265912
0.0136743344231
0.0155677225857
0.0167237945712
0.0173567017329
0.0176512195986
0.0177347193925
0.0177168391272
0.0176851410626
0.0176850440976
0.0177165791586
0.017734334834
0.0176507488452
0.0173561799139
0.0167232449461
0.015567101922
0.0136736990418
0.0106455415378
0.00492353308872
0.00491791108343
0.0106361212442
0.0136818727438
0.0155887271388
0.0167439167481
0.0173695841091
0.0176502581357
0.0177165595496
0.0176848177488
0.0176459305791
0.0176458386886
0.0176845972944
0.0177162752046
0.0176499476854
0.0173692838399
0.0167436048658
0.0155883144484
0.0136814216875
0.0106356707082
0.00491764682812
0.00491247191068
0.010624391889
0.0136760693494
0.0155880964898
0.0167397248268
0.0173585572996
0.0176290541843
0.0176848565629
0.0176458484829
0.0176033596303
0.0176033280331
0.0176457999686
0.0176848082744
0.0176290050002
0.0173585640031
0.0167397238335
0.0155879306489
0.0136758820717
0.0106241531026
0.0049122733195
0.00491248610899
0.0106243661057
0.0136759685796
0.0155880383975
0.0167396287004
0.0173585330741
0.0176291355604
0.0176850118842
0.0176460363975
0.017603593427
0.0176036559653
0.0176462119886
0.0176852472607
0.0176293909346
0.017358866071
0.0167399547779
0.01558813585
0.0136760634404
0.0106243616385
0.00491236709169
0.0049179669295
0.0106361002325
0.0136816392767
0.0155885784848
0.016743701151
0.0173696068003
0.0176506176579
0.0177171945767
0.0176856465717
0.0176469633345
0.0176470691345
0.0176859484035
0.017717613811
0.0176511105485
0.0173702005201
0.0167443003135
0.015588918399
0.0136819688134
0.0106362908278
0.00491791516892
0.00492397218756
0.0106462691048
0.0136741354143
0.0155673867425
0.0167236121285
0.0173569353313
0.0176519679579
0.0177359412542
0.0177184320108
0.0176870918013
0.0176872115617
0.0177187701946
0.0177364369075
0.0176525927376
0.0173576806784
0.016724388505
0.0155680212709
0.0136745987108
0.0106465541044
0.00492395124138
0.00491825906163
0.0106238737186
0.01361157948
0.015476532391
0.0166207160064
0.0172516239911
0.0175530802759
0.017652855761
0.0176525527026
0.017631691652
0.0176318113289
0.0176528827252
0.017653352615
0.0175537193794
0.0172523955756
0.0166214852914
0.015477183203
0.0136120139914
0.0106241267678
0.00491822341469
0.00487787847267
0.0105139032743
0.0134226742855
0.0152304251352
0.0163406982123
0.0169573070407
0.0172522519396
0.0173582524228
0.0173715104174
0.0173607306043
0.0173608457428
0.0173718319097
0.0173587313654
0.0172528589336
0.0169579675183
0.0163412037639
0.0152308855788
0.0134229458872
0.0105140267154
0.00487780256997
0.00476850039503
0.0102360760983
0.0130069393381
0.0147139996844
0.015754541508
0.0163412727707
0.0166218716213
0.0167252475891
0.0167456867666
0.0167417808077
0.0167418863276
0.0167459845916
0.0167256990492
0.0166224208073
0.0163417723572
0.0157549836787
0.0147142740152
0.0130070471913
0.0102360727893
0.00476839540711
0.00454221733123
0.0096792348657
0.0122311342001
0.0137820760577
0.0147145395019
0.0152315609345
0.0154782306706
0.0155695099842
0.0155910345225
0.0155906958424
0.0155908094357
0.015591349324
0.0155699843005
0.0154787864242
0.0152320756255
0.0147149135868
0.0137822715624
0.0122311800472
0.0096791868476
0.00454211459933
0.00413136169648
0.00868206080951
0.0109063082663
0.0122315298427
0.0130078725683
0.0134242003907
0.0136136664113
0.0136766732865
0.0136845259558
0.0136790762751
0.0136792206031
0.0136849108738
0.0136772222346
0.0136142817241
0.0134247707377
0.0130082979433
0.0122317755042
0.0109063949026
0.00868204247595
0.00413127759819
0.00343954038741
0.00695709765668
0.00868222989274
0.00967980058093
0.0102371676393
0.0105155651871
0.0106260869694
0.0106489601433
0.0106392018736
0.0106277767368
0.0106279362628
0.0106396284122
0.0106495676543
0.0106267714049
0.010516215569
0.0102376849144
0.00968013642077
0.0086823883815
0.00695712386747
0.0034394791075
0.00243519793627
0.00343976543935
0.00413163320491
0.00454255586399
0.00476897001587
0.00487854147639
0.00491913716876
0.00492505719075
0.00491924401578
0.00491391892592
0.00491398210236
0.00491940734739
0.00492527960583
0.00491937067787
0.00487874379318
0.00476910968736
0.00454262685007
0.00413165654679
0.0034397696092
0.00243518357635
0.0025014101081
0.00366816541397
0.00448966342543
0.00499254749697
0.00528137557082
0.00543081059432
0.00549492543952
0.0055138779309
0.00551493178833
0.0055126443182
0.00551261777439
0.00551486816433
0.00551379956965
0.00549485262981
0.00543076914719
0.00528138693038
0.00499259850966
0.00448973360945
0.00366826149132
0.00250145968657
0.00366798030265
0.00759770701849
0.00957633598319
0.010754872378
0.0114391427257
0.0118020453809
0.0119646848935
0.0120171886719
0.0120224284766
0.0120170318996
0.0120169749499
0.0120222900351
0.0120170123978
0.0119645154611
0.011801959551
0.0114392142677
0.0107550722306
0.00957658304817
0.00759792689945
0.00366802406027
0.00448935721723
0.00957595026314
0.0121153969885
0.0136692498997
0.0146128206866
0.0151459359463
0.0154111043666
0.0155185734042
0.015548341268
0.0155510006144
0.0155509324966
0.0155481689818
0.0155183395487
0.0154108343521
0.0151457091582
0.0146127185306
0.0136692664409
0.0121154851035
0.00957606886437
0.00448935103918
0.00499208666124
0.0107540753313
0.0136688365468
0.0154835578841
0.0166129224924
0.0172723562135
0.0176173504006
0.0177702658276
0.0178187616844
0.017825667604
0.0178255976832
0.0178185701408
0.0177700082127
0.0176169589706
0.0172719629988
0.0166126143676
0.0154833424191
0.0136686947122
0.0107539973543
0.00499201655533
0.00528081003341
0.0114380817482
0.0146121492922
0.0166126663063
0.0178783097944
0.018638500075
0.01904517806
0.0192243930519
0.0192757866691
0.0192796857279
0.019279613638
0.0192755647582
0.0192240387863
0.0190447209848
0.0186380115955
0.0178778236158
0.0166122121541
0.0146117476901
0.0114377535114
0.00528065162717
0.00543021494841
0.0118010368982
0.0151453113222
0.0172721515343
0.018638540996
0.0194655225277
0.0199144358865
0.020106518945
0.020150490196
0.0201452040873
0.020145136435
0.0201502632617
0.0201061210116
0.0199139039678
0.0194649252977
0.0186379227561
0.0172714932941
0.0151446808136
0.0118004727705
0.00542995745295
0.00549442075891
0.0119640097917
0.0154107848412
0.0176174511092
0.0190455097284
0.0199146629802
0.0203836994844
0.0205693785907
0.0205941316779
0.0205740923997
0.0205740295887
0.0205939314814
0.0205689865097
0.020383142552
0.0199140244339
0.0190448347279
0.0176167211296
0.0154100642877
0.0119633357651
0.00549409719787
0.00551347708347
0.0120167990238
0.0155184774
0.0177703311062
0.0192249849606
0.0201068393311
0.0205690307274
0.0207310063111
0.02073104305
0.0206975633738
0.020697506791
0.0207308456984
0.0207305915087
0.0205685025554
0.0201062708159
0.0192244086072
0.0177697493051
0.0155178500402
0.0120161918051
0.00551315084065
0.0055145387339
0.0120220403158
0.0155482649575
0.0178191252548
0.0192765064858
0.0201507511519
0.0205932033836
0.0207302232133
0.0207136349599
0.0206721248978
0.0206720169282
0.0207133776568
0.0207299130649
0.020592801513
0.0201503582486
0.0192761395502
0.0178187558529
0.0155478698886
0.012021645144
0.00551426981295
0.00551218222689
0.0120164211645
0.0155506979567
0.0178259157511
0.0192803201078
0.0201453942394
0.0205729575586
0.0206965213612
0.0206717225101
0.0206259408411
0.0206259299892
0.020671653121
0.0206963849518
0.0205727208027
0.0201452427319
0.0192802262299
0.0178258502246
0.0155506288262
0.012016323929
0.00551200906375
0.00551214438011
0.0120162499869
0.0155504476465
0.0178256840106
0.0192801303848
0.0201452642407
0.0205728886659
0.0206964649502
0.0206715657377
0.0206258560361
0.0206259221945
0.0206717611359
0.0206966052253
0.0205728913638
0.0201453757228
0.0192803264772
0.0178259314327
0.0155507102311
0.0120164584991
0.00551207575182
0.00551445121152
0.0120216188309
0.0155476302227
0.0178185349568
0.0192760129806
0.0201504516632
0.0205931380207
0.0207303547076
0.0207137614404
0.0206724463834
0.0206725397946
0.0207140518121
0.0207306850163
0.020593423225
0.0201508138206
0.0192764606976
0.01781902622
0.0155481455518
0.0120220633536
0.00551446666573
0.00551342054748
0.0120163750892
0.0155177541866
0.0177697610574
0.0192244085663
0.0201065637046
0.020569145651
0.020731385867
0.0207317631811
0.0206986467865
0.0206987809131
0.0207321089883
0.0207318086319
0.02056962044
0.0201071010545
0.019225007075
0.0177702816252
0.0155183560249
0.0120169044338
0.00551346674729
0.00549450238725
0.0119638911779
0.0154102509336
0.0176167055173
0.0190450272067
0.0199145807004
0.0203841065859
0.0205701415666
0.0205952313553
0.0205755642553
0.0205757065958
0.0205955902122
0.0205706213629
0.0203846599258
0.0199152111033
0.0190456944426
0.0176173881956
0.0154108059603
0.0119643435522
0.00549451903015
0.0054305367343
0.0118015458664
0.0151453566941
0.0172718404696
0.0186384067964
0.0194657694256
0.0199151779297
0.0201077281474
0.0201521162247
0.0201471798488
0.0201473125806
0.0201524799421
0.0201082368598
0.0199157643306
0.0194663906843
0.0186389994935
0.0172723568064
0.0151457097893
0.0118017936061
0.00543048540297
0.00528138217847
0.0114393300937
0.0146129304112
0.0166129798785
0.017878532767
0.0186390402551
0.019046192539
0.0192259325727
0.0192777808617
0.0192819767974
0.0192821048681
0.0192781420236
0.0192264541565
0.0190467893747
0.0186396249876
0.0178790187244
0.0166132805523
0.0146130803237
0.0114393846761
0.00528128019313
0.00499282706713
0.0107559326834
0.0136702980267
0.0154845518171
0.0166136339748
0.0172731565382
0.0176185716826
0.0177719438943
0.0178209171519
0.0178281155376
0.0178282593474
0.0178213079684
0.0177724992779
0.0176192122245
0.0172737540411
0.0166140586654
0.0154847844777
0.0136703846518
0.0107559184774
0.00499271874467
0.00449013916089
0.00957818069693
0.0121173797522
0.013670849249
0.014614136195
0.015147227648
0.0154126882649
0.0155205796765
0.0155507151045
0.0155536515855
0.0155538374576
0.0155511999914
0.0155212589619
0.015413439887
0.0151479291777
0.014614668358
0.0136711830111
0.0121175372564
0.00957820856245
0.00449005620167
0.00366861638309
0.00759991183437
0.00957852997527
0.0107568302069
0.0114408795141
0.0118037610414
0.0119666929705
0.0120196142314
0.0120252058572
0.0120200764957
0.0120202827427
0.0120257479204
0.0120203782895
0.011967551248
0.0118045926187
0.0114415616875
0.0107573057365
0.00957879879579
0.00760001325183
0.00366856111952
0.00250142877135
0.00366888366463
0.00449050795971
0.00499332477296
0.00528205243705
0.00543144279914
0.00549564728037
0.00551475774203
0.00551595098486
0.00551376614027
0.00551384204465
0.00551614638545
0.00551502637247
0.00549593660898
0.00543170711136
0.00528224778183
0.00499344120026
0.00449056735563
0.00366891047307
0.00250141614344
0.00254498498832
0.00381395541058
0.00472517007318
0.00529583570754
0.00563334698905
0.00581632807884
0.00590313095975
0.00593768445066
0.00594932310473
0.00595266112521
0.00595263259738
0.00594925695329
0.0059376056864
0.00590305978207
0.00581629238981
0.00563337811054
0.00529592264081
0.00472529387699
0.00381410091832
0.00254504201866
0.00381378029984
0.00802302327558
0.0101947228822
0.0115173547458
0.0123052834045
0.0127397860904
0.0129500490068
0.013033194108
0.0130569023355
0.0130603430761
0.0130602802453
0.0130567564834
0.01303301396
0.0129498741531
0.0127397008192
0.012305387962
0.0115176223716
0.0101950637081
0.00802334821691
0.00381386949038
0.0047248410567
0.0101942781037
0.012992305891
0.0147393635152
0.0158246533652
0.016458364018
0.0167931026026
0.0169438221898
0.0169944310943
0.0170047235745
0.0170046481033
0.0169942520192
0.0169435788643
0.0167928240136
0.0164581241854
0.0158245666973
0.0147394206501
0.0129924516423
0.0101944566763
0.00472487075586
0.005295325409
0.0115165062042
0.0147389488118
0.0167809251694
0.0180839124194
0.0188761448758
0.0193138423486
0.0195178565379
0.0195829200266
0.019592979345
0.0195928975152
0.0195826890068
0.0195175066382
0.0193133860634
0.0188756671943
0.0180835812315
0.0167807148693
0.0147388165128
0.0115164379924
0.00529526378102
0.00563279416122
0.0123042610477
0.0158240272837
0.0180836512233
0.0195571348301
0.0204804726859
0.0209967873445
0.0212273905572
0.0212878571972
0.0212876636465
0.0212875856689
0.0212876094398
0.0212269715794
0.0209962170584
0.0204798464011
0.019556572134
0.01808315901
0.015823592127
0.0123038951803
0.00563262808847
0.00581581630929
0.0127389514184
0.0164578475586
0.0188759171299
0.0204805055898
0.0214918282786
0.0220481036342
0.0222722536601
0.0223061990185
0.022285042994
0.0222849742437
0.0223059752902
0.0222718120391
0.0220474464549
0.0214910637559
0.0204797398995
0.0188751624465
0.0164571534342
0.0127383154904
0.00581553861957
0.00590278218327
0.0129496919173
0.0167929295157
0.0193139133575
0.0209970937132
0.0220483173453
0.0225973421025
0.0227825716515
0.0227720560343
0.0227237983668
0.0227237660123
0.0227719182151
0.022782184786
0.0225966946649
0.0220475264431
0.0209962575384
0.0193130828312
0.0167921662054
0.012948956933
0.00590243679975
0.00593748105766
0.0130331901937
0.0169438781561
0.0195182238765
0.0212279898371
0.0222725516559
0.0227819271506
0.0229116925453
0.0228548469628
0.0227838289667
0.0227838285793
0.0228547690896
0.0229113815966
0.0227814092626
0.0222719191036
0.021227270478
0.0195175290767
0.0169432449127
0.0130325750813
0.00593714194629
0.00594910722933
0.0130568045261
0.0169943151457
0.0195832194843
0.0212883595094
0.0223062118665
0.0227704764871
0.0228535564417
0.0227672410751
0.0226832052846
0.022683159481
0.0227671193658
0.0228533845232
0.0227701196806
0.022305737834
0.0212878595614
0.0195827795111
0.016993970013
0.0130564757678
0.00594884099251
0.00595230485558
0.0130598198559
0.0170041543635
0.0195928653862
0.0212877256425