/*--------------------------------*- C++ -*----------------------------------*\
| =========                 |                                                 |
| \\      /  F ield         | OpenFOAM: The Open Source CFD Toolbox           |
|  \\    /   O peration     | Version:  3.0.1                                 |
|   \\  /    A nd           | Web:      www.OpenFOAM.org                      |
|    \\/     M anipulation  |                                                 |
\*---------------------------------------------------------------------------*/
FoamFile
{
    version     2.0;
    format      ascii;
    class       volScalarField;
    location    "2.3";
    object      nut;
}
// * * * * * * * * * * * * * * * * * * * * * * * * * * * * * * * * * * * * * //

dimensions      [0 2 -1 0 0 0 0];

internalField   nonuniform List<scalar> 
7968
(
0.000255573329648
0.000266160601322
0.000273539359677
0.000277414784052
0.000279101203069
0.000279556437838
0.000279403143912
0.000278994728363
0.000278561345442
0.000278238708733
0.000278238401425
0.000278560773962
0.000278994586751
0.000279403979934
0.000279558403785
0.000279104187949
0.000277418201859
0.000273542749194
0.000266164346058
0.000255575372436
0.000266159337667
0.00030870801335
0.000332924980468
0.000345298277126
0.000350986288717
0.00035289296711
0.000352880417088
0.000352136514689
0.000351405200162
0.000350993038134
0.000350991798687
0.000351402074314
0.000352132483125
0.000352876651331
0.000352890854395
0.000350987124898
0.000345301607749
0.000332929624555
0.000308713947919
0.000266163016718
0.000273535839994
0.000332921371192
0.000365804806617
0.000382836348251
0.000391027702653
0.000394108348962
0.000394483778977
0.000393784762111
0.000393025704824
0.000392605505241
0.000392603378513
0.000393020107483
0.000393776826169
0.000394475008011
0.00039410118962
0.000391024158119
0.000382836563464
0.000365807645648
0.000332926189368
0.000273539836762
0.000277407101902
0.000345288397712
0.000382831459407
0.000402357752777
0.000411732751485
0.000415136925092
0.0004154093792
0.000414479913694
0.000413556261821
0.000413070080587
0.000413067246707
0.000413548566967
0.000414468221618
0.000415395694499
0.000415124070721
0.000411723795393
0.000402353275364
0.000382830663654
0.00034529060895
0.000277410884504
0.000279088354575
0.000350971094558
0.000391020899559
0.000411733340497
0.00042131328216
0.000424396291825
0.00042535358898
0.000425389263217
0.000424921445654
0.00042456149066
0.000424559520321
0.000424915904483
0.000425380855125
0.000425343152833
0.00042437971327
0.000421299066927
0.000411723356289
0.000391015157818
0.000350969130625
0.00027909083637
0.000279539252793
0.000352876671034
0.000394106631468
0.000415149421312
0.000424412448909
0.000429230293128
0.000431168984926
0.000431226564452
0.000430645528271
0.000430195737127
0.000430194081484
0.000430640525896
0.000431218447233
0.000431158841095
0.000429218188119
0.000424394820565
0.000415134372126
0.00039409587007
0.000352870078807
0.000279539587981
0.000279382561494
0.000352866705822
0.000394493520665
0.000415442869052
0.000425369906178
0.000431177474106
0.000433061197019
0.000432787105726
0.000431891515219
0.00043125898359
0.000431257435482
0.000431887029654
0.000432779782027
0.000433051628814
0.000431166554622
0.00042535726986
0.000415426100687
0.000394479777716
0.000352856544383
0.000279380654023
0.000278971059072
0.000352125588831
0.000393805064397
0.000414532876681
0.000425415066882
0.000431241357766
0.000432788641721
0.000432063604205
0.000430766257854
0.000429896913462
0.000429895153784
0.000430761910358
0.000432057284104
0.000432780841011
0.000431232425469
0.000425404741828
0.000414519131753
0.000393791798537
0.000352113986031
0.000278967350168
0.000278534679404
0.00035139389857
0.000393048581882
0.000413615637643
0.00042495405981
0.000430666567758
0.000431895340461
0.000430765057527
0.000429093185691
0.000427985877763
0.000427983953752
0.000429089545554
0.000430761422471
0.000431891304081
0.000430661620993
0.000424947953165
0.000413609222538
0.000393039275742
0.00035138342366
0.000278529859607
0.000278210663298
0.000350979142229
0.000392623658094
0.000413124205664
0.000424596583673
0.000430223086708
0.000431270273893
0.000429901161734
0.000427988116568
0.000426692511052
0.000426692538318
0.000427988523468
0.000429902502597
0.000431271569817
0.00043022363864
0.000424596145192
0.000413126945735
0.000392620631371
0.000350971989483
0.0002782059027
0.000278215555783
0.000350978762787
0.000392618727076
0.000413116316547
0.000424594449018
0.000430222623341
0.000431271772764
0.000429904449836
0.000427992154189
0.000426698167909
0.000426700196292
0.000427997553373
0.000429911480362
0.000431278757886
0.000430228957494
0.000424600110646
0.000413128596359
0.000392622542624
0.000350975684138
0.000278211822262
0.000278544289497
0.000351393075794
0.000393035510368
0.000413594015258
0.000424949316072
0.000430667217763
0.000431902022921
0.000430777610634
0.000429110100227
0.000428007698856
0.000428009914436
0.00042911667521
0.000430786782762
0.000431912099963
0.00043067742389
0.000424959707463
0.000413614575481
0.000393044992108
0.000351393499292
0.000278541613127
0.000278982895005
0.000352126984327
0.000393789921072
0.000414505938852
0.000425411836675
0.000431246647427
0.000432802870997
0.000432085998243
0.000430796480691
0.000429934800474
0.000429936916033
0.000430802443693
0.000432094738712
0.000432813456078
0.000431258322264
0.000425424267091
0.000414529783051
0.000393801562858
0.000352128915397
0.000278980840702
0.000279395973791
0.000352873319602
0.000394483215429
0.00041542044333
0.000425370500213
0.000431188922355
0.000433083018246
0.000432818185826
0.000431931087563
0.000431306504267
0.000431308271508
0.00043193579205
0.000432825414768
0.00043309250252
0.000431199972092
0.000425382756976
0.000415441070017
0.000394492504199
0.000352874015613
0.000279393677343
0.000279553557708
0.000352890323828
0.000394106067748
0.000415137644693
0.000424404296559
0.000429245956202
0.000431197157876
0.000431265424324
0.00043069388594
0.000430251644424
0.00043025311202
0.000430697697032
0.000431271161129
0.000431204926292
0.000429256227916
0.00042442440857
0.000415149925355
0.000394109350513
0.00035288805931
0.000279550916792
0.000279102588389
0.000350991272764
0.000391030062177
0.000411732404717
0.00042131299465
0.000424412474133
0.000425384703201
0.000425432809776
0.000424975017806
0.000424621719684
0.000424622881775
0.000424978155967
0.000425437584062
0.000425391272142
0.000424425338669
0.00042132225644
0.000411735064212
0.000391027374701
0.000350986235924
0.000279099793922
0.000277418549598
0.000345310985611
0.000382846908616
0.000402365043289
0.000411737951963
0.000415151335406
0.000415442197471
0.000414532027524
0.00041362129931
0.000413142101947
0.000413143583972
0.000413625245729
0.000414537858151
0.000415449263384
0.000415157447445
0.000411739789603
0.000402362249574
0.000382841112882
0.000345304884829
0.000277416218152
0.000273543581434
0.000332942278433
0.000365822399523
0.000382848488264
0.00039103674538
0.000394120071064
0.000394504915497
0.000393817327096
0.000393066749712
0.000392651416582
0.000392653378162
0.000393071515348
0.00039382349697
0.000394510882311
0.000394123899262
0.00039103657043
0.000382844582654
0.000365816381282
0.00033293681863
0.00027354169934
0.000266163938453
0.000308724011469
0.000332940407699
0.000345311046091
0.000350996224933
0.000352902416653
0.000352893521002
0.000352155405328
0.000351429259025
0.000351021008993
0.000351023387856
0.000351435266322
0.00035216308642
0.000352900654599
0.000352907044402
0.000350997041633
0.000345308226656
0.000332935585296
0.000308719713793
0.000266162453688
0.00025557432429
0.000266164802572
0.000273544105616
0.000277418917123
0.00027910427203
0.000279558045705
0.000279404270097
0.000278996471625
0.000278564252523
0.000278243402699
0.000278245176037
0.000278568299853
0.000279001326826
0.000279408585124
0.000279560822707
0.000279105246336
0.000277418233922
0.000273542546663
0.00026616364349
0.000255573632731
0.000264950415933
0.000302877151351
0.000326083494381
0.000338693064331
0.000345083179011
0.000347829944358
0.000348567182451
0.00034836795487
0.000347929255174
0.000347622950103
0.000347622201657
0.000347927389617
0.000348365688817
0.000348565270063
0.000347828945304
0.000345083427597
0.000338694169068
0.00032608498824
0.000302879503186
0.000264952439065
0.000302872382547
0.000948659326669
0.00121555955037
0.00134658940279
0.00141127894479
0.00143876026899
0.00144571517143
0.00144307323036
0.00143817429
0.00143493491526
0.00143492670321
0.00143815304721
0.00144304475213
0.00144568717812
0.00143874249154
0.00141127788128
0.00134660110075
0.00121557268373
0.000948666817092
0.00030287328889
0.000326075860159
0.00121553533952
0.00161750689284
0.0018254135111
0.0019354311398
0.00198876517284
0.00200912889233
0.00201257173336
0.00201003047036
0.0020075067454
0.00200749281887
0.00200999278511
0.0020125170229
0.00200906793871
0.00198871312404
0.00193539945594
0.00182540196609
0.00161750760679
0.00121554185889
0.000326075958883
0.000338680973259
0.00134651651012
0.00182536891726
0.00207966969458
0.00221755166334
0.00228636105334
0.00231384892989
0.00231952170622
0.00231757264362
0.00231518973452
0.00231517113273
0.00231751968885
0.002319438636
0.00231375097597
0.00228627092823
0.00221748150521
0.00207962304996
0.0018253421414
0.00134650479527
0.000338679981367
0.000345066481724
0.00141117578438
0.00193536888718
0.00221754704911
0.00237070592182
0.00244474511262
0.00246981708523
0.00246797475562
0.00246083852279
0.00245619644236
0.00245617092978
0.00246076299479
0.0024678537728
0.0024696746833
0.00244462474448
0.00237060199451
0.00221746321658
0.00193530748802
0.00141113618056
0.000345063333199
0.000347810597252
0.00143866983612
0.00198874239825
0.00228643058179
0.00244485053149
0.00250938508955
0.00251855159473
0.00250692632328
0.00249382380995
0.0024863827712
0.00248636347877
0.00249375849247
0.00250680536944
0.00251839608823
0.00250922986424
0.00244472196752
0.00228631725921
0.00198865028291
0.00143860388118
0.000347804655652
0.000348547679542
0.00144566927959
0.0020091936986
0.00231406795862
0.00247020023621
0.00251878604479
0.0025151464253
0.00249399509237
0.00247493257018
0.00246472167746
0.00246470690775
0.00247488688077
0.0024939035677
0.00251501298367
0.00251864086579
0.0024700594357
0.00231394674821
0.00200908918679
0.00144558928953
0.000348539306385
0.000348349009665
0.00144307115797
0.00201271534119
0.00231986657255
0.00246856280823
0.0025072907411
0.0024939898537
0.00246514827131
0.00244141703748
0.002429239904
0.00242921945267
0.00244136790376
0.00246507132066
0.00249390135285
0.00250720052731
0.00246847235304
0.00231977574051
0.00201262627394
0.00144299614498
0.000348339446224
0.000347910005358
0.00143818979975
0.00201020101164
0.0023179571917
0.00246153203037
0.00249427185824
0.00247487948077
0.00244130712963
0.00241528743636
0.00240246153511
0.00240242888822
0.00241523368501
0.00244128119202
0.00247487142471
0.00249427439777
0.00246153065959
0.00231792540441
0.00201015154304
0.00143813727275
0.000347900751736
0.000347603163663
0.00143494732885
0.00200766325823
0.00231555976501
0.00245690626204
0.00248690927307
0.0024647631874
0.00242918521475
0.0024024379064
0.00238944430808
0.00238944967225
0.00240246471343
0.0024292537218
0.00246485559758
0.00248702451208
0.00245701245965
0.00231559981174
0.00200766706369
0.00143492838955
0.000347595725346
0.000347604781957
0.00143494558582
0.00200763832193
0.00231551806505
0.00245683952908
0.00248686178218
0.00246475560341
0.00242919501209
0.00240242267349
0.00238944340635
0.00238947862471
0.0024025425888
0.0024293690047
0.00246495277219
0.00248708945651
0.00245705334305
0.00231563058681
0.00200769801298
0.00143496355725
0.000347599852573
0.000347914627241
0.00143819410766
0.00201014082016
0.0023178483446
0.00246136736005
0.00249418144899
0.00247492284429
0.00244144513598
0.00241544540795
0.00240268056467
0.00240271799608
0.0024155829764
0.00244165687257
0.00247518568815
0.00249449056763
0.00246166413656
0.00231802144946
0.0020102464252
0.00143824323978
0.000347911852411
0.000348357358978
0.00144310746429
0.00201266035003
0.00231973583093
0.00246838489597
0.0025072502639
0.00249414996214
0.00246545053504
0.00244183992344
0.00242978854248
0.00242982980219
0.00244196916423
0.002465653231
0.00249442803165
0.00250759113514
0.00246871854163
0.00231994233052
0.00201278723864
0.00144317171567
0.00034835560404
0.000348560657455
0.00144576664806
0.00200919443157
0.00231398550227
0.00247009258966
0.00251884940838
0.00251544639749
0.0024944648043
0.00247553310792
0.00246545522053
0.00246549334832
0.00247564066858
0.002494639926
0.00251569853435
0.00251916692217
0.00247039723009
0.00231417643717
0.00200930985247
0.00144582598835
0.000348558415636
0.00034782852439
0.00143884865886
0.00198883703179
0.00228644987791
0.00244489333902
0.00250956607889
0.00251898172022
0.0025075645406
0.00249462234113
0.00248730834768
0.00248734041472
0.0024947101169
0.00250770398439
0.00251918442114
0.00250980523267
0.00244508074535
0.00228658240835
0.00198891452252
0.0014388863849
0.00034782507826
0.000345088168003
0.00141143566399
0.00193556099986
0.00221766608405
0.0023708335541
0.00244499054716
0.00247029594572
0.00246866912412
0.00246169191771
0.00245715028491
0.00245717188699
0.00246175465811
0.0024687721164
0.00247043850625
0.00244513158277
0.00237095053567
0.00221774274126
0.00193559878416
0.00141144969665
0.000345083764304
0.000338703296013
0.00134683135039
0.00182563806778
0.00207987631898
0.00221774744891
0.00228662654354
0.00231425160255
0.00232006288132
0.00231820996846
0.00231588569906
0.00231590392413
0.0023182617688
0.00232014430578
0.00231435429988
0.00228672809661
0.00221782581406
0.00207992127189
0.00182565382986
0.00134683277406
0.000338698900204
0.000326096097289
0.00121586075386
0.00161781400372
0.00182568053374
0.00193568429888
0.00198905280998
0.00200949653573
0.00201302837078
0.00201055496939
0.00200807682226
0.00200809807821
0.00201061285949
0.00201311352278
0.00200959602682
0.00198914803516
0.00193575668885
0.00182572170144
0.00161782736493
0.00121586105008
0.00032609204825
0.000302887445657
0.000948918759235
0.00121582837273
0.00134684632337
0.00141152904612
0.00143902578212
0.00144602300181
0.001443432627
0.00143857736943
0.00143537173135
0.00143539369124
0.00143863720464
0.00144351978389
0.00144612372245
0.0014391230164
0.00141160655155
0.00134689395833
0.00121584552884
0.000948917689231
0.000302883939915
0.000264952423297
0.000302895049107
0.000326103280367
0.000338710703154
0.000345098306979
0.000347843721007
0.000348582220246
0.000348386079762
0.00034795074528
0.000347647569776
0.000347649677082
0.000347956075028
0.00034839297277
0.00034858893975
0.000347848879944
0.000345101157366
0.000338711223231
0.000326102340438
0.000302893927264
0.000264951413827
0.000271461342932
0.000323041375076
0.000354337854673
0.00037176976685
0.000381091376352
0.000385556640633
0.000387217508434
0.000387472571697
0.000387246909626
0.000387034339641
0.000387033458662
0.000387244753868
0.000387469923663
0.000387215124362
0.000385555270485
0.000381091542142
0.000371771031115
0.000354339635552
0.000323044112845
0.000271463696877
0.000323034561541
0.00117300253674
0.00155556756688
0.00175040997527
0.00185059036743
0.00189668678128
0.00191198395638
0.00191201467009
0.00190729869139
0.00190369086576
0.00190368244053
0.00190727863559
0.00191199058854
0.00191196538819
0.00189668692202
0.00185061827024
0.00175045707575
0.00155561386537
0.0011730330931
0.000323035470705
0.000354327419368
0.0015555121112
0.00217312196326
0.00251122360547
0.00269889380611
0.00279607373115
0.00283857818419
0.00285137260853
0.00285176030405
0.00284971762636
0.00284970082039
0.00285171604733
0.00285130899635
0.00283850915676
0.00279602018912
0.00269887079253
0.00251122864253
0.00217314262005
0.0015555389836
0.000354326778954
0.000371754286884
0.00175027386001
0.00251114157617
0.00294376866011
0.00319191010114
0.00332533873173
0.00338693792292
0.00340850111908
0.00341293439859
0.00341239206065
0.00341237191345
0.00341287685674
0.00340840089042
0.00338681804155
0.00332523060663
0.00319182787822
0.002943717395
0.00251111753364
0.00175027311876
0.000371751842964
0.000381071431631
0.00185040422073
0.00269877073263
0.00319188137566
0.00347824953033
0.00363280397174
0.00370105283845
0.00372262469748
0.00372458975494
0.00372213290678
0.00372210345414
0.00372450440279
0.00372249013981
0.00370089678346
0.00363267729045
0.0034781215311
0.00319177378104
0.0026986933544
0.0018503618773
0.000381066223069
0.000385534761515
0.00189652212108
0.00279599809752
0.00332538788248
0.00363287988651
0.00379054208953
0.00385739512646
0.00387583525685
0.00387332695476
0.00386772128063
0.00386769355756
0.00387324187749
0.00387569112321
0.00385721686405
0.00379036829284
0.00363273633216
0.00332523761297
0.00279587439246
0.00189644074468
0.000385526280326
0.000387197304319
0.00191189685122
0.00283862480531
0.00338716594678
0.00370139573926
0.00385761378514
0.00392187743454
0.00393544322394
0.00392694480605
0.00391743451454
0.00391741210608
0.00392687657363
0.00393532049998
0.00392171302245
0.00385744183021
0.00370123063297
0.00338700360287
0.00283848442419
0.00191179783745
0.000387186333076
0.000387454828912
0.00191199907075
0.00285152563758
0.00340886461722
0.00372317090969
0.00387619833415
0.00393548228097
0.00394215868501
0.00392741942762
0.00391454691522
0.00391452295255
0.00392735498388
0.00394205694644
0.003935364196
0.00387608256093
0.00372305938643
0.0034087452659
0.00285141259815
0.0019119143627
0.000387443193798
0.000387229553531
0.00190730303362
0.00285193883581
0.00341326710098
0.0037252374847
0.0038737782183
0.00392692964704
0.00392731806756
0.00390851499291
0.00389383923639
0.00389381113889
0.00390846206601
0.00392727710727
0.00392689937276
0.00387376342128
0.00372522534358
0.00341322467952
0.00285188872823
0.00190725965651
0.000387219213375
0.00038701588078
0.00190367610632
0.00284987338685
0.00341272073539
0.00372280697104
0.00386824456275
0.00391749285611
0.00391449081869
0.00389382412728
0.00387831533053
0.00387832261262
0.00389385662278
0.00391455676704
0.0039175760405
0.00386835363714
0.00372291549287
0.00341276533147
0.00284990540172
0.00190368967741
0.000387008359922
0.000387016155523
0.00190366293263
0.00284983651547
0.00341268724397
0.00372274813986
0.00386820491318
0.00391749201038
0.00391450730766
0.00389382542572
0.00387833596765
0.00387837697447
0.00389395431332
0.00391468722549
0.00391769119712
0.00386843766265
0.00372297631412
0.00341281911126
0.00284995220487
0.00190373623164
0.000387012001942
0.000387231008946
0.00190728013149
0.00285185103459
0.00341318208494
0.00372509895543
0.00387371167002
0.00392699286646
0.00392747388207
0.00390870700919
0.00389410644886
0.00389415372053
0.00390886108735
0.00392770118956
0.00392726687316
0.00387403441901
0.00372541794668
0.00341338734268
0.00285203300482
0.00190740154923
0.000387229648616
0.000387459639461
0.00191201048441
0.00285144064063
0.00340872030156
0.00372303225209
0.00387619722146
0.00393567345001
0.00394250905534
0.00392790437624
0.00391517297185
0.00391522271072
0.00392805301801
0.0039427362255
0.00393597337541
0.00387655776826
0.0037233973035
0.00340900298788
0.00285165638946
0.00191215339575
0.000387459497364
0.000387208007498
0.00191199560177
0.00283862122361
0.00338708000092
0.00370135198909
0.00385774133443
0.00392224033576
0.00393599456055
0.00392765760042
0.00391829947715
0.00391834498504
0.00392778641286
0.00393619808183
0.00392251852519
0.00385808362242
0.00370169255427
0.00338735418883
0.00283882166723
0.0019121272098
0.000387207168347
0.000385553167351
0.00189675148394
0.00279614356753
0.00332545429517
0.00363303827128
0.00379082431825
0.00385792336033
0.00387658837808
0.00387426291682
0.00386880153961
0.00386883928735
0.00387437038548
0.00387675959974
0.00385816003844
0.00379109656136
0.0036332599034
0.00332565620062
0.00279628776614
0.00189684424828
0.000385550540175
0.000381096932778
0.00185076899969
0.0026990760229
0.00319209996706
0.00347848889307
0.00363320162717
0.0037016758665
0.00372347702159
0.00372561717614
0.00372328012444
0.00372331038304
0.00372570585986
0.00372362094988
0.00370186712279
0.00363338999531
0.00347866804085
0.00319223362205
0.00269916183154
0.0018508201338
0.00038109293305
0.000371783864261
0.00175073890601
0.0025115770958
0.00294412732535
0.00319225544042
0.00332577859838
0.00338755544222
0.0034092990698
0.00341383270799
0.00341337236554
0.00341340311888
0.00341392093253
0.00340943945583
0.00338773220446
0.00332595653312
0.00319240239248
0.00294422649374
0.00251163339915
0.00175076801822
0.000371779755051
0.000354357405826
0.00155601274128
0.00217362604162
0.00251167873418
0.00269933223887
0.00279656565432
0.00283919109541
0.00285211952987
0.00285260729366
0.00285063716615
0.00285067661194
0.00285271542779
0.00285228044293
0.0028393822712
0.0027967553403
0.00269948795161
0.00251178465997
0.00217368425952
0.0015560394724
0.000354353883237
0.000323059142821
0.00117341730231
0.00155601343097
0.00175084195996
0.00185101458986
0.00189713982934
0.0019125109897
0.00191262746375
0.00190798021595
0.00190442467588
0.00190446503011
0.0019080907031
0.00191279096792
0.00191270515303
0.00189733584032
0.00185118287209
0.00175096309744
0.00155608185569
0.00117344437721
0.00032305634232
0.000271464078107
0.000323069980979
0.000354369418649
0.000371798197877
0.000381116252281
0.000385579984491
0.000387243200562
0.0003875028547
0.000387281656947
0.000387072791117
0.0003870753824
0.000387288345315
0.000387511959377
0.000387252786334
0.000385588364437
0.000381122162926
0.000371801353445
0.000354370588646
0.000323070249202
0.000271463188625
0.000275239910668
0.000333793439878
0.000369599885511
0.000389989395263
0.000401292550694
0.000407058704163
0.000409537008086
0.000410290226698
0.000410354807811
0.00041028093309
0.000410279920952
0.000410352388126
0.000410287247418
0.000409534236309
0.000407057146178
0.000401293093452
0.000389991608315
0.000369603084582
0.000333798116185
0.000275242709982
0.000333784989279
0.00128550405212
0.00173174019495
0.00196453959537
0.00208735356808
0.00214661811878
0.0021691226301
0.00217286373769
0.00216989237258
0.00216697206973
0.00216695976325
0.00216986360881
0.00217282877966
0.00216909267727
0.00214661418019
0.00208739391903
0.00196461196997
0.00173181636912
0.00128556066553
0.000333787282911
0.000369587151371
0.00173166004595
0.00247469423015
0.00289577135485
0.00313701337164
0.00326737504637
0.00332910805686
0.00335202355152
0.00335687505661
0.00335632478461
0.00335630331453
0.00335682052033
0.00335195043757
0.00332902843379
0.0032673156742
0.00313699610663
0.00289579117676
0.00247473388213
0.0017317060762
0.000369587122626
0.000389971257475
0.00196436517241
0.00289566867378
0.00344682848857
0.00377436396289
0.00395895758169
0.00405242123447
0.00409219397025
0.00410392308813
0.00410517102427
0.00410514256897
0.00410384652263
0.00409209112525
0.00405228627411
0.00395883444608
0.0037742768179
0.00344677849167
0.00289564906437
0.00196437124696
0.000389968586278
0.000401271176574
0.00208713017353
0.0031368644123
0.00377432390136
0.0041606555661
0.00438385350866
0.00449870671529
0.00454716851967
0.00456006928645
0.0045605142534
0.00456048062623
0.00455997394858
0.00454702294358
0.00449853284866
0.00438368669826
0.00416050997164
0.00377420516863
0.00313677702661
0.00208708018545
0.000401265085315
0.000407036966812
0.00214644926571
0.00326729513587
0.00395900497167
0.00438395879545
0.00462990751892
0.00475820250115
0.00481052198918
0.00482086091374
0.00481828425575
0.00481825340936
0.00482076888906
0.00481036941317
0.00475801135354
0.00462971037345
0.00438377362457
0.00395883240587
0.00326715063759
0.00214634822224
0.00040702713193
0.000409519340654
0.00216909021585
0.00332919102374
0.00405265716057
0.00449902852612
0.00475839770631
0.00489265145718
0.00494283517627
0.00494690711527
0.00493964581858
0.00493962286359
0.00494683784786
0.00494270464098
0.00489247605189
0.00475821071131
0.00449884272439
0.00405247708704
0.00332903408212
0.00216897444274
0.000409507084729
0.000410276875319
0.00217294480866
0.00335223976836
0.0040925257767
0.0045476735855
0.00481084778979
0.00494281785794
0.00498552920054
0.00498166389201
0.00497001320198
0.00496999728849
0.00498161223611
0.00498542385691
0.0049426883466
0.00481071908551
0.00454755013468
0.00409241293411
0.00335213205314
0.00217286408689
0.00041026465132
0.000410341788095
0.00216999220068
0.00335713768298
0.00410439732639
0.0045606879084
0.00482125817353
0.00494682295566
0.00498152538887
0.00497204229552
0.00495756011326
0.00495753597184
0.00497199478248
0.004981488046
0.00494677862488
0.00482122370077
0.00456066713624
0.00410438196965
0.00335712355577
0.00216998363415
0.000410331929629
0.000410264991912
0.00216701005278
0.00335652803743
0.00410562276762
0.00456113894379
0.00481871749971
0.0049396071904
0.00496989683756
0.00495751342074
0.00494147054882
0.00494148573976
0.00495754805327
0.00496995082319
0.00493965936428
0.00481879468205
0.00456124153824
0.00410573136154
0.00335663148185
0.00216709196765
0.00041025899997
0.000410263106749
0.00216695542137
0.0033564470048
0.00410554105711
0.00456106451411
0.00481866337177
0.00493958030392
0.00496987546136
0.00495746129271
0.00494144435623
0.00494148459242
0.00495758657583
0.00497003125767
0.00493973136499
0.00481885226023
0.00456128818194
0.00410576985853
0.0033566646436
0.00216712565751
0.000410261280882
0.000410337255285
0.0021698556744
0.00335693214157
0.00410419255066
0.00456050745285
0.00482114807757
0.00494680891636
0.00498157773482
0.00497209669477
0.00495768335238
0.00495772680664
0.00497223892438
0.00498177605993
0.00494703371422
0.00482142188374
0.0045608201159
0.00410450785274
0.00335723335362
0.00217009173937
0.000410338714565
0.000410273052859
0.00217279802457
0.00335200595415
0.00409232868719
0.00454748505186
0.00481077720276
0.00494289420259
0.00498570155654
0.00498195103662
0.00497042636712
0.0049704760719
0.00498209243473
0.00498590325255
0.00494315262739
0.00481109320818
0.00454783854297
0.00409265203636
0.0033523308462
0.00217305401886
0.000410275648005
0.000409520615147
0.00216902032597
0.00332902055017
0.00405244598424
0.00449890486641
0.00475843714859
0.0048928773433
0.00494318918625
0.00494738815221
0.00494026623615
0.00494031320261
0.0049475167443
0.00494338353461
0.00489313521298
0.00475875751282
0.00449926118794
0.00405279383494
0.00332931934644
0.00216924820134
0.000409521961384
0.000407047607413
0.00214654555621
0.00326730333546
0.00395894453111
0.00438397857671
0.00463009895023
0.00475860680118
0.00481111146357
0.00482161000803
0.0048191654374
0.00481920502856
0.00482172331652
0.004811289954
0.00475884871095
0.00463038959109
0.00438428203941
0.00395921896625
0.00326752039985
0.00214670369642
0.000407046162672
0.00040129200733
0.00208742067636
0.00313708873091
0.00377445852178
0.00416081745177
0.00438417685307
0.00449925597362
0.00454793165294
0.00456101132955
0.00456157780162
0.00456161342155
0.00456111687977
0.00454810072169
0.00449948040658
0.00438442948286
0.00416105590012
0.00377464212873
0.003137218335
0.00208750634972
0.000401288365828
0.000389999761407
0.00196481108286
0.00289608056149
0.00344715379251
0.00377466759691
0.00395936191194
0.00405302636483
0.00409299391622
0.00410490313092
0.00410625602203
0.00410629629659
0.00410501753104
0.00409316962289
0.00405325123369
0.00395959829585
0.00377486543108
0.00344729173098
0.00289616643183
0.00196485866608
0.000389995622107
0.000369619351882
0.00173218896648
0.00247522456863
0.00289624006384
0.00313745534903
0.0032678763288
0.00332975929381
0.00335284559643
0.00335783156973
0.00335736949328
0.00335742311953
0.00335797606174
0.00335305908665
0.00333001422376
0.00326813324718
0.003137668368
0.00289638981819
0.00247531269648
0.00173223092749
0.000369616012955
0.000333814266901
0.00128597624411
0.00173224189243
0.00196501291504
0.00208780811768
0.00214710944331
0.00216972601478
0.00217359681697
0.00217072342113
0.0021678702611
0.00216792580082
0.00217087170543
0.00217381343821
0.00216998230969
0.00214737149644
0.00208803596217
0.00196518223211
0.0017323444179
0.00128602214146
0.000333811819503
0.000275241123249
0.000333826630448
0.000369634884265
0.000390019668367
0.00040131793642
0.000407081930606
0.000409563443966
0.000410322578936
0.000410392377803
0.000410322342413
0.000410325258027
0.000410399868024
0.000410332861743
0.000409574542029
0.000407092149797
0.000401325621917
0.000390024423753
0.000369637473808
0.000333827902055
0.000275240304931
0.000277731914454
0.000340615957851
0.000379502150659
0.000402033911887
0.000414847520427
0.000421677936899
0.000424918674667
0.000426237380831
0.000426709743505
0.00042685953131
0.000426858461521
0.000426707253322
0.000426234389504
0.000424915943566
0.000421676519157
0.000414848687692
0.000402037396877
0.000379507441759
0.000340622781042
0.000277735086153
0.000340608184501
0.00136004161854
0.00184980191771
0.00210833650209
0.00224627237208
0.00231460266846
0.00234272098891
0.00235008294934
0.00234944383214
0.0023477277773
0.00234771035553
0.0023494038199
0.00235003318162
0.00234267213903
0.00231458192166
0.00224630853054
0.00210841645693
0.00184989290159
0.00136011576358
0.000340612495809
0.000379488927579
0.00184970143346
0.00268151179886
0.00316178384718
0.00344139701052
0.00359632773592
0.00367393758371
0.00370625235069
0.00371538006822
0.00371632611841
0.00371629775848
0.00371530861681
0.00370615514633
0.00367383303153
0.00359624705399
0.00344137156917
0.00316180489161
0.00268155744313
0.00184975283788
0.000379490345864
0.000402014608824
0.00210814638985
0.00316167825483
0.00379855422033
0.00418551506999
0.00441149168194
0.00453177568045
0.00458535383731
0.00460165909054
0.00460397413016
0.00460393558342
0.00460155288462
0.00458519927022
0.00453159913917
0.00441133215473
0.00418541187925
0.00379849764419
0.00316165261651
0.00210814638744
0.000402012283066
0.000414827524258
0.00224605749061
0.00344125800223
0.00418547423567
0.00464972981595