/*--------------------------------*- C++ -*----------------------------------*\
| =========                 |                                                 |
| \\      /  F ield         | OpenFOAM: The Open Source CFD Toolbox           |
|  \\    /   O peration     | Version:  3.0.1                                 |
|   \\  /    A nd           | Web:      www.OpenFOAM.org                      |
|    \\/     M anipulation  |                                                 |
\*---------------------------------------------------------------------------*/
FoamFile
{
    version     2.0;
    format      ascii;
    class       volScalarField;
    location    "1.7";
    object      alpha.air;
}
// * * * * * * * * * * * * * * * * * * * * * * * * * * * * * * * * * * * * * //

dimensions      [0 0 0 0 0 0 0];

internalField   nonuniform List<scalar> 
7968
(
1.6885327639e-25
2.67897595137e-24
6.23168859209e-24
8.13926737516e-24
1.14848283006e-23
6.53997075124e-24
3.07274003546e-24
5.00327701037e-25
3.64653309509e-26
1.84039151747e-29
4.77628060359e-30
1.81130111052e-26
2.83759599481e-25
1.60196918145e-24
3.97984894709e-24
9.38587847964e-24
1.02973724905e-23
8.11124879535e-24
4.28164459495e-24
3.76922687583e-25
2.61721847749e-24
1.80903044796e-23
4.31579546452e-23
6.24508229778e-23
6.77588298335e-23
3.36151673669e-23
7.75249753432e-24
1.19559143485e-24
1.72615397642e-25
4.38697557444e-26
4.40950837002e-26
1.51798390563e-25
6.62348550125e-25
2.75652455281e-24
1.11915377862e-23
3.34989286693e-23
5.47998684051e-23
4.99203755885e-23
2.28981472427e-23
4.27745164646e-24
5.78508142708e-24
4.18767144218e-23
9.63524377502e-23
1.01607678831e-22
4.2103388359e-23
4.51393602493e-24
2.48445538903e-25
1.57148142985e-26
1.02704510513e-27
1.84199805611e-28
1.8823218536e-28
9.618411683e-28
1.03905975055e-26
9.98616644019e-26
9.40396240424e-25
9.30526296265e-24
4.42916927759e-23
7.49641975757e-23
4.90216561416e-23
8.27507297882e-24
8.40447062053e-24
6.36562167119e-23
1.07226679398e-22
4.3574418601e-23
3.23868067692e-24
1.33486288343e-25
2.97698864837e-27
9.26899685111e-29
9.79797441941e-30
2.46204180346e-30
1.97261434677e-30
5.52144348766e-30
4.64858585749e-29
1.23679254198e-27
4.44844720422e-26
6.29312941764e-25
8.17308269459e-24
4.24710657315e-23
5.27106485174e-23
1.11023434715e-23
1.05841430688e-23
8.12664095653e-23
6.12103211014e-23
5.19027434305e-24
1.5289065454e-25
2.55879169802e-27
5.18142542871e-29
2.34013765012e-30
2.45636896699e-31
6.63915733418e-32
4.14587068955e-32
7.01235690377e-32
3.46867551136e-31
1.1369480667e-29
8.22159159817e-28
5.00645629731e-26
7.92260398297e-25
1.08464750184e-23
3.54840539496e-23
9.83737676923e-24
1.41147054707e-23
5.01797746205e-23
1.71857497062e-23
4.18656242489e-25
5.63521488908e-27
7.22130043826e-29
1.44022886779e-30
5.58702079539e-32
4.968488417e-33
1.43599981949e-33
7.340449271e-34
8.65588807809e-34
3.28122266741e-33
1.44174113332e-31
1.37362257548e-29
1.48186842307e-27
9.57821583313e-26
1.67017929248e-24
1.55812401328e-23
6.27473944605e-24
8.29265953669e-24
2.15068402708e-23
2.27064288042e-24
2.62357614883e-26
1.94673077071e-28
2.29358741033e-30
3.37365120669e-32
9.07715158113e-34
2.80757140393e-34
1.06865007991e-34
1.02362434373e-34
7.13264856406e-35
2.82094043308e-35
1.91176967461e-33
2.4761787054e-31
3.4007208813e-29
5.1884372846e-27
2.56854907677e-25
4.80587440917e-24
1.8295279912e-24
3.01677932987e-24
6.55518953684e-24
1.88325640979e-25
1.02982267407e-27
7.05141498321e-30
7.41151986725e-32
8.20398790693e-34
7.10204955519e-34
1.50421831111e-34
7.36624677509e-34
4.22928062769e-34
2.64222275122e-36
7.7908190869e-36
2.57881491167e-35
4.56122235239e-33
8.14094111803e-31
1.59791715541e-28
2.98755767108e-26
1.03861699276e-24
3.26465174044e-25
8.41533429679e-25
1.64215400793e-24
1.7225982709e-26
6.82723261206e-29
4.27791294144e-31
3.77555988393e-33
2.05150642295e-34
2.20662939044e-34
5.96464535613e-36
1.1979563412e-35
6.55983688773e-36
1.2279362711e-37
2.69633081041e-36
7.38884511365e-37
1.70350598185e-34
3.59219178222e-32
7.74853771056e-30
2.00878726381e-27
1.47362139358e-25
1.35173175032e-26
2.40646811182e-25
4.39115502206e-25
2.60302257615e-27
9.39343181523e-30
6.13561909227e-32
6.51826578086e-34
1.95260404134e-34
3.02995697071e-34
4.77534388109e-36
5.42298484782e-38
3.48712197998e-38
1.18900327682e-36
1.51887194749e-35
3.13630843929e-36
2.96133695645e-35
5.96571008059e-33
1.24998177304e-30
3.21566559126e-28
3.88248903254e-26
6.19778261208e-28
1.33950335619e-25
2.94796173935e-25
1.50974961312e-27
5.10650364557e-30
3.07189992292e-32
2.92689849053e-34
1.21259083638e-34
3.79495787127e-34
5.31138846457e-36
3.61476607329e-38
1.62159184865e-39
1.47778765876e-37
7.22231622789e-36
6.44431169174e-37
3.72045101709e-35
7.91486984605e-33
1.69954220363e-30
4.35696512118e-28
4.9747689349e-26
7.73474088197e-28
2.87404205483e-25
5.80658629814e-25
3.86678837034e-27
1.38501842951e-29
7.69411374659e-32
5.90908546398e-34
3.47677169879e-35
1.72135238773e-36
1.04424207111e-37
4.77583230687e-36
9.98377142629e-38
4.78464393418e-39
2.13307247456e-38
1.15432543776e-36
2.97762508922e-34
6.86260965683e-32
1.5590916451e-29
4.05721119825e-27
2.40385038208e-25
3.55970033544e-27
9.91962658434e-25
1.93925527852e-24
2.52547551322e-26
9.65307412056e-29
4.94271618616e-31
3.08302585687e-33
1.98034599128e-35
4.87008811952e-36
3.18220734724e-36
2.75253233378e-34
5.38729792463e-36
7.46773791825e-38
3.49436183393e-37
2.82861060862e-35
5.85399799892e-33
1.18355896153e-30
2.39704083921e-28
4.19962395306e-26
1.0082178397e-24
1.38878308476e-25
3.43828128677e-24
7.33043621227e-24
2.0579583173e-25
1.49461909965e-27
9.55239924087e-30
8.09086779791e-32
8.99334623984e-34
1.50413857218e-35
8.10128572164e-37
1.46144255893e-36
7.28544690934e-37
2.4732816727e-36
5.47594000975e-35
2.27746026821e-33
2.59921640455e-31
3.8989975385e-29
6.48682745729e-27
2.53319924819e-25
3.62959403665e-24
7.42172155755e-25
5.56789522082e-24
2.27414593634e-23
1.86937734907e-24
4.85276592029e-26
4.31234247591e-28
5.46684886254e-30
1.02539773741e-31
2.81700771421e-33
1.96065959387e-34
5.57488688457e-35
9.53559368678e-35
6.72463099097e-34
1.29748855685e-32
3.784253888e-31
2.44425738555e-29
2.19281426991e-27
1.16580181633e-25
1.25380507107e-24
6.34120202824e-24
1.31350421389e-24
9.52317163808e-24
4.42237886513e-23
1.56526364572e-23
7.32720812755e-25
3.28945129963e-26
6.17453491658e-28
1.49012348202e-29
5.34350028349e-31
4.1480248633e-32
1.16161770361e-32
2.11088986918e-32
1.58780675533e-31
2.70576074528e-30
6.80847552244e-29
2.91978106465e-27
7.5661098634e-26
6.79033578917e-25
7.51951654112e-24
1.83311989591e-23
2.70830630567e-24
8.09375360695e-24
5.12588863117e-23
5.13736183968e-23
1.17141542632e-23
8.91800280985e-25
8.06700321148e-26
2.48859907098e-27
1.07451234198e-28
8.72281916844e-30
2.41981975259e-30
4.55656563745e-30
3.65161072199e-29
5.39313623439e-28
1.24280321635e-26
1.58494512659e-25
7.5490284443e-25
5.9738073295e-24
2.12230748208e-23
1.97708292402e-23
3.09083457029e-24
6.84507875148e-24
3.72168015003e-23
6.87696255773e-23
5.40102331431e-23
1.9684212027e-23
3.11518619811e-24
3.05064208406e-25
2.61699095605e-26
2.17412584314e-27
6.08119956009e-28
1.14358871149e-27
9.5197968431e-27
7.82917150238e-26
4.14277656115e-25
1.81058264479e-24
8.881662154e-24
2.20161096412e-23
3.12692092477e-23
1.77090105153e-23
2.82420583762e-24
2.91345621078e-24
1.91733577866e-23
3.5154944267e-23
5.41794375948e-23
4.77869969402e-23
2.33705983305e-23
6.77311385138e-24
1.18779973728e-24
2.00685221894e-25
7.86055041653e-26
1.14086986842e-25
4.68508411061e-25
1.74157498298e-24
5.53588802215e-24
8.9158978747e-24
2.1327084128e-23
2.35105901334e-23
1.71833820023e-23
9.54149023044e-24
1.6008248613e-24
2.56010413803e-25
2.89467356082e-24
6.94961829816e-24
8.4348442391e-24
9.24893709576e-24
6.5179554589e-24
2.03281182727e-24
3.53253679607e-25
1.49642346005e-26
6.51126781649e-28
1.15479008085e-27
3.31769266877e-26
3.63377410029e-25
1.28568457517e-24
2.9277556714e-24
3.62199078396e-24
3.37214605826e-24
2.86724602827e-24
1.61842369504e-24
1.36639245633e-25
2.17825450506e-22
2.46892180957e-21
5.96134947642e-21
8.33392364514e-21
1.53296076291e-20
1.07516814624e-20
8.68060138616e-21
3.17570049207e-21
1.0327307083e-21
4.16327564321e-22
3.88844616565e-22
8.69153139458e-22
2.28932304732e-21
5.25054654367e-21
7.40381443057e-21
1.36617491163e-20
1.21292479534e-20
8.69496897749e-21
4.89403687447e-21
6.05836503785e-22
2.41228139043e-21
1.09110877526e-20
2.418405286e-20
3.32045255057e-20
4.10727868331e-20
2.52577997173e-20
7.54655683211e-21
1.60178561291e-21
3.31758895698e-22
1.10857195989e-22
1.10840422221e-22
2.94417242986e-22
9.23065610049e-22
2.82773996339e-21
8.90954438421e-21
2.17849851391e-20
3.04245247293e-20
2.81416680584e-20
1.43318114169e-20
4.95798532259e-21
5.42495007997e-21
2.31615596724e-20
4.61256642665e-20
4.82119735394e-20
2.38839975109e-20
3.19126434783e-21
2.27234931131e-22
2.06350607949e-23
2.00942638468e-24
4.86499839567e-25
4.91761011502e-25
1.86773220678e-24
1.38281492992e-23
9.19323936523e-23
6.62900097821e-22
5.43368987479e-21
2.23942844739e-20
3.49151949078e-20
2.78387812791e-20
9.16008290782e-21
9.28221278177e-21
3.35192752245e-20
5.01042590146e-20
2.32266106371e-20
2.12692531036e-21
1.0410874218e-22
2.95518412904e-24
2.35275699515e-25
6.3379369534e-26
2.44539142704e-26
1.94389655084e-26
3.00241399012e-26
1.01917804348e-25
1.27646600734e-24
3.57003714067e-23
3.90578151817e-22
4.50962297481e-21
2.08100859711e-20
2.93083493536e-20
1.34506479398e-20
1.26953970078e-20
4.74014329347e-20
3.34902431947e-20
3.34971197142e-21
1.13435188105e-22
2.7311592586e-24
2.43060761353e-25
4.6869780188e-26
7.27503897683e-27
2.72566727572e-27
1.05975281363e-27
1.13474764861e-27
2.27156372027e-27
2.15127983028e-26
8.49952928238e-25
3.93190978312e-23
4.89146074461e-22
6.38747641691e-21
2.32565733236e-20
1.40046389416e-20
2.14447488611e-20
3.10787064349e-20
1.13018626708e-20
3.17587223079e-22
5.5444103758e-24
2.62953775541e-25
1.77800436991e-26
1.9961485975e-27
4.10956733363e-28
1.98556620136e-28
7.00889105104e-29
3.16140454769e-29
4.50297213234e-29
4.41641113983e-28
2.14286084974e-26
1.48831259479e-24
7.42377755258e-23
1.16706761702e-21
1.23646266439e-20
1.21856522191e-20
1.64837248545e-20
1.56351230015e-20
1.86674929812e-21
2.48662994993e-23
4.19714501396e-25
1.57365493587e-26
5.87783488545e-28
5.77406906116e-29
4.86731339815e-29
2.06751340578e-29
1.72943136212e-29
1.05783244058e-29
5.63662738562e-31
7.24956879582e-30
5.08710725879e-28
4.97469829261e-26
5.46994170318e-24
2.20164108766e-22
4.76268708157e-21
5.33306950614e-21
9.00259835671e-21
6.12533037441e-21
1.92499096323e-22
1.25827493482e-24
3.62093153118e-26
1.18246956547e-27
3.0434931099e-29
1.47870099042e-28
2.97340342463e-29
1.24744528725e-28
6.92712961659e-29
4.78042515238e-31
1.10428530557e-30
1.07435512487e-31
1.1295651053e-29
1.43869769918e-27
2.04197936756e-25
3.44573566616e-23
1.3406712302e-21
2.07551434547e-21
4.40825347329e-21
2.15141719639e-21
2.39415630238e-23
1.53857240822e-25
3.28391570607e-27
1.01556666412e-28
3.67561401945e-29
5.77087820097e-29
1.33869199391e-30
2.02241832055e-30
1.0446974311e-30
1.77605073716e-32
3.61452418121e-31
4.67204524397e-33
6.29215937945e-31
9.9584539235e-29
1.6400450431e-26
3.13307235351e-24
2.4736868816e-22
7.47435629954e-22
2.35415315173e-21
7.36360074091e-22
4.77313654228e-24
3.20795777636e-26
6.70763138302e-28
3.60830091422e-29
3.87071662617e-29
7.3510270623e-29
1.17208935994e-30
9.86937789819e-33
5.18540001705e-33
1.77546284237e-31
3.0296074647e-30
3.83244336591e-31
2.55182763832e-31
2.16476423894e-29
3.3015342107e-27
6.19215573341e-25
7.8887726675e-23
3.18792072414e-22
1.72712191727e-21
5.31670442472e-22
3.00396237174e-24
1.8760155107e-26
3.30131448578e-28
1.32672698461e-29
2.41952511724e-29
8.61618679652e-29
1.20118203343e-30
5.16548229256e-33
2.19875339534e-34
1.87099897566e-32
8.75933867305e-31
6.72862025488e-32
2.29435256164e-31
2.66750421772e-29
4.38455242999e-27
8.28408913591e-25
1.01505585582e-22
2.99561086135e-22
2.56750643153e-21
9.21744603672e-22
6.59669788128e-24
3.95349802738e-26
5.90738640214e-28
1.72006911899e-29
7.09807603607e-30
4.7141112461e-31
1.76484843319e-32
5.30678660005e-31
1.29078788167e-32
5.86968598535e-34
1.84887286335e-33
6.81309449214e-33
9.60434549921e-31
1.81574526888e-28
3.27853550978e-26
6.27175592795e-24
4.15557500773e-22
6.22913606864e-22
4.63246486485e-21
2.44466088029e-21
3.23781509843e-23
1.77548241836e-25
1.90481987729e-27
2.94125607123e-29
3.62109802346e-31
1.26306931137e-30
4.67134380355e-31
3.01276146376e-29
6.42923907848e-31
8.79925363675e-33
1.30084047645e-32
8.72979663198e-32
1.44631854178e-29
2.20200684324e-27
3.16876552678e-25
4.81895179212e-23
1.30608309645e-21
1.37299495711e-21
9.46916925162e-21
7.20995577792e-21
1.91289712934e-22
1.55682811301e-24
1.96243129083e-26
3.73590759656e-28
6.34956594209e-30
1.33099861338e-31
5.52258815397e-33
1.53143482209e-31
4.82703579465e-32
1.35353021608e-32
1.69918904704e-31
5.43022492403e-30
5.3145249993e-28
6.2264081239e-26
7.46381793002e-24
2.2527993088e-22
3.82026120649e-21
2.96822749722e-21
9.74704893873e-21
1.7676840045e-20
1.36166825449e-21
4.04477322639e-23
4.95411491772e-25
1.03934466027e-26
2.72544790298e-28
9.84455467984e-30
7.89578623461e-31
3.96101791918e-31
4.59771641634e-31
2.02729579401e-30
3.20885012183e-29
7.31976038121e-28
3.99035590942e-26
2.57158889062e-24
9.82279336324e-23
9.38284479771e-22
4.88987195086e-21
3.02293616913e-21
1.35656624558e-20
2.79379222375e-20
9.37950339061e-21
4.76311710052e-22
2.6834447968e-23
6.59800907286e-25
2.22884185012e-26
1.1854261394e-27
1.2139960063e-28
3.98459754428e-29
6.50730344771e-29
3.87349535071e-28
5.0161469511e-27
1.03187878474e-25
3.40023261277e-24
6.4173248586e-23
4.45055330012e-22
5.10209901103e-21
1.3852791666e-20
5.02101452678e-21
9.87978103722e-21
3.01657166485e-20
2.55328638758e-20
6.71910347372e-21
5.86305415402e-22
6.73012869699e-23
2.54096500611e-24
1.75749851782e-25
1.91168564749e-26
6.18981231976e-27
1.09429443344e-26
7.07169499809e-26
6.93446229029e-25
1.38124114753e-23
1.29033856154e-22
4.93530303544e-22
3.82488318303e-21
1.19977713612e-20
1.3124540526e-20
4.65553307985e-21
7.81324002163e-21
2.21573333991e-20
3.42416194384e-20
2.69126193998e-20
1.17618541536e-20
2.28200536034e-21
2.76375098126e-22
3.1428788826e-23
3.47555560511e-24
1.14104211795e-24
2.01889233413e-24
1.35128494393e-23
8.35906638004e-23
3.54653533596e-22
1.33309727823e-21
5.81632136312e-21
1.22670884032e-20
1.79532993458e-20
1.1636001089e-20
3.74614044104e-21
3.28941183653e-21
1.35194229775e-20
1.98392603474e-20
3.23844936644e-20
3.07816801167e-20
1.74040892006e-20
6.68610067309e-21
1.54691210865e-21
3.36359691006e-22
1.53344505853e-22
2.13321676808e-22
7.28615588102e-22
2.06816603513e-21
5.45844037827e-21
6.59325499211e-21
1.55996828023e-20
1.58917662289e-20
1.11287348826e-20
7.36779582419e-21
2.44258671572e-21
4.06563969423e-22
3.30023929314e-21
8.10907915335e-21
1.0587911738e-20
1.3364449086e-20
1.27141453516e-20
6.13865944893e-21
2.40810194127e-21
8.85098137635e-22
4.09386262116e-22
5.27258919025e-22
1.06393911319e-21
2.21915581048e-21
4.29950769114e-21
6.78650490936e-21
6.58288120499e-21
5.1001977232e-21
3.79349311481e-21
2.47483898483e-21
3.31815734915e-22
9.57290357022e-20
7.99638167608e-19
1.98555350535e-18
2.62096242046e-18
6.03790620055e-18
4.50376869052e-18
5.18888943235e-18
2.75425653065e-18
1.45266430029e-18
8.45705897577e-19
7.99122201483e-19
1.22112605665e-18
2.13872510288e-18
3.30975089254e-18
3.34876109981e-18
5.66804593599e-18
4.47256891055e-18
3.12593489044e-18
1.92124986802e-18
3.17237954196e-19
7.79110735216e-19
2.76154165813e-18
5.92715029857e-18
7.19718440195e-18
1.00354222564e-17
7.79167240483e-18
2.99745479697e-18
8.6705422364e-19
2.55324574989e-19
1.11029053393e-19
1.10453774118e-19
2.28411434675e-19
5.21510774691e-19
1.19642595779e-18
2.97759339379e-18
5.9987873779e-18
6.94739462358e-18
6.83900430015e-18
3.58135994583e-18
1.96379820189e-18
1.76914029918e-18
5.60225029727e-18
1.00862190009e-17
1.01962579641e-17
6.20056160728e-18
1.0482334718e-18
9.8974603437e-20
1.3542762609e-20
2.09211747615e-21
7.26150289068e-22
7.19473399822e-22
1.92715762417e-21
9.22146908101e-21
4.03479387913e-20
2.20866642531e-19
1.49569422828e-18
5.27199053399e-18
7.14337410981e-18
6.82335937973e-18
3.37795315831e-18
3.37983811209e-18
7.19794736093e-18
1.02618331425e-17
5.74332732101e-18
6.63547727365e-19
4.02659716476e-20
1.71020037566e-21
4.58402739357e-22
2.7736839816e-22
1.52892724543e-22
1.2782368382e-22
1.48759018086e-22
1.92842368469e-22
7.34665267029e-22
1.42213082932e-20
1.16743507158e-19
1.19897988649e-18
4.61584258601e-18
6.68502758312e-18
5.03307362439e-18
4.47367329066e-18
1.13182476026e-17
8.3369301462e-18
1.01782463328e-18
4.17047563858e-20
2.35893960846e-21
1.20976983967e-21
9.55474157248e-22
4.32847200262e-22
2.85526722099e-22
1.13462423236e-22
1.09835316154e-22
9.89759537242e-23
1.17711658704e-22
5.4837054457e-22
1.52934636214e-20
1.45815949626e-19
1.77992027033e-18
6.45769702042e-18
5.56981531309e-18
8.84151911501e-18
7.51911155276e-18
3.38751507941e-18
1.17754806355e-19
3.54636708834e-21
1.66163662883e-21
3.55624988246e-21
5.80780560375e-21
4.97052110589e-21
3.23754031401e-21
2.1133311487e-21
1.13273496858e-21
3.49515311249e-22
1.48309394258e-22
7.43316135936e-23
8.14806718867e-22
2.81570740516e-20
3.85648010006e-19
4.08969035169e-18
5.81836165837e-18
7.88572988822e-18
4.3969322532e-18
7.10694925539e-19
1.22403131632e-20
1.30778945253e-21
2.71593273428e-21
6.14215092694e-21
1.92830577517e-20
3.26058661766e-20
2.36254716055e-20
2.02792181437e-20
1.62949416637e-20
3.30312692326e-21
1.01714713961e-21
1.08220961448e-22
6.67960834046e-23
3.03486863376e-21
8.96346204148e-20
1.94161656232e-18
3.04492214721e-18
5.3982810499e-18
2.22641694255e-18
9.38857713848e-20
1.15598783753e-21
7.50178326337e-22
5.31856220353e-21
1.5783060397e-20
8.31315311007e-20
6.24417328715e-20
9.55345900111e-20
6.73925846483e-20
2.91869423505e-20
1.54660961041e-20
1.19872778533e-21
9.6260570185e-23
6.53807242432e-24
1.84841757616e-22
1.94961539041e-20
7.04775172306e-19
1.61352804139e-18
3.45755411492e-18
1.12029894746e-18
1.62191972406e-20
3.26537239313e-22
2.04213343806e-22
2.87768581455e-21
2.65659338167e-20
5.26002821471e-20
2.02551945756e-21
1.66585767579e-21
1.30890080531e-21
8.91620148225e-22
9.67758428848e-21
1.24337135468e-21
1.37627804405e-22
5.0737194748e-25
2.46055296117e-23
2.50408591401e-21
1.69292596199e-19
8.9441528096e-19
2.42689766775e-18
4.91687399254e-19
4.34599899368e-21
1.27215360227e-22
7.59077098005e-23
2.16481562567e-21
2.60232472948e-20
7.65510099135e-20
1.10753321206e-21
6.93841173484e-24
2.29259063137e-23
1.48349831115e-21
4.45937720914e-20
6.16615627371e-21
1.89838157045e-22
3.0103782012e-25
7.82617368131e-24
6.31558188442e-22
6.55799646897e-20
5.67066955887e-19
1.9331950981e-18
3.81604634692e-19
2.9699459974e-21
8.18962395008e-23
2.78190054033e-23
1.26861137653e-21
2.48851357271e-20
6.87181341839e-20
8.48604928742e-22
9.84682660974e-24
2.07294356089e-23
1.14013175793e-21
3.36575992341e-20
4.73346353415e-21
1.00352795533e-22
2.80324964581e-25
8.40012780294e-24
8.36371069036e-22
8.49186973945e-20
5.41667629534e-19
2.434126919e-18
5.85412575917e-19
5.58197767424e-21
1.24289234077e-22
5.75545641281e-23
1.51732398682e-21
2.28336431434e-20
2.30804047369e-20
4.36590980023e-22
9.04886224313e-22
7.15251508939e-22
1.09756886548e-22
1.49592375955e-21
2.3216420154e-21
4.63175069431e-23
5.48486943035e-25
4.20877726436e-23
5.00187181505e-21
2.93338883038e-19
7.72803211767e-19
3.4385522491e-18
1.24809791213e-18
2.0301398021e-20
2.45041207447e-22
7.45541523162e-23
6.23395687839e-22
4.84771332095e-21
2.37950528403e-20
8.52799330639e-21
3.33092016313e-20
2.90366999145e-20
2.81944129641e-21
7.08755495308e-21
4.00662216443e-21
3.6733489034e-23
4.49886904794e-24
2.82626211506e-22
2.71639813374e-20
6.86792906755e-19
1.15526231726e-18
5.53614619549e-18
2.91441327704e-18
8.4720616703e-20
9.05517182483e-22
1.47400208899e-22
5.02050755884e-22
3.16586256545e-21
5.19967097957e-21
8.76627868031e-22
5.79900256231e-21
3.67503709735e-21
2.75438246331e-21
2.47326232005e-21
9.5975819032e-22
8.50862986526e-24
6.38216580254e-23
4.4020619629e-21
9.56011127319e-20
1.65371504286e-18
1.94728334596e-18
4.30935991377e-18
5.68612255077e-18
4.67197307896e-19
1.69824062975e-20
5.02653965232e-22
1.50670078859e-22
2.94503230563e-22
5.55787804627e-22
3.32103202907e-23
1.15393262901e-22
5.81255698721e-23
4.69230911418e-23
3.93858382415e-23
9.5707787371e-24
4.45479608765e-23
1.56532907983e-21
4.01677872555e-20
3.32608949591e-19
1.50329706576e-18
1.52239370833e-18
5.48288711953e-18
7.13894952615e-18
2.63002364143e-18
1.49937880109e-19
1.10964212614e-20
6.97238340992e-22
7.13709171492e-23
1.35882957039e-23
9.41891125913e-25
5.8526294271e-25
4.51536786351e-25
9.66365860593e-25
7.62291847657e-24
9.40530822047e-23
2.05185294329e-21
2.63702353291e-20
1.40625838842e-19
1.64211577009e-18
4.37800189572e-18
2.39109320137e-18
3.79469665681e-18
7.59269528324e-18
5.64225088508e-18
1.84191928303e-18
1.86990058889e-19
2.81019525081e-20
1.38386036328e-21
1.91455310812e-22
3.13112092969e-23
1.29547496256e-23
1.78922428594e-23
8.02193553388e-23
5.15773729027e-22
7.78608264804e-21
5.06689417938e-20
1.55533241737e-19
1.1879435375e-18
3.03713458425e-18
3.61900398864e-18
1.9766866944e-18
2.99498342222e-18
5.75337158472e-18
7.78789336693e-18
5.95326278646e-18
3.2605629445e-18
7.85452852938e-19
1.20581702004e-19
1.88852396794e-20
2.88997663765e-21
1.14137390196e-21
1.88274013451e-21
9.74302640543e-21
4.33057520961e-20
1.44003119632e-19
4.62200863148e-19
1.78047447787e-18
3.05222176936e-18
4.69903299606e-18
3.13786555058e-18
1.47870695843e-18
1.27639212768e-18
4.00024341444e-18
4.63563440694e-18
8.27392553562e-18
8.2244506269e-18
5.15211611062e-18
2.71429967238e-18
8.22366500356e-19
2.29950211919e-19
1.22158816214e-19
1.62380821782e-19
4.59313871681e-19
9.93050654752e-19
2.20831209474e-18
1.92615595908e-18
4.73167010146e-18
4.51952116443e-18
2.95014355483e-18
2.22811136928e-18
1.17225183148e-18
2.1063773115e-19
1.289437442e-18
3.15393806121e-18
4.13011537627e-18
5.36393825592e-18
6.02670272746e-18
3.55997166855e-18
1.89419105032e-18
1.02672785275e-18
6.14978900981e-19
7.46798533327e-19
1.10266142637e-18
1.6256970255e-18
2.71330340629e-18
3.62044814147e-18
3.15283117718e-18
2.22860792833e-18
1.49754929594e-18
1.1902617217e-18
2.22751351887e-19
1.98214808561e-17
1.2506405523e-16
3.15648216743e-16
3.41340142867e-16
1.02004530031e-15
7.34588019495e-16
1.10448835076e-15
7.2663159561e-16
5.0780074383e-16
3.2838150517e-16
3.1185936818e-16
3.93310883149e-16
6.00542038461e-16
7.0906126769e-16
5.82593018889e-16
9.95844416421e-16
7.3727113772e-16
5.19800958712e-16
3.52384985075e-16
7.49762513353e-17
1.21446506156e-16
3.66848300076e-16
7.76312044749e-16
7.41031217987e-16
1.14393857468e-15
1.18116312735e-15
5.71473342015e-16
2.16601795979e-16
8.65906071984e-17
4.67955888902e-17
4.64041565933e-17
7.80233321832e-17
1.36839380998e-16
2.46862895842e-16
5.04479744016e-16
8.5022010109e-16
7.54183496832e-16
8.69865005683e-16
4.20568280936e-16
3.62300960332e-16
2.76231536784e-16
7.25144469666e-16
1.20813125054e-15
1.13046229993e-15
8.71049766779e-16
1.86909368826e-16
2.34330676486e-17
4.93144656653e-18
1.24017705069e-18
6.65881386496e-19
6.48331509307e-19
1.14921869067e-18
3.44112752742e-18
9.7189241467e-18
4.12253223782e-17
2.32069554486e-16
6.89830689125e-16
7.27121191871e-16
8.76402654311e-16
5.74531393293e-16
5.69627684847e-16
7.33162553104e-16
1.04524152455e-15
7.8370995869e-16
1.16726355554e-16
9.2200556821e-18
8.33234417852e-19
6.46906181826e-19
7.92876602082e-19
6.17498076891e-19
5.63773128797e-19
5.80976603497e-19
3.7157299788e-19
3.74534617975e-19
3.43315028602e-18
2.03502303722e-17
1.84885831822e-16
5.39573846121e-16
7.22523467905e-16
8.33922299013e-16
6.65852967227e-16
1.32869912676e-15
1.11509833288e-15
1.72537701603e-16
9.22566963592e-18
1.76424619025e-18
4.26624775512e-18
8.80887190054e-18
9.47860132278e-18
1.07062118795e-17
6.77471749747e-18
6.67818731812e-18
4.3799709867e-18
1.85185106498e-18
8.97198068164e-19
3.65614585152e-18
2.54016020698e-17
2.79616554284e-16
9.21282492306e-16
9.22580429874e-16
1.46588859302e-15
8.28206402721e-16
5.39751220211e-16
2.53594582545e-17
2.10104453612e-18
7.03083956248e-18
2.37883377453e-17
3.5999454377e-17
4.05061680576e-17
3.97486318588e-17
3.38301354934e-17
2.28866194018e-17
1.34725879306e-17
1.11814132126e-17
3.15684737372e-18
9.79039934145e-19
6.33614390932e-18
7.11140592202e-17
6.77392594395e-16
1.07656447181e-15
1.41734143065e-15
5.59638543213e-16
1.4363253926e-16
3.80668584513e-18
3.87377106655e-18
2.07866701321e-17
2.68526181642e-17
4.93999900788e-17
7.93535188069e-17
7.5325304923e-17
7.16889550122e-17
5.83549433125e-17
2.23006076336e-17
1.53759464315e-17
1.10824804683e-17
2.07189716308e-18
1.13678121926e-18
2.01424362223e-17
3.85932883513e-16
5.9977050777e-16
1.12141134101e-15
3.63833147758e-16
2.4782850136e-17
8.91828388458e-19
8.40775071727e-18
3.58867493153e-17
4.41375345492e-17
1.18941117769e-16
1.05724964564e-16
1.71595189308e-16
1.37827524531e-16
7.80069687195e-17
5.13717106276e-17
1.91451437793e-17
1.18226916073e-17
3.30433951208e-18
2.3270721496e-19
6.18619609337e-18
1.7529208434e-16
3.78358913152e-16
8.43110570017e-16
2.64079778651e-16
5.93612594352e-18
7.8454219339e-19
8.50965882207e-18
3.13172290055e-17
7.13648694255e-17
9.10785988656e-17
5.76154745145e-18
5.48094021179e-18
8.16956560024e-18
5.58392759534e-18
4.13861440498e-17
2.03784572436e-17
1.60698540552e-17
2.29779009024e-18
1.20448499472e-19
1.1760304716e-18
5.38142197495e-17
2.67760111122e-16
7.19053447859e-16
1.4622502397e-16
2.16904120945e-18
5.70932455794e-19
6.90311568359e-18
3.37785301756e-17
8.34863937612e-17
1.30838472017e-16
5.18250288605e-18
6.47498449462e-20
4.79621596409e-19
1.21656766993e-17
1.38729838041e-16
5.40758194113e-17
2.38208802743e-17
2.51906737911e-18
1.02607298315e-19
3.94817273863e-19
2.49086506702e-17
2.13920262506e-16
6.04404427713e-16
1.21200120608e-16
1.60506075408e-18
4.12180469102e-19
5.33368083895e-18
2.87932757672e-17
8.9202100546e-17
1.33997144733e-16
6.94603131159e-18
1.85463498687e-19
5.23440942578e-19
1.09224201421e-17
1.22513797767e-16
4.58816273033e-17
1.99651493079e-17
2.59569557161e-18
8.39706770055e-20
5.18998595059e-19
3.25204120687e-17
2.07508748542e-16
6.60088051023e-16
1.66964902135e-16
2.61126273764e-18
5.18951753226e-19
6.27056999531e-18
2.88816921504e-17
8.0173482443e-17
6.48612042646e-17
3.01823450384e-18
6.59856362601e-18
5.85206775736e-18
2.14180697565e-18
1.86528626367e-17
2.47609390247e-17
1.07279608093e-17
1.91638995357e-18
1.68607604898e-19
2.30628517335e-18
9.5832521374e-17
2.36786359538e-16
8.1605943011e-16
2.96283466003e-16
6.95960305194e-18
3.74704449059e-19
5.1409346215e-18
1.94694317058e-17
3.22847012048e-17
7.00478683352e-17
3.6404891116e-17
1.04152337947e-16
1.06268409225e-16
2.17000694959e-17
4.24824839857e-17
3.63238847538e-17
1.26690551159e-17
2.32651614324e-18
2.8580887495e-19
8.57869087736e-18
1.69957346786e-16
2.84256476924e-16
1.15819824457e-15
5.69292270878e-16
2.04608029501e-17
5.78158575613e-19
2.1955635361e-18
2.03969340552e-17
3.05474817495e-17
3.6003130313e-17
2.07616737933e-17
5.3161365181e-17
3.96003650978e-17
2.80528524744e-17
2.86943207337e-17
2.34910243437e-17
9.6931662942e-18
1.61300410494e-18
1.63229060066e-18
2.2531829079e-17
3.48694487259e-16
4.26075713872e-16
7.51460274001e-16
9.05563359945e-16
8.83800079394e-17
4.37055452655e-18
7.0546556849e-19
5.06986949296e-18
1.54530347876e-17
2.24395631417e-17
1.36472807359e-17
2.52577130102e-17
2.06848382347e-17
1.33139376009e-17
1.64568136526e-17
9.92190376527e-18
3.13399211143e-18
8.01009595423e-19
9.68812801237e-18
6.58959406982e-17
2.19612435283e-16
2.91261135408e-16
9.22399445164e-16
8.49261251761e-16
4.08435013492e-16
2.74205959409e-17
2.90901196095e-18
1.33729824193e-18
2.21969791691e-18
3.73874227119e-18
3.34944710023e-18
2.56175499272e-18
2.8974552544e-18
1.95926658122e-18
2.44129151928e-18
1.3254879639e-18
9.20023674653e-19
6.46098358948e-18
2.5982679827e-17
2.96462277626e-16
6.94915353801e-16
4.57841728377e-16
6.50447944027e-16
9.91364702161e-16
6.2662871623e-16
2.87899798278e-16
3.4634265194e-17
7.09743819055e-18
6.89158334012e-19
3.13435774278e-19
1.66651151675e-19
1.21189008582e-19
1.06121164738e-19
1.51678790009e-19
5.41411520386e-19
2.69238843526e-18
1.15873173126e-17
2.85908009177e-17
2.1335425346e-16
3.87271028359e-16
4.86660827219e-16
3.46044656662e-16
5.2854844816e-16
7.89182950084e-16
9.60154981816e-16
6.59568851406e-16
4.93562861867e-16
1.47778299842e-16
2.91092399738e-17
6.3891860202e-18
1.40678320125e-18
6.94792699965e-19
1.04597557437e-18
3.96826934191e-18
1.2383242558e-17
3.2175039503e-17
8.87631635762e-17
2.99945380617e-16
3.81685989011e-16
6.58589245075e-16
3.99609277085e-16
2.38144868839e-16
2.31865268885e-16
6.08587156757e-16
5.17119835914e-16
1.09397514332e-15
1.09488408905e-15
6.93250422084e-16
5.33118738189e-16
2.05089011729e-16
7.21952724216e-17
4.41773137214e-17
5.62395899047e-17
1.33539743282e-16
2.2427032324e-16
4.35289806058e-16
2.62793789793e-16
7.09805090898e-16
6.4395874569e-16
3.68234643163e-16
3.11100718214e-16
2.53618986949e-16
4.93655093849e-17
2.35257335732e-16
5.61711574805e-16
7.14925835433e-16
8.8806796344e-16
1.0956307481e-15
7.10934621469e-16
4.41116513944e-16
3.01267095944e-16
2.08200347969e-16
2.44328886565e-16
3.07123743219e-16
3.57275364201e-16
6.18668432213e-16
7.41459244593e-16
6.17725861144e-16
4.16015061676e-16
2.41974209785e-16
2.57975899442e-16
6.41277625054e-17
2.07057626922e-15
1.00074963653e-14
2.49744077243e-14
1.82373779384e-14
7.95956203075e-14
5.24321289536e-14
9.30090081941e-14
6.76401508552e-14
5.67326493963e-14
3.16343315669e-14
3.02120582338e-14
3.38105006858e-14
6.01291307176e-14
5.68575352603e-14
4.46649055378e-14
8.06547850944e-14
5.81307645988e-14
4.17830810982e-14
3.15734621904e-14
8.54234014025e-15
9.67883217913e-15
2.57928984659e-14
5.40292542551e-14
3.25977528485e-14
5.32754190537e-14
8.73325157108e-14
5.13774785994e-14
2.39805513273e-14