/*--------------------------------*- C++ -*----------------------------------*\
| =========                 |                                                 |
| \\      /  F ield         | OpenFOAM: The Open Source CFD Toolbox           |
|  \\    /   O peration     | Version:  3.0.1                                 |
|   \\  /    A nd           | Web:      www.OpenFOAM.org                      |
|    \\/     M anipulation  |                                                 |
\*---------------------------------------------------------------------------*/
FoamFile
{
    version     2.0;
    format      ascii;
    class       volScalarField;
    location    "9.6";
    object      k;
}
// * * * * * * * * * * * * * * * * * * * * * * * * * * * * * * * * * * * * * //

dimensions      [0 2 -2 0 0 0 0];

internalField   nonuniform List<scalar> 
7968
(
0.000171402368969
0.000205243518466
0.000233801140007
0.000252270077501
0.000262755599301
0.000268270471076
0.000270248306204
0.000270197112969
0.000269466117251
0.000268232767953
0.000267125104667
0.000266594453748
0.000266155529827
0.000265107142954
0.000262375839262
0.000256560844012
0.000246100626318
0.000229041457597
0.000202845928353
0.000170925202429
0.000204978945311
0.000339409462096
0.000435466023176
0.000498552788438
0.000538496403436
0.000560735576059
0.000570636905823
0.00057224191875
0.000569233588499
0.000564490355597
0.000559791002942
0.000555579543147
0.000550787371498
0.000543172645693
0.000529707222321
0.000506974331854
0.000470436577779
0.000414041131385
0.000327139486238
0.000203482733305
0.000233061751848
0.000435738092806
0.000577046090633
0.000670335036122
0.000730266707833
0.000765195943044
0.000781819536629
0.00078577341234
0.000782170716136
0.000775041830394
0.000766900905138
0.000758408823726
0.000748443249883
0.000734280985243
0.000711862755995
0.000676364067668
0.000621652274477
0.000539286377368
0.000413373874897
0.000230358332558
0.000251637070049
0.000499412614704
0.000671158587077
0.000784977285032
0.000858485454279
0.000901490742841
0.000921871566124
0.000926467849868
0.000921506988914
0.000912468740927
0.000900777491973
0.000887960541306
0.000874033676332
0.000855480835608
0.000827403843987
0.000783944062466
0.000717724523999
0.000618709923468
0.000467991035765
0.000247451239294
0.000263023733544
0.000540342658615
0.000732968859032
0.000860659875568
0.000942639802891
0.000989986986034
0.00101366235897
0.0010208632722
0.00101537802035
0.00100311094206
0.000988111098565
0.000971858176701
0.000953416627853
0.00092925643335
0.000896073419798
0.000848375631783
0.000775758770617
0.000666720327504
0.000500897630231
0.000256867943817
0.000269142278563
0.000564522992512
0.000770808104951
0.000907204448605
0.000993832716343
0.00104598939711
0.00107224197965
0.00107662191394
0.00106702308737
0.00105072844813
0.0010327010161
0.00101467922396
0.000995509541954
0.000970910708244
0.000934873756768
0.000881413231634
0.000805874738139
0.000691839101237
0.000517984777355
0.000261069114646
0.000271698285715
0.000576878872321
0.00079118293269
0.000932285978934
0.00102145064956
0.00107737030803
0.00110094535315
0.00110065141056
0.00108611906062
0.00106574889125
0.00104517701091
0.00102633413914
0.00100787393377
0.000984886628882
0.000950322304967
0.000896404031193
0.000816766943034
0.000701110023207
0.000523957732347
0.000262761290076
0.000271928490458
0.000581247221558
0.000799529890535
0.000942510501808
0.00103497379515
0.00108910181126
0.001108571305
0.00110328474108
0.00108403419619
0.00106011919232
0.00103767318841
0.00101871288344
0.00100165771476
0.000981081811157
0.00094928664892
0.000897608222576
0.000817097932107
0.000700658382306
0.000523356277391
0.000263264464937
0.000271211325811
0.000581187239766
0.000800736494565
0.000943772724664
0.00103715479844
0.00108867608507
0.0011042978106
0.00109484480847
0.00107194327829
0.00104548303291
0.00102190270366
0.00100323860475
0.000987653256889
0.00096936501328
0.000940279879664
0.000891322599579
0.000812850545549
0.00069574402979
0.000519773336241
0.000262697820323
0.000270386619155
0.000579460910085
0.000798574513638
0.000940611375783
0.00103327261345
0.00108255943078
0.00109554151494
0.00108353530569
0.00105858865153
0.00103081945774
0.00100677426692
0.000988504875447
0.000974018510481
0.000957280965737
0.000930067510504
0.00088318385631
0.000806737903284
0.000690136326415
0.000515920121994
0.000261713813603
0.000270003729723
0.000577677101031
0.00079514907008
0.000935584966892
0.00102653405948
0.00107454158929
0.00108657328001
0.0010739885717
0.00104882867201
0.00102111384834
0.000997248315539
0.000979240021826
0.000965128987143
0.000948890614726
0.000922374041319
0.000876482695013
0.000801342528456
0.000685912751796
0.000513296705914
0.00026087202397
0.000270448126825
0.000576022397218
0.000790793660681
0.000929209571019
0.00101765840252
0.00106543498092
0.00107823578997
0.00106700862198
0.00104337474142
0.00101698657897
0.000993941684453
0.000976084907909
0.000961519761602
0.000944654604785
0.000917634435693
0.000871630272189
0.00079701785212
0.000683328421869
0.000512239168792
0.000260655129419
0.000270913138713
0.000573093653964
0.000783910336616
0.000919702128349
0.00100456193269
0.00105272449196
0.00106758470142
0.00105923658295
0.00103849939864
0.00101441382769
0.000992688436184
0.000975027160726
0.000959643554104
0.000941467335332
0.0009131637159
0.000866358229604
0.000791909080882
0.000680705178847
0.000511500214132
0.000260622257367
0.00027038127205
0.000566416579736
0.000771302344539
0.000903345694302
0.000983474390025
0.00103134992089
0.00104878634191
0.00104419504953
0.0010272796778
0.00100623391157
0.000986291370369
0.000969073756145
0.000952913776238
0.000933319810086
0.000903602732108
0.000856058919078
0.000782438618621
0.000674853254649
0.00050852090507
0.000259590726517
0.00026759197781
0.0005527723408
0.000748650930754
0.000875043774559
0.000952174421486
0.000995132592827
0.00101426740664
0.00101345466032
0.00100070357427
0.000983175680113
0.000965525821366
0.000949262526129
0.000932848550382
0.000912392935906
0.000881968506159
0.000834876098185
0.000765336505732
0.000661539512455
0.000500115593837
0.000256728124088
0.000261397859829
0.000528581952832
0.00071093417843
0.000828708325463
0.000901245583855
0.000939953982878
0.000956291576388
0.000958046372857
0.000949104751519
0.000935253144142
0.000920376173992
0.000905787435887
0.000890135000751
0.000870136678488
0.000840800677074
0.000798058276939
0.000733833970695
0.0006354655131
0.000482288363867
0.000251943743917
0.000250190407231
0.000489111978307
0.000651823377951
0.000756868660191
0.000821974881092
0.000857263115028
0.000871040166513
0.000870638577984
0.000863134146909
0.000852637348602
0.000840896999464
0.000828874223976
0.000815574062614
0.000799445132964
0.000775458158084
0.000737891309236
0.000679513544649
0.000590173568642
0.000450802994243
0.000242816132768
0.000232032419748
0.000428238501762
0.000562742272824
0.000649362745943
0.000702895067733
0.000731952304576
0.000743518842657
0.000743568993019
0.000737287422723
0.000728679611004
0.000720079437728
0.000711985990228
0.000703153999944
0.000690937388345
0.000671659612818
0.000640639994991
0.000591893890075
0.000516929734086
0.00039968023331
0.000226633994098
0.000204496010891
0.000335567786167
0.000427808817933
0.000487124013203
0.000523496891701
0.000542619134133
0.000549782418174
0.000549372586508
0.000545032237646
0.000539585782909
0.000534603217067
0.00053033934306
0.00052579586807
0.000518887425076
0.00050685047459
0.000486296430566
0.000452744612032
0.000400388642037
0.000318544375017
0.000201182512128
0.000171299476073
0.000204884520855
0.000232987735948
0.000251031176855
0.000261058944142
0.000266031371403
0.000267730455948
0.000267676709053
0.000266961844327
0.000265777571205
0.000264612915289
0.000263689066198
0.000262762725793
0.00026115327338
0.000258051603752
0.000252141231878
0.000242149515322
0.000225783923755
0.000200508666034
0.000170166079643
0.000202871350937
0.000324131934171
0.000417013929687
0.0004811243581
0.000523543037275
0.000549395200734
0.000562827543112
0.000567293095281
0.000565972080278
0.000561997575738
0.00055711407067
0.000551830357569
0.00054525645975
0.000535126182045
0.000518713731144
0.000493119424896
0.000454472867549
0.000397466478666
0.000313956386562
0.000200863321649
0.000324290090011
0.000734267852194
0.000978210498758
0.00114728722514
0.00126186996082
0.00133380249063
0.00137287505798
0.00138792057937
0.00138695265973
0.0013764989832
0.00136086428174
0.00134146629784
0.00131673188671
0.00128274565982
0.00123334217619
0.00116091096231
0.00105616844504
0.000906777112492
0.000690894818933
0.000313610605656
0.000417261199554
0.000977905156426
0.00130914126205
0.00154124314661
0.0017004616876
0.00180133594521
0.00185621944554
0.00187690747101
0.00187448775371
0.00185792127528
0.00183353873136
0.0018036242486
0.00176624505863
0.00171640957779
0.0016457628775
0.00154404438253
0.00139921659943
0.00119579406114
0.000905667907367
0.000396763574829
0.000481869535509
0.00114815820894
0.00154287857937
0.00182044286031
0.0020110045118
0.00213088637064
0.00219441887291
0.00221584129972
0.00220950059755
0.00218542330871
0.00215237035516
0.0021134379384
0.00206626321787
0.0020059248774
0.00192163021639
0.0018008591321
0.00162937911725
0.00138931269481
0.00104821532386
0.000452056824658
0.000525342520589
0.00126547446214
0.00170595113725
0.00201551470774
0.00222656376895
0.0023567511675
0.00242249783962
0.00243854599471
0.0024222764434
0.00238816494712
0.00234644128259
0.00230125042065
0.00225020719551
0.0021856471485
0.00209456112854
0.00196353888926
0.00177649529007
0.00151350504153
0.00113922439662
0.000486986773469
0.000552779647814
0.00134171447227
0.0018130372605
0.00214312923806
0.00236539040628
0.00249847603541
0.00255800416508
0.00256329951212
0.00253441274086
0.00248885425103
0.0024387756104
0.00238913443797
0.00233722481523
0.00227387112988
0.00218455281365
0.00205232998593
0.0018585744002
0.00158401638265
0.00119122036
0.000506864909471
0.000568284267671
0.00138656291946
0.00187647232905
0.00221771526038
0.00244428157031
0.00257254604916
0.00262147005171
0.00261284620732
0.00256982706747
0.00251268121619
0.00245527696711
0.00240311439652
0.00235305404163
0.00229460004222
0.00221134825936
0.00208430501912
0.00189266672539
0.00161501688205
0.00121494754751
0.000515928136581
0.000575399388831
0.00140869082475
0.00190778248995
0.00225296437951
0.00247792733483
0.00259838351648
0.00263500500607
0.00261210154381
0.0025557166506
0.00248845595122
0.00242545070399
0.00237239783048
0.00232564921165
0.00227363370133
0.00219841868231
0.00207948019271
0.00189502809806
0.0016201591525
0.00122028587233
0.00051759161182
0.000577244272456
0.00141586724022
0.00191761815354
0.00226220903569
0.00248277142839
0.00259490491114
0.00262047559172
0.00258576267093
0.0025190482547
0.00244455799563
0.00237808510417
0.00232521806881
0.00228178624378
0.00223558156568
0.00216774021218
0.00205676828778
0.00188001268618
0.00161189642964
0.00121589969713
0.000515748895526
0.000576364126622
0.00141415245798
0.0019143996182
0.00225605636855
0.00247180865438
0.0025774280755
0.00259549961073
0.00255346192476
0.00248085731584
0.00240258423224
0.00233471606475
0.00228256165848
0.00224153442108
0.00219908862339
0.00213616563567
0.0020309449998
0.0018604567315
0.00159914995913
0.00120825274193
0.000512946829377
0.000574558886906
0.00140709090142
0.00190307804104
0.00224072925878
0.00245275289385
0.00255505472927
0.00257038709871
0.00252639683546
0.00245274911255
0.00237425991471
0.00230676606579
0.00225532033398
0.00221522394713
0.0021739703999
0.00211281660079
0.00201020244019
0.00184333798938
0.00158677824722
0.00120083825391
0.000510613453414
0.000571944287817
0.00139537755864
0.0018847433393
0.00221769661389
0.00242731438173
0.0025296829754
0.00254711429727
0.00250647301422
0.00243640619801
0.00236095555722
0.00229531538674
0.00224438999738
0.00220368568037
0.00216113462271
0.00209872323437
0.00199563912229
0.00182968349225
0.00157553422237
0.00119406766486
0.000508937809656
0.000567053188863
0.00137665566531
0.00185633248565
0.00218323907422
0.00239083840081
0.00249572684007
0.00251915287546
0.00248630258467
0.00242380386096
0.00235416355184
0.00229179739147
0.00224147902196
0.0021992000457
0.00215351192323
0.00208761188274
0.00198185675731
0.0018150114875
0.00156197224596
0.00118544488501
0.000506962679948
0.00055771130747
0.00134604179566
0.00181121906316
0.00212907022959
0.00233314556641
0.00244138484557
0.00247290086041
0.00245068796782
0.00239867974494
0.00233723617196
0.00227964112386
0.00223056449333
0.00218651808602
0.00213703031735
0.00206686703986
0.00195789814462
0.00179014563675
0.00153929973052
0.00116997866329
0.0005023253107
0.000541106397113
0.00129680678133
0.00174034451935
0.00204405702014
0.00224121769856
0.00235105234875
0.00239036461427
0.00237949262704
0.00233933010084
0.00228769956616
0.00223642989273
0.00218988477175
0.00214511780492
0.00209281639314
0.0020195494046
0.00190885266073
0.00174193190798
0.00149815666209
0.00114063002891
0.000492058780151
0.000513955037822
0.00122097978342
0.00163324958053
0.00191584127191
0.00210118911634
0.00220750177532
0.00225220413889
0.00225124629281
0.00222267183625
0.0021815011619
0.00213790089167
0.00209570190006
0.00205239119507
0.00199987543875
0.00192658530813
0.00181757199476
0.00165752828445
0.00142688900239
0.00108887118884
0.000472535716644
0.000472238394418
0.00110905631307
0.00147790068854
0.00173044670043
0.00189711057507
0.00199482435357
0.00203885312952
0.00204462613028
0.00202642346772
0.00199545895113
0.00196050078627
0.00192468573161
0.00188576528203
0.00183639369531
0.00176750693506
0.00166758915302
0.00152205290043
0.00131236579874
0.00100456674917
0.000439706943892
0.000410633939397
0.000948621563466
0.0012589343047
0.00147044894813
0.00160993163548
0.00169254340758
0.00173141102539
0.00173915942061
0.00172732011691
0.00170535317271
0.00167955988568
0.00165208287193
0.00162101620492
0.00158084785318
0.00152371277095
0.00143970068334
0.00131656453741
0.0011380356859
0.000874448665867
0.000388173679651
0.000321258713636
0.000717829694847
0.000948107891014
0.00110334411626
0.0012045895805
0.00126426079614
0.00129272674554
0.00129938769036
0.00129259477054
0.00127904080801
0.00126293633534
0.00124557724517
0.00122539868075
0.00119828907056
0.00115834138759
0.00109803350898
0.00100783483065
0.000874731821881
0.00067550016982
0.000309396998617
0.000202393478819
0.000320812004898
0.000409832063304
0.000469943864681
0.000508515060653
0.000530885277286
0.00054140588348
0.000543656170784
0.000540946610646
0.00053634939517
0.000531422127888
0.000526505352482
0.000520771690989
0.000512305878351
0.000498353113785
0.000475925006478
0.000441221076766
0.000388728100509
0.000309677648533
0.000198911000584
0.000233928421689
0.000427865329337
0.000575019059215
0.000678085378138
0.000747854216982
0.000791521616863
0.000814966248114
0.000823607090964
0.000822420896693
0.000815526149755
0.00080563036951
0.000793645017113
0.000778565336593
0.000757861055745
0.000727742228481
0.000683616995173
0.000619998529609
0.000529587545647
0.000400886270994
0.000227835279311
0.000428344641846
0.00101330153463
0.00136460974249
0.00161429310817
0.00178815014469
0.00190030362812
0.00196294037457
0.00198804543772
0.00198700097772
0.0019694537463
0.00194199903159
0.00190720175891
0.00186329783083
0.0018047246472
0.00172323784882
0.00160846590249
0.00144865126965
0.00122903084748
0.000922896689551
0.00040016740873
0.000575798365276
0.00136426010284
0.00182986588024
0.00216312346889
0.00239732988044
0.00254897810562
0.00263301933144
0.0026651430208
0.00266067489602
0.00263321594855
0.00259231338745
0.00254192984352
0.00247995981703
0.00239882713322
0.0022876159568
0.00213253046557
0.00191854639326
0.00162769193211
0.00122536404536
0.000527362090428
0.000679767085773
0.00161580575906
0.00216571262467
0.00255888844143
0.00283436675178
0.00301037632484
0.00310405016831
0.00313481087806
0.00312084326671
0.00308008877004
0.00302526089403
0.00296186347087
0.00288745760799
0.00279217308525
0.00266356165522
0.0024841059318
0.00223592808937
0.00189814409609
0.00142994564754
0.000612949770791
0.000751268606956
0.00179385736057
0.00240593712051
0.00284152530849
0.00314321414342
0.00333069933677
0.00342290640273
0.00344074512882
0.00340895160347
0.00335025335105
0.00328053638064
0.00320691333663
0.00312656261522
0.00302810773404
0.0028942841879
0.002703780222
0.00243765120091
0.00207192460271
0.0015613736294
0.00066729053489
0.000797540700454
0.00191264696171
0.00256745061828
0.00303008124795
0.00334470162477
0.00353237594261
0.00361116364244
0.00360642198074
0.00354980186473
0.00346957936334
0.00338469553102
0.00330364114973
0.00322281809322
0.00312879357366
0.00300137922806
0.00281512846389
0.00254488435845
0.00216743153404
0.00163483145092
0.000697732820418
0.000824457185198
0.00198439949881
0.00266537126869
0.0031421191814
0.00345964211111
0.00363724525165
0.00369385884793
0.00366002615279
0.00357516240902
0.00347270072764
0.00337411671879
0.00328869887015
0.00321181802583
0.0031278815911
0.00301407700371
0.00284157609391
0.00258045294409
0.00220362241623
0.0016649160267
0.000710755244955
0.000837396161791
0.00202094335165
0.00271504290865
0.00319602865456
0.00350857620345
0.0036706847512
0.00370191032801
0.00363897391632
0.00352774201709
0.00340586337785
0.00329663433241
0.00320945187241
0.00313866729071
0.0030669247773
0.00296890649903
0.00281363449235
0.00256738901807
0.00220089547959
0.00166645447069
0.000712476087263
0.00084121770341
0.0020332629973
0.00273130622017
0.00321054420818
0.00351432967331
0.00366032368647
0.00366960140672
0.00358332424849
0.00345199204184
0.0033161002579
0.00319996003974
0.00311255705009
0.00304739176496
0.00298605936283
0.00290170066401
0.00276177170301
0.00253063939653
0.00217746094625
0.00165296357276
0.000708340033083
0.00083978591961
0.002030193672
0.00272622848168
0.00320090404638
0.00349617424066
0.00363018954087
0.00362505048313
0.00352447754806
0.00338152000932
0.00323804279072
0.00311861689338
0.00303167595476
0.00297010092072
0.00291507416858
0.00283929801958
0.00270968991573
0.00248991167546
0.00214833564676
0.00163509027481
0.00070241847121
0.000835367795662
0.00201704834334
0.00270710061596
0.00317602597719
0.00346587207321
0.00359450395607
0.00358434884979
0.00347971078304
0.00333406123271
0.00318927768282
0.00306965213948
0.0029832287733
0.00292265657122
0.00286921352723
0.00279603148782
0.00267048470169
0.00245656282985
0.00212264679556
0.00161873390121
0.000697013399037
0.000828366830589
0.00199497249063
0.00267555878945
0.00313825902525
0.00342587741884
0.00355599843187
0.00355038514492
0.00345183964597
0.00331209962892
0.00317179822388
0.00305458846556
0.0029684578081
0.00290631477209
0.0028499928516
0.00277374885755
0.00264622469435
0.002432631962
0.00210209285918
0.00160469083999
0.000692630588701
0.000817191810788
0.00196074825846
0.00262728558744
0.00308234657334
0.00336891539807
0.00350559432072
0.00351275605374
0.00342952957138
0.0033036990652
0.00317336656035
0.00306120615688
0.00297542307619
0.00290970000627
0.00284692995032
0.00276314434796
0.00262886636923
0.00241142515877
0.00208146141622
0.00158938293728
0.000687685959543
0.000798726595759
0.00190755028547
0.00255294070616
0.00299622956371
0.00328011412632
0.00342467376503
0.00344974075187
0.00338865571235
0.00328323350068
0.00316781175926
0.00306366775113
0.00297919490094
0.0029092289442
0.00283841586543
0.00274493010074
0.00260149588916
0.00237899053034
0.0020497790054
0.00156550973686
0.000678937618282
0.000768824703901
0.00182616797537
0.00244018766328
0.0028644657288
0.00314088018419
0.0032906439648
0.00333336173169
0.00329674234911
0.00321511873874
0.00311814964775
0.00302514773229
0.00294427014423
0.00287165279682
0.0027940986334
0.00269189555345
0.00254087812796
0.00231634450583
0.0019920831794
0.00152243229649
0.000661974993338
0.000722654964567
0.00170610880801
0.00227551661301
0.00267095504979
0.00293293763729
0.00308101026247
0.00313625080279
0.00312103001802
0.00306254311685
0.00298530409019
0.00290604364692
0.00283204323256
0.00276051065788
0.00268033066777
0.00257431858707
0.00242212000017
0.0022025435357
0.00189302749164
0.00144810320191
0.000631673786664
0.000654551274693
0.00153572679463
0.00204468492301
0.00239919704148
0.00263675929048
0.00277567563818
0.00283433215831
0.00283401804605
0.00279490160119
0.00273655479214
0.00267263199864
0.00260903059686
0.00254360837739
0.00246713889589
0.00236535078156
0.002221583277
0.00201885829883
0.00173535075168
0.00132910433098
0.000582036760969
0.00055699581269
0.00130040994978
0.00173056393447
0.00203001734225
0.00223130937024
0.00235117525654
0.00240555700002
0.00241165073787
0.00238640891908
0.00234485994639
0.00229708890099
0.00224704809405
0.00219302423597
0.00212808393447
0.00204086544791
0.00191774781302
0.00174369515969
0.00149961299903
0.00114919355514
0.000505216104088
0.000418099514668
0.000972926599556
0.00129832298305
0.00152281756853
0.00167227512059
0.00176125490018
0.00180275585849
0.00180981769932
0.0017948669
0.00176831784471
0.00173705953336
0.00170376201286
0.00166685856323
0.00162098776644
0.00155776935836
0.00146695660635
0.00133644752132
0.00115038006409
0.000880047396358
0.000388859754026
0.000231982484413
0.000417131493033
0.000554787722043
0.000648609258704
0.000709564351027
0.00074509786173
0.000761426192386
0.000764316920355
0.000759011944764
0.000749719643604
0.000739078238883
0.00072795307608
0.000715442114874
0.000699033972178
0.000675093112135
0.000639133635871
0.000585560100888
0.00050661453348
0.000389541634022
0.000224038003297
0.000268479047093
0.000541361471191
0.000744805535704
0.00088859188701
0.000987585910218
0.00105063081672
0.00108504981858
0.00109800346564
0.001096297645
0.00108558358225
0.00106960988322
0.00104977321195
0.00102500016079
0.000991896820633
0.000945557178378
0.000879972879369
0.000788359600141
0.000662018818598
0.000486690338662
0.000252990390437
0.000542396696586
0.00132211221878
0.00179500655743
0.00213795351699
0.00238167575499
0.00254189910226
0.0026330259711
0.00267040820103
0.00266944446483
0.00264351418374
0.00260191481783
0.00254851911415
0.00248129727987
0.00239283342799
0.00227186098554
0.00210494173863
0.00187821057795
0.00157525732504
0.00116592941808
0.000485312434344
0.000746389708382
0.00179492965695
0.0024165242875
0.00286924764583
0.00319333417165
0.00340648942618
0.00352591614447
0.00357137483491
0.0035639225696
0.00352269145855
0.00346135539267
0.00338597625728
0.00329408899298
0.00317549925357
0.00301486680881
0.00279441917516
0.00249598364603
0.00209989083197
0.0015662024925
0.000656813477112
0.000891632823812
0.00214121216994
0.00287372708815
0.00340489142367
0.00378261122429
0.00402666380203
0.00415621200534
0.00419348380201
0.0041664859686
0.00410195353064
0.00401827272445
0.00392409921589
0.00381618879879
0.00368168890577
0.00350149780989
0.00325284086329
0.0029124596428
0.00245739753999
0.00183944815996
0.000772484521047
0.000993324642857
0.0023917249281
0.00320756014026
0.00379423456629
0.00420612110674
0.00446348227061
0.00458124769056
0.0045883871148
0.00452513135051
0.00442695699654
0.00431734162368
0.00420755152955
0.00409331735491
0.00395833178967
0.00377921218806
0.00352625798745
0.00316967109719
0.00268288961573
0.00201279177023
0.000844843885296
0.00106035234073
0.00256249634839
0.00343661327012
0.00405896578049
0.00448884688059
0.00473686176312
0.00481872559082
0.00477559343671
0.00466180272463
0.00452234687589
0.00438592106418
0.00426554894925
0.00415556958014
0.00403483168208
0.00387377987459
0.00363833786918
0.00329121171943
0.00279696157766
0.00210339959836
0.000882800783169
0.00110006481345
0.00266809244374
0.00357847988784
0.00422016007007
0.00465057635533
0.00486906967501
0.00489805946372
0.00479222857212
0.00462133684903
0.00443967282484
0.00427988638965
0.00415515698896
0.0040579435231
0.00396194620938
0.00383100034059
0.00362545620954
0.00330498211258
0.00282467840722
0.00213047318153
0.000895142118668
0.00111956154313
0.00272362040045
0.00365259620026
0.00429986896288
0.0047167340187
0.0048970666414
0.00486937341476
0.00470171733988
0.00447847699619
0.00426110460767
0.00408407072383
0.00395928313821
0.00387714851267
0.0038075850596
0.0037093487086
0.00353801471756
0.00324990934844
0.00279560290346
0.00211568553718
0.000891036626045
0.00112544364291
0.00274374209152
0.00367874785831
0.0043223421634
0.00472059160172
0.00486621271205
0.00479169576916
0.00457601988668
0.00431416003608
0.00407187101998
0.0038838093966
0.0037598617917
0.00368884055943
0.00363924993509
0.0035671475411
0.00342517557101
0.00316641486231
0.00273869640434
0.00208026279033
0.000878967956745
0.00112298066719
0.00274047107244
0.00367348571285
0.00430958089614
0.0046926757332
0.00481465932961
0.00471079506394
0.00446670189007
0.00418307145235
0.00392733937985
0.00373363210841
0.00361022884327
0.00354471732398
0.00350545798999
0.00344809648142
0.00332438956726
0.00308582844203
0.00267891581436
0.00204146889423
0.000865493331454
0.00111529736892
0.00272111026283
0.00364698170537
0.00427579355065
0.0046509371819
0.00476385917485
0.00465073482268
0.00439875908624
0.00410961213361
0.00385068057276
0.00365557890101
0.00353189333497
0.00346670059881
0.00342865984695
0.00337424854968
0.00325603994736
0.00302596156401
0.00263080644906
0.00200854261593
0.000854189874728
0.00110296831977
0.00268701026243
0.00360107082792
0.00422330938209
0.00459828218066
0.00471719366875
0.00461512531925
0.00437557688497
0.00409644006973
0.00384358317726
0.00365050649809
0.00352531686387
0.00345557008836
0.00341051493252
0.00334825421058
0.0032234850787
0.00299037901108
0.00259754076291
0.00198381732525
0.000845761420404
0.00108395994753
0.002633556302
0.0035292718834
0.00414315161796
0.00452224492363
0.0046600028951
0.00458801420494
0.00438084474248
0.00412750393822
0.00389026051414
0.00370271578327
0.00357474535932
0.00349550510843
0.00343567524293
0.00335615948092
0.00321490239375
0.00296948491139
0.00257150689981
0.001961991254
0.000838051119119
0.00105414402516
0.00255133796862
0.00341833698369
0.00401668526296
0.0043980613322
0.00456194851765
0.00453369920966
0.00437511034193
0.00416184291835
0.00395016843821
0.00377303689575
0.00364253349587
0.00355018579993
0.00347012744764
0.00336749443901
0.00320446831404
0.00294186093989
0.00253589369253
0.00193145137303
0.000826508721267
0.00100808164421
0.00242820865595
0.00325177124748
0.00382435865442
0.00419834050578
0.00438527170923
0.00440287914097
0.00429890893643
0.00413396822914
0.00395624383269
0.00379616060459
0.00366707108325
0.00356318778191
0.00346335338816
0.00333831767319
0.00315484660506
0.00287664596468
0.00246796693919
0.00187720071983
0.000804847541647
0.000939662072678
0.00225120453801
0.00301285348771
0.0035471055724
0.00390233070018
0.0040971076032
0.0041498546364
0.00409458590436
0.00397721736909
0.00383703615751
0.00370024532182
0.00357960817318
0.00347149432047
0.00335962418308
0.00322031468894
0.00302440829168
0.00274133094837
0.00234332931123
0.00178161064958
0.000765821922201
0.000842157350725
0.00200729591532
0.00268579406249
0.00316537821779
0.00348906994813
0.00367541512183
0.00374481526003
0.00372424079584
0.0036461771243
0.00354130850926
0.00343093607198
0.00332574211717
0.00322355054585
0.0031118697036
0.00297155708615
0.00277832765338
0.00250891413645
0.00214111057665
0.00162763317246
0.000701641853094
0.00070674321289
0.0016812718266
0.00225315896874
0.00265888984075
0.0029349703138
0.00309822755349
0.00316698563094
0.00316386605151
0.00311356798615
0.00303909998552
0.00295579781861
0.00287175711399
0.00278551234901
0.00268714227865
0.00256184387313
0.00239177799554
0.00215798260878
0.00183978485506
0.00139713355451
0.00060288350653
0.000517852734862
0.00124282364694
0.00167557032388
0.00198067537142
0.00218675630025
0.00230904883351
0.00236278617425
0.00236522179667
0.0023341814224
0.00228531749854
0.00222951896072
0.00217186253084
0.00211102074479
0.00203993880004
0.00194757729636
0.00182057686571
0.00164410439637
0.00140079061493
0.00105912780367
0.000454659558868
0.000262475417514
0.000515968608962
0.000701953171952
0.000829581917104
0.000913019570147
0.000961068837438
0.000981454677419
0.000982020532042
0.000970327694734
0.000952611138896
0.000932970752382
0.000913010513085
0.000891791650697
0.00086614391043
0.000831270893767
0.000781182966453
0.000709127702459
0.000605900499197
0.00045600058877
0.000244638334658
0.000315804781302
0.000687902681684
0.000961247978474
0.0011570711638
0.00129490586344
0.00138493474746
0.00143587282532
0.00145687234231
0.00145686449225
0.00144324337556
0.00142094539093
0.00139185062303
0.00135460845423
0.00130482823216
0.00123595042121
0.00114041259925
0.00101018611391
0.000834979016254
0.000598181968858
0.000283405275871
0.000689750066705
0.00172276346239
0.00235700328668
0.00282788384987
0.00317090478801
0.00340260707623
0.00353947259129
0.0036007248816
0.00360665129545
0.00357511575998
0.00351866458796
0.0034426299096
0.0033443153215
0.00321356624939
0.00303517319302
0.00279214071954
0.00246800352174
0.00204556742102
0.00149176048142
0.000595543321324
0.000963707732734
0.00235802186295
0.00319413514013
0.00381722583554
0.00427399048856
0.00458286400176
0.00476236934405
0.00483432027166
0.00482898034153
0.00477406251812
0.00468828563588
0.0045805363295
0.00444703095672
0.00427424204204
0.00404223305117
0.00372547805599
0.0033014327749
0.00274979669857
0.00202651356313
0.000824387487417
0.00116193540092
0.00283513186701
0.00382480028926
0.00455833805659
0.0050956846987
0.00545114206361
0.0056393441983
0.00568865061303
0.00564417238631
0.00554692416833
0.00542343750271
0.00528686736883
0.00513216417745
0.00494114301017
0.00468743827566
0.00433960431051
0.00386461667644
0.00323361925357
0.00239537612073
0.000978662849383
0.00130422489997
0.00318899676951
0.00429656113987
0.00511392691379
0.00570491833553
0.00607064229919
0.0062218554275
0.00620461991008
0.0060866917024
0.00592536086495
0.00575657673456