/*--------------------------------*- C++ -*----------------------------------*\
| =========                 |                                                 |
| \\      /  F ield         | OpenFOAM: The Open Source CFD Toolbox           |
|  \\    /   O peration     | Version:  3.0.1                                 |
|   \\  /    A nd           | Web:      www.OpenFOAM.org                      |
|    \\/     M anipulation  |                                                 |
\*---------------------------------------------------------------------------*/
FoamFile
{
    version     2.0;
    format      ascii;
    class       volScalarField;
    location    "9.6";
    object      k_0;
}
// * * * * * * * * * * * * * * * * * * * * * * * * * * * * * * * * * * * * * //

dimensions      [0 2 -2 0 0 0 0];

internalField   nonuniform List<scalar> 
7968
(
0.00017194959412
0.000205853329987
0.000234459509543
0.000252958525207
0.000263462391977
0.00026898615923
0.00027096664248
0.000270916664417
0.000270186603588
0.000268954939567
0.000267851213909
0.000267327410924
0.000266893235443
0.000265847924907
0.000263115044362
0.000257291202464
0.00024681120846
0.000229716761455
0.000203465161915
0.000171473527818
0.000205590406004
0.000340277864962
0.000436511596901
0.000499705364555
0.000539708054859
0.00056197578353
0.000571888350926
0.000573496361861
0.000570490303012
0.000565753002
0.000561064903529
0.00055686857398
0.000552090025756
0.00054448114764
0.000531007487385
0.000508244411724
0.000471642920689
0.000415133755717
0.000328041993653
0.000204099670534
0.000233723167439
0.000436784446775
0.000578352487343
0.000671795955498
0.000731813495049
0.000766784974133
0.000783425943625
0.000787385962661
0.000783788017835
0.000776667843834
0.000768540943383
0.000760065718229
0.000750114767543
0.000735956590715
0.000713523345586
0.000677979777857
0.00062317737774
0.000540651316651
0.000414467105175
0.000231030433313
0.000252329665704
0.000500568085539
0.000672622073756
0.00078662140947
0.000860229446618
0.000903284783164
0.000923688617561
0.000928296553225
0.000923347361437
0.000914323983301
0.000902648823412
0.000889848423301
0.000875935359367
0.000857384110213
0.000829286502327
0.00078577188939
0.00071944499804
0.000620242239114
0.000469202663976
0.000248159046681
0.000263733670084
0.000541560006014
0.000734520633178
0.000862405828085
0.000944492996388
0.000991896526023
0.00101560775368
0.00102283791696
0.00101737650528
0.00100513164567
0.000990152327044
0.000973914799196
0.000955479158958
0.00093130696933
0.000898099306037
0.00085033969929
0.000777603689973
0.000668358163836
0.000502183248873
0.000257597536456
0.000269860063204
0.000565770772577
0.00077240306626
0.000908999917864
0.00099574062936
0.00104797061904
0.00107427675206
0.00107869624915
0.00106913073026
0.00105286670589
0.00103486623065
0.00101686347431
0.000997699502416
0.000973083651775
0.000937000833162
0.000883469139713
0.000807801986011
0.00069354502512
0.00051931660931
0.000261811859322
0.000272418048579
0.00057813796598
0.000792794113491
0.000934100694815
0.00102338929914
0.00107939813592
0.00110303624342
0.00110279186301
0.0010883032691
0.00106797335583
0.00104743603996
0.00102861694917
0.0010101635965
0.000987156470813
0.000952538284052
0.000898524345728
0.00081875053956
0.000702861628272
0.000525318657751
0.000263510847051
0.000272647349552
0.000582508010621
0.000801144048815
0.000944330033648
0.00103693250487
0.00109115684304
0.00111069751802
0.0011054703638
0.00108627405296
0.00106240900436
0.00104000524987
0.00102107357084
0.00100402663542
0.000983428781112
0.000951574406995
0.000899790347519
0.000819115645185
0.000702441963618
0.000524736154684
0.000264017786812
0.000271930162297
0.000582447386798
0.000802350536722
0.00094559412016
0.00103912589611
0.00109074848826
0.0011064482605
0.00109706330426
0.00107422519686
0.00104782302661
0.00102429152165
0.00100566038011
0.000990084438406
0.000971772509095
0.000942623977223
0.000893554468132
0.000814907342132
0.000697551384613
0.000521166417747
0.000263453371219
0.000271104996286
0.000580722444623
0.000800191468208
0.00094243790332
0.00103525447395
0.00108464575393
0.00109771083311
0.0010857790491
0.00106090227395
0.0010331969554
0.0010092050247
0.000990971669023
0.000976495499291
0.000959732973305
0.000932453207902
0.00088545294183
0.000808825572001
0.000691963967314
0.00051732443569
0.000262470789871
0.000270722727091
0.000578944902767
0.000796774699813
0.000937421114398
0.00102852758566
0.00107664109521
0.00108875819381
0.00107625113844
0.0010511644851
0.00102351628955
0.000999705776957
0.000981734569263
0.000967634027127
0.000951369989312
0.000924785739354
0.000878775700674
0.000803451044549
0.000687755815789
0.000514710683025
0.000261630415696
0.000271168567115
0.000577300454944
0.000792432189383
0.000931058536503
0.00101966274246
0.00106754484806
0.00108043049097
0.00106928048862
0.00104571967814
0.0010193977668
0.000996407350706
0.00097858641792
0.000964031467138
0.000947141121941
0.000920053932017
0.000873931654241
0.000799135136985
0.000685182485296
0.00051366082239
0.000261415638891
0.00027163604568
0.000574382277557
0.000785562227086
0.000921564335294
0.00100657275486
0.00105483818632
0.00106977957179
0.00106150437609
0.0010408360257
0.00101681321704
0.000995139364355
0.000977511488176
0.000962137441572
0.000943937277798
0.000915569089176
0.000868648698049
0.000794019907122
0.000682559744445
0.000512923780772
0.000261383134554
0.000271106436557
0.000567710229682
0.000772960764387
0.000905214525677
0.000985473146801
0.00103345348732
0.00105096532412
0.00104643966265
0.00102958568935
0.00100859616999
0.000988700315258
0.000971513008719
0.000955361934295
0.000935745928596
0.000905968284987
0.000858315817219
0.000784528466027
0.000676694779454
0.000509936456252
0.000260349098051
0.000268315684363
0.000554057694568
0.000750298379411
0.000876900523985
0.000954153196223
0.000997202585592
0.0010164053327
0.00101564918213
0.00100295001764
0.000985469938059
0.000967860460185
0.000951623747757
0.000935217961607
0.000914742745592
0.000884263487577
0.000837072587073
0.000767391801551
0.000663344937551
0.000501506653018
0.000257479963075
0.000262113444447
0.000529836249623
0.000712539479386
0.00083051888111
0.000903174671194
0.000941954446804
0.000958350085344
0.000960151847427
0.000951252130214
0.000937439203431
0.000922595600139
0.000908029703803
0.000892384339366
0.000872370211792
0.000842988434437
0.000800175608145
0.000735809255451
0.000637201890229
0.000483630568945
0.0002526824449
0.000250887653849
0.000490300302943
0.000653337124352
0.000758576310312
0.000823795623822
0.000859149304412
0.000872967519307
0.000872597517533
0.00086512414347
0.000854657292458
0.000842943577547
0.000830940265913
0.000817650829187
0.00080152124364
0.00077750225811
0.000739862387059
0.000681352522005
0.000591792799462
0.000452062484287
0.000243531266394
0.000232696761287
0.000429310126137
0.000564090430854
0.00065087970787
0.000704512108054
0.000733626801982
0.000745227127695
0.000745299986434
0.000739038542323
0.000730451855385
0.00072187377146
0.000713800223394
0.000704979863082
0.00069275988402
0.000673454495304
0.000642371843194
0.000593511969823
0.00051835999122
0.000400807188795
0.000227310521838
0.000205108200678
0.000336449402029
0.000428879690853
0.000488313744642
0.000524758564944
0.000543921707321
0.000551108476941
0.000550712913644
0.000546384593006
0.000540951273688
0.000535983526674
0.000531734501645
0.000527201132771
0.000520291922702
0.000508236041035
0.00048763740165
0.000454003276889
0.000401515268702
0.000319462605297
0.000201800551024
0.000171846275242
0.000205495271627
0.000233649643814
0.000251725941496
0.000261773591524
0.000266757874552
0.000268462671507
0.000268414341201
0.000267702373951
0.000266520864668
0.000265359776052
0.000264440726837
0.000263519108704
0.000261910614524
0.000258803538253
0.000252880792444
0.000242867479387
0.000226462771899
0.00020112851293
0.000170713033249
0.000203477803565
0.0003249761642
0.000418025530505
0.000482240756456
0.000524721465861
0.00055060726114
0.000564055930564
0.000568528474593
0.000567212077419
0.000563244181518
0.000558370968779
0.000553099959412
0.000546536570077
0.000536407264562
0.00051998178322
0.000494353751125
0.000455642780372
0.000398526166277
0.000314835903259
0.000201478296526
0.000325134280059
0.000735988786422
0.000980378671098
0.00114972284969
0.00126446030271
0.00133647577419
0.00137558886133
0.00139065348347
0.00138969741242
0.00137925623491
0.00136363664442
0.00134425276847
0.00131952609159
0.00128553008915
0.0012360872497
0.00116357094894
0.00105867280716
0.000909016145252
0.000692685721142
0.000314489107904
0.000418273949342
0.000980077495446
0.00131189271512
0.00154434282263
0.00170376634655
0.00180475436567
0.00185969733519
0.00188041642256
0.00187801679209
0.00186146808064
0.00183710267342
0.00180720030999
0.00176982104391
0.00171996250034
0.00164925306994
0.00154741330893
0.00140237605898
0.0011986082146
0.000907909017242
0.000397823004628
0.000482988823509
0.00115060232705
0.0015459816447
0.00182394428411
0.00201474464131
0.00213476445795
0.00219837573189
0.00221984756624
0.00221354259906
0.00218949419232
0.00215646493812
0.00211754424594
0.00207036097464
0.00200998886826
0.0019256099594
0.0018046878285
0.00163295729651
0.00139248895309
0.00105073529663
0.000453231651727
0.000526525588245
0.00126807636992
0.00170925854744
0.0020192511501
0.00223056214359
0.00236090779028
0.00242675734538
0.0024428746536
0.00242666012196
0.00239259544766
0.00235090857964
0.00230573743439
0.00225468629203
0.0021900800204
0.00209888534709
0.00196768878671
0.00178036108925
0.00151692484917
0.00114192727256
0.000488236604631
0.000553997695726
0.00134439970845
0.00181645140251
0.00214698960035
0.00236952928353
0.00250279448521
0.00256244485691
0.00256783513747
0.00253902995874
0.00249354224966
0.00244351881832
0.00239390814357
0.00234199235962
0.00227858513526
0.0021891467758
0.00205671604965
0.00186264881817
0.00158760888564
0.00119404939636
0.000508164714215
0.000569519278611
0.00138928598826
0.00187993238438
0.00222162970737
0.00244848861742
0.00257694704582
0.00262601660813
0.00261751659059
0.00257460942769
0.00251756188237
0.00246023406416
0.00240811482035
0.00235805191174
0.00229953877411
0.00221615399825
0.00208888624568
0.00189689807261
0.00161873866949
0.00121786884636
0.000517261340844
0.000576641553962
0.00141142798056
0.00191125592738
0.00225689447613
0.00248215731142
0.00260282216374
0.00263961216397
0.00261686121052
0.00256061849984
0.00249348350969
0.00243057605173
0.00237757976673
0.00233083328408
0.00227875450643
0.00220339513201
0.00208421572404
0.0018993972521
0.00162398342134
0.00122327837412
0.000518947610114
0.000578488817352
0.00141861015623
0.00192109280381
0.00226613944851
0.00248700501653
0.00259935845231
0.00262511705849
0.00259058149832
0.00252403592984
0.00244969525515
0.00238333918702
0.00233054091765
0.00228711590024
0.00224084538588
0.0021728510719
0.00206162486187
0.00188448548901
0.001615797128
0.00121894814768
0.000517121324392
0.000577612445528
0.00141690249109
0.00191787588829
0.00225998566187
0.00247604087965
0.00258188680226
0.00260015959785
0.00255831732383
0.00248590118066
0.00240779629551
0.00234005990038
0.00228798377107
0.00224696707695
0.0022044544407
0.00214137346372
0.00203589021878
0.00186500696167
0.00160311416823
0.00121134529143
0.000514331853891
0.000575813824523
0.00140985348116
0.00190656160707
0.00224466069348
0.00245698486667
0.00255951450988
0.00257505351335
0.0025312675768
0.00245781926839
0.00237950921013
0.0023121560923
0.00226079459718
0.00222071163635
0.00217939202998
0.0021180795291
0.00201520055767
0.0018479372601
0.00159078623698
0.00120396240177
0.00051200869608
0.00057320968211
0.00139815640354
0.001888238713
0.0022216324525
0.00243154668356
0.00253413852491
0.00255177267354
0.00251133372897
0.00244146667834
0.00236619663854
0.00230069925528
0.00224986048429
0.00220917228674
0.00216655876992
0.00210399288962
0.00200064872238
0.00183429843041
0.00157955850708
0.00119720825595
0.00051033934777
0.000568326795486
0.00137944887942
0.00185983935212
0.00218717905714
0.00239506817172
0.00250016883036
0.0025237844396
0.00249112303565
0.00242881207093
0.0023593440795
0.00229711569786
0.00224688280015
0.00220462250893
0.00215887828493
0.00209283355377
0.00198683005844
0.00181960238966
0.00156598343725
0.00118858166249
0.000508364271203
0.000558985621005
0.00134883705897
0.00181472556103
0.00213300306157
0.00233736117917
0.00244579460937
0.00247747946335
0.0024554325089
0.00240359006432
0.00234230098155
0.00228483216475
0.00223583644672
0.00219181098345
0.00214227582221
0.0020719819718
0.00196278195918
0.00179466592274
0.00154326610368
0.00117308412902
0.000503716025277
0.000542367667835
0.00129957608985
0.00174381908958
0.00204794878749
0.00224537344179
0.00235539244207
0.00239485146137
0.00238411759857
0.00234409246639
0.00229259216024
0.00224143192124
0.00219495991151
0.00215021520692
0.0020978755212
0.00202449427838
0.00191358639031
0.00174631915237
0.00150202518824
0.00114366610005
0.000493422275857
0.000515181186146
0.00122367308592
0.00163663305807
0.00191963051317
0.00210522787464
0.00221170654849
0.00225653650022
0.0022556899171
0.00222722329522
0.00218615615707
0.00214264559863
0.00210050921489
0.00205722041319
0.00200467246023
0.0019312844017
0.00182207501852
0.00166172516142
0.00143059509199
0.00109178481745
0.00047384901951
0.000473396679642
0.00111159321953
0.00148109465011
0.00173402778645
0.00190092545011
0.0019987870165
0.00204292133552
0.00204878426123
0.00203066465687
0.00199977858052
0.00196489021986
0.00192912569939
0.00189022344474
0.00184081924904
0.00177185325106
0.00167176979665
0.00152595327512
0.00131581402194
0.00100728047891
0.000440937160788
0.000411677493208
0.000950879147294
0.00126178408601
0.0014736514179
0.00161334594485
0.00169608684105
0.0017350399791
0.00174285523207
0.00173107593429
0.00170916679762
0.00168342556364
0.00165598755546
0.00162493595516
0.00158474604708
0.0015275418549
0.00144338834993
0.00132000733402
0.0011410799796
0.000876845701737
0.000389273826346
0.000322120857899
0.000719615356655
0.000950363769808
0.00110588512101
0.0012073029664
0.0012670777426
0.00129560884164
0.00130231635081
0.00129556336925
0.00128204745447
0.00126597820589
0.00124864657639
0.0012284792573
0.00120135421229
0.00116135369011
0.00110093608376
0.00101054561415
0.000877129417522
0.000677390539491
0.000310296596668
0.000203001402288
0.000321673415177
0.000410874666902
0.000471103550432
0.000509748511566
0.000532163996458
0.000542712212412
0.000544978292958
0.000542282307614
0.000537698201811
0.000532784351035
0.000527879946806
0.000522153320253
0.000513683647481
0.000499709521906
0.00047723464203
0.000442450026942
0.000389827892309
0.000310576871552
0.000199528082178
0.000234571213917
0.000428864382923
0.000576269635222
0.00067948970285
0.000749345639584
0.000793056829231
0.000816519341283
0.000825165019934
0.000823979648091
0.000817087215861
0.000807197072979
0.000795218535682
0.000780143784175
0.000759434897469
0.000729295040655
0.000685123404189
0.000621419512574
0.000530862349491
0.000401917880211
0.000228497973348
0.000429343873284
0.0010154600929
0.00136733687277
0.00161735128021
0.00179139348382
0.00190364107615
0.00196631887735
0.00199143812332
0.00199039740529
0.00197285223229
0.00194540004757
0.00191060243137
0.00186668752489
0.00180808610668
0.00172653809692
0.00161165488018
0.00145164968697
0.00123171195834
0.000925042680487
0.000401198188536
0.000577051530125
0.00136699202442
0.00183330070026
0.00216696985994
0.00240141155046
0.00255318507329
0.00263728794892
0.00266944184578
0.0026649908339
0.00263754385082
0.00259664869233
0.00254626279409
0.0024842719687
0.00240308796144
0.00229178467409
0.00213654160565
0.00192230386479
0.00163104419149
0.00122804822397
0.000528638230953
0.000681176720229
0.00161886867638
0.00216955469737
0.00256318590109
0.00283892747349
0.00301508355995
0.00310884180491
0.0031396621005
0.00312573944053
0.00308502127424
0.00303021758863
0.00296682408929
0.00289239193465
0.00279703840857
0.00266830743186
0.00248865563285
0.0022401749945
0.00190192240478
0.00143296493714
0.000614380999703
0.000752767045518
0.00179709728605
0.00240999574017
0.00284606182678
0.00314803070101
0.00333568972186
0.00342801102275
0.00344594625114
0.00341423947124
0.00335561555409
0.00328595130172
0.00321234740261
0.00313197059852
0.00303343205031
0.00289946057988
0.00270872309661
0.0024422467537
0.00207599838339
0.00156461798113
0.000668823896053
0.000799082822186
0.00191596256118
0.00257159875244
0.00303471694713
0.00334963166857
0.00353750550382
0.00361645184871
0.00361185898846
0.00355538022879
0.00347528035932
0.00339048450676
0.00330946805204
0.00322861980654
0.00313449733227
0.00300690726533
0.00282038502279
0.00254974871589
0.00217172549391
0.0016382380792
0.000699337293312
0.000826015006113
0.00198772857415
0.00266953019407
0.00314676900309
0.00346460539817
0.00364243624937
0.0036992569215
0.00366563269596
0.00358097017041
0.00347868195721
0.00338022206431
0.00329486171791
0.00321795666337
0.00313391094409
0.00301990358097
0.00284709634283
0.00258553787303
0.00220809102394
0.00166844866397
0.000712412363776
0.000838955095268
0.00202425356767
0.00271917073526
0.00320064694783
0.00351352251831
0.00367589035056
0.00370737133825
0.00364470035999
0.00353372438806
0.00341206463541
0.00330299322259
0.003215887944
0.00314508434467
0.00307322341686
0.00297498184446
0.00281937456296
0.00257265839243
0.00220550392434
0.00167009048233
0.000714174193486
0.000842773157576
0.00203654395035
0.00273538794861
0.00321512046044
0.00351923675437
0.00366551550463
0.00367508766868
0.00358912074187
0.00345808697759
0.00332245045906
0.00320649700708
0.00311919101388
0.00305401592027
0.00299256260242
0.00290796816445
0.00276768392871
0.00253605600278
0.00218219261412
0.00165668627814
0.00071007132226
0.000841340162243
0.00203344991493
0.00273026663875
0.0032054301898
0.00350103389702
0.00363534838815
0.00363052753542
0.00353029304614
0.00338766261113
0.00324446818308
0.00312525309265
0.0030384271443
0.00297685267939
0.00292170737288
0.00284569118819
0.00271571854792
0.00249543199105
0.00215315579793
0.00163887600042
0.000704175445201
0.000836926854442
0.00202029258774
0.00271110751461
0.00318050850969
0.00347068329099
0.00359961519455
0.00358978424585
0.00348549496224
0.00334018708745
0.00319570372883
0.00307630596866
0.00299001148016
0.00292944912661
0.00287589304129
0.00280247437616
0.00267656552675
0.0024621368608
0.00212751996181
0.0016225655908
0.000698788997215
0.00082993593554
0.00199821869748
0.00267954868861
0.00314269945899
0.00343064130331
0.00356104976527
0.00355574784147
0.00345754181726
0.00331814097573
0.00317814349625
0.0030611684008
0.00297517474841
0.00291304983253
0.00285662454503
0.00278015642269
0.00265228569468
0.0024382030804
0.00210697826387
0.00160854412262
0.000694418292601
0.000818772291942
0.00196400662649
0.00263127119199
0.0030867623112
0.00337363457713
0.00351057484304
0.00351801656425
0.00343509922088
0.00330958478483
0.0031795424946
0.00306761125388
0.00298196703678
0.00291627117667
0.00285341298307
0.00276942735743
0.00263483202754
0.00241693267362
0.00208631328174
0.00159323184801
0.000689474117021
0.000800312853948
0.00191082108594
0.00255692598964
0.00300062512991
0.0032847876771
0.00342957336628
0.00345487431623
0.00339404983015
0.00328890109688
0.00317373802517
0.00306980507472
0.00298546635713
0.00291553805334
0.00284465884845
0.00275100705492
0.00260729532764
0.00238437434431
0.00205454432615
0.00156931368403
0.000680709493854
0.000770401473518
0.00182943337098
0.00244415749338
0.00286882762953
0.00314549025538
0.00329544708534
0.0033383490109
0.00330193248193
0.00322052747764
0.00312377249126
0.003030952674
0.00295019869855
0.00287762771223
0.00280003409456
0.00269769970435
0.00254644968132
0.00232154801545
0.0019967214671
0.00152614894997
0.000663709133508
0.000724193527376
0.00170932229441
0.00227942375723
0.00267523929276
0.00293744620078
0.00308567807711
0.00314106063982
0.00312598906622
0.00306766514742
0.00299059161007
0.00291147871055
0.00283758597812
0.00276610376711
0.00268590555004
0.00257979419866
0.00242740362496
0.00220749987974
0.00189747119225
0.00145167475083
0.000633339960805
0.0006560046226
0.00153879913601
0.00204843307008
0.00240330891581
0.00264107677056
0.00278012407317
0.00283888737398
0.00283868142303
0.00279968157842
0.00274145678716
0.00267764779841
0.0026141352904
0.00254876136942
0.00247228598152
0.00237041818607
0.00222649766872
0.00202348869233
0.00173950537161
0.0013324439158
0.000583590986061
0.00055829160337
0.0013031884358
0.00173398116532
0.00203378076818
0.00223526307262
0.00235523936613
0.00240969995997
0.00241586839238
0.00239070931449
0.00234924676958
0.002301559709
0.00225158747297
0.00219760805756
0.00213266720958
0.00204538937723
0.00192213713339
0.00174783271376
0.00150331945032
0.00115216091571
0.000506591242675
0.000419130895928
0.000975151892486
0.00130110131702
0.00152590249189
0.0016755276936
0.00176459996276
0.00180615985334
0.00181327170946
0.00179837406913
0.00177188255884
0.00174068122904
0.00170743199135
0.00167055768681
0.0016246848793
0.00156141808944
0.00147049411013
0.00133977475319
0.00115334596661
0.000882400672534
0.000389950275436
0.00023263237948
0.000418162383137
0.000556082971825
0.000650066383347
0.000711116801107
0.000746705079044
0.000763065868455
0.00076597882472
0.000760693249258
0.000751420499018
0.000740798788567
0.000729690884702
0.000717189397354
0.000700775963763
0.000676808348419
0.000640789638597
0.000587109905763
0.000507988132462
0.000390631256349
0.000224710129503
0.000269139691006
0.000542490580764
0.000746240730393
0.000890200940678
0.000989283741477
0.00105236466592
0.00108678944721
0.00109973424184
0.00109801530613
0.00108728971838
0.00107130804954
0.00105146565471
0.00102668530164
0.000993566916636
0.0009472000933
0.000881564370171
0.000789860706362
0.000663366262802
0.000487777685455
0.000253674268916
0.000543527365271
0.00132457582046
0.00179808250901
0.00214135845925
0.00238523922034
0.00254551926227
0.00263664865293
0.00267401191853
0.00267302551933
0.00264707647785
0.00260546244832
0.00255205164018
0.00248480709775
0.00239630399556
0.00227526321413
0.00210823032338
0.00188131299925
0.00157804299062
0.00116817081781
0.000486399907812
0.000747829261449
0.00179800317472
0.00242031510595
0.00287340442329
0.00319765173849
0.00341085327931
0.00353027573818
0.00357572411222
0.00356827128855
0.00352705028397
0.00346572760991
0.00339035356315
0.00329845122771
0.00317981538359
0.00301909571057
0.00279849761579
0.00249982759092
0.00210334561756
0.00156899184936
0.000658164088938
0.000893244846992
0.0021445979411
0.00287786361362
0.00340938169437
0.00378723458813
0.00403131415122
0.00416087745816
0.00419817340255
0.00417123298406
0.00410677232584
0.00402315772577
0.00392902425137
0.00382111193665
0.00368655698378
0.00350625971431
0.00325742098814
0.00291676688038
0.00246126619125
0.00184257365045
0.000773999401264
0.000995017966188
0.00239523525148
0.00321181314512
0.00379881104789
0.00421080359739
0.00446820078652
0.00458601521572
0.00459326370646
0.00453016124047
0.00443214919579
0.00432266939025
0.0042129584263
0.00409873102932
0.00396367574175
0.00378441040697
0.00353122120113
0.00317431821676
0.00268704816759
0.00201614355988
0.000846466969312
0.00106206747275
0.00256600754298
0.00344084116521
0.00406348924642
0.00449348052538
0.00474155429629
0.00482355402978
0.00478065227954
0.00466714170677
0.00452795418519
0.00439173304989
0.00427146862821
0.0041614863142
0.00404064224525
0.0038793948759
0.00364366488295
0.00329614239619
0.00280134974926
0.00210691927662
0.000884501297617
0.00110176535781
0.00267153257105
0.00358260787576
0.00422456949173
0.00465510666554
0.00487373280811
0.00490297739055
0.00479752261974
0.00462704547955
0.00444574766608
0.0042862179137
0.00416161082674
0.00406437191274
0.00396822100174
0.0038370181246
0.00363112185859
0.00331018553713
0.00282925930264
0.00213413071279
0.000896903364646
0.00112122970628
0.00272695612848
0.00365659509287
0.00430415232816
0.00472117179201
0.00490171960985
0.00487440485034
0.00470726001053
0.00448454351027
0.0042676060815
0.0040908650863
0.00396620636218
0.00388402815946
0.00381427157744
0.00371572525637
0.00354397988635
0.00325535101513
0.00280036632073
0.00211946424471
0.000892849149536
0.0011270759532
0.00274696795945
0.00368261716996
0.00432650925376
0.00472494848287
0.00487085614484
0.00479681290249
0.00458174061128
0.0043204701337
0.004078653868
0.00389091149523
0.00376710491902
0.00369604067719
0.0036462404006
0.0035737963686
0.00343137179089
0.00317204314851
0.00274360320996
0.00208413674819
0.000880823788836
0.00112458414484
0.00274360052883
0.00367724089289
0.00431364233286
0.00469695512804
0.00481926895159
0.00471592770014
0.00447247879928
0.00418946470391
0.0039342268614
0.00374085958181
0.00361761748263
0.00355207564173
0.00351260780145
0.00345489488436
0.00333071864581
0.0030915705965
0.00268391815622
0.00204542195065
0.000867384145224
0.00111688467544
0.0027241682649
0.00365064642087
0.00427976428111
0.0046551361114
0.00476839804956
0.00465579890147
0.00440446330358
0.0041159329163
0.00385750717536
0.00366276201443
0.00353925781144
0.00347404946754
0.00343580969022
0.00338105425242
0.00326238457033
0.00303172974401
0.00263584642646
0.00201254124985
0.00085610738025
0.00110455426082
0.0026900282161
0.00360467361471
0.00422719982468
0.00460239743058
0.00472162606802
0.00462004158697
0.00438108855886
0.00410254109167
0.00385018550456
0.00365747168326
0.00353247748445
0.00346272936514
0.00341749319125
0.00335491422428
0.00322971906092
0.00299607783015
0.00260255380885
0.00198782478196
0.000847694334729
0.00108555724452
0.00263656713865
0.00353284458576
0.00414699015431
0.00452628100668
0.00466430431091
0.00459272049887
0.0043860617922
0.0041332472228
0.0038964722177
0.00370927991912
0.00358151022306
0.00350228729481
0.00344231069303
0.00336252698416
0.00322090699355
0.00297502403905
0.00257642964969
0.00196596452975
0.000839985112261
0.00105575934762
0.00255436987929
0.00342191101136
0.00402050240467
0.00440203561345
0.00456611628343
0.00453816660067
0.00437997257513
0.00416713424562
0.00395586308081
0.00377905332522
0.00364874365618
0.00355644185195
0.00347629119871
0.00337346312742
0.00321015751907
0.00294717272855
0.00254067457365
0.00193536537164
0.000828426537085
0.00100971120444
0.00243127555064
0.00325536622027
0.00382817771427
0.00420227334042
0.00438932957109
0.00440712797617
0.0043034272529
0.00413880080518
0.00396139158965
0.003801578003
0.00367267062929
0.00356886025675
0.00346899578242
0.00334384605546
0.00316018206059
0.00288169787134
0.00247256873915
0.00188101579682
0.000806727135168
0.00094128521035
0.00225429218485
0.00301646077796
0.00355092417321
0.00390623588611
0.00410108454121
0.00415393192052
0.00409882329769
0.00398166116996
0.00384170428394
0.00370512216779
0.00358464495853
0.0034766230246
0.00336477486597
0.00322542102475
0.0030293986391
0.00274611627035
0.00234774204118
0.00178528985343
0.000767635361186
0.000843727843072
0.00201034257889
0.00268935456154
0.00316914545158
0.00349290857083
0.00367928592137
0.00374873578565
0.0037282444885
0.00365030569861
0.0035455875415
0.00343536951434
0.00333031005259
0.00322821618281
0.00311658818561
0.00297627720786
0.00278298055519
0.00251341477258
0.00214527971195
0.00163111332248
0.000703345473616
0.000708174406835
0.00168413736706
0.00225652810983
0.00266246717691
0.00293861554488
0.00310188687845
0.00317065905639
0.00316757944012
0.00311735985427
0.00304299319113
0.00295980601064
0.00287587659564
0.00278972041877
0.00269141251905
0.00256614335158
0.00239603698404
0.00216209849722
0.00184358738818
0.00140028412901
0.000604402401024
0.000518998387193
0.00124522513297
0.0016784426336
0.00198374909066
0.00218989781502
0.00231220083326
0.00236593960389
0.002368393331
0.00233739955878
0.00228860584073
0.00223289285577
0.00217532431294
0.00211455958773
0.00204353179005
0.00195118763333
0.00182414682428
0.00164753754031
0.00140393159951
0.00106168582271
0.0004558645908
0.000263148028118
0.000517114579916
0.000703385966976
0.000831163170387
0.000914669863112
0.00096274766719
0.000983146506292
0.000983724334768
0.000972049664709
0.000954358298677
0.000934747771507
0.000914817204644
0.000893621700322
0.000867983909136
0.000833099082457
0.000782967059254
0.000710818349672
0.000607415113533
0.000457204111442
0.000245347784315
0.000316499706588
0.000689169680936
0.000962830722177
0.00115880797028
0.00129669949397
0.00138672959923
0.00143764122276
0.00145860497651
0.00145856246287
0.00144491235962
0.00142259194039
0.00139347980085
0.00135622225062
0.00130642382611
0.00123751836523
0.00114193393124
0.00101162547108
0.000836278860103
0.000599242481817
0.000284085143432
0.000691022924967
0.00172540102393
0.0023601765308
0.00283123894115
0.00317423797331
0.00340581825854
0.00354253701096
0.00360366858013
0.00360952121959
0.00357795918488
0.00352151778088
0.00344551197582
0.00334722862603
0.00321649999815
0.00303810637768
0.00279503983298
0.00247080282926
0.00204814200892
0.0014938705661
0.000596603335047
0.000965296224025
0.00236117202321
0.00319777461143
0.00382090072192
0.00427746712732
0.00458606544713
0.00476533347319
0.00483715475488
0.00483179941236
0.00477695525058
0.00469130528189
0.0045836965661
0.00445031462208
0.00427761234516
0.00404564475236
0.00372888252934
0.00330475127487
0.00275288748035
0.00202908864778
0.00082569201671
0.00116365967509
0.00283843691753
0.00382845456173
0.0045618337395
0.00509879365458
0.00545385121117
0.00564180899302
0.00569106767759
0.00564671948856
0.00554971043805
0.00542650246866
0.0052901879261
0.00513568019374
0.00494477991878
0.00469112206201
0.00434328529964
0.00386821026711
0.00323698676571
0.00239820726829
0.00098011477378
0.00130597627392
0.00319223794972
0.00429998523959
0.00511701316466
0.0057074765172
0.00607277316503
0.00622381856008
0.00620673205751
0.00608917269691
0.00592830151194
0.00575995788277