/*--------------------------------*- C++ -*----------------------------------*\
| =========                 |                                                 |
| \\      /  F ield         | OpenFOAM: The Open Source CFD Toolbox           |
|  \\    /   O peration     | Version:  3.0.1                                 |
|   \\  /    A nd           | Web:      www.OpenFOAM.org                      |
|    \\/     M anipulation  |                                                 |
\*---------------------------------------------------------------------------*/
FoamFile
{
    version     2.0;
    format      ascii;
    class       volScalarField;
    location    "1.1";
    object      ddt0(epsilon);
}
// * * * * * * * * * * * * * * * * * * * * * * * * * * * * * * * * * * * * * //

dimensions      [0 2 -4 0 0 0 0];

internalField   nonuniform List<scalar> 
7968
(
-0.00673069777356
-0.00682620468776
-0.00686321627667
-0.00686734224885
-0.00686510182642
-0.00686375356574
-0.0068636944657
-0.00686404606376
-0.00686424143208
-0.00686428376674
-0.00686389854888
-0.00686349640604
-0.00686304569825
-0.0068626317126
-0.00686287727879
-0.00686431653986
-0.00686666802938
-0.00686266929857
-0.00682586213193
-0.00673055598738
-0.00682620523747
-0.00761895161962
-0.00798698874638
-0.0080744788456
-0.00807463312122
-0.0080640048852
-0.00805879240051
-0.00805818415319
-0.00805913281299
-0.00805974400095
-0.00805908191163
-0.00805740203426
-0.00805583794931
-0.00805632392803
-0.00806174541421
-0.00807274475267
-0.00807295272542
-0.00798590213227
-0.00761846025872
-0.00682594227084
-0.006863247411
-0.00798706929455
-0.00858944517853
-0.00876297884021
-0.00877489022831
-0.00875610785455
-0.00874327766471
-0.00873885579859
-0.0087385432739
-0.0087386356478
-0.00873772122966
-0.00873590028069
-0.00873518528911
-0.00873935228626
-0.00875262487613
-0.00877213589943
-0.00876108568297
-0.00858828330168
-0.00798663967694
-0.00686294136438
-0.00686738285497
-0.00807452736927
-0.00876290762911
-0.00897213365923
-0.00898590795377
-0.00895856529596
-0.00893769826154
-0.00892445810657
-0.00891947359387
-0.00891796184343
-0.00891703403418
-0.00891704696757
-0.00892063575993
-0.00893182644243
-0.00895327187521
-0.00898198198241
-0.00896968972753
-0.00876174060722
-0.00807425916974
-0.00686715627335
-0.00686511130396
-0.00807446916339
-0.00877452454604
-0.00898565956798
-0.00899221496696
-0.00895480492323
-0.00892079357863
-0.00890440472664
-0.00889868397946
-0.00889693139296
-0.00889585540699
-0.00889568009306
-0.00890006694439
-0.00891554086317
-0.00894762496979
-0.00898655492503
-0.00898235691209
-0.00877321891868
-0.00807436699459
-0.0068650317282
-0.00686369865233
-0.00806347577087
-0.00875541450142
-0.00895799940969
-0.00895494932795
-0.0089030344633
-0.00886559851777
-0.00884800597473
-0.00884205516485
-0.00884033888341
-0.00883901250246
-0.00883840987089
-0.00884280546515
-0.00885988588486
-0.00889700758232
-0.00894752542685
-0.00895363083961
-0.0087537889589
-0.00806353073654
-0.00686374120042
-0.00686354123189
-0.00805793421101
-0.00874217778604
-0.00893689274255
-0.00892083776888
-0.0088656587208
-0.00882676257076
-0.00880867608105
-0.00880304219939
-0.00880161542439
-0.00880007390337
-0.00879879996759
-0.00880255249032
-0.00881994813889
-0.0088593536658
-0.00891483603421
-0.00893171591973
-0.0087402733083
-0.00805809450344
-0.00686365091648
-0.00686395649127
-0.00805715296099
-0.00873758661202
-0.00892476407712
-0.00890451282819
-0.00884824376327
-0.008808868691
-0.00879129213302
-0.00878639580655
-0.00878540956353
-0.00878371229329
-0.00878171909185
-0.0087844821703
-0.00880119045573
-0.00884105226535
-0.00889856443923
-0.00892198463252
-0.00873547702649
-0.00805737255482
-0.00686413203566
-0.00686440632153
-0.00805811420074
-0.00873726771468
-0.00891930113173
-0.00889900343964
-0.00884263843234
-0.00880359465406
-0.00878676262324
-0.00878252483859
-0.008781854206
-0.00878001779715
-0.00877747666984
-0.00877938817685
-0.00879525592483
-0.0088347326202
-0.00889269307728
-0.00891403077536
-0.00873491322429
-0.00805838973599
-0.00686470958706
-0.006864588985
-0.00805886681202
-0.00873780206424
-0.00891801438128
-0.00889779049612
-0.00884149962406
-0.00880276433511
-0.00878633414804
-0.008782344149
-0.00878170557596
-0.0087797084944
-0.00877686801382
-0.00877836001017
-0.00879373825075
-0.00883289465228
-0.00889087913835
-0.00891253215861
-0.00873509986864
-0.00805905395071
-0.00686508513803
-0.00686413248698
-0.00805844967567
-0.0087373725226
-0.00891759046997
-0.00889740073738
-0.00884094307377
-0.00880201115429
-0.0087853412893
-0.00878106173686
-0.00878021048133
-0.00877797893869
-0.00877506616288
-0.00877661550708
-0.00879214880571
-0.00883154844106
-0.00888982468444
-0.00891170832702
-0.00873423587524
-0.00805840078125
-0.00686456243365
-0.00686351985519
-0.00805708505191
-0.00873616452459
-0.00891818919861
-0.00889788030388
-0.00884110964466
-0.00880150622083
-0.00878400864677
-0.00877898761936
-0.00877763507024
-0.00877526562606
-0.00877249844699
-0.00877456810092
-0.00879087007649
-0.0088310439123
-0.00888985169722
-0.00891245956722
-0.00873226170384
-0.00805650346212
-0.00686370258718
-0.00686293423765
-0.00805571684884
-0.00873588962055
-0.00892215403235
-0.00890264847117
-0.00884599983313
-0.00880575540803
-0.00878718309593
-0.00878114838617
-0.00877922633401
-0.00877681663859
-0.00877449761336
-0.00877747672
-0.0087949046645
-0.00883582890159
-0.00889449999549
-0.00891760194558
-0.00873183938385
-0.00805496855563
-0.0068629976979
-0.00686253337075
-0.00805627490817
-0.00874019941008
-0.00893427273531
-0.00891819532434
-0.00886313039062
-0.00882320835525
-0.00880392327432
-0.00879697166803
-0.00879446650093
-0.00879213059628
-0.00879052264191
-0.00879460481791
-0.00881293552865
-0.0088536663261
-0.00891010080245
-0.00892626540932
-0.00873641866884
-0.00805562512234
-0.00686245015314
-0.00686275379541
-0.00806166615596
-0.00875329659755
-0.00895534545363
-0.00895131471724
-0.00889991492252
-0.00886221936927
-0.00884341430851
-0.00883614747321
-0.0088333408022
-0.00883124701064
-0.00883039436556
-0.00883519497258
-0.00885332066765
-0.00889141808228
-0.00894065445758
-0.00894858479192
-0.00875015673723
-0.0080611548348
-0.00686252400075
-0.0068641857369
-0.00807256254679
-0.00877242561333
-0.00898327536917
-0.00898910875945
-0.00895099141377
-0.00891707217489
-0.00890032868577
-0.00889369624884
-0.00889106274484
-0.00888935156674
-0.00888907596948
-0.00889368829581
-0.00891096852433
-0.0089401616945
-0.00898079991034
-0.00897816318732
-0.00876994812928
-0.00807216303052
-0.00686390435386
-0.00686654344551
-0.00807269390492
-0.00876100294015
-0.00897019697554
-0.00898367546363
-0.00895567838962
-0.00893398731785
-0.00892380931212
-0.00891470002143
-0.00891255807901
-0.00891123938062
-0.00891521786213
-0.00891612951013
-0.00892516085457
-0.0089478566216
-0.00897786760866
-0.00896646305597
-0.00875898317942
-0.00807232343553
-0.006866169116
-0.00686257266455
-0.0079855760961
-0.00858797572359
-0.00876165233217
-0.0087735422749
-0.00875455377785
-0.00874125931674
-0.00873633374369
-0.00873535085855
-0.00873477806467
-0.00873331030749
-0.0087313084141
-0.00873078271865
-0.00873545261689
-0.00874948598859
-0.00876958891627
-0.00875887427959
-0.00858625005288
-0.00798508950471
-0.00686212095781
-0.00682580247001
-0.00761819454815
-0.00798631127405
-0.00807396786014
-0.00807420602458
-0.00806358537584
-0.00805828403192
-0.00805755936672
-0.00805838853315
-0.00805868836136
-0.00805771127968
-0.00805579361083
-0.00805425052129
-0.00805498770898
-0.00806067079729
-0.00807188514092
-0.00807220355137
-0.00798504899517
-0.0076176850306
-0.00682534474765
-0.00673053768284
-0.00682586857496
-0.00686282628308
-0.00686702143457
-0.00686491184443
-0.00686363466486
-0.00686357031194
-0.00686405784419
-0.00686460687299
-0.00686498757674
-0.00686441161605
-0.00686355173113
-0.00686290261299
-0.00686238801133
-0.00686248660223
-0.00686389205707
-0.00686617602113
-0.00686213847839
-0.00682535310172
-0.00673033865538
-0.00682733075325
-0.00762231189608
-0.00799007834582
-0.00807665482511
-0.0080753340205
-0.00806280675526
-0.00805583879725
-0.00805399364145
-0.00805438284354
-0.00805465046505
-0.00805391902443
-0.00805262297332
-0.00805224540342
-0.00805433748014
-0.0080613453255
-0.00807408343459
-0.00807571664228
-0.00798945390644
-0.00762203346797
-0.00682708508206
-0.0076224067135
-0.0245381032931
-0.0257571831122
-0.0260920203195
-0.0260605455478
-0.0259764603838
-0.0259256015708
-0.025905956738
-0.0259010610439
-0.0258999796475
-0.0258981931755
-0.0258965229396
-0.0258999632278
-0.0259193021312
-0.0259707748169
-0.0260559944215
-0.0260889672753
-0.0257555388234
-0.0245366015578
-0.007622344473
-0.00799025062344
-0.0257576262355
-0.0268056815354
-0.0270834939926
-0.0270096479123
-0.0268889491376
-0.0268130783812
-0.0267802209368
-0.0267699387409
-0.026766601596
-0.026765088082
-0.0267652937982
-0.0267738151245
-0.026806286026
-0.026883210933
-0.0270058676912
-0.0270819476737
-0.0268055755134
-0.0257567187934
-0.00799020509252
-0.00807686324904
-0.0260922587347
-0.027083238924
-0.0273186857578
-0.027199646117
-0.0270391698145
-0.0269358657474
-0.0268857790692
-0.0268682674883
-0.0268630412096
-0.0268611324282
-0.0268630273417
-0.0268783552797
-0.0269263909238
-0.0270307141567
-0.0271939331938
-0.0273162407394
-0.0270829595722
-0.0260914146998
-0.00807692049427
-0.00807544245988
-0.0260601308696
-0.0270087738346
-0.0271991156896
-0.0270352286742
-0.0268368355315
-0.0267057960468
-0.0266448293756
-0.0266230855912
-0.0266165582471
-0.0266140664199
-0.026616215349
-0.0266351132389
-0.0266950085227
-0.0268255767962
-0.0270263027188
-0.0271944795532
-0.0270074233968
-0.0260591297385
-0.0080755935709
-0.00806280359064
-0.0259750849573
-0.0268872959123
-0.0270381715449
-0.0268370930638
-0.026606644216
-0.0264608188375
-0.0263935486912
-0.0263703763724
-0.0263638013719
-0.0263607131675
-0.0263617675017
-0.0263811833868
-0.0264471345988
-0.026593854898
-0.0268252070956
-0.0270307522523
-0.0268842719404
-0.0259735802319
-0.00806299482083
-0.00805560687318
-0.0259233049554
-0.0268108243524
-0.026934880861
-0.0267058113831
-0.0264611095798
-0.0263081540452
-0.026239531761
-0.026217646174
-0.0262122575225
-0.0262087059048
-0.0262076624723
-0.0262249294434
-0.0262916241354
-0.0264456339888
-0.0266933959659
-0.0269250415923
-0.0268058795625
-0.0259209281278
-0.00805597416019
-0.00805351162797
-0.0259033258355
-0.0267780643876
-0.0268866295301
-0.026645569263
-0.0263945192448
-0.02624022282
-0.0261735199302
-0.0261544217986
-0.0261508122411
-0.0261469439869
-0.0261434990761
-0.0261572975817
-0.0262214322522
-0.0263764670455
-0.026630947285
-0.0268762556186
-0.0267712895379
-0.0258997640848
-0.0080539503353
-0.00805370448107
-0.0258986179606
-0.0267682488752
-0.0268686977552
-0.0266247379018
-0.0263724511474
-0.0262194387222
-0.026155444266
-0.026138979389
-0.0261368570886
-0.0261327261445
-0.0261273067566
-0.0261379324395
-0.026198800341
-0.0263521963467
-0.0266080404313
-0.0268568817252
-0.0267597877402
-0.0258937971849
-0.00805408183648
-0.00805398784648
-0.0258982868066
-0.0267666195963
-0.0268647481902
-0.0266197838042
-0.026367591717
-0.0262157184566
-0.0261532873
-0.026138095145
-0.026136561125
-0.0261320944571
-0.0261254436046
-0.0261341720585
-0.0261929742969
-0.0263449869867
-0.0266007920589
-0.0268509006597
-0.0267564233167
-0.0258920045982
-0.00805437073004
-0.00805342261734
-0.0258976627288
-0.0267664111453
-0.0268645703223
-0.0266192809383
-0.0263666490205
-0.026214238513
-0.026151156618
-0.026135250946
-0.0261330927446
-0.0261280912388
-0.0261210147983
-0.0261295690113
-0.0261885746235
-0.0263411399934
-0.0265977249553
-0.0268485770951
-0.0267543407336
-0.0258897976805
-0.00805358240062
-0.00805260335438
-0.0258971512501
-0.0267677240175
-0.0268681430584
-0.0266233431241
-0.0263697733284
-0.0262151667784
-0.0261492796932
-0.0261307979262
-0.0261268818282
-0.0261211967419
-0.0261145968158
-0.0261248277737
-0.0261863813921
-0.0263414536257
-0.0265995739952
-0.0268508370369
-0.0267540243798
-0.0258878463055
-0.00805246396012
-0.00805248866344
-0.0259013316468
-0.0267772550364
-0.0268845907954
-0.0266435029016
-0.0263905456161
-0.0262336930498
-0.0261639798984
-0.0261417476578
-0.0261353678077
-0.0261291382794
-0.0261240505903
-0.0261375432851
-0.0262030604466
-0.0263609156296
-0.0266187982632
-0.0268660338902
-0.0267629860883
-0.0258914714637
-0.00805216369515
-0.00805450198929
-0.0259208866325
-0.0268100129952
-0.0269330622661
-0.0267036754432
-0.0264567369636
-0.0263005543182
-0.0262280822657
-0.0262022233974
-0.0261933662167
-0.0261870145193
-0.0261842698191
-0.0262016228641
-0.0262704843203
-0.0264282357751
-0.0266802286462
-0.0269133650747
-0.0267966575474
-0.0259114572571
-0.00805429483694
-0.00806149396419
-0.0259720875166
-0.0268864749172
-0.0270366345827
-0.0268335046555
-0.026602617515
-0.0264536565454
-0.0263822398186
-0.0263547407431
-0.0263444396443
-0.0263385279491
-0.0263381432239
-0.0263581052479
-0.0264267328411
-0.0265769900456
-0.0268105757584
-0.02701957056
-0.0268754863529
-0.0259638537225
-0.00806145051612
-0.00807417462063
-0.0260568042892
-0.0270081837106
-0.0271983839224
-0.0270327728672
-0.0268325223953
-0.0267000058899
-0.0266355665888
-0.0266097705556
-0.0265997508678
-0.0265947649996
-0.0265958632395
-0.0266153341722
-0.0266780196304
-0.0268094186941
-0.0270137267346
-0.0271853699991
-0.0270000503606
-0.026049998157
-0.00807408708607
-0.00807572190061
-0.0260892713042
-0.0270832025745
-0.02731892806
-0.0271987168911
-0.0270360512416
-0.0269302758351
-0.0268794841851
-0.0268581768524
-0.0268500819741
-0.0268461843474
-0.0268479938376
-0.0268628185723
-0.0269108520573
-0.0270180599507
-0.0271848048473
-0.0273098230901
-0.0270776045021
-0.026083834542
-0.00807564671342
-0.00798942306512
-0.0257554993277
-0.0268059643674
-0.027084092084
-0.027009527801
-0.0268872447597
-0.0268091420891
-0.0267739504621
-0.0267611162387
-0.0267561927018
-0.0267529121017
-0.0267520313731
-0.0267608715369
-0.026794855479
-0.0268742875853
-0.0269994640512
-0.0270774346441
-0.0268018753356
-0.0257512237411
-0.00798929316229
-0.00762201258785
-0.0245362145488
-0.0257563237273
-0.0260912557894
-0.0260595102926
-0.0259746536255
-0.0259224833204
-0.025901288968
-0.0258946957975
-0.0258919846423
-0.0258890731862
-0.0258868319394
-0.0258903408047
-0.0259104329154
-0.0259631522443
-0.0260496385667
-0.026083732967
-0.0257512365596
-0.0245319472662
-0.00762189217832
-0.0068270639127
-0.00762227102733
-0.00799006614828
-0.00807677636308
-0.0080755135038
-0.00806302755086
-0.00805611451156
-0.00805408644144
-0.00805413134049
-0.00805418683164
-0.00805326818726
-0.00805209995616
-0.00805182874007
-0.00805399155836
-0.00806120569884
-0.00807396422459
-0.0080756145601
-0.00798928517549
-0.00762189345462
-0.00682655104444
-0.00686506531844
-0.00799313864346
-0.00859575638396
-0.00876780556665
-0.00877716208559
-0.00875536749461
-0.00873971623103
-0.00873318801362
-0.00873180963604
-0.00873159889604
-0.00873059714045
-0.00872955347254
-0.00873046094687
-0.00873692132596
-0.00875298132475
-0.00877532327065
-0.00876671994791
-0.00859536111158
-0.00799311833593
-0.00686466827617
-0.00799328435811
-0.0257610523755
-0.0268059048121
-0.0270807317211
-0.0270039348375
-0.0268805798581
-0.026802780641
-0.0267690364032
-0.0267582356375
-0.0267549691106
-0.0267527402612
-0.0267523714101
-0.0267610698706
-0.0267943082673
-0.0268729831965
-0.0269983419424
-0.0270778612115
-0.0268054094221
-0.0257608007811
-0.00799343028043
-0.00859604621378
-0.0268064658818
-0.0271051454786
-0.0270819895042
-0.026887542733
-0.0267148850496
-0.0266134451741
-0.0265678955192
-0.0265517635528
-0.0265463598363
-0.0265439345899
-0.0265452221519
-0.0265583738262
-0.0266027671386
-0.026704877736
-0.0268799599506
-0.0270778832953
-0.0271039240166
-0.0268053155756
-0.00859632635748
-0.00876820817344
-0.0270813958241
-0.0270823043785
-0.0269046234334
-0.0266248794748
-0.0264041196555
-0.0262758974411
-0.0262170795303
-0.0261952397288
-0.0261878626957
-0.0261845502111
-0.0261858721743
-0.0262031554885
-0.0262598220429
-0.0263877831081
-0.0266114246291
-0.0268959345854
-0.0270780846411
-0.0270786342245
-0.00876838215203
-0.0087776145924
-0.0270046067064
-0.0268886456812
-0.0266262475713
-0.0262873191299
-0.0260283292741
-0.0258723109578
-0.0257986467945
-0.0257738111352
-0.0257656558976
-0.0257613701689
-0.0257615952428
-0.02578528135
-0.0258562814071
-0.0260050603407
-0.0262669967775
-0.0266119864337
-0.0268807794522
-0.0270001794814
-0.00877752489037
-0.00875582245835
-0.0268811695865
-0.0267171844643
-0.026407858672
-0.0260312753857
-0.0257284502
-0.0255332701647
-0.0254502265959
-0.0254293483321
-0.0254215534413
-0.0254156421849
-0.0254122770526
-0.0254444504496
-0.0255431059146
-0.0257189149852
-0.0260053126933
-0.0263884480705
-0.0267058682264
-0.0268751611332
-0.00875549518184
-0.00874015223837
-0.0268033287992
-0.0266171197003
-0.0262829172941
-0.0258788462627
-0.0255326785497
-0.0253220477537
-0.0252473773571
-0.0252332308776
-0.0252241179718
-0.0252133455901
-0.0252015237292
-0.0252352164716
-0.025355605479
-0.0255593424355
-0.0258553644173
-0.026259442646
-0.026603008372
-0.0267958833903
-0.00873963983282
-0.00873370160603
-0.0267698707473
-0.0265728677907
-0.0262263812123
-0.0258063069103
-0.0254436801441
-0.025239168255
-0.0251746268501
-0.0251669585815
-0.0251571379898
-0.0251415413894
-0.0251206338488
-0.0251492467489
-0.0252748987454
-0.0254926961636
-0.0257903961178
-0.0262000220139
-0.0265567213576
-0.0267610907909
-0.00873304183239
-0.00873229587718
-0.0267598683473
-0.0265580597083
-0.0262064857435
-0.0257820582881
-0.0254189113829
-0.0252202643559
-0.0251636497626
-0.025161827227
-0.0251534122469
-0.0251357535292
-0.0251091262282
-0.0251319942686
-0.0252549407722
-0.025472465923
-0.0257684048013
-0.0261787070227
-0.0265403475596
-0.026749743296
-0.00873170429029
-0.00873234938093
-0.0267578634178
-0.0265543159815
-0.0262008349737
-0.0257751867128
-0.025410035653
-0.0252116745346
-0.0251582595693
-0.0251599507233
-0.0251530511243
-0.0251348993502
-0.0251057297356
-0.0251261351925
-0.0252483103984
-0.025465501213
-0.0257601269748
-0.0261711050044
-0.0265349890081
-0.02674620086
-0.00873157697845
-0.00873174700437
-0.0267569803236
-0.0265533342429
-0.0261990475798
-0.0257717659362
-0.0254023835769
-0.025200547675
-0.0251459893174
-0.0251473979295
-0.0251395822242
-0.0251203160178
-0.0250901012934
-0.0251115659755
-0.0252375367294
-0.0254585922618
-0.025754591631
-0.0261669888353
-0.026532166769
-0.0267435321115
-0.0087304982979
-0.00873097165378
-0.0267576666041
-0.0265553367596
-0.0262014740019
-0.0257722244279
-0.0253963829202
-0.0251872400104
-0.0251270686797
-0.0251242748746
-0.0251131106696
-0.0250923355105
-0.0250629755929
-0.025089395908
-0.0252239398327
-0.0254531143603
-0.0257530975938
-0.0261674900747
-0.0265327572239
-0.0267426931162
-0.00872935762328
-0.0087320023815
-0.0267669054425
-0.0265689941049
-0.0262190785394
-0.025796812218
-0.0254253996746
-0.0252138919085
-0.0251472533815
-0.025137141104
-0.0251209007198
-0.025098807948
-0.0250723886831
-0.025104525055
-0.0252437493764
-0.0254725032706
-0.0257703976826
-0.0261851320935
-0.0265466081178
-0.0267516031698
-0.00873046976699
-0.00873845562146
-0.0267999174149
-0.0266129628002
-0.0262748886246
-0.0258709571131
-0.0255300527643
-0.0253285329035
-0.0252580658175
-0.0252401218359
-0.0252204686887
-0.0251996335264
-0.0251794091467
-0.0252136582746
-0.0253413930169
-0.0255434965809
-0.0258334242733
-0.0262432291895
-0.0265929346156
-0.0267858979259
-0.00873719604845
-0.0087541994479
-0.0268776484008
-0.0267136857676
-0.0264010188045
-0.0260206187771
-0.0257227690737
-0.0255443914606
-0.0254736646067
-0.0254497681427
-0.0254310319725
-0.0254152314452
-0.0254042046787
-0.0254343328545
-0.0255296780507
-0.025696625371
-0.0259831186328
-0.026375093064
-0.026698020001
-0.0268660656268
-0.00875352763991
-0.00877618532353
-0.0270016256492
-0.0268866865429
-0.0266218253221
-0.0262795334528
-0.0260169513643
-0.0258591788408
-0.0257870656049
-0.0257594844183
-0.0257444266532
-0.0257346592832
-0.0257318864341
-0.0257554811835
-0.0258274896611
-0.0259802125321
-0.0262509115356
-0.0266035470823
-0.0268761757475
-0.0269928222328
-0.00877600302101
-0.00876720373555
-0.0270796916217
-0.027082258292
-0.0269030801583
-0.0266208988726
-0.0263971569237
-0.0262656821377
-0.026202026266
-0.0261750303782
-0.0261629177575
-0.0261562620776
-0.0261564924079
-0.0261756912692
-0.0262364576118
-0.0263713053349
-0.0266021932187
-0.0268921785994
-0.0270763969968
-0.0270735500186
-0.00876742930516
-0.00859552284767
-0.0268060683347
-0.0271061098965
-0.0270820679972
-0.0268860981924
-0.0267113890553
-0.026607196874
-0.0265581305517
-0.0265382612505
-0.0265297696984
-0.0265250753059
-0.0265253055006
-0.0265400382763
-0.0265880420532
-0.0266950679246
-0.0268748516745
-0.0270760479492
-0.0271032361904
-0.0268022107946
-0.00859585343546
-0.00799313161734
-0.0257606011754
-0.0268056500158
-0.0270798347056
-0.0270023119645
-0.0268778794384
-0.0267984070267
-0.0267624380403
-0.0267491928084
-0.0267437768671
-0.0267399437274
-0.0267388073376
-0.0267480927387
-0.0267832329964
-0.0268644348005
-0.0269920945627
-0.0270733785504
-0.0268022530005
-0.0257575868812
-0.00799330340234
-0.00686466293403
-0.00799337994653
-0.00859631822472
-0.00876855836619
-0.00877793551253
-0.00875610397564
-0.00874027344566
-0.00873346532479
-0.00873170163023
-0.00873102968373
-0.00872959377573
-0.00872834562795
-0.00872946242975
-0.00873644469643
-0.0087530664381
-0.0087757695075
-0.00876733018886
-0.00859579655762
-0.00799330235225
-0.00686397815696
-0.00686907417726
-0.00808168070483
-0.00877019691596
-0.00897624200111
-0.00898523683633
-0.00895304296345
-0.00892847034346
-0.0089171000984
-0.00891366596728
-0.0089127096285
-0.0089111945818
-0.00890969833257
-0.00891173449065
-0.00892268509195
-0.00894778221673
-0.00898116122426
-0.00897379208465
-0.00876950427252
-0.00808195101735
-0.00686851374715
-0.0080818718014
-0.0260992724394
-0.0270828286936
-0.0273083287329
-0.0271780350649
-0.0270072721901
-0.0268971584333
-0.0268462362483
-0.0268280778257
-0.0268216670611
-0.0268173770188
-0.0268163180537
-0.0268292196827
-0.0268775300096
-0.0269878866808
-0.0271619714797
-0.0272983693223
-0.027079598217
-0.0260994990927
-0.00808230056495
-0.00877065991359
-0.027083771615
-0.0270779113802
-0.026890102582
-0.026598801131
-0.0263673934956
-0.0262317139229
-0.0261683920652
-0.0261438535908
-0.026135003808
-0.0261297476432
-0.0261292667854
-0.0261455179033
-0.0262034149492
-0.0263370036248
-0.0265708139131
-0.0268692383242
-0.0270664853915
-0.0270789956706
-0.00877073777685
-0.00897712045668
-0.0273106600393
-0.0268926802994
-0.0264940576147
-0.0260931147311
-0.0257940747398
-0.0256050761234
-0.0255163510725
-0.025486595498
-0.0254753855525
-0.0254684285605
-0.0254666099648
-0.0254958879489
-0.0255876644881
-0.0257583809774
-0.0260477667317
-0.0264573678388
-0.0268692353844
-0.027298722077
-0.00897596265405
-0.00898682602884
-0.0271830648263
-0.0266071220406
-0.0261009054229
-0.0256034809172
-0.0252029696196
-0.024950637909
-0.0248514580073
-0.0248279261057
-0.0248142987695
-0.0248027232587
-0.0247941644774
-0.024839767547
-0.0249801884795
-0.0252164891341
-0.0255676466889
-0.026048308032
-0.0265716739568
-0.0271640224879
-0.00898407432863
-0.00895544063705
-0.0270157501032
-0.0263834626359
-0.0258124325253
-0.0252105734045
-0.0247271483721
-0.0244478188984
-0.0243652927444
-0.0243591962789
-0.0243424359944
-0.0243220208522
-0.0242989859373
-0.0243516124938
-0.024531054308
-0.0248236681874
-0.0252362765872
-0.0257590257998
-0.026338331849
-0.0269909927933
-0.00895130013646
-0.00893173881811
-0.0269089224104
-0.0262552972166
-0.0256304590969
-0.0249567763327
-0.0244406052014
-0.0241780007002
-0.0241394621123
-0.024157273177
-0.0241383540191
-0.024106912575
-0.0240639854963
-0.024109949443
-0.0243012304801
-0.0246092750246
-0.0250522333322
-0.0256019795652
-0.0262037826031
-0.0268803616756
-0.00892642688446
-0.00892102830345
-0.0268605987265
-0.026197369435
-0.0255418904615
-0.0248483985622
-0.0243375250045
-0.024114141665
-0.0241159110491
-0.0241549770355
-0.0241355946391
-0.0240936320983
-0.0240299826604
-0.024058944474
-0.0242414148251
-0.0245412611851
-0.0249779376621
-0.0255379660615
-0.0261426130664
-0.0268299467313
-0.00891513500517
-0.0089179925745
-0.0268443189617
-0.0261761493115
-0.0255110325
-0.0248158911901
-0.0243161936111
-0.0241171030725
-0.024145263457
-0.0242008204502
-0.0241845731879
-0.0241373770196
-0.0240597831252
-0.0240732289878
-0.02424310875
-0.024531054991
-0.024958122363
-0.0255156443875
-0.0261200423809
-0.0268125096634
-0.00891199091039
-0.00891739272445
-0.0268394216395
-0.0261684001922
-0.0254978433331
-0.0247946449707
-0.0242911495659
-0.0240976671145
-0.0241378065796
-0.0242032114474
-0.024190365217
-0.0241418463726
-0.0240582367133
-0.0240661831185
-0.0242342961958
-0.024521593712
-0.0249482355898
-0.0255055216644
-0.0261113170298
-0.0268063414723
-0.00891138994621
-0.00891633366921
-0.0268364069632
-0.0261636056592
-0.0254869415994
-0.024772201635
-0.0242580432251
-0.0240605446382
-0.0241023234139
-0.0241689417353
-0.0241542642388
-0.0241035466234
-0.0240182781273
-0.0240300464837
-0.0242077141002
-0.0245044613024
-0.0249375009839
-0.0254977701324
-0.0261052823011
-0.026801538504
-0.0089099879888
-0.00891527048345
-0.0268361748134
-0.0261627378944
-0.0254796425702
-0.0247501230489
-0.0242185417323
-0.0240073055676
-0.0240400829876
-0.0240989448996
-0.0240772639399
-0.0240241917616
-0.0239425965268
-0.0239678722379
-0.0241661688836
-0.0244821460266
-0.0249283939809
-0.0254947176286
-0.0261039919787
-0.0267999866298
-0.0089086619253
-0.00891731517615
-0.0268490222221
-0.0261777893308
-0.0255064269787
-0.0247840141177
-0.0242492760979
-0.0240251610821
-0.0240404118173
-0.0240812648294
-0.0240471917367
-0.0239911368232
-0.0239166781665
-0.0239571703371
-0.0241718178584
-0.0244986236083
-0.0249495446466
-0.0255123540013
-0.0261217964644
-0.0268140160725
-0.0089112945126
-0.00892784887358
-0.0268959525662
-0.0262331452789
-0.0256061757522
-0.0249294685359
-0.0244234100408
-0.0241886054992
-0.0241764891135
-0.0241919943948
-0.024146347687
-0.0240899808455
-0.0240262444072
-0.0240748118324
-0.0242856817333
-0.0245997107286
-0.0250386145847
-0.0255786155227
-0.0261845129942
-0.0268654883348
-0.00892326489251
-0.00895206676152
-0.027003585074
-0.0263628284998
-0.0257873020665
-0.0251967705923
-0.0247460895526
-0.0245078476238
-0.0244589247215
-0.0244480688186
-0.0244000941171
-0.024351337004
-0.0243047495467
-0.0243534797094
-0.0245384151762
-0.0248249031483
-0.0252227367251
-0.0257364380378
-0.0263255303992
-0.0269801302548
-0.00894937366317
-0.00898427544009
-0.0271739536203
-0.0265915550935
-0.026075935192
-0.0255820994916
-0.0252101967469
-0.0249930252396
-0.0249157656658
-0.0248860581774
-0.0248469180127
-0.0248134591488
-0.0247884942572
-0.0248314417802
-0.0249753723276
-0.0252027111975
-0.0255448868083
-0.0260327576908
-0.0265672630402
-0.0271581202738
-0.00898346026452
-0.00897571330011
-0.0273061248759
-0.0268841162176
-0.0264783668488
-0.0260710546719
-0.0257697565147
-0.0255904534231
-0.0255134891416
-0.0254778940709
-0.0254517496742
-0.0254336816761
-0.025426285711
-0.0254567220449
-0.0255518773685
-0.0257263765259
-0.0260285154858
-0.0264528993591
-0.0268715052379
-0.0272969505464
-0.0089762519571
-0.00877029634479
-0.0270833252216
-0.0270752726916
-0.0268827417121
-0.0265870407595
-0.026351297004
-0.0262100537768
-0.0261391589863
-0.0261062845507
-0.0260893863299
-0.0260794352509
-0.0260786977902
-0.0261003230807
-0.0261687173367
-0.0263159047675
-0.0265628258425
-0.026870283641
-0.0270704843931
-0.0270790649457
-0.0087713918743
-0.00808203004935
-0.0261001458753
-0.0270823555618
-0.027305190277
-0.0271724513642
-0.0269990484091
-0.0268852543959
-0.0268293110384
-0.0268053532593
-0.0267937394865
-0.0267863101117
-0.0267849812012
-0.0268012707515
-0.0268561937049
-0.0269745691568
-0.0271556061325
-0.027296267417
-0.027079090073
-0.0260978195134
-0.00808278891578
-0.00686849707491
-0.00808231769171
-0.00877129307192
-0.00897732283966
-0.0089860536674
-0.00895346079758
-0.00892808168408
-0.00891569094227
-0.00891108813898
-0.00890909104741
-0.00890680328787
-0.00890535138154
-0.00890844463008
-0.00892108062048
-0.00894800206413
-0.00898277458239
-0.00897597393156
-0.00877126308096
-0.00808273398684
-0.00686773731684
-0.00686580670441
-0.00807887117514
-0.00877551309447
-0.00897743858792
-0.00897251649904
-0.00892568244856
-0.00889079433005
-0.00887422011563
-0.00886883681947
-0.00886697291167
-0.00886439048458
-0.0088617105862
-0.00886368204934
-0.00887814756117
-0.00891243086771
-0.00896055702183
-0.00896862516961
-0.00877150195793
-0.00807852789666
-0.00686500372744
-0.00807910946701
-0.0260568528328
-0.0269836837201
-0.0271402823395
-0.026936828024
-0.0267033271786
-0.0265505592808
-0.0264767359532
-0.0264486566118
-0.0264373336597
-0.0264283245858
-0.0264231750954
-0.0264375582662
-0.0265006355251
-0.0266469129615
-0.0268814959925
-0.0270968374661
-0.0269601996444
-0.0260503568745
-0.0080789080878
-0.00877645183687
-0.0269864837084
-0.0268399680278
-0.0265315393704
-0.026141349062
-0.0258267649736
-0.0256220854465
-0.025522973997
-0.0254871739169
-0.0254725833228
-0.0254627015229
-0.0254587843978
-0.0254861789986
-0.0255785109524
-0.0257562236387
-0.0260540955969
-0.0264525285353
-0.0267849242442
-0.0269595323448
-0.0087730687899
-0.00898013000557
-0.0271510273001
-0.0265441761616
-0.0259937871594
-0.0254333207937
-0.0249729304136
-0.0246738227133
-0.024555235161
-0.0245263761845
-0.0245113994228
-0.0245006578424
-0.0244952839966
-0.0245507234458
-0.0247099796567
-0.0249671241419
-0.0253540399624
-0.0258756102656
-0.0264524381158
-0.027097727982
-0.00897144980737
-0.00897846571143
-0.0269626631357
-0.026178589778
-0.0254613435854
-0.0247091659151
-0.024112942942