/*--------------------------------*- C++ -*----------------------------------*\
| =========                 |                                                 |
| \\      /  F ield         | OpenFOAM: The Open Source CFD Toolbox           |
|  \\    /   O peration     | Version:  3.0.1                                 |
|   \\  /    A nd           | Web:      www.OpenFOAM.org                      |
|    \\/     M anipulation  |                                                 |
\*---------------------------------------------------------------------------*/
FoamFile
{
    version     2.0;
    format      ascii;
    class       volScalarField;
    location    "1.1";
    object      k;
}
// * * * * * * * * * * * * * * * * * * * * * * * * * * * * * * * * * * * * * //

dimensions      [0 2 -2 0 0 0 0];

internalField   nonuniform List<scalar> 
7968
(
0.00688071415082
0.00712351920488
0.00727028311708
0.00733046683655
0.0073507077985
0.00735604564054
0.00735646690585
0.00735552834962
0.00735440624432
0.00735357086431
0.00735362609684
0.00735429168146
0.00735529565326
0.00735607152605
0.00735552493506
0.00735022284117
0.00733015479213
0.00727013824881
0.00712356954561
0.00688080171128
0.00712346115706
0.00854442103563
0.00935921486749
0.00972463589438
0.00986758651016
0.00991467277305
0.00992544535516
0.00992458145739
0.00992134139378
0.009919162483
0.00991926096385
0.00992140481598
0.00992422938673
0.00992451372636
0.00991329461713
0.00986611924676
0.0097234270664
0.0093585167943
0.00854436538315
0.0071235162562
0.00727021811857
0.00935923755713
0.0106295276501
0.0112431411807
0.0115061916467
0.0116036298346
0.0116318364755
0.0116353723307
0.0116325323026
0.0116301980697
0.0116304634386
0.0116329906312
0.0116353623848
0.0116309388271
0.0116018634695
0.0115040177418
0.0112411788224
0.0106282114876
0.00935877953026
0.00727014273582
0.00733046651982
0.00972493556956
0.0112435068693
0.0120126618601
0.0123606245622
0.0124978705287
0.0125417893136
0.0125525816396
0.0125543501908
0.0125538888094
0.0125541173256
0.0125548281906
0.0125528508666
0.0125418729919
0.0124965671816
0.0123582690809
0.0120100278137
0.0112413787326
0.00972384503514
0.00733021047424
0.00735085574478
0.00986852997785
0.0115074431363
0.0123616333864
0.0127603667981
0.0129236475612
0.0129847405618
0.0130029291352
0.0130060043387
0.0130057342009
0.0130061235242
0.0130069320356
0.0130038584233
0.0129851361589
0.0129238495567
0.0127587470287
0.0123588924057
0.0115047208653
0.00986685800411
0.00735039372985
0.0073564262222
0.00991656074473
0.0116062178021
0.0125004199873
0.0129251822066
0.0131093089933
0.0131787146978
0.0131989937608
0.013202055575
0.013201510047
0.0132020837475
0.0132035085889
0.0132006882404
0.0131799828614
0.0131096688806
0.0129251696289
0.0124983506673
0.0116034119245
0.00991458418587
0.00735581873605
0.00735707678295
0.00992827077813
0.0116357156602
0.0125457127084
0.0129857386277
0.0131792041189
0.0132511730428
0.0132713950822
0.0132735766122
0.0132724183107
0.0132731651195
0.0132755197035
0.013273821073
0.0132533127688
0.0131804485691
0.0129857817277
0.0125449744105
0.011633451699
0.00992640972153
0.00735645625047
0.00735621838114
0.00992796275766
0.0116398631268
0.0125548653554
0.0130040751359
0.0131997969099
0.013271755429
0.0132908920017
0.013291820418
0.0132899364047
0.0132908459351
0.0132941850285
0.0132939333993
0.0132746585262
0.0132018533193
0.0130049402657
0.0125556887303
0.0116386077048
0.00992660778797
0.00735575534294
0.00735502314402
0.00992467672411
0.0116367550461
0.0125555111966
0.013006957214
0.0132027480005
0.0132738985025
0.0132918646951
0.0132917300461
0.0132893021176
0.013290370966
0.0132944405646
0.0132953577585
0.0132773899027
0.013205459221
0.0130084714018
0.0125559833246
0.0116367271515
0.00992413186564
0.00735476953339
0.00735396722524
0.00992187516642
0.0116333576261
0.012554441009
0.0130060652297
0.013201549928
0.0132721513459
0.0132895277189
0.0132889379517
0.0132863277268
0.0132874825848
0.0132918699993
0.0132933545159
0.0132761199894
0.0132048366544
0.0130081928288
0.0125554953633
0.0116347564611
0.00992240731426
0.00735417497422
0.00735371139449
0.00992104278856
0.011632269814
0.0125539090636
0.0130055577884
0.013201117865
0.0132719141211
0.0132896042785
0.0132893551016
0.0132869258592
0.013288047269
0.0132923774135
0.0132937903652
0.0132764520335
0.013205076794
0.0130083653918
0.012555641093
0.0116351520695
0.00992266749336
0.00735430512514
0.00735425711172
0.00992238439535
0.0116336882855
0.0125539678186
0.0130055431005
0.0132015583571
0.0132732626296
0.0132920797702
0.0132927728381
0.0132907874913
0.0132918843235
0.0132958694896
0.0132966087594
0.0132783460019
0.0132061245301
0.0130089225023
0.0125567530542
0.0116376538841
0.00992471004462
0.00735488933403
0.00735523247031
0.00992467910067
0.0116353094352
0.0125515654336
0.0130019498595
0.0131980826287
0.0132708635871
0.0132912129612
0.0132932438744
0.0132919576375
0.0132930364897
0.0132963555709
0.0132958532762
0.0132760989995
0.0132027668043
0.0130054678807
0.0125572207188
0.0116394784242
0.00992707695486
0.00735576791646
0.00735599832537
0.0099246386199
0.0116304663141
0.0125398908377
0.0129830406295
0.0131772303137
0.0132501848867
0.013271789211
0.0132752084534
0.0132747477404
0.0132757680254
0.0132781679817
0.0132761701936
0.0132550118583
0.0131814088778
0.0129864326734
0.0125460338259
0.0116337979664
0.00992648502303
0.00735635981823
0.00735543968554
0.00991321149802
0.0116012704791
0.0124946609427
0.0129201574784
0.01310716199
0.0131777260654
0.0131993616741
0.0132036370975
0.0132038183257
0.0132047208323
0.0132062302622
0.0132030892972
0.0131816687718
0.0131105672601
0.0129271844222
0.0124988451024
0.011603094226
0.0099141228133
0.00735554398463
0.00735007833158
0.00986589984692
0.011503466472
0.0123568673801
0.0127559305236
0.0129210413628
0.0129836911252
0.0130031259164
0.0130072574809
0.0130076729694
0.0130084041877
0.0130093363808
0.0130060616533
0.0129873377234
0.012927761331
0.012760328834
0.0123587512637
0.0115037300907
0.00986584251309
0.00734996983577
0.00732995046696
0.00972313698325
0.0112407208622
0.0120092094304
0.0123573429334
0.0124959045863
0.0125420118777
0.0125530303158
0.0125551688978
0.0125553323171
0.0125559129032
0.0125575313037
0.012558506247
0.0125473514992
0.01249978967
0.0123591692789
0.0120092717939
0.0112398263739
0.00972240317099
0.0073297123444
0.00726993756473
0.00935818071156
0.0106278256103
0.0112409299485
0.0115040348298
0.0116023397107
0.0116320627718
0.0116373163552
0.0116360381494
0.0116348415495
0.0116358317854
0.0116387509476
0.0116408101824
0.011635074322
0.0116040702779
0.0115042963535
0.0112400452988
0.0106264173336
0.00935717615778
0.00726964909677
0.00712342556118
0.00854408321626
0.00935848525586
0.00972357873409
0.00986655067753
0.00991414148573
0.00992580718883
0.00992602157586
0.00992385302152
0.00992259156054
0.00992324027555
0.00992556889973
0.00992806660667
0.00992742654844
0.00991486775559
0.00986633228328
0.00972265082833
0.00935725075382
0.00854324589692
0.00712323956567
0.00688078911608
0.0071234523706
0.00727007060604
0.00733014623457
0.00735033164086
0.00735573105726
0.00735633238786
0.00735559182638
0.00735462665132
0.00735419222543
0.00735444643852
0.00735513188078
0.00735604056442
0.00735661032853
0.00735574346377
0.00735011629481
0.00732979778096
0.00726968283147
0.00712324264787
0.00688089875926
0.00712157054208
0.00853253659824
0.009343208028
0.00970838370664
0.00985320194018
0.00990316230916
0.00991704513003
0.00991882887103
0.00991739312823
0.00991600098291
0.00991614029712
0.00991748172591
0.00991856096065
0.00991645097609
0.00990239720845
0.0098523975927
0.00970771925074
0.00934278966269
0.00853244197022
0.00712159302485
0.00853269220408
0.0154534168853
0.0181840245509
0.0194471981363
0.0200000461278
0.0202166490395
0.0202887726871
0.0203066595107
0.0203079546728
0.0203066860939
0.020307091928
0.0203088531903
0.0203073831434
0.0202888064159
0.0202158460777
0.0199986884357
0.0194457536478
0.0181829488285
0.0154529178797
0.00853286739784
0.00934333036133
0.0181836728296
0.0217736560994
0.0235296359176
0.0243538465927
0.0247054738136
0.0248363906367
0.0248760626277
0.0248838266645
0.0248842777548
0.0248849244989
0.02488552734
0.0248777787384
0.0248372299203
0.0247050604663
0.024352421396
0.0235278100198
0.0217720902727
0.0181827009782
0.00934340294246
0.0097085135412
0.0194469703844
0.0235297835708
0.0256031368705
0.0266195527876
0.027075491624
0.0272556529607
0.0273153985843
0.0273291174328
0.0273308017014
0.0273320911342
0.0273323920075
0.0273192785682
0.0272587007621
0.0270768243712
0.0266191620663
0.0256016155663
0.023528042992
0.0194456969624
0.00970835794609
0.00985351670447
0.0200004469364
0.0243547062203
0.0266202596122
0.027761149979
0.0282885023017
0.0285029201043
0.0285748917429
0.0285919819763
0.0285942567336
0.0285962790087
0.0285973298749
0.0285818060942
0.0285093186217
0.0282924285219
0.0277628264546
0.0266198138017
0.0243532667567
0.0199991723461
0.00985311481587
0.00990385917096
0.0202180921095
0.0247074851543
0.0270772924991
0.0282892157452
0.0288574845843
0.0290905639247
0.0291681944259
0.0291853393879
0.0291868326033
0.0291895552386
0.0291927795017
0.0291783627686
0.0291008386278
0.028865504098
0.0282937162973
0.0270786355374
0.0247069363381
0.020217247484
0.00990330295255
0.00991816917005
0.0202912346437
0.0248394897575
0.0272584817307
0.0285050679708
0.0290916357963
0.0293315730888
0.029408888571
0.0294231247658
0.0294225104258
0.0294257197374
0.0294321054781
0.0294216863233
0.0293452910528
0.0291033082764
0.0285127843492
0.0272620400012
0.0248403578629
0.0202912982727
0.00991762418888
0.00992036144022
0.0203095842719
0.0248795177773
0.0273183700974
0.0285773210313
0.0291696070803
0.0294093085671
0.0294828846773
0.0294928101636
0.0294895357332
0.0294929848685
0.0295026373906
0.0294973727119
0.0294255552465
0.0291842348485
0.0285878300403
0.0273236957107
0.0248820497561
0.0203108649888
0.00991998438143
0.00991905955602
0.0203105567169
0.0248867419457
0.0273315737812
0.0285935370057
0.0291858280676
0.0294227876527
0.0294922864448
0.029498507844
0.029493084327
0.0294966137463
0.0295086932572
0.0295077020104
0.0294407016527
0.0292026272124
0.0286063851838
0.0273395709605
0.0248910731709
0.0203131797622
0.00991914622599
0.00991746174772
0.0203082307432
0.0248854722845
0.027331385893
0.028593569313
0.0291849410811
0.0294200040798
0.0294873105243
0.0294917456377
0.0294853294426
0.0294889677637
0.0295023409623
0.0295036622582
0.0294394848522
0.0292037507693
0.028608606356
0.0273415774863
0.0248916672455
0.0203122967774
0.00991828982958
0.00991700048788
0.0203073387191
0.0248843655392
0.0273302573095
0.0285926172475
0.0291843792075
0.0294200700016
0.0294881780597
0.0294933321487
0.0294873841983
0.0294913671619
0.0295050209636
0.0295064331794
0.0294420449097
0.0292058979129
0.0286102330327
0.0273426893671
0.0248924538588
0.0203128375947
0.00991852436673
0.00991777776181
0.0203080452884
0.0248836085592
0.0273284453852
0.0285908882728
0.0291843366769
0.0294231727652
0.0294950338863
0.0295033273167
0.0294992226935
0.0295037341592
0.029516602698
0.0295157985677
0.0294480939387
0.0292086895874
0.0286108143839
0.0273423980392
0.0248930686478
0.0203145854315
0.00991958610942
0.00991860956781
0.0203059653532
0.02487499066
0.0273140230583
0.0285735417953
0.0291676273404
0.0294103170628
0.0294876171012
0.0295007843868
0.02949956963
0.0295045202565
0.0295152976597
0.0295100792152
0.0294368445021
0.0291931049131
0.02859396535
0.027327536451
0.0248845389652
0.0203126152013
0.00992030653536
0.00991639166324
0.0202872104129
0.0248342435309
0.0272531771261
0.0285007415632
0.0290895229671
0.0293331753773
0.0294150970545
0.0294333873067
0.0294354124983
0.0294404571853
0.0294480576112
0.0294373550147
0.0293587553925
0.02911332874
0.0285191250975
0.0272657306118
0.0248425949005
0.0202929771797
0.00991769237211
0.00990228255768
0.0202144372832
0.0247024838885
0.0270721144473
0.0282856797002
0.0288556374159
0.0290924798564
0.0291748707704
0.029196300279
0.0292006853171
0.0292053426878
0.0292096679985
0.0291946154443
0.0291143363165
0.0288750524614
0.0282993040388
0.027081539738
0.0247085755923
0.0202186704709
0.0099031479201
0.0098523000278
0.0199977200759
0.0243506294595
0.026615735916
0.0277574309583
0.0282867869299
0.0285047228353
0.0285809076327
0.0286019509827
0.0286069865717
0.0286108002538
0.0286126757303
0.0285962440192
0.0285208032074
0.0283001991404
0.027767104156
0.0266217784055
0.0243543120719
0.020000320154
0.00985279828675
0.00970767571864
0.0194453256603
0.02352691215
0.0255996657667
0.026616475962
0.0270740609768
0.0272569309011
0.0273198699428
0.027337046636
0.0273410581358
0.0273437665884
0.0273443421416
0.0273298560739
0.0272677217344
0.0270828123497
0.0266222836403
0.0256029216408
0.0235287561774
0.0194467070938
0.00970792958018
0.0093428253147
0.0181830159682
0.0217719344824
0.0235272769912
0.0243516265541
0.0247044312921
0.024837397635
0.024879485311
0.0248895529686
0.0248914861124
0.0248933280057
0.0248945664597
0.0248863023576
0.0248441987794
0.0247097116226
0.0243549082086
0.0235289531871
0.0217728414425
0.0181837587892
0.00934298396639
0.00853252411189
0.0154533594068
0.0181830219033
0.0194456211475
0.0199984979212
0.0202159276451
0.020289514248
0.0203091129156
0.0203119941845
0.0203119184245
0.0203131382559
0.020315343994
0.0203136322212
0.0202939851912
0.0202194498119
0.0200007774943
0.0194468961754
0.0181837969686
0.015454002578
0.00853261268025
0.00712156276434
0.0085328272419
0.00934335779598
0.00970829779644
0.00985300304727
0.00990308824021
0.00991729609871
0.0099196221093
0.0099189024003
0.00991831994465
0.00991879284434
0.00991999333492
0.00992077217699
0.00991813032812
0.00990349323541
0.0098530069043
0.00970802887059
0.00934301359947
0.00853260293839
0.00712178766992
0.00726684670482
0.00933861079227
0.0106015047556
0.0112143375623
0.0114803737624
0.0115826310104
0.0116159914644
0.0116239000946
0.011623965688
0.0116228856889
0.0116231017486
0.0116243076507
0.011624016504
0.0116157170099
0.0115819825398
0.0114795327229
0.0112134979091
0.0106008162518
0.00933824535576
0.00726679305043
0.00933888874906
0.0181667311553
0.021751564297
0.0235049099907
0.0243280356667
0.0246794592989
0.024810557303
0.0248505027514
0.0248587215179
0.0248594303377
0.0248605262742
0.0248614799491
0.024853776869
0.0248132001271
0.0246807926977
0.0243279960478
0.0235038371932
0.0217500370382
0.0181652630788
0.00933895719043
0.0106017371264
0.0217509993423
0.0263199667515
0.028649201668
0.0298086429635
0.0303413151064
0.0305593847042
0.0306354434348
0.0306562624505
0.0306608677171
0.0306627159994
0.0306612058102
0.0306419859002
0.0305657889731
0.0303462852536
0.0298115355049
0.0286500190128
0.0263192572793
0.0217495766065
0.0106018254901
0.0112145180912
0.0235042370136
0.0286489398773
0.0313503733626
0.0327462522253
0.0334163126517
0.0337046189092
0.0338108404329
0.0338417524355
0.0338489580331
0.0338519298556
0.0338499060317
0.0338222410861
0.0337166052352
0.0334269997076
0.0327539995976
0.031354598461
0.0286500730613
0.0235034819482
0.0112145645243
0.0114806962901
0.0243277231943
0.0298083246127
0.0327458098479
0.0342996867346
0.0350644617479
0.035399919313
0.035524231366
0.0355592929641
0.0355666410575
0.035570757018
0.0355707754873
0.0355408843137
0.0354186900879
0.035081829175
0.0343132246426
0.0327542610501
0.0298119686742
0.0243281765484
0.0114806999407
0.0115833480893
0.0246798962464
0.030341083434
0.033415161711
0.035063251047
0.0358823336854
0.0362421986935
0.036371234089
0.0364024600054
0.036406085862
0.036410974802
0.0364162623649
0.036391656125
0.0362661139668
0.0359059735899
0.0350822529243
0.0334279543178
0.0303475700598
0.0246820307651
0.0115834102501
0.0116171900135
0.024811711626
0.0305591205419
0.0337023848247
0.0353972730646
0.0362402769201
0.0366048732434
0.0367264039836
0.0367467876965
0.0367433774187
0.0367486727864
0.0367619376957
0.0367492033141
0.0366320889492
0.0362681765999
0.0354213854798
0.0337191127205
0.0305684508271
0.0248158701375
0.011617509615
0.0116254274369
0.0248517362909
0.0306346376451
0.0338075580573
0.0355196375151
0.0363669217132
0.0367239140608
0.0368311418876
0.03683742552
0.0368256393131
0.0368310207073
0.0368530690168
0.0368551597469
0.0367531150297
0.0363974816849
0.0355470161226
0.0338273184706
0.0306465092156
0.0248579874945
0.0116261640045
0.0116254991809
0.0248590860205
0.030654060077
0.0338366300222
0.0355522585906
0.0363955397001
0.0367416790722
0.0368348751251
0.0368287728008
0.0368099001742
0.0368152142233
0.0368444682735
0.0368594692878
0.0367721397737
0.0364280036418
0.0355821479312
0.0338591583492
0.030668247108
0.0248673268021
0.0116268141847
0.011624006656
0.0248581619085
0.03065636282
0.033841240796
0.0355565784783
0.0363960926762
0.0367352967631
0.0368203819938
0.0368075068338
0.0367849345855
0.0367904498619
0.0368239506535
0.0368464207045
0.0367678077923
0.0364310375303
0.0355892441885
0.0338664325888
0.0306728322457
0.0248683512372
0.0116261509604
0.011623463448
0.0248574996847
0.0306559924419
0.0338413791178
0.0355573262788
0.0363975025045
0.0367372455341
0.0368229010925
0.03681071703
0.0367889152741
0.0367953001792
0.0368297256301
0.036852815196
0.0367741828177
0.0364367643484
0.0355938706465
0.0338696842844
0.0306749332657
0.0248696953293
0.0116265297626
0.0116240806119
0.024857156598
0.0306529460511
0.0338370078683
0.0355544112615
0.0363996890501
0.0367475141512
0.0368425149853
0.0368385733421
0.0368220405746
0.0368298780391
0.0368616654659
0.0368781545702
0.0367903957828
0.036444070819
0.0355948782134
0.0338678897829
0.0306738165838
0.0248709072158
0.0116276972767
0.0116235282884
0.0248488904004
0.0306329534799
0.0338081582397
0.0355227619251
0.0363730552422
0.0367328291293
0.0368432646231
0.0368534254815
0.0368456823763
0.0368550864814
0.0368807585487
0.0368844320075
0.0367808071613
0.0364209741412
0.0355648729334
0.0338387261928
0.0306537502532
0.0248627238289
0.0116271202603
0.0116152104264
0.0248085350369
0.030557114242
0.0337030378733
0.035400699748
0.0362470745533
0.0366152962504
0.0367413496182
0.0367672339191
0.036769367601
0.0367797223014
0.0367969555395
0.0367851711212
0.0366649156434
0.036294772702
0.0354403624701
0.0337307728929
0.0305755173426
0.0248207652912
0.0116183354571
0.0115815995864
0.0246770301909
0.0303390001312
0.0334152797913
0.0350663845707
0.0358888315691
0.0362529100426
0.0363872967532
0.0364248510542
0.0364345883707
0.0364446003762
0.0364532720604
0.0364284972031
0.0362984322552
0.0359306708377
0.0350983912795
0.0334373315944
0.0303532631426
0.0246865555934
0.0115840437876
0.0114793690454
0.0243256087649
0.0298063844129
0.0327452399788
0.0343013773556
0.0350694640144
0.0354095127045
0.0355395016608
0.0355806355928
0.0355934598625
0.0356017525021
0.0356038926186
0.0355726317015
0.035445319919
0.0351005216049
0.0343247600679
0.0327606344239
0.0298161310776
0.0243322630604
0.011481145924
0.0112135881413
0.0235029528002
0.0286472467894
0.0313491732499
0.0327464244145
0.0334189979357
0.0337109777239
0.0338224849784
0.0338585875274
0.0338701038371
0.0338761051864
0.033875164506
0.033845309219
0.0337355566396
0.0334399598851
0.0327615358663
0.0313588021902
0.0286533846122
0.0235073747769
0.011214920531
0.010601125983
0.0217504361964
0.0263185846668
0.0286476474281
0.0298077555101
0.0303422425224
0.0305632799218
0.0306430817914
0.0306675458382
0.0306749222517
0.0306788396222
0.0306783626093
0.030658000731
0.0305787704078
0.0303552205772
0.0298169806794
0.0286535938061
0.0263226182427
0.0217535176953
0.0106021791681
0.00933858409044
0.0181664618441
0.0217503046541
0.0235031554981
0.0243265475863
0.0246792818215
0.0248126136199
0.0248552197183
0.0248659180454
0.0248685489561
0.0248709825074
0.0248727058393
0.0248646074404
0.0248223282738
0.0246875513081
0.0243327030688
0.023507466419
0.0217534883284
0.0181688888105
0.00933924100517
0.00726671960145
0.0093390911355
0.0106019515462
0.0112145644972
0.0114805002873
0.0115829804593
0.0116168944785
0.0116255581123
0.0116264780751
0.0116262549206
0.011626959036
0.0116282700473
0.0116277268674
0.0116188587028
0.011584395291
0.0114813318884
0.0112149927043
0.010602200991
0.00933924427217
0.00726694218497
0.00732693234732
0.00970079347366
0.0112102060362
0.0119790372649
0.012331748972
0.0124758191676
0.0125262259389
0.0125396802389
0.0125410262657
0.0125402084604
0.0125407289293
0.0125422163011
0.0125408981488
0.012527011923
0.0124760002187
0.0123313784714
0.0119782276706
0.0112091634243
0.00970002031537
0.00732688332368
0.00970116176894
0.0194203165597
0.0234952212094
0.0255654680899
0.0265813371364
0.0270374544603
0.0272174943367
0.0272762001662
0.0272899912121
0.0272924275463
0.0272952825411
0.0272975240179
0.0272862068992
0.0272275399376
0.0270455988018
0.0265864192233
0.0255670730974
0.0234938254586
0.0194172864708
0.00970092676388
0.0112105400484
0.0234944362825
0.0286389263001
0.0313436993353
0.032744500286
0.0334191636496
0.0337105978604
0.0338185544003
0.0338508391036
0.0338594645053
0.0338643843837
0.0338644787357
0.033838422682
0.033733226917
0.0334409978648
0.0327623511608
0.0313551776218
0.0286432632636
0.0234932092554
0.0112104893934
0.0119792407586
0.0255640353191
0.0313421825461
0.0344579926989
0.0361277703865
0.0369652196254
0.0373434991458
0.0374892468302
0.0375335588136
0.0375451462138
0.037552160261
0.0375535049208
0.0375194723546
0.0373802662463
0.0370035493242
0.03616161266
0.0344823659753
0.0313547819716
0.0255663396948
0.0119796355378
0.0123319638872
0.0265792237422
0.0327400947027
0.0361232887145
0.0379748084766
0.0389228147879
0.039354949086
0.0395175455648
0.0395609225568
0.0395689825926
0.0395776941239
0.039585943418
0.0395560930331
0.0394032221422
0.0389754768664
0.0380239955157
0.0361608493257
0.0327615736833
0.0265859682846
0.0123329053132
0.0124763027148
0.0270346928772
0.0334108612497
0.0369538488427
0.038914046092
0.0399207519106
0.0403708732385
0.0405253085971
0.0405517251012
0.0405483461546
0.040558466796
0.0405810237276
0.0405708055357
0.0404281299899
0.0399838459023
0.0389747432124
0.0370023282428
0.0334403642764
0.0270461215083
0.0124778649778
0.0125270977092
0.0272139668829
0.0336981484276
0.0373242415956
0.0393355922059
0.0403590430532
0.0407963568339
0.0409208000058
0.0409162809911
0.0408945692003
0.0409054737365
0.0409481687468
0.0409707544388
0.0408593038581
0.0404283907967
0.0394030938228
0.0373798841537
0.0337339070199
0.0272297780935
0.0125294037836
0.0125407172579
0.0272713365196
0.0338023211001
0.0374635567614
0.039489313923
0.040502970252
0.0409094379231
0.0409927028951
0.0409513159784
0.0409085600191
0.0409194093043
0.0409835200283
0.0410440184696
0.0409744797629
0.0405747027397
0.0395596899588
0.0375232301649
0.0338422992211
0.0272908131867
0.0125438466638
0.0125417237158
0.0272829251688
0.0338311041
0.0375031780539
0.0395269474189
0.0405222852117
0.0408966547056
0.0409425791658
0.0408696594399
0.0408092281708
0.0408196230042
0.0409010592107
0.0409937277052
0.0409621523807
0.040594700317
0.0395984487659
0.0375650856904
0.0338738772582
0.0273053522079
0.0125457582263
0.0125400925251
0.0272825953402
0.0338365390115
0.0375114867681
0.0395315430647
0.0405144475295
0.040869388113
0.0408939425749
0.0408036965259
0.0407339320024
0.0407446881862
0.0408364267406
0.0409476390281
0.0409379488137
0.040589513411
0.0396051814862
0.037575743641
0.03388193629
0.0273077921082
0.0125452310729
0.0125395664506
0.027282807543
0.0338387415484
0.0375160115737
0.039537959749
0.0405215962157
0.0408765003479
0.0409010876104
0.0408114958106
0.0407430934365
0.0407559003228
0.0408500577841
0.0409632021884
0.0409538412196
0.0406037856927
0.0396165282831
0.0375839539079
0.0338873333201
0.0273110839545
0.0125460555612
0.0125403128398
0.0272833003723
0.0338371116986
0.0375158815832
0.0395451297604
0.0405426754321
0.0409172502444
0.0409638219633
0.0408934672385
0.0408375052975
0.0408539772532
0.0409420361882
0.0410394398142
0.0410077620914
0.0406347247283
0.0396295442521
0.0375871234852
0.0338881392633
0.0273140052769
0.0125478235206
0.0125387744598
0.0272716160625
0.0338108402082
0.0374816662543
0.0395154301549
0.0405325858288
0.0409401339275
0.0410258575544
0.0409902679183
0.0409558608229
0.0409765110805
0.041049950168
0.0411156152105
0.0410433278145
0.0406328938479
0.0396030867903
0.0375526177784
0.0338605363705
0.0273018423582
0.012546312386
0.0125250756395
0.0272140707545
0.0337074577484
0.0373438990737
0.0393636561118
0.0403912107734
0.0408307693991
0.0409601832822
0.0409652051689
0.0409556869031
0.0409791542623
0.0410320873522
0.0410582501515
0.0409401936871
0.0404936898549
0.0394492138837
0.0374091431119
0.0337507096233
0.0272402632753
0.0125316261075
0.0124745194273
0.0270346119865
0.0334190430045
0.0369711477265
0.0389387924654
0.0399496496724
0.0404030826505
0.0405646290064
0.0406031900769
0.0406141775799
0.040637555632
0.0406691959203
0.0406597879736
0.0405070238896
0.0400441297228
0.0390140553576
0.0370246324139
0.0334521139515
0.027054495688
0.012479569285
0.0123305443208
0.0265788857371
0.0327457567121
0.036135964551
0.0379934033202
0.0389457511764
0.0393821691605
0.0395528448028
0.0396087211134
0.0396304764211
0.0396505389706
0.0396649480926
0.0396327615642
0.0394678091096
0.0390211699556
0.0380507311353
0.0361734846566
0.0327678143338
0.0265922740814
0.012334149603
0.0119781014993
0.0255633233488
0.0313447196193
0.0344647993015
0.0361387697208
0.0369807656939
0.037364576382
0.0375186787607
0.0375735587681
0.0375955949271
0.0376102188824
0.0376142070574
0.0375754259144
0.0374243006526
0.0370322967002
0.0361760329622
0.0344877110044
0.0313579005192
0.0255717190653
0.0119806845307
0.01120961477
0.023493432013
0.0286387432367
0.0313452899977
0.0327484289762
0.0334265977369
0.0337234261562
0.0338386497813
0.0338786914133
0.0338940578604
0.0339033790153
0.0339044744264
0.033874436488
0.0337606101502
0.0334577503104
0.0327701518337
0.0313584434016
0.028646620953
0.0234988695645
0.0112115170056
0.00970058432786
0.0194190464029
0.0234932124249
0.0255635196148
0.0265804346708
0.0270390941274
0.0272232722755
0.0272871193685
0.0273059951724
0.0273125677555
0.0273180515574
0.02732130049
0.0273082254793
0.0272449070313
0.0270571328235
0.0265932998975
0.0255718703636
0.0234987760859
0.0194229815516
0.00970169670279
0.00732674317084
0.00970121794599
0.011210671332
0.0119793709808
0.0123321127155
0.0124766849706
0.0125281280233
0.0125429555441
0.0125457129733
0.0125461432561
0.0125474787695
0.0125493221675
0.0125476400688
0.012532602761
0.0124801246493
0.0123343762451
0.011980741526
0.011211531494
0.00970170048794
0.00732703700235
0.00734830546422
0.00984654060146
0.0114778962268
0.0123351608865
0.0127427519391
0.0129157295147
0.012978439131
0.0129955498606
0.0129972444868
0.0129964949195
0.0129980159636
0.0130011210829
0.0130005063786
0.0129834008892
0.0129199725311
0.0127457592538
0.0123364346708
0.011477418584
0.00984546865467
0.00734834965316
0.00984691084417
0.0199785943888
0.0243314218945
0.0266043060488
0.0277560491127
0.0282921981918
0.0285115556398
0.0285849547836
0.0286023099059
0.0286065205375
0.0286138797179
0.0286223982995
0.0286136048094
0.0285440079041
0.0283238564714
0.0277825536412
0.0266216256369
0.024337592206
0.0199759388886
0.00984650294493
0.0114782813909
0.0243300461097
0.0298288855653
0.0327961735384
0.0343838627124
0.0351786426399
0.0355367768142
0.0356744259696
0.0357163004041
0.035729129427
0.0357407930874
0.0357496325895
0.0357259251221
0.035601782454
0.0352499441692
0.034451230144
0.032848592275
0.0298583608706
0.0243366373615
0.0114790194985
0.0123350828848
0.0265997049558
0.0327893732642
0.0362107407476
0.0381031990256
0.0390878465602
0.0395477551351
0.0397266828457
0.0397778758553
0.0397911261102
0.0398063546056
0.0398222227753
0.0397973352684
0.0396411851744
0.0391967681491
0.0382130591235
0.0363022252946
0.0328468624555
0.0266197228385
0.0123380289602
0.0127419069484
0.027745555313
0.0343628859525
0.0380837711008
0.0401795460198
0.0412831105916
0.0417915134694
0.0419720470562
0.0420058818956
0.0420062368834
0.0420250678272
0.0420611514388
0.0420607644448
0.0419096179939
0.0414228528274
0.0403246638253
0.0382094974831
0.0344468655713
0.0277796771151
0.0127472532238
0.0129141429319
0.0282742822145
0.0351388629087
0.0390391945968
0.0412480911793
0.0423971216569
0.0428938228425
0.0430286347144
0.0430129242266
0.0429846025567
0.0430073771961
0.043080069187
0.0431361488268
0.0430346570722
0.042561029507
0.0414181090744
0.039189523461
0.03524329173
0.0283208255317
0.0129216272163
0.0129762758835
0.0284863644235
0.0354784072343
0.0394688151906
0.0417180505436
0.0428512091042
0.043284169687
0.0433320159396
0.043238567448
0.0431674102597
0.0431931739344
0.0433150316478
0.0434547077233
0.0434421313407
0.0430300383138
0.041900592249
0.0396318429049
0.0355949929145
0.0285422781112
0.0129855419482
0.0129926964219
0.0285534859765
0.0356020070708
0.0396260904394
0.0418699247957
0.0429512020167
0.0432933301822
0.0432360951868
0.043053939801
0.0429345067531
0.0429607916682
0.04313306322
0.0433649830146
0.0434588576605
0.0431345204529
0.0420540568053
0.0397913743409
0.0357235213112
0.0286151850877
0.0130033098363
0.0129932262782
0.028565612415
0.0356362877327
0.0396674499924
0.0418897195709
0.0429151106105
0.0431739765107
0.0430260857706
0.0427700220251
0.0426106520219
0.0426358419511
0.0428472951246
0.0431549541354
0.0433404863414
0.0430971027758
0.0420701025199
0.0398297973856
0.0357581620176
0.028630406624
0.0130049671121
0.0129909552294
0.0285656418976
0.035646459616
0.0396796673954
0.0418874026233
0.0428788262299
0.0430892646148
0.0428907373768
0.0425948790169
0.0424146086158
0.0424404357551
0.0426746918417
0.0430247908564
0.043261234804
0.0430627098604
0.0420655521932
0.0398388221079
0.0357676734296
0.0286329215571
0.0130040903833
0.0129909885618
0.0285699566459
0.0356581228809
0.0396983026178
0.0419099429511
0.0429015036832
0.043110003765
0.0429100426208
0.0426143753973
0.0424364911409
0.0424667559541
0.0427066018406
0.043061569167
0.0432989210461
0.043096020278
0.0420912295367
0.0398567982304
0.0357797113662
0.028640615455