/*--------------------------------*- C++ -*----------------------------------*\
| =========                 |                                                 |
| \\      /  F ield         | OpenFOAM: The Open Source CFD Toolbox           |
|  \\    /   O peration     | Version:  3.0.1                                 |
|   \\  /    A nd           | Web:      www.OpenFOAM.org                      |
|    \\/     M anipulation  |                                                 |
\*---------------------------------------------------------------------------*/
FoamFile
{
    version     2.0;
    format      ascii;
    class       volScalarField;
    location    "3.3";
    object      p;
}
// * * * * * * * * * * * * * * * * * * * * * * * * * * * * * * * * * * * * * //

dimensions      [1 -1 -2 0 0 0 0];

internalField   nonuniform List<scalar> 
7968
(
4699.79914846
4699.80996719
4699.81934835
4699.83406084
4699.85567019
4699.88883285
4699.93789727
4700.00523009
4700.09146087
4700.19606792
4700.31636707
4700.44827329
4700.58697752
4700.72657827
4700.8607689
4700.98315598
4701.08719974
4701.16735764
4701.22111667
4701.24331096
4699.79457301
4699.81447
4699.82818439
4699.84597324
4699.86862724
4699.90164678
4699.94988606
4700.0164613
4700.10244718
4700.20691397
4700.32746093
4700.46001108
4700.59962939
4700.74040285
4700.87566812
4700.9983642
4701.1015171
4701.17895565
4701.22870582
4701.24314886
4699.775049
4699.79939858
4699.81469833
4699.83313419
4699.85493804
4699.88630093
4699.93274136
4699.99796397
4700.08330252
4700.18793176
4700.30945677
4700.44374706
4700.58573458
4700.72927319
4700.86733569
4700.99229927
4701.09660455
4701.17359955
4701.22189337
4701.23260927
4699.74847431
4699.77597377
4699.79187429
4699.80976122
4699.82969192
4699.85859059
4699.90274885
4699.9663421
4700.05095416
4700.15580044
4700.27849298
4700.41481523
4700.55968862
4700.70658855
4700.84827179
4700.97653685
4701.0831461
4701.16092012
4701.2087579
4701.2169444
4699.71898241
4699.74750563
4699.76239369
4699.77828617
4699.7953792
4699.82124277
4699.86287297
4699.92473282
4700.00854814
4700.11356508
4700.23737601
4700.37570701
4700.52333018
4700.67379305
4700.81944735
4700.95161591
4701.06150069
4701.14147705
4701.19037779
4701.19787152
4699.69420632
4699.72247471
4699.73534536
4699.74838478
4699.76215842
4699.78481436
4699.82366581
4699.88361726
4699.96649031
4700.0714665
4700.1960297
4700.33589019
4700.48583923
4700.63936752
4700.78858767
4700.92460595
4701.03807562
4701.12099154
4701.17187244
4701.17984393
4699.68188292
4699.70905057
4699.71947501
4699.72946556
4699.73990606
4699.75933754
4699.79546831
4699.85349888
4699.93521418
4700.03966439
4700.16436437
4700.30498754
4700.45632525
4700.61195485
4700.76390835
4700.9029827
4701.01963214
4701.10542563
4701.1585295
4701.16764099
4699.68792644
4699.71389272
4699.72201896
4699.72925756
4699.73661477
4699.75308427
4699.78671371
4699.84266544
4699.92270565
4700.0259159
4700.14997791
4700.29050979
4700.44222629
4700.59872418
4700.75214604
4700.8931461
4701.01196266
4701.09987682
4701.1548092
4701.16508533
4699.71616949
4699.74150947
4699.74776953
4699.75263367
4699.75746406
4699.7713249
4699.8025391
4699.85607897
4699.9339315
4700.03520738
4700.15780794
4700.29728547
4700.44829189
4700.60438542
4700.75785373
4700.89934112
4701.01887666
4701.10795378
4701.16400257
4701.17529557
4699.7693811
4699.79391852
4699.79889139
4699.80205714
4699.80485036
4699.81648349
4699.84524796
4699.89608394
4699.97125439
4700.06999471
4700.19022543
4700.32757089
4700.4766937
4700.63113742
4700.7832332
4700.92374179
4701.04266563
4701.13157779
4701.18776119
4701.19951387
4699.8467288
4699.87076597
4699.87518953
4699.87735738
4699.87877467
4699.88855
4699.91494303
4699.96298787
4700.03512571
4700.13071184
4700.24770777
4700.38183805
4700.52784659
4700.67934824
4700.82870595
4700.96679252
4701.08377827
4701.17111243
4701.2263502
4701.23801851
4699.94547251
4699.96932787
4699.97388318
4699.9758609
4699.9766198
4699.98501518
4700.0092772
4700.05457634
4700.1234373
4700.21534388
4700.32833327
4700.45827011
4700.60004836
4700.74741173
4700.8927216
4701.02698537
4701.14069161
4701.22522529
4701.27856196
4701.28962948
4700.06110283
4700.08491433
4700.09026568
4700.09281474
4700.09368656
4700.10135091
4700.12383779
4700.16654285
4700.23201395
4700.31989988
4700.42829801
4700.5532886
4700.68996101
4700.83215655
4700.97221638
4701.10134438
4701.21045385
4701.29123135
4701.34183204
4701.35167684
4700.18664036
4700.21086337
4700.21755148
4700.22138018
4700.22311722
4700.2308237
4700.25213308
4700.29254408
4700.3547054
4700.43844826
4700.54196462
4700.66155804
4700.7924731
4700.9285913
4701.06236985
4701.18515217
4701.28883997
4701.36508688
4701.41243598
4701.42108947
4700.31450427
4700.33913121
4700.34736625
4700.35288315
4700.35620055
4700.36461537
4700.38555444
4700.42428458
4700.48344997
4700.5631508
4700.66173146
4700.77566792
4700.90031388
4701.02973401
4701.15658031
4701.27285715
4701.37019742
4701.44146309
4701.48541358
4701.49294932
4700.43638813
4700.46071594
4700.47014135
4700.47728702
4700.48230824
4700.49214139
4700.513297
4700.55104227
4700.60783464
4700.68391334
4700.77777671
4700.88609302
4701.00436881
4701.12697459
4701.24669767
4701.35610696
4701.44742581
4701.51407035
4701.5550918
4701.56212343
4700.54339538
4700.56629865
4700.5760076
4700.58410131
4700.59061521
4700.60181337
4700.62378037
4700.66114543
4700.71615521
4700.78924859
4700.87897549
4700.98225179
4701.09454255
4701.21057814
4701.32377233
4701.42703266
4701.51328096
4701.5764338
4701.61558502
4701.62310916
4700.62774927
4700.64737226
4700.65594948
4700.66378694
4700.67113568
4700.68357387
4700.70648443
4700.74391914
4700.79798645
4700.86891542
4700.95536986
4701.05434769
4701.161699
4701.27232152
4701.38012557
4701.47858144
4701.56129474
4701.62267694
4701.66151703
4701.67096764
4700.68524183
4700.70030277
4700.70684654
4700.71348068
4700.72097825
4700.73427735
4700.75811938
4700.79596905
4700.84967389
4700.91931477
4701.00356361
4701.09956047
4701.20329754
4701.31004463
4701.41412261
4701.50949517
4701.59031242
4701.65141243
4701.69102936
4701.70335348
4700.70930982
4700.71592318
4700.7181842
4700.72166733
4700.72783999
4700.74092297
4700.7651744
4700.80344888
4700.85744767
4700.92688929
4701.01053912
4701.10574847
4701.20767533
4701.31291515
4701.4158011
4701.51073781
4701.59217969
4701.6553556
4701.69794349
4701.715963
4204.3865542
4204.39215951
4204.39646338
4204.40653318
4204.42532877
4204.45753441
4204.50697146
4204.57616585
4204.66561243
4204.77345522
4204.89698705
4205.0319738
4205.1735847
4205.3163306
4205.45392121
4205.5799228
4205.68829737
4205.77361643
4205.83252761
4205.85945074
4204.37578878
4204.39069847
4204.39851675
4204.41247637
4204.43588193
4204.47289511
4204.52675653
4204.59953172
4204.69117048
4204.79999718
4204.92316796
4205.05667804
4205.19588338
4205.33547735
4205.46956644
4205.59195137
4205.69693542
4205.77936909
4205.83551782
4205.8545843
4204.3493674
4204.36779342
4204.37524869
4204.39005438
4204.41551965
4204.45522752
4204.51186914
4204.58712292
4204.68065851
4204.79068175
4204.91435682
4205.04779445
4205.18642808
4205.32517631
4205.45822176
4205.57957509
4205.68381733
4205.76621754
4205.82309855
4205.83944052
4204.31548736
4204.33758625
4204.34571268
4204.36188912
4204.3895359
4204.4316097
4204.4903119
4204.5675346
4204.66239128
4204.77326001
4204.89746232
4205.03120764
4205.16980923
4205.30883798
4205.44189699
4205.56302213
4205.66690272
4205.74914177
4205.80597624
4205.81950106
4204.27999338
4204.30638566
4204.31619199
4204.33432108
4204.36430541
4204.40853546
4204.46878146
4204.54652202
4204.64167555
4204.75273083
4204.87722988
4205.01149581
4205.15103508
4205.29068365
4205.42420573
4205.54555534
4205.64926339
4205.73114566
4205.78724168
4205.79753977
4204.25082632
4204.28174174
4204.29370552
4204.31373579
4204.34555154
4204.39071222
4204.45089016
4204.52796586
4204.62222001
4204.73256785
4204.85701595
4204.99189707
4205.13252657
4205.27342486
4205.40829083
4205.53032269
4205.63428827
4205.71592652
4205.77095294
4205.77792004
4204.23555481
4204.27064085
4204.28470052
4204.3060794
4204.33880855
4204.38335567
4204.44216921
4204.5172248
4204.60946528
4204.71830717
4204.84215644
4204.9774005
4205.11917165
4205.261499
4205.39787102
4205.52116879
4205.62557774
4205.70713483
4205.76100667
4205.76493457
4204.24060674
4204.2790555
4204.29474762
4204.31701791
4204.34924504
4204.39215685
4204.44842137
4204.52028238
4204.60947892
4204.71574532
4204.83825363
4204.97334721
4205.11595028
4205.25963109
4205.39738144
4205.52175474
4205.62660075
4205.70817442
4205.76097204
4205.76244295
4204.27036632
4204.31065814
4204.32724934
4204.34955057
4204.38052255
4204.42102494
4204.47401962
4204.54208941
4204.62764043
4204.73041841
4204.85089395
4204.98505554
4205.12761551
4205.27183806
4205.41026609
4205.53518769
4205.64050048
4205.72142202
4205.77321393
4205.77294054
4204.32561039
4204.36669316
4204.38339321
4204.40496957
4204.43422896
4204.47196876
4204.52159192
4204.58566098
4204.66711644
4204.76645975
4204.88394129
4205.01600455
4205.15722196
4205.30060851
4205.43849707
4205.56293252
4205.66770683
4205.7479159
4205.79890301
4205.79789919
4204.40597034
4204.44645536
4204.46251214
4204.4828067
4204.51015437
4204.54533445
4204.59184838
4204.65232028
4204.7300138
4204.82567013
4204.93951153
4205.06819477
4205.20640262
4205.34718746
4205.48284373
4205.60545631
4205.70874196
4205.78781227
4205.83812279
4205.83731485
4204.50848458
4204.54707531
4204.56176365
4204.58038545
4204.60577156
4204.63879206
4204.68266518
4204.74018424
4204.81458414
4204.90653061
4205.01619215
4205.14034909
4205.27399553
4205.41046907
4205.54228653
4205.66172794
4205.76244805
4205.84003353
4205.88975479
4205.88999645
4204.62827467
4204.66389502
4204.67657021
4204.69317268
4204.71654641
4204.74764622
4204.7893776
4204.84449948
4204.91592068
4205.00433159
4205.1094412
4205.22832408
4205.35636231
4205.48734066
4205.61421586
4205.72953339
4205.82687555
4205.90254521
4205.95169222
4205.95379015
4204.75909662
4204.79064027
4204.80079283
4204.81490882
4204.83620193
4204.86543838
4204.9052907
4204.95842698
4205.02716196
4205.1121162
4205.21264396
4205.3259995
4205.44796908
4205.57298636
4205.69440479
4205.80527288
4205.89889459
4205.97208649
4206.02060255
4206.02484333
4204.8929063
4204.91984197
4204.92718927
4204.93869691
4204.95719323
4204.98455215
4205.02256592
4205.07382416
4205.14013431
4205.22178152
4205.31787617
4205.42586241
4205.54197534
4205.66110244
4205.77701431
4205.88290197
4205.9732803
4206.04420574
4206.09217819
4206.09889593
4205.02097456
4205.04311235
4205.0476963
4205.05643998
4205.07209197
4205.09654886
4205.13268094
4205.18196943
4205.24598178
4205.32464779
4205.41684921
4205.5201127
4205.63101007
4205.74467412
4205.85564558
4205.95748611
4206.04485864
4206.11387248
4206.1613928
4206.17078634
4205.1347434
4205.15238791
4205.15470739
4205.16082183
4205.17348736
4205.19523959
4205.22857974
4205.27563913
4205.33752649
4205.41354352
4205.50250972
4205.6018081
4205.7085151
4205.81805696
4205.92498806
4206.02357104
4206.10866443
4206.17623338
4206.22329082
4206.23527101
4205.22637734
4205.24021964
4205.24130323
4205.24546906
4205.25549662
4205.27450796
4205.30524849
4205.34990008
4205.40928628
4205.48293641
4205.56944733
4205.66623957
4205.77006445
4205.87661226
4205.98076859
4206.0771048
4206.16059122
4206.2269739
4206.27325357
4206.28742198
4205.29053154
4205.30078733
4205.30169658
4205.30454822
4205.31223642
4205.32841494
4205.35627454
4205.39829158
4205.45537043
4205.52713243
4205.61211566
4205.70762307
4205.81033755
4205.91583811
4206.01905821
4206.11460014
4206.19738713
4206.26290134
4206.30799377
4206.32410737
4205.32020999
4205.32177474
4205.31914016
4205.31814275
4205.32139856
4205.33304618
4205.3568094
4205.39553841
4205.45032694
4205.52108095
4205.60615832
4205.70251619
4205.8073557
4205.91506435
4206.02066511
4206.11869244
4206.20387646
4206.271488
4206.31850173
4206.34041039
3708.99344791
3708.99657713
3708.99606672
3709.0001036
3709.01330053
3709.04117941
3709.08836972
3709.15776276
3709.24971382
3709.36242019
3709.49265504
3709.63557407
3709.78582082
3709.93736736
3710.08375342
3710.21821612
3710.33437806
3710.42653127
3710.49047099
3710.5199004
3708.97810717
3708.99661916
3709.00352172
3709.01422735
3709.03552002
3709.07176395
3709.12631554
3709.20120026
3709.29650217
3709.41045068
3709.53980878
3709.68016316
3709.82643997
3709.9728598
3710.11321864
3710.24126639
3710.35140527
3710.4385664
3710.49657648
3710.51290885
3708.94344087
3708.96947735
3708.97729435
3708.98815219
3709.0115295
3709.05130586
3709.10991744
3709.18854615
3709.28676003
3709.40252536
3709.53237218
3709.67234424
3709.81742486
3709.96215796
3710.1007725
3710.2275081
3710.33727701
3710.42530028
3710.48325296
3710.4936318
3708.8985883
3708.93124778
3708.93918396
3708.94867205
3708.97227528
3709.01360528
3709.07449625
3709.15539031
3709.2557815
3709.37312801
3709.50407057
3709.64451855
3709.78994809
3709.93492223
3710.07411312
3710.20188939
3710.31342388
3710.40396992
3710.46276839
3710.46825485
3708.8515026
3708.89210177
3708.90179833
3708.91120302
3708.93539776
3708.97782914
3708.98665223
3709.04485623
3709.16419362
3709.28786323
3709.42507225
3709.57178186
3709.75868623
3709.93214022
3710.04776892
3710.17700195
3710.29014995
3710.38241144
3710.44088215
3710.44069596
3708.81145157
3708.86033614
3708.87301551
3708.88333423
3708.90819623
3708.79197726
3708.63015587
3708.726771
3708.92605448
3709.06844102
3709.2247043
3709.39085667
3709.67866707
3709.9948421
3710.10421759
3710.15679092
3710.27131592
3710.36447209
3710.42168664
3710.41577732
3708.78741193
3708.84366973
3708.8596644
3708.87120025
3708.83711315
3708.46964045
3708.30393322
3708.55949694
3708.84510904
3708.99068934
3709.15086889
3709.32159229
3709.69499444
3710.16304328
3710.30310959
3710.17511038
3710.26017322
3710.35363033
3710.40915191
3710.39828902
3708.78685628
3708.84869361
3708.86752706
3708.87989159
3708.7761946
3708.31236841
3708.250203
3708.60887363
3708.93832289
3709.0709971
3709.21974597
3709.3800572
3709.79098131
3710.33094727
3710.50891658
3710.24253093
3710.25987852
3710.35314379
3710.40697765
3710.39243115
3708.81451943
3708.87971392
3708.900411
3708.91308738
3708.7875176
3708.3199769
3708.2983727
3708.69585027
3709.03934049
3709.15901723
3709.29831569
3709.44927082
3709.86957223
3710.42927952
3710.60669876
3710.29361872
3710.27280015
3710.36550118
3710.41789432
3710.40109029
3708.87191783
3708.93831104
3708.95964858
3708.9717577
3708.83946214
3708.35247112
3708.3259004
3708.73054031
3709.07793415
3709.19556011
3709.33086463
3709.47921434
3709.90684065
3710.47925656
3710.65639368
3710.32657861
3710.30022022
3710.3919942
3710.44334067
3710.42574681
3708.95839415
3709.02377172
3709.04427531
3709.055078
3708.91563903
3708.40904372
3708.37741282
3708.78959398
3709.14125172
3709.25490753
3709.38613063
3709.53078867
3709.96428383
3710.54784373
3710.72318174
3710.37528109
3710.34241138
3710.43285073
3710.48355251
3710.46653811
3709.07033847
3709.13270992
3709.15115502
3709.16001778
3709.01327477
3708.48721619
3708.45070682
3708.87112343
3709.22703446
3709.33593441
3709.46260675
3709.60258363
3710.0406703
3710.63394328
3710.80599619
3710.43864308
3710.39822959
3710.48696922
3710.53733239
3710.52209902
3709.20217635
3709.25970308
3709.27505123
3709.28160699
3709.18111166
3708.69908172
3708.67634489
3709.09552394
3709.43835626
3709.53330046
3709.64489196
3709.76976108
3710.18578446
3710.74294201
3710.86667154
3710.48364563
3710.46548508
3710.55213175
3710.60235809
3710.58995616
3709.3464749
3709.39754503
3709.40915687
3709.41313801
3709.39806965
3709.10270991
3709.08235987
3709.44702125
3709.7378822
3709.8126788
3709.90324187
3710.00659767
3710.35016428
3710.77697963
3710.77049969
3710.48717244
3710.54090597
3710.62483178
3710.67497999
3710.66630027
3709.4945073
3709.53785935
3709.54557133
3709.54749868
3709.55868348
3709.49366834
3709.48689362
3709.71823203
3709.91953884
3709.98656098
3710.06853978
3710.16268134
3710.394922
3710.60879755
3710.55575996
3710.51990439
3710.61943306
3710.70042196
3710.75048076
3710.74632651
3709.63662245
3709.67168595
3709.67595393
3709.67621467
3709.68548976
3709.70667833
3709.7076138
3709.7910637
3709.90259067
3709.9798401
3710.07127287
3710.17421066
3710.31794003
3710.43166226
3710.49261018
3710.60079728
3710.69613108
3710.77394944
3710.82367252
3710.82452294
3709.76335642
3709.7906082
3709.79264066
3709.79226086
3709.80017035
3709.81935414
3709.85171139
3709.89928052
3709.96244481
3710.04075522
3710.13272977
3710.23573998
3710.34621222
3710.45993942
3710.57132277
3710.67506252
3710.76635443
3710.84072301
3710.88955838
3710.89525926
3709.8661344
3709.88692482
3709.88831555
3709.88857619
3709.89577022
3709.91315355
3709.9431969
3709.98786897
3710.04803205
3710.12332605
3710.21229289
3710.31223509
3710.41957034
3710.52981149
3710.63769401
3710.73787475
3710.82551849
3710.89624983
3710.94344378
3710.95317684
3709.93830761
3709.95184063
3709.95187122
3709.95145765
3709.95641773
3709.97043625
3709.99674556
3710.03789753
3710.09510416
3710.1681456
3710.25554844
3710.35443342
3710.46110291
3710.57084836
3710.67824561
3710.77774246
3710.86427491
3710.93333408
3710.97989333
3710.99416666
3709.97208923
3709.97123136
3709.96401496
3709.95715363
3709.95459989
3709.96109989
3709.98099893
3710.01751635
3710.07202766
3710.14419675
3710.23237533
3710.33330315
3710.44313528
3710.55679459
3710.66870335
3710.77304659
3710.86424595
3710.93730023
3710.98840103
3711.01249582
3213.61874385
3213.61862598
3213.61192266
3213.60795651
3213.61343576
3213.63514349
3213.67900883
3213.74862954
3213.8445972
3213.96486637
3214.10535409
3214.26027487
3214.4235401
3214.58827587
3214.74730962
3214.89337271
3215.01967666
3215.12028835
3215.19020186
3215.22288355
3213.59686054
3213.61732513
3213.62269708
3213.62943391
3213.64753789
3213.68200023
3213.73669883
3213.81412317
3213.9146889
3214.03642007
3214.17570551
3214.3272163
3214.48502595
3214.64245565
3214.79258923
3214.92881849
3215.04555434
3215.13785855
3215.19794016
3215.21318327
3213.55059745
3213.58343462
3213.59213961
3213.59808855
3213.61637474
3213.65231801
3213.70949937
3213.78980407
3213.89337862
3214.01745301
3214.15809007
3214.31019279
3214.46832854
3214.62584526
3214.77627506
3214.91332158
3215.03142077
3215.125311
3215.183417
3215.18893048
3213.48996852
3213.53374991
3213.54183775
3213.54151292
3213.55424119
3213.49085365
3213.37235141
3213.42870154
3213.58204386
3213.73086674
3213.89649334
3214.07377805
3214.33472642
3214.63389204
3214.77613144
3214.87437217
3214.9990147
3215.09936754
3215.15907907
3215.15670573
3213.42563317
3213.48211766
3213.49013199
3213.4838253
3213.25897734
3212.74913896
3212.5309174
3212.77537049
3213.07018347
3213.25903594
3213.46513093
3213.68325082
3214.09059271
3214.64878234
3214.96484509
3214.94767374
3214.96498441
3215.07164282
3215.13276188
3215.12172058
3213.3689353
3213.43840528
3213.44724568
3213.33007971
3212.55843629
3211.97193147
3212.07985209
3212.51740954
3212.88069312
3213.07736802
3213.29178571
3213.51845017
3213.99568003
3214.71848253
3215.29212485
3215.30935909
3214.98991948
3215.04687795
3215.10878608
3215.08942927
3213.33121024
3213.41189421
3213.42213
3213.0348923
3211.95770457
3211.7069769
3211.94564763
3212.40232937
3212.78523792
3212.98175773
3213.19633681
3213.42315518
3213.93465586
3214.73879844
3215.4790095
3215.77537077
3215.16546749
3215.02943974
3215.09149148
3215.06540395
3213.32175451
3213.41067455
3213.42232277
3212.84017817
3211.7954281
3211.73396109
3211.9708553
3212.43886597
3212.82793322
3213.01324993
3213.21758649
3213.43471053
3213.96012766
3214.80792221
3215.5978872
3216.06010336
3215.3862713
3215.02340259
3215.08518733
3215.05449378
3213.34643028
3213.4402751
3213.45328277
3212.81563739
3211.80671126
3211.78837381
3212.03174208
3212.50902036
3212.90424822
3213.08073435
3213.2762254
3213.48360403
3214.01271144
3214.8808134
3215.69129561
3216.18653405
3215.48880502
3215.03208114
3215.09338323
3215.06016105
3213.40726621
3213.50271897
3213.51607526
3212.85646179
3211.81424723
3211.79687487
3212.04781361
3212.53469096
3212.93702771
3213.11007563
3213.30207452
3213.50611636
3214.04304213
3214.9313782
3215.76084412
3216.26485937
3215.53519379
3215.05737105
3215.11803357
3215.08415969
3213.50340639
3213.59748001
3213.6099859
3212.92843082
3211.8531135
3211.83668135
3212.09438907
3212.59116397
3212.99809405
3213.16653088
3213.35404211
3213.55392583
3214.09771246
3215.0051883
3215.85228827
3216.36344994
3215.60021927
3215.09998545
3215.15972155
3215.12682108
3213.63022312
3213.72039309
3213.7312728
3213.02793587
3211.9200738
3211.90497463
3212.16885715
3212.67644541
3213.08505995
3213.2475707
3213.42942837
3213.62443891
3214.17461649
3215.10045495
3215.96401131
3216.48077254
3215.6823218
3215.15858697
3215.21710117
3215.1865361
3213.78090741
3213.86438373
3213.87299932
3213.27174579
3212.17132557
3212.15428801
3212.4303679
3212.94642888
3213.34379794
3213.48640433
3213.64878616
3213.82572312
3214.36646996
3215.28655906
3216.1347415
3216.58861607
3215.70557959
3215.23023987
3215.28740203
3215.26051242
3213.94631704
3214.02054705
3214.02693951
3213.7269588
3212.74652357
3212.6364647
3212.93897543
3213.45639445
3213.8268966
3213.93407574
3214.06099603
3214.2030373
3214.70493243
3215.56789634
3216.33593112
3216.50551259
3215.55858255
3215.31056766
3215.3662895
3215.3444644
3214.11605986
3214.17883749
3214.18315948
3214.11390771
3213.55006388
3213.27230507
3213.53625083
3214.04573453
3214.37817135
3214.44775999
3214.53668609
3214.64081257
3215.08090727
3215.83590912
3216.32990011
3216.02176756
3215.3872782
3215.39412152
3215.44819315
3215.432906
3214.27898852
3214.32907858
3214.33205332
3214.31793219
3214.18126582
3213.98479035
3214.13718223
3214.5660552
3214.83137451
3214.87448897
3214.93597409
3215.01210921
3215.33718977
3215.797636
3215.83053506
3215.49291645
3215.38572339
3215.47535922
3215.52743206
3215.51977062
3214.42428709
3214.46208615
3214.46458288
3214.45528679
3214.45224949
3214.39988075
3214.4025079
3214.61645395
3214.77536478
3214.83773139
3214.91726067
3215.010583
3215.19100323
3215.36873683
3215.34993859
3215.36560313
3215.46693655
3215.54906957
3215.59882543
3215.59886506
3214.54241114
3214.56967069
3214.5721958
3214.56795907
3214.56946865
3214.58103511
3214.60617666
3214.64758378
3214.70687737
3214.78403363
3214.87757289
3214.98422221
3215.09947791
3215.21803031
3215.33393184
3215.44133604
3215.53500757
3215.61012977
3215.6575635
3215.66428779
3214.62527547
3214.6407068
3214.63959067
3214.63542208
3214.63647691
3214.64672332
3214.66975876
3214.708696
3214.76538407
3214.83998611
3214.9310577
3215.03531833
3215.14842109
3215.26500379
3215.37887377
3215.4840317
3215.57529651
3215.64820144
3215.69654261
3215.71076365
3214.66474388
3214.66084568
3214.64799562
3214.63358077
3214.62316511
3214.62238114
3214.63655728
3214.6696133
3214.72333633
3214.79742634
3214.89001697
3214.99734508
3215.11488411
3215.23706944
3215.35767382
3215.47039957
3215.56927902
3215.64899278
3215.70495927
3215.73196828
2718.27503512
2718.26967127
2718.25568362
2718.24196471
2718.23783552
2718.25176402
2718.29150512
2718.3618048
2718.46365997
2718.59453626
2718.74903613
2718.91998356
2719.100128
2719.28143552
2719.455808
2719.615356
2719.75301258
2719.86276615
2719.93887885
2719.97605732
2718.24352023
2718.25868265
2718.25899688
2718.25922873
2718.27220547
2718.30365081
2718.35857468
2718.44005459
2718.5486508
2718.6817855
2718.83490552
2719.00146411
2719.17442862
2719.34587969
2719.50820569
2719.6544962
2719.77923307
2719.87803619
2719.94257317
2719.96229469
2718.18215746
2718.2122483
2718.21520863
2718.21108032
2718.2196314
2718.15436096
2718.03592405
2718.08989974
2718.24679679
2718.40517838
2718.58390021
2718.77603569
2719.05089653
2719.36202063
2719.51895414
2719.62827331
2719.75798972
2719.86083491
2719.92398438
2719.93238964
2718.10063929
2718.14526142
2718.14412282
2718.11894859
2717.71059126
2717.18226435
2717.01644955
2717.24889726
2717.54326463
2717.75445253
2717.98787439
2718.23649975
2718.65555876
2719.21064281
2719.63617643
2719.7605387
2719.71446027
2719.82657613
2719.89384146
2719.89217058
2718.01295712
2718.07500455
2718.06900502
2717.60180749
2716.63678594
2716.26372079
2716.39297884
2716.74562779
2717.09381554
2717.32951323
2717.58874872
2717.86391386
2718.36305529
2719.1002749
2719.79789657
2720.14256302
2719.88307023
2719.7892052
2719.86143016
2719.84837493
2717.93337495
2718.01357868
2717.89393504
2716.74176271
2715.93354406
2715.80510695
2715.89528293
2716.25882172
2716.64045203
2716.90094724
2717.18526605
2717.48500491
2718.0430016
2718.89976501
2719.75864723
2720.43800673
2720.40611016
2719.8115738
2719.83119753
2719.80726165
2717.87668212
2717.97281696
2717.57843307
2716.13462121
2715.66954636
2715.47982307
2715.54300323
2715.91236911
2716.31670914
2716.59330296
2716.89297893
2717.20626872
2717.79978187
2718.7383737
2719.71754659
2720.52980671
2720.88299229
2719.98441838
2719.80800504
2719.77533399
2717.85497406
2717.963041
2717.37397289
2715.98159256
2715.60389036
2715.38237565
2715.43268034
2715.79902719
2716.20986683
2716.48383712
2716.78226781
2717.09452385
2717.70362897
2718.68814168
2719.73684375
2720.62147652
2721.10634286
2720.19663345
2719.79671342
2719.7582133
2717.87586478
2717.99136742
2717.35044587
2715.98882618
2715.61984294
2715.39126467
2715.44270735
2715.80863015
2716.23680126
2716.50996362
2716.8036442
2717.10562406
2717.71217348
2718.71476914
2719.79258792
2720.70483914
2721.21388136
2720.29170821
2719.80158283
2719.76008266
2717.94190858
2718.0600254
2717.39763979
2715.99530927
2715.62375603
2715.39537249
2715.45243453
2715.82071176
2716.25886474
2716.52830928
2716.81802892
2717.11492584
2717.72702233
2718.74925879
2719.85066408
2720.78253494
2721.2986448
2720.33646153
2719.82535771
2719.78320371
2718.05188541
2718.16834547
2717.4846853
2716.04369668
2715.6709945
2715.4430143
2715.50277095
2715.87451
2716.31552931
2716.57980417
2716.86442508
2717.15651181
2717.77330176
2718.81469735
2719.93859031
2720.88807522
2721.40858117
2720.40236757
2719.86908787
2719.82816927
2718.19975494
2718.31086806
2717.60654554
2716.12954186
2715.75776707
2715.53108482
2715.5903657
2715.96812627
2716.40267255
2716.65851907
2716.93592904
2717.22338507
2717.84653179
2718.90772769
2720.05357287
2721.01893884
2721.54085252
2720.48804168
2719.93123277
2719.89311092
2718.37664717
2718.47878314
2717.88063954
2716.38963937
2716.03611029
2715.82443678
2715.88628454
2716.27252856
2716.68377027
2716.91388986
2717.16836403
2717.43818093
2718.0580473
2719.12297259
2720.26041691
2721.20248203
2721.67402348
2720.51416687
2720.00848139
2719.97477878
2718.57088328
2718.66027489
2718.36872383
2716.93323641
2716.58300815
2716.42360702
2716.50713345
2716.90336522
2717.28463201
2717.47001992
2717.68115838
2717.91032757
2718.49839775
2719.5201573
2720.57561316
2721.41009168
2721.65673571
2720.36988863
2720.09550468
2720.06812874
2718.76966206
2718.84315848
2718.78165457
2717.81906969
2717.26681905
2717.2069746
2717.34203092
2717.74882194
2718.09140892
2718.22027631
2718.3755055
2718.55039971
2719.07850724
2720.00026949
2720.89791185
2721.54326537
2721.19313475
2720.20619833
2720.18565499
2720.16677413
2718.95973149
2719.01580564
2719.00734361
2718.73519609
2718.12954684
2718.02573572
2718.23431058
2718.64417125
2718.93864666
2719.01293058
2719.11263169
2719.23200611
2719.67394954
2720.44005658
2721.11827017
2721.21245227
2720.49303307
2720.21109834
2720.272724
2720.26396977
2719.12869975
2719.16798919
2719.16315865
2719.13447103
2718.87909496
2718.82072922
2719.02326939
2719.37198505
2719.60545375
2719.64309875
2719.70371072
2719.78273775
2720.10868602
2720.57700151
2720.73131553
2720.48400286
2720.20669173
2720.29509405
2720.35145159
2720.35299261
2719.26584255
2719.29107944
2719.28908948
2719.27618991
2719.26802916
2719.20605991
2719.19776308
2719.40764589
2719.56450292
2719.62592957
2719.70677914
2719.80526985
2719.99416271
2720.18106147
2720.16424735
2720.18037675
2720.28285714
2720.36519712
2720.41713293
2720.42745151
2719.36152215
2719.37258835
2719.3673321
2719.35732884
2719.35274358
2719.357818
2719.37674246
2719.41317463
2719.4694771
2719.5462861
2719.6420693
2719.75318992
2719.8744004
2719.99953351
2720.1214928
2720.23376687
2720.33105002
2720.40915999
2720.4615542
2720.48052797
2719.40917887
2719.40059029
2719.38121418
2719.35776437
2719.33777295
2719.32800537
2719.33504426
2719.3638078
2719.41658503
2719.49314914
2719.59130275
2719.70658705
2719.83363124
2719.966105
2720.09692163
2720.21925099
2720.32673514
2720.41375464
2720.47510252
2720.50620299
2222.97489316
2222.96137784
2222.93908969
2222.91315079
2222.89654562
2222.90001889
2222.93435158
2223.00592449
2223.11614603
2223.26139053
2223.43372772
2223.62422829
2223.82416162
2224.0243521
2224.21577635
2224.39007099
2224.53999536
2224.6600213
2224.74247056
2224.78614964
2222.92926057
2222.92796976
2222.91689066
2222.9043779
2222.90649927
2222.93037439
2222.93430418
2222.9958448
2223.13006247
2223.28454069
2223.46186403
2223.65360001
2223.88305256
2224.09849128
2224.25551743
2224.4147828
2224.5505368
2224.65938839
2224.7326839
2224.76573602
2222.84844483
2222.85918483
2222.8473069
2222.8242651
2222.59415242
2222.20094046
2222.04058023
2222.1527308
2222.38467463
2222.59723098
2222.83625927
2223.0923726
2223.46303758
2223.92037757
2224.3331318
2224.47144161
2224.51403039
2224.63020488
2224.70428162
2224.7287122
2222.73938225
2222.76410343
2222.74183492
2222.27632808
2221.51535249
2221.09810441
2221.14563048
2221.40774166
2221.71603657
2221.96694273
2222.24840291
2222.54984574
2223.02800941
2223.69742789
2224.33981235
2224.67373604
2224.65206713
2224.58185358
2224.6633954
2224.67830584
2222.62008684
2222.66394219
2222.38428157
2221.27263456
2220.59115753
2220.3378907
2220.30710561
2220.56786479
2220.919718
2221.21940748
2221.55083287
2221.90244284
2222.46404767
2223.28378054
2224.13356798
2224.84567933
2225.07951814
2224.65636281
2224.62104358
2224.6238512