/*--------------------------------*- C++ -*----------------------------------*\
| =========                 |                                                 |
| \\      /  F ield         | OpenFOAM: The Open Source CFD Toolbox           |
|  \\    /   O peration     | Version:  3.0.1                                 |
|   \\  /    A nd           | Web:      www.OpenFOAM.org                      |
|    \\/     M anipulation  |                                                 |
\*---------------------------------------------------------------------------*/
FoamFile
{
    version     2.0;
    format      ascii;
    class       surfaceScalarField;
    location    "4";
    object      phi;
}
// * * * * * * * * * * * * * * * * * * * * * * * * * * * * * * * * * * * * * //

dimensions      [0 3 -1 0 0 0 0];

internalField   nonuniform List<scalar> 
45932
(
8.29888872302e-06
4.97333544223e-06
-1.32723073278e-05
1.51055494385e-05
5.91057768921e-06
-1.27173246436e-05
1.54417321258e-05
1.23265739354e-05
-1.26628330902e-05
8.68846229565e-06
1.8958845411e-05
-1.22056449127e-05
-1.79650704713e-06
2.27661295581e-05
-1.22812275118e-05
-1.30685352576e-05
2.29937193547e-05
-1.17217624493e-05
-2.19601054631e-05
1.94642509792e-05
-1.05727615973e-05
-2.57298415513e-05
1.29779572141e-05
-9.20831218229e-06
-2.40690055396e-05
5.75215504384e-06
-7.41308593079e-06
-1.93217400447e-05
6.69358844652e-07
-5.41671345281e-06
-1.40866045215e-05
-1.62409993131e-06
-3.61111259891e-06
-9.67140692987e-06
-2.13081259235e-06
-2.28444930376e-06
-6.40920827876e-06
-1.86854034995e-06
-1.39371257627e-06
-4.16065303073e-06
-1.3896375581e-06
-8.58964819161e-07
-2.66052947303e-06
-9.50523254254e-07
-5.4964225323e-07
-1.67109549045e-06
-6.24405041387e-07
-3.65066917855e-07
-1.02066199316e-06
-4.07088140703e-07
-2.43380162673e-07
-5.88894464955e-07
-2.69193122027e-07
-1.6260672232e-07
-3.02022980962e-07
-1.8419755965e-07
-1.02704540394e-07
-1.14777626751e-07
-1.32203011855e-07
-5.50723245757e-08
2.59756596374e-09
-1.00312233336e-07
-1.70936331329e-08
6.74194415771e-08
-8.0514989142e-08
1.56604931839e-08
8.83403447858e-08
-7.01210686859e-08
4.91649301035e-08
7.1707460094e-08
-6.49732865009e-08
8.15685134431e-08
3.38071635716e-08
-6.44483572405e-08
1.02309388141e-07
-9.27359998981e-09
-6.61621281488e-08
1.09203032382e-07
-4.21573382772e-08
-7.09011452742e-08
1.03745477978e-07
-6.37501321348e-08
-7.59281933033e-08
9.74831236723e-08
-6.15298307742e-08
-8.11880897766e-08
7.89324896532e-08
-2.20224342165e-08
-8.56739414497e-08
4.61345275326e-08
5.70003407194e-08
-8.867318736e-08
9.62183530577e-09
1.5762172085e-07
-8.70996966013e-08
-1.35474117038e-08
2.47294723672e-07
-7.89640622447e-08
-1.07331159204e-08
3.15599226553e-07
-6.94057940351e-08
1.07722398513e-09
3.53498676024e-07
-5.84487558876e-08
2.05246284978e-08
3.57669893349e-07
-4.88583522496e-08
4.46622007863e-08
3.27369244699e-07
-3.85720479007e-08
6.88481852739e-08
2.55941140806e-07
-3.05201801482e-08
1.01923824975e-07
1.47729269155e-07
-3.2147514204e-08
1.40332920559e-07
-4.99701673504e-08
1.97672357707e-07
8.1752378691e-06
1.46191758405e-05
-1.78211679571e-05
1.59841851783e-05
2.03598085106e-05
-2.22582685097e-05
1.65201590452e-05
3.51283243784e-05
-2.33378037511e-05
9.34562125047e-06
4.89706597902e-05
-2.28373476717e-05
-1.70452744917e-06
5.65451094677e-05
-2.2728898714e-05
-1.3515778885e-05
5.68104290724e-05
-2.20055290791e-05
-2.28950580377e-05
4.9479115287e-05
-2.06356663928e-05
-2.67276273407e-05
3.5746657095e-05
-1.89362240774e-05
-2.46448372446e-05
1.97561065086e-05
-1.60868407228e-05
-1.94407990121e-05
7.65590140813e-06
-1.21906746823e-05
-1.39714834848e-05
1.12629015989e-06
-8.2197870546e-06
-9.49197934596e-06
-1.53685235152e-06
-5.07353239313e-06
-6.24828516439e-06
-2.13291913839e-06
-2.97937256762e-06
-4.0459830715e-06
-1.88504375497e-06
-1.70694513237e-06
-2.58949705802e-06
-1.40850518612e-06
-9.98547466174e-07
-1.63152061231e-06
-9.73223395048e-07
-6.09196985113e-07
-1.00035248548e-06
-6.53791814477e-07
-3.84499782295e-07
-5.80289240534e-07
-4.40264228565e-07
-2.49024682116e-07
-3.00113358924e-07
-3.05111942374e-07
-1.59292171815e-07
-1.16387615068e-07
-2.21048720659e-07
-9.49101037173e-08
-3.5583312236e-10
-1.68615777107e-07
-4.77592806424e-08
6.43367152641e-08
-1.34955485081e-07
-1.02855113406e-08
8.5438471601e-08
-1.18296208406e-07
2.7036857364e-08
6.82646557882e-08
-1.10942795582e-07
6.31041188262e-08
2.76555202799e-08
-1.09915148682e-07
8.60350244661e-08
-1.56013280387e-08
-1.14985798378e-07
9.20389535134e-08
-4.78059687119e-08
-1.23848640566e-07
8.51108964577e-08
-6.94208201192e-08
-1.33188718143e-07
7.88355415009e-08
-6.67808439124e-08
-1.43131376706e-07
5.92660128066e-08
-2.35817201041e-08
-1.52041780246e-07
2.31348803659e-08
5.95662947233e-08
-1.5550204606e-07
-1.6349169598e-08
1.6434202263e-07
-1.52624228905e-07
-3.92779757153e-08
2.57069453123e-07
-1.41175677203e-07
-3.05409071762e-08
3.25792159715e-07
-1.28058608577e-07
-1.00950327815e-08
3.63043873886e-07
-1.11715211956e-07
1.59887387567e-08
3.65733479012e-07
-9.6961794718e-08
4.53874589572e-08
3.33725503916e-07
-8.23908228928e-08
7.58008265616e-08
2.58946179712e-07
-7.11840340592e-08
1.15417254328e-07
1.43777098346e-07
-7.34447746208e-08
1.56438207079e-07
-9.42713270597e-08
1.88049869876e-07
9.41668467791e-06
2.40665025595e-05
-1.88641066392e-05
1.85674251227e-05
3.51885854186e-05
-2.39796116636e-05
1.89994003642e-05
5.71219306872e-05
-2.24256637107e-05
1.07473614818e-05
7.66831434486e-05
-1.94605158359e-05
-1.60071003074e-06
8.71170653235e-05
-1.82239479428e-05
-1.46980152736e-05
8.73633218407e-05
-1.74556518449e-05
-2.51255400106e-05
7.69568126074e-05
-1.70502478366e-05
-2.92314955261e-05
5.72857634074e-05
-1.74332415563e-05
-2.65481503373e-05
3.39527767969e-05
-1.68801151287e-05
-2.0434235178e-05
1.56625499323e-05
-1.41206605633e-05
-1.42568846088e-05
5.00971369029e-06
-1.00608591711e-05
-9.4196104051e-06
1.40619954973e-08
-6.38825984485e-06
-6.05311086275e-06
-1.71438493618e-06
-3.7850933424e-06
-3.84599523987e-06
-1.91202588503e-06
-2.1801842598e-06
-2.42990216333e-06
-1.56732711652e-06
-1.25731534719e-06
-1.51850924981e-06
-1.13168134112e-06
-7.52974164421e-07
-9.24831289478e-07
-7.75682927318e-07
-4.71822106261e-07
-5.30669307569e-07
-5.26628787535e-07
-3.07829599388e-07
-2.67151666334e-07
-3.65966247328e-07
-2.02693421164e-07
-9.37942995236e-08
-2.64206245112e-07
-1.30229235452e-07
1.46040055609e-08
-1.99341322974e-07
-7.77032332325e-08
7.4943920717e-08
-1.5740719406e-07
-3.79213717092e-08
9.254011252e-08
-1.36429142962e-07
5.00190507548e-10
7.28406104976e-08
-1.29611936139e-07
3.83291866892e-08
3.15888185517e-08
-1.29606521597e-07
6.09019340343e-08
-1.28553385883e-08
-1.36726965139e-07
6.61434458982e-08
-4.56995652272e-08
-1.49324807689e-07
5.8278876332e-08
-6.75634547675e-08
-1.62797657867e-07
5.14327350281e-08
-6.45750320567e-08
-1.75955856624e-07
2.97985170293e-08
-2.15291068015e-08
-1.86792978452e-07
-8.32874944711e-09
6.35125090281e-08
-1.91413471493e-07
-4.9160283133e-08
1.70226165853e-07
-1.87479684247e-07
-7.18849566275e-08
2.64532111853e-07
-1.7501702277e-07
-6.04896610616e-08
3.32274489967e-07
-1.60020287763e-07
-3.58059384854e-08
3.68315287206e-07
-1.41709548387e-07
-6.07275219545e-09
3.69770030022e-07
-1.24299846441e-07
2.58565176815e-08
3.35373971001e-07
-1.08153742762e-07
6.01326118243e-08
2.57021519645e-07
-9.56541006225e-08
1.02796079465e-07
1.38592521172e-07
-9.64648977075e-08
1.41420229845e-07
-1.09113174568e-07
1.534051542e-07
1.2090143739e-05
3.08722453556e-05
-1.88959826333e-05
2.31006824082e-05
4.57264973872e-05
-2.15485452377e-05
2.31176684654e-05
7.20380704521e-05
-1.4933206776e-05
1.30421135171e-05
9.45442459064e-05
-7.78561317113e-06
-1.50654740033e-06
0.000106439695931
-4.77402227714e-06
-1.67872358466e-05
0.000106691570014
-4.04760924316e-06
-2.89679437092e-05
9.45323979225e-05
-5.39493838888e-06
-3.36615003312e-05
7.15678979879e-05
-9.58865782871e-06
-3.01436842882e-05
4.38374751854e-05
-1.34026088911e-05
-2.25760681957e-05
2.16719962284e-05
-1.35771577476e-05
-1.52298799192e-05
8.28788373255e-06
-1.06244438075e-05
-9.6833308021e-06
1.5586550893e-06
-7.09121405153e-06
-6.00243149948e-06
-1.06564415503e-06
-4.3296995174e-06
-3.69729674252e-06
-1.68498801685e-06
-2.53222240462e-06
-2.28030946513e-06
-1.51560779364e-06
-1.46874922555e-06
-1.40171459944e-06
-1.13900302834e-06
-8.71310486168e-07
-8.43312212332e-07
-7.92187458363e-07
-5.4193106965e-07
-4.76686673918e-07
-5.39216009062e-07
-3.540683182e-07
-2.31527209678e-07
-3.72952370247e-07
-2.38201095063e-07
-6.9792498281e-08
-2.66441812322e-07
-1.59526075464e-07
3.00197461675e-08
-1.9678556375e-07
-1.02395999929e-07
8.71313790328e-08
-1.54243322909e-07
-6.03063069388e-08
9.99632047851e-08
-1.294941416e-07
-1.98011696564e-08
7.75285020236e-08
-1.24414985993e-07
1.7200439399e-08
3.40138221378e-08
-1.26256652094e-07
4.01257777418e-08
-1.22319166921e-08
-1.34459198523e-07
4.39384057697e-08
-4.58059783817e-08
-1.49442947425e-07
3.36530811781e-08
-6.78384946194e-08
-1.65635273356e-07
2.48324502956e-08
-6.44744813546e-08
-1.80307090605e-07
9.52049224153e-10
-2.0680538549e-08
-1.92313654716e-07
-3.8304975875e-08
6.65774794608e-08
-1.97277974483e-07
-8.14213368533e-08
1.75126624132e-07
-1.92609623917e-07
-1.03443765653e-07
2.7057430276e-07
-1.80152738497e-07
-9.03350279374e-08
3.3809711133e-07
-1.647186234e-07
-6.28480631869e-08
3.73414201671e-07
-1.46127532634e-07
-3.09241483394e-08
3.74005074274e-07
-1.28104705689e-07
3.18813085853e-09
3.37723912291e-07
-1.11846928249e-07
3.99487408638e-08
2.56530266928e-07
-9.87351528487e-08
8.42488806618e-08
1.36404490033e-07
-9.7242035886e-08
1.20874406707e-07
-1.00076964587e-07
1.27339185919e-07
1.57746364777e-05
3.39570217425e-05
-1.8859508686e-05
2.89221140834e-05
5.00740153141e-05
-1.74950892722e-05
2.83095321261e-05
7.73207478712e-05
-4.67017305222e-06
1.59475990138e-05
9.9569757643e-05
7.33636488235e-06
-1.42519445982e-06
0.000111366511797
1.24459410614e-05
-1.95218834673e-05
0.000111637344337
1.31508856875e-05
-3.38626647636e-05
9.93802337447e-05
9.49290516628e-06
-3.93210392272e-05
7.62709414495e-05
7.55266717179e-07
-3.48747934585e-05
4.77481830612e-05
-8.35703857166e-06
-2.55671503661e-05
2.45509355754e-05
-1.21866742174e-05
-1.67312526503e-05
1.02115275978e-05
-1.07596266436e-05
-1.02569895302e-05
2.70028606651e-06
-7.61596632847e-06
-6.10531800409e-06
-4.32681839734e-07
-4.78469318047e-06
-3.61856951319e-06
-1.34396389873e-06
-2.82782149259e-06
-2.15966952249e-06
-1.3279531778e-06
-1.64659572069e-06
-1.29531156721e-06
-1.03654928362e-06
-9.66847172408e-07
-7.6547613302e-07
-7.29797436547e-07
-5.92256689215e-07
-4.24320344537e-07
-4.96450812342e-07
-3.83948888097e-07
-1.96950467384e-07
-3.40770554439e-07
-2.59577189804e-07
-4.65129376863e-08
-2.40375392221e-07
-1.76528477273e-07
4.64449150819e-08
-1.73476849444e-07
-1.16292124367e-07
9.54726757137e-08
-1.31887817608e-07
-7.14117376874e-08
1.07335442345e-07
-1.10965773711e-07
-3.04233028608e-08
8.18260324415e-08
-1.04351580004e-07
5.41078042694e-09
3.47195989807e-08
-1.07766131142e-07
2.85789989917e-08
-1.32690892384e-08
-1.16837432973e-07
3.03295626188e-08
-4.75722275176e-08
-1.32413956666e-07
1.72373017956e-08
-7.00384048367e-08
-1.48832276726e-07
5.62778496624e-09
-6.63389385482e-08
-1.65168996132e-07
-1.88704797252e-08
-2.0511034514e-08
-1.7681623251e-07
-6.1354819185e-08
6.90629349281e-08
-1.81304255956e-07
-1.05573310409e-07
1.79404577016e-07
-1.76329912263e-07
-1.2664376982e-07
2.75893402805e-07
-1.6455519184e-07
-1.12107477762e-07
3.43527742214e-07
-1.49825739438e-07
-8.2549191022e-08
3.78427089775e-07
-1.32258531379e-07
-4.87921599328e-08
3.78495845789e-07
-1.15192848164e-07
-1.30055427152e-08
3.40915374373e-07
-9.99372967329e-08
2.56459966727e-08
2.5797229317e-07
-8.69849050802e-08
7.1167665783e-08
1.36765483455e-07
-8.37646913295e-08
1.07701423745e-07
-8.03150618111e-08
1.16974719725e-07
1.98289952348e-05
3.2919098717e-05
-1.8791167246e-05
3.50649004677e-05
4.79015368651e-05
-1.30635184938e-05
3.36870033465e-05
7.29000780987e-05
5.7984956461e-06
1.89047887518e-05
9.22908431665e-05
2.20610854004e-05
-1.34851477445e-06
0.000102754068298
2.88657304924e-05
-2.23084032822e-05
0.000103086699366
2.95105291132e-05
-3.88986910132e-05
9.21269949136e-05
2.384351107e-05
-4.5262084944e-05
7.15644065368e-05
1.10698850755e-05
-3.99979870841e-05
4.55780185829e-05
-3.09400577474e-06
-2.89284342459e-05
2.40805329876e-05
-1.05992366907e-05
-1.85155946197e-05
1.05377331516e-05
-1.07391294015e-05
-1.1014008556e-05
3.23168023832e-06
-8.03305319408e-06
-6.31609263879e-06
4.50576443414e-08
-5.175715309e-06
-3.59849134269e-06
-9.79395250204e-07
-3.08221868443e-06
-2.07118611942e-06
-1.07221732348e-06
-1.78308141932e-06
-1.20568233158e-06
-8.63214162162e-07
-1.03887325035e-06
-6.96548621388e-07
-6.16006329284e-07
-6.22954748341e-07
-3.77217540801e-07
-4.18134324784e-07
-3.97674035373e-07
-1.65696975116e-07
-2.84040283287e-07
-2.68274729227e-07
-2.53868999652e-08
-1.97840184939e-07
-1.82868053861e-07
6.16570848315e-08
-1.40037208748e-07
-1.20507398668e-07
1.0583281243e-07
-1.02566713049e-07
-7.35236519027e-08
1.12020263625e-07
-8.5012137207e-08
-3.21718093536e-08
8.39387247114e-08
-7.86949706618e-08
2.39099742445e-09
3.43857843338e-08
-8.31862902705e-08
2.49374254e-08
-1.51714886192e-08
-9.19966891185e-08
2.46804246238e-08
-5.00261583788e-08
-1.06965727932e-07
9.37088082328e-09
-7.28853663788e-08
-1.22276820321e-07
-3.73034093191e-09
-6.8632192051e-08
-1.37738206566e-07
-3.17155609755e-08
-2.07637938788e-08
-1.48152017728e-07
-7.65607368148e-08
7.11569308725e-08
-1.51915276023e-07
-1.21333879141e-07
1.83143368552e-07
-1.46971812866e-07
-1.41365466328e-07
2.80574367721e-07
-1.36499857583e-07
-1.25506050461e-07
3.48431092143e-07
-1.2345436657e-07
-9.42489325224e-08
3.83080776425e-07
-1.08025875597e-07
-5.89053334689e-08
3.82867080789e-07
-9.30758481509e-08
-2.19276523766e-08
3.44475102462e-07
-7.97725041803e-08
1.82028154917e-08
2.60641490902e-07
-6.79530051003e-08
6.47769535088e-08
1.38454928762e-07
-6.39350422015e-08
1.02329161659e-07
-5.80182196838e-08
1.16129358727e-07
2.35706241048e-05
2.80486889194e-05
-1.87003080514e-05
4.05506994139e-05
4.00641368185e-05
-9.1427623877e-06
3.84809683129e-05
6.04828202318e-05
1.44869268948e-05
2.1550962136e-05
7.53492808356e-05
3.38715404591e-05
-1.25762858946e-06
8.35315052259e-05
4.20311588803e-05
-2.47520679304e-05
8.39022506012e-05
4.26789100152e-05
-4.33653007708e-05
7.5368460624e-05
3.53717791722e-05
-5.06390809298e-05
5.92196250306e-05
1.96185411644e-05
-4.47877099789e-05
3.81858822464e-05
1.54070787142e-06
-3.21673012591e-05
2.06092888788e-05
-9.14924442551e-06
-2.0300253624e-05
9.33246730153e-06
-1.0661864829e-05
-1.18163558594e-05
3.10762567317e-06
-8.35991715912e-06
-6.57942853267e-06
3.0709086865e-07
-5.49902165287e-06
-3.61940372788e-06
-6.51134625735e-07
-3.28833481042e-06
-2.01154954655e-06
-7.92787118609e-07
-1.88732478198e-06
-1.13577973527e-06
-6.53905897517e-07
-1.08511210334e-06
-6.39933041942e-07
-4.73137845307e-07
-6.38744605171e-07
-3.37763920394e-07
-3.20120821655e-07
-4.00208442446e-07
-1.39550373603e-07
-2.15496249183e-07
-2.66780649685e-07
-7.77504223824e-09
-1.47811292461e-07
-1.81826020763e-07
7.12961964161e-08
-1.01087963579e-07
-1.18043260071e-07
1.12729932383e-07
-7.3817517717e-08
-7.02089036167e-08
1.15128885427e-07
-5.89184917393e-08
-2.85227170288e-08
8.48574566116e-08
-5.36593610425e-08
5.20226825529e-09
3.34016752692e-08
-5.83457974766e-08
2.6579857372e-08
-1.74527606742e-08
-6.56423471005e-08
2.44641731917e-08
-5.26815401379e-08
-7.82612302439e-08
6.48889947951e-09
-7.54029268089e-08
-9.13929672529e-08
-8.19634631139e-09
-7.0668151113e-08
-1.03946707507e-07
-3.85575803665e-08
-2.0985950968e-08
-1.12591388332e-07
-8.52705227174e-08
7.29195399822e-08
-1.15309484249e-07
-1.30534848339e-07
1.86298763093e-07
-1.10906999298e-07
-1.49464222269e-07
2.84528183279e-07
-1.0229818294e-07
-1.32450072266e-07
3.52590471433e-07
-9.17952194132e-08
-9.97416891464e-08
3.87107226916e-07
-7.94150572481e-08
-6.31502044556e-08
3.8675721519e-07
-6.7460065464e-08
-2.52899107981e-08
3.47864604725e-07
-5.68971625029e-08
1.59930594509e-08
2.63649985543e-07
-4.72675974831e-08
6.35046019133e-08
1.40424134512e-07
-4.31318531293e-08
1.02394996184e-07
-3.70471188845e-08
1.19424307312e-07
2.66263480536e-05
2.01432871456e-05
-1.87210374973e-05
4.48717521921e-05
2.82506633683e-05
-6.43201208714e-06
4.23962256612e-05
4.2507392845e-05
2.04509031937e-05
2.38100073557e-05
5.21794541891e-05
4.17560329231e-05
-1.13707561064e-06
5.77016115808e-05
5.07770033135e-05
-2.67263955344e-05
5.80260304783e-05
5.14655875775e-05
-4.69551632551e-05
5.23509367705e-05
4.32463300901e-05
-5.49176615624e-05
4.15987264225e-05
2.55833994934e-05
-4.86789231831e-05
2.70901186952e-05
4.85698302403e-06
-3.48756469921e-05
1.48485051903e-05
-8.04256531981e-06
-2.18396700179e-05
6.87681536279e-06
-1.05804066607e-05
-1.25368484493e-05
2.40165830364e-06
-8.59692919501e-06
-6.83497117846e-06
3.44517026273e-07
-5.73936605824e-06
-3.65966443289e-06
-3.85713119623e-07
-3.4407788116e-06
-1.97503485926e-06
-5.16513958608e-07
-1.96094381711e-06
-1.08576831661e-06
-4.3436481683e-07
-1.10884199862e-06
-5.97331632237e-07
-3.15852675344e-07
-6.45751440162e-07
-3.07567485437e-07
-2.13421573095e-07
-3.96489222057e-07
-1.19395006395e-07
-1.42300986493e-07
-2.61390650218e-07
5.86993982304e-09
-9.63669186163e-08
-1.76730813803e-07
8.21601523425e-08
-6.43463867765e-08
-1.13054242034e-07
1.17645014038e-07
-4.56116425499e-08
-6.37165321926e-08
1.16780256595e-07
-3.5405936318e-08
-2.2677992273e-08
8.51167522885e-08
-3.21662732376e-08
1.01365329112e-08
3.18191684236e-08
-3.55584070761e-08
3.04742369889e-08
-1.95817879315e-08
-4.1143766268e-08
2.68658186872e-08
-5.51654632393e-08
-4.99995142184e-08
7.285911629e-09
-7.78199588467e-08
-5.94548969386e-08
-9.31807017187e-09
-7.22811026364e-08
-6.81349383339e-08
-4.13824193953e-08
-2.11767869978e-08
-7.41391017919e-08
-8.95845834584e-08
7.43326866925e-08
-7.56515484223e-08
-1.35191025097e-07
1.8879279665e-07
-7.22513909998e-08
-1.53135760976e-07
2.87623251986e-07
-6.60520472076e-08
-1.35095361815e-07
3.55821093414e-07
-5.87308122566e-08
-1.01282369105e-07
3.90289046723e-07
-5.01179436487e-08
-6.37876921652e-08
3.89863731857e-07
-4.18673643257e-08
-2.5191600072e-08
3.50674965642e-07
-3.46257383132e-08
1.68930618376e-08
2.66062661437e-07
-2.7867569743e-08
6.51876215365e-08
1.42073495461e-07
-2.43633608172e-08
1.05192943284e-07
-1.86692181078e-08
1.23666776874e-07
2.87405898078e-05
1.03041073493e-05
-1.8901498702e-05
4.77818272205e-05
1.43039308184e-05
-5.09457930816e-06
4.51132174324e-05
2.15228953923e-05
2.36530677409e-05
2.53899856163e-05
2.6179057491e-05
4.57236314739e-05
-1.01581737765e-06
2.90251795118e-05
5.50822794938e-05
-2.80321558497e-05
2.92140807956e-05
5.58283559589e-05
-4.93713314201e-05
2.63566563203e-05
4.73335168631e-05
-5.77873774909e-05
2.11066921769e-05
2.89081028757e-05
-5.13584802037e-05
1.38204787788e-05
6.84071396277e-06
-3.6781500043e-05
7.62965122832e-06
-7.35819253068e-06
-2.29508006806e-05
3.56944782395e-06
-1.05234118051e-05
-1.30708242029e-05
1.2698826878e-06
-8.74827658942e-06
-7.03345392258e-06
2.02064983142e-07
-5.89498229539e-06
-3.69896610141e-06
-1.82054174303e-07
-3.53819862809e-06
-1.95520096448e-06
-2.54497771212e-07
-2.00582336393e-06
-1.05369051747e-06
-2.15184745337e-07
-1.12072557781e-06
-5.69228939667e-07
-1.55483254071e-07
-6.44861102691e-07
-2.873602807e-07
-1.04484038746e-07
-3.90832402557e-07
-1.05902771573e-07
-6.87089260454e-08
-2.55072711397e-07
1.47801645538e-08
-4.60144815374e-08
-1.71056975872e-07
8.80828281471e-08
-2.95610472982e-08
-1.08110543088e-07
1.20376464591e-07
-2.02508872697e-08
-5.76803955118e-08
1.17905704753e-07
-1.56260815288e-08
-1.73397177235e-08
8.51161033287e-08
-1.43987462022e-08
1.49875230112e-08
3.09577692091e-08
-1.61012273519e-08
3.46643344946e-08
-2.11653958986e-08
-1.88132876788e-08
2.97551464655e-08
-5.70382965609e-08
-2.3281930878e-08
9.11825705341e-09
-7.95718130774e-08
-2.81031718535e-08
-8.85365506515e-09
-7.33257031015e-08
-3.22539430938e-08
-4.21597068366e-08
-2.12911044664e-08
-3.49749886372e-08
-9.12272924125e-08
7.53523351915e-08
-3.52367780159e-08
-1.37082191427e-07
1.90536033788e-07
-3.3170245548e-08
-1.54285063604e-07
2.8974992569e-07
-2.9811946785e-08
-1.35472856691e-07
3.58001396692e-07
-2.60781133372e-08
-1.00924405665e-07
3.92459097911e-07
-2.17609250401e-08
-6.28375208214e-08
3.91985972173e-07
-1.76684294433e-08
-2.37502230498e-08
3.52621353078e-07
-1.41871284923e-08
1.89015613773e-08
2.67712014983e-07
-1.0742021638e-08
6.77590102002e-08
1.43155387344e-07
-8.34077045819e-09
1.0850618729e-07
-2.82060291121e-09
1.27277842951e-07
2.98023125915e-05
-4.09927898877e-07
-1.90883636631e-05
4.92542016432e-05
-4.60332847679e-07
-4.68769393483e-06
4.64916405961e-05
-5.3458123197e-07
2.4820007923e-05
2.61340691308e-05
-5.66418345832e-07
4.71030613549e-05
-9.49980682519e-07
-5.85901135694e-07
5.66951867e-05
-2.86515512655e-05
-5.71851051188e-07
5.74875837456e-05
-5.05531674269e-05
-5.37742102875e-07
4.8796090626e-05
-5.91922992427e-05
-4.8323262616e-07
3.02290930797e-05
-5.26961549458e-05
-3.85732507951e-07
7.71004823197e-06
-3.77460855956e-05
-2.64855476326e-07
-7.05562362132e-06
-2.35217069543e-05
-1.56383426672e-07
-1.04986254585e-05
-1.33488452925e-05
-8.19612052742e-08
-8.82109355112e-06
-7.13874719345e-06
-3.86265647765e-08
-5.96947146501e-06
-3.72129097423e-06
-1.5382370879e-08
-3.58418084044e-06
-1.94621837512e-06
-3.81368860355e-09
-2.02579951793e-06
-1.03782716388e-06
1.66681275077e-09
-1.12527846027e-06
-5.55304064061e-07
3.61856317926e-09
-6.41655537723e-07
-2.77306754569e-07
4.26793608687e-09
-3.86775910255e-07
-9.92574465859e-08
4.25274717119e-09
-2.51034428945e-07
1.83294578276e-08
3.80421662164e-09
-1.67427418118e-07
9.0734923667e-08
3.1835048004e-09
-1.05172746956e-07
1.22160929634e-07
2.55434237895e-09
-5.42575035993e-08
1.18639255348e-07
1.93135348442e-09
-1.40667942619e-08
8.50688918724e-08
1.43226784982e-09
1.77042205259e-08
3.0471337593e-08
1.44813098298e-09
3.7010658458e-08
-2.19610536595e-08
1.58571881397e-09
3.19950477826e-08
-5.80100679589e-08
1.90339696875e-09
1.08258276811e-08
-8.04208715439e-08
2.45377103831e-09
-8.18231213477e-09
-7.37600544005e-08
3.1604439209e-09
-4.2108404559e-08
-2.12935120154e-08
4.11986751807e-09
-9.15904178494e-08
7.59442286267e-08
5.03631344299e-09
-1.37535091298e-07
1.9146123997e-07
5.58813899729e-09
-1.54295774497e-07
2.9082986129e-07
5.86032827405e-09
-1.35059872491e-07
3.59069288342e-07
5.80307675582e-09
-1.00140976741e-07
3.93525740941e-07
5.51144268995e-09
-6.17517711621e-08
3.92989579692e-07
5.07835496109e-09
-2.22351843895e-08
3.53536583201e-07
4.71024354473e-09
2.05310655705e-08
2.68458988434e-07
4.62751138297e-09
6.96832074018e-08
1.43623947809e-07
5.72244540836e-09
1.10743908418e-07
1.14081056556e-08
1.29366260186e-07
2.97921733426e-05
-1.11017194053e-05
-1.9100467136e-05
4.92401593589e-05
-1.52051321248e-05
-4.70325116079e-06
4.64774662247e-05
-2.25796257842e-05
2.48077146265e-05
2.61262625939e-05
-2.73111279641e-05
4.70959338967e-05
-9.477005339e-07
-3.01891048935e-05
5.66772283106e-05
-2.8639354634e-05
-3.03474499178e-05
5.7467338941e-05
-5.05346829111e-05
-2.74224193749e-05
4.87800872088e-05
-5.91686347368e-05
-2.20501631905e-05
3.02009250584e-05
-5.2667682519e-05
-1.45656339816e-05
7.67893584442e-06
-3.77194912632e-05
-8.13942884597e-06
-7.07367500261e-06
-2.35025719384e-05
-3.86990778852e-06
-1.05034707725e-05
-1.33372633369e-05
-1.42749281947e-06
-8.81985186593e-06
-7.13240436865e-06
-2.76486629395e-07
-5.9670637303e-06
-3.71808590477e-06
1.52492427712e-07
-3.58224631075e-06
-1.94470943016e-06
2.4720410175e-07
-2.02443738429e-06
-1.03722970228e-06
2.18620349934e-07
-1.12446921212e-06
-5.55108547914e-07
1.62836804829e-07
-6.41370235211e-07
-2.77295550267e-07
1.13084708867e-07
-3.86656570434e-07
-9.93528432038e-08
7.72062125639e-08
-2.50919739815e-07
1.81848660058e-08
5.36287924103e-08
-1.67384170033e-07
9.05984038291e-08
3.59370212288e-08
-1.05189829823e-07
1.22008467412e-07
2.53134311498e-08
-5.41954820237e-08
1.18536505028e-07
1.94285352671e-08
-1.40563583308e-08
8.50563383926e-08
1.71416719143e-08
1.77354761926e-08
3.05079131185e-08
1.88416390641e-08
3.71171859429e-08
-2.1874956478e-08
2.18480606385e-08
3.20820004763e-08
-5.78733820948e-08
2.69370682209e-08
1.09267570264e-08
-8.02392294926e-08
3.28122500896e-08
-8.02885822593e-09
-7.3591728986e-08
3.84112846725e-08
-4.19315053031e-08
-2.11567820111e-08
4.29213527312e-08
-9.12653431102e-08
7.60808538772e-08
4.49878809149e-08
-1.3721331548e-07
1.91530416817e-07
4.40076644721e-08
-1.53889321004e-07
2.90821003155e-07
4.11701339529e-08
-1.34619254755e-07
3.59001923878e-07
3.73073680632e-08
-9.9705497996e-08
3.93417894688e-07
3.24058710704e-08
-6.13332991746e-08
3.9283209792e-07
2.74644280782e-08
-2.18247840223e-08
3.53349214421e-07
2.31949114785e-08
2.09737274181e-08
2.68256088027e-07
1.95636367285e-08
7.01322266547e-08
1.43476392544e-07
1.93166414571e-08
1.11157654572e-07
2.51973908873e-08
1.29658197822e-07
2.87091223838e-05
-2.08753197043e-05
-1.8935608111e-05
4.77378837975e-05
-2.9091011517e-05
-5.14294506301e-06
4.50715556526e-05
-4.35172158413e-05
2.36038985334e-05
2.53682046274e-05
-5.32911950415e-05
4.56834401768e-05
-1.00818829459e-06
-5.88346352669e-05
5.50219819287e-05
-2.7997531859e-05
-5.91223377052e-05
5.5764312366e-05
-4.93172159377e-05
-5.33731623632e-05
4.72705048879e-05
-5.77160931982e-05
-4.24730430032e-05
2.88217977411e-05
-5.12739389187e-05
-2.77605047521e-05
6.75270355034e-06
-3.67033700841e-05
-1.530088606e-05
-7.40916648934e-06
-2.28949105264e-05
-7.14215510207e-06
-1.05362854998e-05
-1.30369966078e-05
-2.54097989802e-06
-8.74449981439e-06
-7.01496171503e-06
-4.10678161671e-07
-5.88790704671e-06
-3.6895407319e-06
3.5946367921e-07
-3.53244465015e-06
-1.95073465649e-06
5.10197276967e-07
-2.00184200264e-06
-1.05190766537e-06
4.37795081253e-07
-1.11803742354e-06
-5.6866375466e-07
3.23107957989e-07
-6.43545708383e-07
-2.8734484142e-07
2.22054731616e-07
-3.90315564004e-07
-1.06190091049e-07
1.50771992708e-07
-2.54743937483e-07
1.43901622136e-08
1.0395833714e-07
-1.70931522267e-07
8.76421775291e-08
7.07461037977e-08
-1.08083693346e-07
1.19906094512e-07
5.05187482175e-08
-5.74953356894e-08
1.1758213413e-07
3.89282678302e-08
-1.72066140999e-08
8.50674885509e-08
3.44965390827e-08
1.51248684229e-08
3.10620367199e-08
3.78868527913e-08
3.49229718173e-08
-2.09086352235e-08
4.36478240992e-08
3.01329515479e-08
-5.6638379547e-08
5.30751077191e-08
9.55439482301e-09
-7.90310170719e-08
6.35874892057e-08
-8.41804102047e-09
-7.27838399004e-08
7.37774229213e-08
-4.16456458542e-08
-2.08657588557e-08
8.12723940701e-08
-9.02972276155e-08
7.57599386756e-08
8.45115775908e-08
-1.36172798384e-07
1.90740013094e-07
8.21097603115e-08
-1.53101830555e-07
2.89721132767e-07
7.63540554877e-08
-1.34183459756e-07
3.57797065467e-07
6.8856873476e-08
-9.96453640234e-08
3.92138625267e-07
5.96394768058e-08
-6.15977423283e-08
3.91505153643e-07
5.04211142472e-08
-2.23474119949e-08
3.52056738537e-07
4.24333486938e-08
2.01857848306e-08
2.67103124794e-07
3.54115790034e-08
6.90811623709e-08
1.42719254431e-07
3.39471351374e-08
1.09725759066e-07
3.97540746031e-08
1.28133848401e-07
2.65715400939e-05
-2.86767708603e-05
-1.8770178256e-05
4.47945041313e-05
-4.07999071773e-05
-6.51413348359e-06
4.23255613529e-05
-6.13821904361e-05
2.03338965573e-05
2.37711990267e-05
-7.63722947395e-05
4.16354788696e-05
-1.12259508506e-06
-8.45885905724e-05
5.06477982319e-05
-2.66646802246e-05
-8.49153561049e-05
5.13351717841e-05
-4.68608783322e-05
-7.62830326562e-05
4.31061331719e-05
-5.47965563403e-05
-5.99689383862e-05
2.54316042912e-05
-4.85408002406e-05
-3.87388160358e-05
4.72253809729e-06
-3.47507429348e-05
-2.09738333188e-05
-8.11716441225e-06
-2.1751279942e-05
-9.54540737291e-06
-1.05962814613e-05
-1.24834662283e-05
-3.22029097334e-06
-8.58857305496e-06
-6.80574525943e-06
-3.61430885184e-07
-5.72703003092e-06
-3.64471363003e-06
6.29579479938e-07
-3.43119859044e-06
-1.96787592404e-06
7.88023417422e-07
-1.95470578306e-06
-1.08285313354e-06
6.56879991736e-07
-1.10414283084e-06
-5.9638332693e-07
4.79905012388e-07
-6.43297057896e-07
-3.07553797638e-07
3.28432104587e-07
-3.95233160972e-07
-1.19871203366e-07
2.23783719282e-07
-2.60717427411e-07
5.16862675061e-09
1.55229863674e-07
-1.76332825479e-07
8.12939201182e-08
1.07234899093e-07
-1.12636412671e-07
1.17012123465e-07
7.81876435805e-08
-6.34128283846e-08
1.1655413909e-07
6.18471809422e-08
-2.24912336521e-08
8.5015133813e-08
5.56522274503e-08
1.03491355879e-08
3.19987791659e-08
5.99976921779e-08
3.08691712595e-08
-1.91803348167e-08
6.74781780191e-08
2.73119148884e-08
-5.44980521e-08
8.0600273162e-08
7.75652227157e-09
-7.69265210376e-08
9.46908556016e-08
-8.708947027e-09
-7.13120908864e-08
1.08769879801e-07
-4.06378184608e-08
-2.04323682854e-08
1.18462657244e-07
-8.80968004567e-08
7.49910365694e-08
1.22814085479e-07
-1.33748231097e-07
1.89112326918e-07
1.19224592734e-07
-1.51254935475e-07
2.87567035651e-07
1.10965008702e-07
-1.33083429798e-07
3.55472980442e-07
1.00213850424e-07
-9.92823087153e-08
3.89729939432e-07
8.72264506936e-08
-6.18660134014e-08
3.89070738703e-07
7.42871200682e-08
-2.32305303724e-08
3.49721309805e-07
6.28779170673e-08
1.88810963595e-08
2.65029405599e-07
5.28462914243e-08
6.72330459914e-08
1.41327911171e-07
5.05018885308e-08
1.07119417819e-07
5.60710852145e-08
1.24982389425e-07
2.34924938042e-05
-3.34171433967e-05
-1.87522171496e-05
4.04334267902e-05
-4.84885556462e-05
-9.25235604461e-06
3.83809285775e-05
-7.3620539251e-05
1.42908179985e-05
2.15037301867e-05
-9.31237614075e-05
3.36286708116e-05
-1.23240394642e-06
-0.000103617359751
4.17649356274e-05
-2.46639351718e-05
-0.00010390336433
4.24195871359e-05
-4.32299039117e-05
-9.28482848111e-05
3.51312646098e-05
-5.04682243762e-05
-7.21340571951e-05
1.94034537137e-05
-4.46015699327e-05
-4.59799922814e-05
1.37449635966e-06
-3.20038101039e-05
-2.43396091863e-05
-9.23203990381e-06