/*--------------------------------*- C++ -*----------------------------------*\
| =========                 |                                                 |
| \\      /  F ield         | OpenFOAM: The Open Source CFD Toolbox           |
|  \\    /   O peration     | Version:  3.0.1                                 |
|   \\  /    A nd           | Web:      www.OpenFOAM.org                      |
|    \\/     M anipulation  |                                                 |
\*---------------------------------------------------------------------------*/
FoamFile
{
    version     2.0;
    format      ascii;
    class       volVectorField;
    location    "4";
    object      U;
}
// * * * * * * * * * * * * * * * * * * * * * * * * * * * * * * * * * * * * * //

dimensions      [0 1 -1 0 0 0 0];

internalField   nonuniform List<vector> 
15984
(
(0.00169201501906 0.000312526541228 -0.0011583562992)
(0.00499752538311 0.000183725586732 -0.000939346577943)
(0.00684218036388 0.000767544302007 -0.000782030190981)
(0.00535083325277 0.00146880215546 -0.000646984535718)
(0.00157265010752 0.00190066643429 -0.000616450364936)
(-0.00303368449471 0.00193703122873 -0.000559839599381)
(-0.00742195194891 0.00154633083824 -0.000482317685286)
(-0.0100210486196 0.000856698247707 -0.000410972322804)
(-0.0103414755516 0.000168187629092 -0.000335719065034)
(-0.0087416286818 -0.000298555929806 -0.000253562457745)
(-0.00663736478883 -0.000404518741185 -0.000173800964226)
(-0.00466893632846 -0.00036028703572 -0.000120272583425)
(-0.00313047714885 -0.000274528019182 -8.06040224685e-05)
(-0.00204803996545 -0.000189306858273 -5.60769225901e-05)
(-0.00131841872944 -0.000124313584174 -4.09747768514e-05)
(-0.000836228769936 -8.00661910256e-05 -3.02805486078e-05)
(-0.000518969677169 -5.20740105678e-05 -2.14459384467e-05)
(-0.000309606827773 -3.42376333573e-05 -1.48097920129e-05)
(-0.00016999482628 -2.32635996651e-05 -9.47906039842e-06)
(-7.75156944353e-05 -1.66393637853e-05 -4.94939320656e-06)
(-1.77163456103e-05 -1.26502622655e-05 -1.15373642335e-06)
(1.85362389172e-05 -1.01821925826e-05 2.34984755984e-06)
(3.62337316053e-05 -8.82267029401e-06 5.60834055898e-06)
(3.61333433936e-05 -8.07735601801e-06 8.75995578498e-06)
(2.23489398553e-05 -8.03024262064e-06 1.08732817873e-05)
(4.07966334672e-06 -8.17027567009e-06 1.15818516846e-05)
(-1.11835762822e-05 -8.67160183047e-06 1.09673839013e-05)
(-2.30607043103e-05 -9.22372735442e-06 1.03794673204e-05)
(-2.90300965627e-05 -9.87276417529e-06 8.38748223178e-06)
(-2.19768389271e-05 -1.03851560437e-05 5.091106275e-06)
(3.94366485777e-06 -1.07620382186e-05 1.39024759041e-06)
(4.37434266447e-05 -1.05753727953e-05 -1.0115105809e-06)
(8.38871209272e-05 -9.53344361971e-06 -6.44193748843e-07)
(0.000115924606828 -8.25692617785e-06 3.48428785466e-07)
(0.000136682785049 -6.86882768696e-06 2.38414418837e-06)
(0.000145060026405 -5.66385895202e-06 4.97783110876e-06)
(0.000139573149031 -4.29478148348e-06 7.33290884782e-06)
(0.000119326879399 -3.21194415678e-06 1.08359981849e-05)
(8.33235545633e-05 -3.52537101311e-06 1.50901956578e-05)
(3.58836659733e-05 -6.32557893651e-06 2.21193536629e-05)
(0.00140426926241 0.00178728797041 -0.00200504808956)
(0.00524127392606 0.00233700781747 -0.00283362248884)
(0.00730699345815 0.00443142857473 -0.00313418656273)
(0.00573724443404 0.00647187142564 -0.0031635511821)
(0.00172809592366 0.00761494439102 -0.00320613922771)
(-0.00311462789549 0.00766994630895 -0.00311704675112)
(-0.00770990723742 0.00659729303825 -0.00289832230352)
(-0.0104937846191 0.00459998735351 -0.00260088183544)
(-0.0106800019013 0.00228777334489 -0.00212594751255)
(-0.00888716800625 0.000610351387515 -0.00154303319451)
(-0.00661711894702 -0.000195824206599 -0.00100124277936)
(-0.00459234024948 -0.000452616329748 -0.000599353495426)
(-0.00305350800617 -0.000448480099419 -0.000345787115801)
(-0.00198876377893 -0.000353778572667 -0.000194690345675)
(-0.00127983801978 -0.000249956483587 -0.000112963040449)
(-0.000813623798873 -0.000167522761935 -6.87115835561e-05)
(-0.000506764635601 -0.000110763469478 -4.29981531992e-05)
(-0.000303602156894 -7.37725962401e-05 -2.73817305295e-05)
(-0.000167766165786 -5.07288114944e-05 -1.71048475237e-05)
(-7.74426851215e-05 -3.65873647204e-05 -9.77370748509e-06)
(-1.87060826702e-05 -2.78972159943e-05 -4.45546422907e-06)
(1.7100003682e-05 -2.24284603299e-05 -1.69731325269e-07)
(3.4588797086e-05 -1.96538447661e-05 3.91127329986e-06)
(3.42478658037e-05 -1.83558849333e-05 7.71129900286e-06)
(2.0043784064e-05 -1.81976789061e-05 1.01727547659e-05)
(1.49222468903e-06 -1.88851918877e-05 1.06902153101e-05)
(-1.3587962638e-05 -2.02583380998e-05 9.87142633043e-06)
(-2.51246708084e-05 -2.17207430957e-05 9.24187280238e-06)
(-3.07939324635e-05 -2.32483955523e-05 7.23602364596e-06)
(-2.31590904872e-05 -2.46249505353e-05 3.41451985726e-06)
(3.99363552618e-06 -2.53053541466e-05 -7.99639578481e-07)
(4.57506098159e-05 -2.48438146013e-05 -3.19064040616e-06)
(8.74243018596e-05 -2.27463909193e-05 -1.78526165152e-06)
(0.000120069663827 -2.02846858939e-05 6.51738747905e-07)
(0.000140769839744 -1.73523742815e-05 3.74775171644e-06)
(0.000148726575726 -1.47713944801e-05 7.24152186527e-06)
(0.00014259371559 -1.20251114882e-05 1.04599445317e-05)
(0.000121329507331 -9.87934610391e-06 1.49979515591e-05)
(8.36097084536e-05 -1.02401580365e-05 1.97519398979e-05)
(3.29502996189e-05 -1.45994799284e-05 2.30212607261e-05)
(0.00155816792525 0.00395273906811 -0.00214696822273)
(0.00612565243755 0.00568427482762 -0.00333088332838)
(0.0084431167778 0.00941912235306 -0.00337910773686)
(0.00655265343411 0.0128208818924 -0.00315395902147)
(0.00203088233113 0.0146467631478 -0.00309919309383)
(-0.0033348977704 0.0146982267072 -0.00299946143822)
(-0.0084248222939 0.0129017228605 -0.00284243275143)
(-0.0115415615722 0.00950947041453 -0.00273069018918)
(-0.0116140402012 0.00551134691776 -0.002474147643)
(-0.00947054253656 0.00240873123113 -0.00195973254794)
(-0.00684512547548 0.000640463808527 -0.00133122849327)
(-0.00460833923648 -0.000157148918962 -0.000812995128013)
(-0.0029842265201 -0.000393950249806 -0.000467193072144)
(-0.00190266766428 -0.000389824129006 -0.000263835336476)
(-0.00120544773233 -0.00030575110864 -0.0001493545128)
(-0.000758940971436 -0.000216442766123 -8.86710211505e-05)
(-0.000469600870721 -0.00014719823644 -5.53262905518e-05)
(-0.000279146036178 -9.98567295514e-05 -3.59423967826e-05)
(-0.000151675951546 -6.95787691587e-05 -2.35002853592e-05)
(-6.66059387291e-05 -5.05550205117e-05 -1.51046171625e-05)
(-1.10300551059e-05 -3.85468777891e-05 -9.07626398685e-06)
(2.26567740118e-05 -3.08176898217e-05 -4.50380353604e-06)
(3.86133302157e-05 -2.6967215125e-05 1.41110533551e-07)
(3.72672797418e-05 -2.55067497334e-05 4.17401269205e-06)
(2.21028456814e-05 -2.53874282384e-05 6.60367879093e-06)
(2.74868025717e-06 -2.66083738235e-05 7.07374791908e-06)
(-1.26786538717e-05 -2.87729734897e-05 6.09373426687e-06)
(-2.44301089672e-05 -3.10818462156e-05 5.45974409067e-06)
(-3.03628297528e-05 -3.34077734364e-05 3.34497029381e-06)
(-2.26305298627e-05 -3.54301812032e-05 -9.28873614334e-07)
(5.11413931125e-06 -3.62520578228e-05 -5.54412038947e-06)
(4.78208145457e-05 -3.55673587851e-05 -7.91838274245e-06)
(9.00410735107e-05 -3.31380057066e-05 -6.11217801113e-06)
(0.00012274085942 -3.03386940722e-05 -2.90903447521e-06)
(0.000143187797329 -2.68142980396e-05 6.57939221414e-07)
(0.000150555113814 -2.3543733201e-05 4.47565078704e-06)
(0.000143739248586 -2.04665360567e-05 8.27442166197e-06)
(0.000121360010271 -1.81104083816e-05 1.32846940934e-05)
(8.17442781932e-05 -1.85692851158e-05 1.76963395485e-05)
(3.12281097968e-05 -2.22572529681e-05 1.77080645866e-05)
(0.00209798920042 0.00561477900477 -0.00211704718187)
(0.00776019439035 0.0083036799065 -0.00308095212033)
(0.0103528903365 0.0132422649847 -0.00241104250736)
(0.00790946047005 0.0175618327165 -0.00157920504767)
(0.00251441001298 0.0198470648473 -0.00127546216499)
(-0.0037439086599 0.0198973112829 -0.00117220204539)
(-0.0096866377488 0.0175932091216 -0.00125215289871)
(-0.0133383451199 0.0132200847535 -0.00167577457475)
(-0.0133115466597 0.00799354572368 -0.00203231414739)
(-0.0106193032117 0.0038475120231 -0.00191744631848)
(-0.00742875484771 0.00137819832314 -0.00142245320087)
(-0.00481702018209 0.000165240866641 -0.000910085696043)
(-0.00300057292261 -0.000280405986258 -0.000539106190208)
(-0.00184995638825 -0.000365646644162 -0.000309250636159)
(-0.00114054567981 -0.000314447708239 -0.000177068596563)
(-0.000704229291685 -0.000231861718174 -0.000104268626252)
(-0.000430122040249 -0.000160299398671 -6.50228474475e-05)
(-0.000252624640897 -0.0001091252995 -4.27582292596e-05)
(-0.000134283701493 -7.57776959835e-05 -2.90519410709e-05)
(-5.50178286026e-05 -5.45116127272e-05 -1.98298767594e-05)
(-3.02726076861e-06 -4.07716276653e-05 -1.31986427671e-05)
(2.81323510035e-05 -3.21431966522e-05 -8.29556903689e-06)
(4.21233615077e-05 -2.74645596118e-05 -3.51757661453e-06)
(3.95380559884e-05 -2.62358881036e-05 8.84372927073e-07)
(2.34256987651e-05 -2.64014001505e-05 3.34823159459e-06)
(3.21758235991e-06 -2.79571232907e-05 3.61028208025e-06)
(-1.26367903772e-05 -3.07627986938e-05 2.38075186812e-06)
(-2.45550248438e-05 -3.37871735852e-05 1.54544536455e-06)
(-3.05687692878e-05 -3.66313064125e-05 -1.00862303884e-06)
(-2.2576997814e-05 -3.89623617938e-05 -5.67041293034e-06)
(5.86965850219e-06 -3.9942259644e-05 -1.05509057728e-05)
(4.9513079239e-05 -3.90764301513e-05 -1.28541979004e-05)
(9.22879077078e-05 -3.65647290597e-05 -1.08149530583e-05)
(0.000125125840132 -3.34892738629e-05 -7.18895213469e-06)
(0.000145433912591 -2.97626422314e-05 -3.29198417882e-06)
(0.000152398824468 -2.61701974218e-05 7.49378639637e-07)
(0.000145067570409 -2.29017445303e-05 4.93065197058e-06)
(0.000121775006334 -2.03288000898e-05 1.01864237762e-05)
(8.09040984008e-05 -2.02596980411e-05 1.43099530708e-05)
(3.0704658226e-05 -2.1661247385e-05 1.37984526737e-05)
(0.00291777477843 0.00663980423605 -0.00210373691616)
(0.00989960004149 0.00983795066416 -0.00258325829231)
(0.0127722915572 0.0153380590004 -0.000965316795332)
(0.00964366708209 0.0199784806346 0.000647728814968)
(0.00314178956242 0.0224311806036 0.00131104362688)
(-0.00430875080048 0.0224809346187 0.00141104807643)
(-0.0113355787904 0.0199485878208 0.000959963316914)
(-0.0156208502636 0.0151843378284 -0.00018295187829)
(-0.0155026906198 0.0094008358342 -0.00133759585118)
(-0.0121600428014 0.00475212080727 -0.00174324782137)
(-0.00827942370397 0.00191020897168 -0.00144808934718)
(-0.00518612421691 0.000448861649729 -0.000982181883407)
(-0.00310309815975 -0.000144990409902 -0.000597853062978)
(-0.00183728838107 -0.00030457105355 -0.000345795610665)
(-0.00109303247069 -0.000287730567017 -0.000199698906347)
(-0.000656179076113 -0.000220756821495 -0.000116530849733)
(-0.000392938428612 -0.000154604528385 -7.16989043264e-05)
(-0.000227015219057 -0.000105314859295 -4.70872189799e-05)
(-0.000117400525156 -7.26438498279e-05 -3.23673446123e-05)
(-4.37721647992e-05 -5.15977755901e-05 -2.25325286948e-05)
(4.54668466055e-06 -3.77012733319e-05 -1.54734208329e-05)
(3.31941397032e-05 -2.91326243201e-05 -1.02262052372e-05)
(4.5131931068e-05 -2.44693542118e-05 -5.38905458177e-06)
(4.10623418731e-05 -2.32739273047e-05 -9.08286428885e-07)
(2.41070402376e-05 -2.37903389291e-05 1.64068561858e-06)
(3.07663438682e-06 -2.55485027745e-05 1.66322101875e-06)
(-1.32591668688e-05 -2.86557728295e-05 1.53564319358e-07)
(-2.52665785052e-05 -3.19818862136e-05 -1.03632413578e-06)
(-3.12202431538e-05 -3.51459554741e-05 -4.22523762307e-06)
(-2.28589644244e-05 -3.75538409968e-05 -9.10340395378e-06)
(6.39490420536e-06 -3.85161326258e-05 -1.41297217653e-05)
(5.09592149926e-05 -3.75401546164e-05 -1.63282947821e-05)
(9.42732406077e-05 -3.50968183093e-05 -1.41089200021e-05)
(0.000127314900859 -3.20434408402e-05 -1.02061731148e-05)
(0.000147583703497 -2.83922217041e-05 -5.99104353809e-06)
(0.000154272837608 -2.48385512269e-05 -1.78109077509e-06)
(0.000146596482055 -2.16591312934e-05 2.6620571813e-06)
(0.00012267280226 -1.90272030246e-05 8.09467195043e-06)
(8.12201301573e-05 -1.85213898884e-05 1.22419236612e-05)
(3.09473213241e-05 -1.82979813894e-05 1.25426988308e-05)
(0.00385698743471 0.00684784105731 -0.00211004083629)
(0.0121854846651 0.0100542751526 -0.00203713878495)
(0.0153096054628 0.0154051978287 0.00052748804596)
(0.0114351842733 0.0196620848777 0.00284108731825)
(0.00377208826343 0.0219191281199 0.00377674048675)
(-0.00487987888696 0.0219774435388 0.00387034997708)
(-0.013040354996 0.0196136982554 0.00311286124022)
(-0.0179863885223 0.0151450845143 0.00133124835578)
(-0.0178485799117 0.00956282589898 -0.000610082041449)
(-0.0138490232093 0.00498944387079 -0.00154752614844)
(-0.00925932391444 0.00213738667965 -0.00145570950515)
(-0.00564739828748 0.000619497302497 -0.00104111366699)
(-0.00326149022083 -2.95890322611e-05 -0.000648983104348)
(-0.00185563133871 -0.000231701833827 -0.000377610178176)
(-0.00106226166423 -0.00024138882459 -0.00021588530002)
(-0.000617286564745 -0.000191809597321 -0.000125702227553)
(-0.000360446488252 -0.000136034907584 -7.54900250513e-05)
(-0.000204068036972 -9.25105269523e-05 -4.89098320914e-05)
(-0.000102168633572 -6.3212436254e-05 -3.37301739316e-05)
(-3.35777217756e-05 -4.43202351714e-05 -2.35523658538e-05)
(1.1438927628e-05 -3.16641280333e-05 -1.61663819457e-05)
(3.7570917393e-05 -2.36322683284e-05 -1.06509861176e-05)
(4.76176035029e-05 -1.97168510172e-05 -5.73704752153e-06)
(4.2210113974e-05 -1.83963459999e-05 -1.32376666827e-06)
(2.43366622508e-05 -1.91948701736e-05 1.09802245958e-06)
(2.58115324664e-06 -2.10081215718e-05 9.59216717159e-07)
(-1.41881390267e-05 -2.41089848647e-05 -8.60193710799e-07)
(-2.63096984785e-05 -2.73369985743e-05 -2.48260848187e-06)
(-3.2132855254e-05 -3.05759253326e-05 -6.01493284136e-06)
(-2.32625024179e-05 -3.28173337819e-05 -1.11783794769e-05)
(6.80344438457e-06 -3.36560148166e-05 -1.6277654089e-05)
(5.22114948334e-05 -3.26512690493e-05 -1.83622200154e-05)
(9.60128791737e-05 -3.04077644116e-05 -1.59729078779e-05)
(0.000129276736036 -2.75974978283e-05 -1.18518953137e-05)
(0.000149555864985 -2.42643684407e-05 -7.39781747326e-06)
(0.000156052446627 -2.10299016619e-05 -3.05316783645e-06)
(0.00014817456879 -1.81493485318e-05 1.59218096618e-06)
(0.00012384150679 -1.56418475377e-05 7.16849006989e-06)
(8.21848399532e-05 -1.48859235165e-05 1.15098044345e-05)
(3.15156327797e-05 -1.38643515193e-05 1.26643971793e-05)
(0.00473029221587 0.00624063968075 -0.00212497517572)
(0.0142596495006 0.00900636938544 -0.0015606832326)
(0.0175518355127 0.0136499591318 0.00178770100239)
(0.0130602584103 0.0171684719781 0.00456935902783)
(0.00433202176922 0.0190818125819 0.00573089852215)
(-0.00537012389619 0.019151280105 0.00582480285281)
(-0.0145641542803 0.0171447462845 0.00481603877378)
(-0.020086227428 0.0133691788236 0.00258673865128)
(-0.0200229370547 0.00856112758972 1.97060909872e-05)
(-0.0154441812032 0.00457297170428 -0.00137435215346)
(-0.0102212990794 0.00204182191347 -0.00145765855853)
(-0.0061225176359 0.000659234423671 -0.00108898337344)
(-0.00344166718562 4.58760960777e-05 -0.000692282381479)
(-0.00189317922423 -0.000160948729107 -0.000403646310315)
(-0.0010452399713 -0.00018668795531 -0.000228267730118)
(-0.000587916425543 -0.000152462456109 -0.000131162005593)
(-0.000334217386575 -0.000109691795426 -7.72991869598e-05)
(-0.000184918594293 -7.43867050774e-05 -4.91541775593e-05)
(-8.93991425817e-05 -5.03120523147e-05 -3.3471606882e-05)
(-2.50661450239e-05 -3.47761296636e-05 -2.34661336596e-05)
(1.72674531512e-05 -2.41949777701e-05 -1.58499286171e-05)
(4.12254000933e-05 -1.76317643703e-05 -1.01942051181e-05)
(4.96052373918e-05 -1.433628348e-05 -5.20594429395e-06)
(4.30031933888e-05 -1.3157835771e-05 -9.36302924155e-07)
(2.42767109177e-05 -1.40838866533e-05 1.36059726584e-06)
(1.91397577628e-06 -1.5718305564e-05 1.02128775069e-06)
(-1.5227859684e-05 -1.85137223396e-05 -9.87965963897e-07)
(-2.74322388251e-05 -2.14010478736e-05 -3.04926189354e-06)
(-3.30882087169e-05 -2.4249287119e-05 -6.80644341865e-06)
(-2.36898841136e-05 -2.61856634557e-05 -1.22172575625e-05)
(7.13101358911e-06 -2.68447029892e-05 -1.73877705068e-05)
(5.32716974987e-05 -2.58965573184e-05 -1.93439337876e-05)
(9.74780335526e-05 -2.39707259741e-05 -1.68131033998e-05)
(0.000130946769836 -2.15889539827e-05 -1.2495264499e-05)
(0.000151255431399 -1.87803584984e-05 -7.87496729056e-06)
(0.000157615358779 -1.6065470762e-05 -3.4024960471e-06)
(0.000149629167537 -1.36588589385e-05 1.37048971369e-06)
(0.000125030664101 -1.14892609227e-05 7.06389045574e-06)
(8.32882345249e-05 -1.06543274979e-05 1.1639546559e-05)
(3.21102663339e-05 -9.43925630364e-06 1.32527440068e-05)
(0.0054665051415 0.00492813597311 -0.00215565671435)
(0.0159045487892 0.00696497218028 -0.00125009992333)
(0.0193095741602 0.0105089560647 0.0026713699579)
(0.014450420782 0.0129916996428 0.0057202743926)
(0.0048381481336 0.0144195246746 0.00692659497677)
(-0.00578172883396 0.0144924056851 0.00701781190997)
(-0.01582016198 0.0130108766517 0.00598347716779)
(-0.0217353589857 0.0102692553474 0.00346191979552)
(-0.021776692975 0.00664616661224 0.000478150637991)
(-0.0167539805822 0.00361744986164 -0.00124773855405)
(-0.011040111098 0.0016617699602 -0.00145875629077)
(-0.00654124834684 0.000571374201425 -0.00112491692462)
(-0.00360974744603 7.4243077701e-05 -0.000724831577421)
(-0.00193586270291 -0.000100983392522 -0.000423063397138)
(-0.00103779141638 -0.000130485262412 -0.000237119347645)
(-0.000567458966126 -0.000108955013872 -0.000133348685228)
(-0.000314843503148 -7.92129003901e-05 -7.82467042347e-05)
(-0.000170299351822 -5.3596140372e-05 -4.85514468093e-05)
(-7.95802804686e-05 -3.59261081818e-05 -3.27336288624e-05)
(-1.8438306811e-05 -2.44676299391e-05 -2.27557392839e-05)
(2.16933965158e-05 -1.6513875598e-05 -1.51280010806e-05)
(4.39483639915e-05 -1.18524599559e-05 -9.23670909005e-06)
(5.11521102245e-05 -9.30872981963e-06 -4.31565623707e-06)
(4.35065151642e-05 -8.44456798513e-06 -2.10752819072e-07)
(2.40841023654e-05 -9.25930784509e-06 2.0139729114e-06)
(1.26715339216e-06 -1.05659164289e-05 1.47789927713e-06)
(-1.61997559969e-05 -1.27417091295e-05 -7.36903908455e-07)
(-2.84375330854e-05 -1.50327194531e-05 -3.05069169009e-06)
(-3.39229406427e-05 -1.71856081081e-05 -6.99722929973e-06)
(-2.40733793433e-05 -1.8674700745e-05 -1.26203069162e-05)
(7.39477613398e-06 -1.91042407457e-05 -1.78399144203e-05)
(5.41164882692e-05 -1.83137072919e-05 -1.96794724581e-05)
(9.86275416168e-05 -1.68166843202e-05 -1.70175678686e-05)
(0.000132257197177 -1.50161978149e-05 -1.25477717915e-05)
(0.000152600563089 -1.28965859115e-05 -7.817380677e-06)
(0.000158862252809 -1.0858010255e-05 -3.25660906473e-06)
(0.000150812523646 -9.06389297129e-06 1.61993779047e-06)
(0.000126044652311 -7.40853746074e-06 7.4120614298e-06)
(8.42275733309e-05 -6.6317544257e-06 1.21539371156e-05)
(3.25645696543e-05 -5.47490169823e-06 1.38660874468e-05)
(0.00598710828122 0.00310444078566 -0.00220001424189)
(0.0170083136521 0.00431307739044 -0.00112486790394)
(0.0205001693019 0.00649444310347 0.00313809255568)
(0.0154243122588 0.00790374337922 0.00626182446487)
(0.005210729746 0.00877862871744 0.00729290660616)
(-0.00605749858588 0.00883311947843 0.00739227628715)
(-0.0166736506997 0.00794383575694 0.00655825914663)
(-0.0228181990415 0.00635031352963 0.00393396722853)
(-0.0229789553934 0.0041504114258 0.000745113904481)
(-0.0176621650026 0.00228695834045 -0.00117481539646)
(-0.0116257223284 0.00106891334347 -0.00146062097503)
(-0.00684805750167 0.000380182156665 -0.00114850690065)
(-0.00373730939304 6.08805707688e-05 -0.000746077652823)
(-0.00197158231382 -5.45784665617e-05 -0.000435496502426)
(-0.00103566939308 -7.65444873294e-05 -0.000242490611812)
(-0.000554673975433 -6.48767777261e-05 -0.000134395367844)
(-0.000302143145583 -4.71756202685e-05 -7.79164590705e-05)
(-0.000160562770221 -3.1853719948e-05 -4.77205817886e-05)
(-7.29943205035e-05 -2.11279501342e-05 -3.18519364365e-05)
(-1.39879681716e-05 -1.42288047173e-05 -2.19405870185e-05)
(2.46820965483e-05 -9.33617965033e-06 -1.44150816851e-05)
(4.57766630033e-05 -6.49226289976e-06 -8.35942865474e-06)
(5.21550287181e-05 -4.98896521097e-06 -3.50396704672e-06)
(4.37880457509e-05 -4.53930526329e-06 4.82332080075e-07)
(2.38829492324e-05 -5.05468297585e-06 2.63140750501e-06)
(7.5668398978e-07 -5.89437347029e-06 2.01619346039e-06)
(-1.69248063589e-05 -7.24381106906e-06 -3.8680987909e-07)
(-2.91764352296e-05 -8.69017953091e-06 -2.83513312005e-06)
(-3.45218902042e-05 -9.99248166054e-06 -6.94757569183e-06)
(-2.43377214142e-05 -1.08791181168e-05 -1.26821653332e-05)
(7.59717948753e-06 -1.10585953244e-05 -1.7942615696e-05)
(5.47144782109e-05 -1.05056841129e-05 -1.96924920326e-05)
(9.94220097921e-05 -9.53920845273e-06 -1.69319203462e-05)
(0.000133156137266 -8.42326432832e-06 -1.23604806049e-05)
(0.000153525630786 -7.11760488435e-06 -7.55896814828e-06)
(0.000159717127301 -5.87152064962e-06 -2.9390600926e-06)
(0.000151627146576 -4.79064213097e-06 2.0055806019e-06)
(0.000126755319783 -3.75996707881e-06 7.87057128125e-06)
(8.48662820655e-05 -3.16010413295e-06 1.27109716684e-05)
(3.28345837217e-05 -2.06437794295e-06 1.4329344502e-05)
(0.0062510062579 0.00100719125649 -0.00223476628794)
(0.0175473195343 0.00139733190637 -0.00110652242373)
(0.0211237952939 0.00211541780096 0.00328722237476)
(0.0158917889752 0.00256684322157 0.00642175129195)
(0.00538027373968 0.00284644710143 0.00740682178642)
(-0.00617370653406 0.00286803908179 0.00751341524121)
(-0.0170960890688 0.0025884541655 0.00673062211797)
(-0.0233380079772 0.00207850112647 0.00410565571897)
(-0.0235786207986 0.00136105408064 0.000863042002587)
(-0.0181176209568 0.000748175030362 -0.00114534048246)
(-0.0119252160414 0.000349006839368 -0.00146250285051)
(-0.00700696561574 0.00012309374268 -0.00116008614971)
(-0.00380442316975 1.84780889799e-05 -0.000756290443598)
(-0.00199100943946 -1.89351810452e-05 -0.000441359818168)
(-0.00103520975649 -2.55919175049e-05 -0.00024482784179)
(-0.000548425886345 -2.13005302522e-05 -0.000134799820543)
(-0.000295825129207 -1.51687039004e-05 -7.7231628605e-05)
(-0.000155734378938 -1.00273140561e-05 -4.71274839819e-05)
(-6.97260607143e-05 -6.44444904933e-06 -3.12876558772e-05)
(-1.17672477788e-05 -4.20910897609e-06 -2.1443165168e-05)
(2.61863393828e-05 -2.61174786095e-06 -1.39782717869e-05)
(4.6655611756e-05 -1.72882718849e-06 -7.86257897282e-06)
(5.26024979323e-05 -1.3218964394e-06 -2.98636689956e-06)
(4.38983143771e-05 -1.25057422224e-06 9.15610902952e-07)
(2.37785336759e-05 -1.41987588493e-06 2.97986252475e-06)
(4.97684196161e-07 -1.68069743965e-06 2.31836833913e-06)
(-1.72995495153e-05 -2.10022710209e-06 -1.87717399248e-07)
(-2.95467992128e-05 -2.53268652783e-06 -2.65395657322e-06)
(-3.48033218114e-05 -2.88345593299e-06 -6.85086081485e-06)
(-2.44349574652e-05 -3.06378374078e-06 -1.2645765105e-05)
(7.73896547615e-06 -2.99723917023e-06 -1.79182314939e-05)
(5.50414873788e-05 -2.73259568874e-06 -1.96148133603e-05)
(9.98326541782e-05 -2.36578557123e-06 -1.67992163878e-05)
(0.000133607187406 -1.99425835164e-06 -1.21763413699e-05)
(0.00015398444442 -1.58742858874e-06 -7.34556529176e-06)
(0.000160130639842 -1.21677171356e-06 -2.70772010247e-06)
(0.000152012453547 -9.01527444454e-07 2.29301217993e-06)
(0.000127085323701 -5.60989456356e-07 8.19491257705e-06)
(8.51531900876e-05 -2.08071180428e-07 1.30655742786e-05)
(3.29405657365e-05 9.00786276345e-07 1.45872170795e-05)
(0.00624817171168 -0.00117095893933 -0.00223611286797)
(0.0175422820414 -0.00158169534335 -0.00110834620074)
(0.0211175998937 -0.00233010672127 0.00328548078463)
(0.0158864989932 -0.00279468855828 0.00642111934327)
(0.00537889232123 -0.00308230970042 0.00740478765498)
(-0.00617052020351 -0.00309838351365 0.00751102878136)
(-0.0170888625874 -0.00280478236998 0.00672954273162)
(-0.0233301314846 -0.002272278706 0.00410184693149)
(-0.0235673206151 -0.00151536773865 0.000858450886552)
(-0.0181062651513 -0.000853777846531 -0.00114760642879)
(-0.0119160174777 -0.000411280074137 -0.00146303752536)
(-0.00700101029296 -0.000155722123722 -0.00115988093523)
(-0.00380105104041 -3.38437091029e-05 -0.000755971128547)
(-0.00198925107308 1.27963283757e-05 -0.00044111843793)
(-0.00103435414313 2.40761616365e-05 -0.000244653758831)
(-0.000548054634051 2.19755244909e-05 -0.000134703107402)
(-0.000295695511489 1.66291395356e-05 -7.72232437846e-05)
(-0.00015570224031 1.17418304891e-05 -4.7124856614e-05)
(-6.97482454851e-05 8.14696392794e-06 -3.12721049987e-05)
(-1.18204589437e-05 5.73152829573e-06 -2.14390587591e-05)
(2.61248372365e-05 3.8851791431e-06 -1.39876396251e-05)
(4.65944421905e-05 2.75166400051e-06 -7.85129769431e-06)
(5.25471945411e-05 2.09583304316e-06 -2.98700813826e-06)
(4.38756937997e-05 1.81964189884e-06 9.17405461366e-07)
(2.37871725286e-05 1.9946892275e-06 2.99674848835e-06)
(5.20430315419e-07 2.31333548271e-06 2.33145887943e-06)
(-1.72558296957e-05 2.85968360982e-06 -1.75993485398e-07)
(-2.9483877851e-05 3.50984984306e-06 -2.63032293434e-06)
(-3.47197529901e-05 4.14678752062e-06 -6.82769001977e-06)
(-2.43405464938e-05 4.70157788519e-06 -1.26002975364e-05)
(7.8127223502e-06 5.00164203957e-06 -1.78750566229e-05)
(5.50832026006e-05 4.95789371804e-06 -1.95606793845e-05)
(9.98441927198e-05 4.69946033771e-06 -1.67412442565e-05)
(0.000133589919 4.30458198483e-06 -1.21185248269e-05)
(0.000153945317698 3.7808370504e-06 -7.2899004315e-06)
(0.000160076732256 3.24026655829e-06 -2.65538981365e-06)
(0.000151944514858 2.77405237335e-06 2.35327483249e-06)
(0.000127001584674 2.40112001294e-06 8.25615743697e-06)
(8.50768219954e-05 2.48615420804e-06 1.3118122082e-05)
(3.28977419965e-05 3.65391183162e-06 1.46201827526e-05)
(0.00597867883966 -0.00325922727674 -0.00220379655918)
(0.0169921427192 -0.00448943711864 -0.00113054712672)
(0.0204812812318 -0.0067045239597 0.00313083544343)
(0.015409477811 -0.00813126648503 0.00625525927967)
(0.00520674411833 -0.00901285891819 0.00728645225663)
(-0.00604741687312 -0.00906056613947 0.0073850659062)
(-0.0166539751719 -0.0081558542907 0.00654844123764)
(-0.0227939988677 -0.00653504913981 0.0039219051036)
(-0.0229453457625 -0.00429401627245 0.000732673429906)
(-0.0176286515269 -0.00238458283779 -0.00118120574871)
(-0.0115988115462 -0.00112627853968 -0.00146202163149)
(-0.00683066648369 -0.000410255391609 -0.00114795590188)
(-0.00372746783273 -7.50628298938e-05 -0.000745171710619)
(-0.00196644183768 4.88926708497e-05 -0.000434780383404)
(-0.00103313830788 7.51567512332e-05 -0.000241985342426)
(-0.000553569215232 6.55751235867e-05 -0.000134036459704)
(-0.000301758053465 4.86472088243e-05 -7.77558010418e-05)
(-0.000160474732523 3.35839830522e-05 -4.76728714841e-05)
(-7.30660655327e-05 2.28274240847e-05 -3.18097338412e-05)
(-1.41454871201e-05 1.57533819499e-05 -2.19282696231e-05)
(2.44981129245e-05 1.06209414236e-05 -1.44293480814e-05)
(4.55921000061e-05 7.49741778359e-06 -8.32490328407e-06)
(5.19865545577e-05 5.73216668864e-06 -3.47779558601e-06)
(4.37128630487e-05 5.05640290444e-06 5.01917187354e-07)
(2.39066404452e-05 5.57364302134e-06 2.67151680445e-06)
(8.25996935706e-07 6.46116896859e-06 2.05577364001e-06)
(-1.6797255233e-05 7.92909023193e-06 -3.5283954501e-07)
(-2.89890040585e-05 9.58696296178e-06 -2.76678977202e-06)
(-3.42769587627e-05 1.118580999e-05 -6.87622214935e-06)
(-2.40631151649e-05 1.24039119463e-05 -1.25531687381e-05)
(7.8166798044e-06 1.29392307269e-05 -1.78193123938e-05)
(5.4838471146e-05 1.2597632863e-05 -1.95340826251e-05)
(9.94553389319e-05 1.17282251662e-05 -1.67600074479e-05)
(0.000133103802409 1.05832316123e-05 -1.21893904117e-05)
(0.000153409351766 9.15821835715e-06 -7.39756455057e-06)
(0.000159554930064 7.73167057099e-06 -2.78474732663e-06)
(0.000151421841449 6.49774179518e-06 2.17945199103e-06)
(0.000126503307956 5.42538845417e-06 8.05400554908e-06)
(8.46396228936e-05 5.25194561859e-06 1.28702643772e-05)
(3.27070366812e-05 6.45199239986e-06 1.44261761791e-05)
(0.00545290749382 -0.00506538801892 -0.0021610880985)
(0.0158747349973 -0.00712449895458 -0.00125984960909)
(0.0192780672004 -0.0107029870524 0.00265370298383)
(0.014424142411 -0.0132104578456 0.00570202676862)
(0.00483121109027 -0.0146415147729 0.00691555909779)
(-0.00576309320644 -0.0147060871642 0.00700622444932)
(-0.0157862315266 -0.0132088377682 0.00596220103407)
(-0.021692751864 -0.0104342402721 0.00344050110384)
(-0.0217213370791 -0.00677005094541 0.000459895896904)
(-0.0166999023024 -0.00370009082047 -0.00125704392869)
(-0.0109974253701 -0.00171007050905 -0.00146038036738)
(-0.00651378985686 -0.000596766707872 -0.00112372048496)
(-0.00359420579661 -8.63403702943e-05 -0.000723243885655)
(-0.00192772482404 9.61543939493e-05 -0.000421875870105)
(-0.00103375665288 0.000129372549251 -0.000236370635348)
(-0.000565666364067 0.000109613676883 -0.000132695037986)
(-0.000314201262978 8.06258387638e-05 -7.79176639824e-05)
(-0.000170153273404 5.53011800771e-05 -4.83817606352e-05)
(-7.9702481495e-05 3.76102152357e-05 -3.26446977163e-05)
(-1.86942625183e-05 2.59773260368e-05 -2.27091818958e-05)
(2.13775578322e-05 1.77808528863e-05 -1.50684857742e-05)
(4.36215078665e-05 1.27883850888e-05 -9.18424041505e-06)
(5.08566750573e-05 9.96087391779e-06 -4.27896955251e-06)
(4.33740459388e-05 8.88233882312e-06 -1.70548761321e-07)
(2.41184302963e-05 9.66651815002e-06 2.09016009897e-06)
(1.3729367027e-06 1.10094830286e-05 1.55148535574e-06)
(-1.59920354788e-05 1.32921800584e-05 -6.63556212732e-07)
(-2.81223327249e-05 1.57844372494e-05 -2.95348496266e-06)
(-3.3527445436e-05 1.82441087478e-05 -6.89660357606e-06)
(-2.3636994745e-05 1.99883651114e-05 -1.24071427138e-05)
(7.75176734079e-06 2.07544304065e-05 -1.76426504289e-05)
(5.43141096657e-05 2.01482945264e-05 -1.94230411113e-05)
(9.86768436807e-05 1.87319880308e-05 -1.67462152322e-05)
(0.000132168643387 1.6888795012e-05 -1.22760196869e-05)
(0.000152403056971 1.46480636761e-05 -7.55483073398e-06)
(0.000158590892568 1.2414432378e-05 -2.9863082059e-06)