/*--------------------------------*- C++ -*----------------------------------*\
| =========                 |                                                 |
| \\      /  F ield         | OpenFOAM: The Open Source CFD Toolbox           |
|  \\    /   O peration     | Version:  3.0.1                                 |
|   \\  /    A nd           | Web:      www.OpenFOAM.org                      |
|    \\/     M anipulation  |                                                 |
\*---------------------------------------------------------------------------*/
FoamFile
{
    version     2.0;
    format      ascii;
    class       surfaceVectorField;
    location    "4";
    object      Uf_0;
}
// * * * * * * * * * * * * * * * * * * * * * * * * * * * * * * * * * * * * * //

dimensions      [0 1 -1 0 0 0 0];

internalField   nonuniform List<vector> 
45932
(
(0.0033025854394 0.000248475733515 -0.00104576128437)
(0.00153990697271 0.000991648173594 -0.0015755952041)
(0.00199926122725 0.000747773985942 -0.00264295561362)
(0.00601342928636 0.00047581969816 -0.000859252052663)
(0.00509456698597 0.00117876408125 -0.00187993541803)
(0.00541727489853 0.0011057544899 -0.00253420153304)
(0.006145776909 0.00111704809347 -0.000714663917702)
(0.00704186520315 0.00245898560471 -0.00195287752566)
(0.00717370003263 0.00206889847945 -0.0025251733036)
(0.00345125683462 0.00168238834943 -0.00063301798647)
(0.00551439244077 0.0037836256106 -0.00190205435907)
(0.00557620775833 0.00299304829225 -0.00243637819844)
(-0.000730787974612 0.00191588586771 -0.000589948629064)
(0.00163118972934 0.00454357217395 -0.00190895438967)
(0.00164040219431 0.00352737386991 -0.00245256192353)
(-0.00522612900867 0.00173926528323 -0.000523115394877)
(-0.00307924734038 0.00458907058412 -0.00183648088274)
(-0.00311794754452 0.00354679411276 -0.00234141278776)
(-0.00877147959697 0.00120050146502 -0.000448634094751)
(-0.00755732174505 0.0038847383076 -0.00168833159989)
(-0.00763349142321 0.00303357432985 -0.00211207737668)
(-0.0102726689648 0.00051288524558 -0.000375033232034)
(-0.0102399734699 0.00258971937574 -0.00150347560446)
(-0.0103271153505 0.00212109640806 -0.00183914098389)
(-0.00960784393471 -6.31679430959e-05 -0.000296007231729)
(-0.01048931506 0.00114776621394 -0.00122822060829)
(-0.0106349703239 0.00110262945018 -0.00148019592045)
(-0.00771443804503 -0.000348516005675 -0.000214750470898)
(-0.00879685109203 0.000134833627616 -0.000896070101099)
(-0.00897228574199 0.000331975261735 -0.00108155304435)
(-0.00562870658073 -0.000379506809597 -0.000147774469377)
(-0.00661733135191 -0.000321897842653 -0.000585891930186)
(-0.00678750198173 -2.95958751685e-05 -0.000720982579241)
(-0.00387069231981 -0.000315018175057 -0.000100927031468)
(-0.00462929125435 -0.000422851712878 -0.000358845159233)
(-0.00476278367183 -0.00015660321932 -0.000456168177742)
(-0.00257210171652 -0.000230164148987 -6.87044623605e-05)
(-0.00309795952581 -0.000370829090235 -0.000212738216618)
(-0.00318993346194 -0.000167574586739 -0.00027847737061)
(-0.00167676319995 -0.000155616015949 -4.88737232326e-05)
(-0.00202948321663 -0.000275770879166 -0.000125272688396)
(-0.00208700967462 -0.000135727742679 -0.000171908295588)
(-0.00107878455373 -0.000101403698568 -3.60427539132e-05)
(-0.00131314385887 -0.000188608349461 -7.71026660254e-05)
(-0.00134637194316 -9.79219827428e-05 -0.000110389900825)
(-0.000683435928687 -6.55549096299e-05 -2.63900034505e-05)
(-0.000840059515529 -0.000123873180791 -4.9827349372e-05)
(-0.000858472719102 -6.67657859516e-05 -7.38092499932e-05)
(-0.000422430837374 -4.28131204835e-05 -1.87655447672e-05)
(-0.000527699728007 -8.07380180066e-05 -3.27219563165e-05)
(-0.000537642980775 -4.49856964406e-05 -4.97719883451e-05)
(-0.000248012043328 -2.85194124508e-05 -1.28583162762e-05)
(-0.000320107009126 -5.33811124921e-05 -2.17194599423e-05)
(-0.000325160489794 -3.04343348696e-05 -3.3835243913e-05)
(-0.000131028277566 -1.97978104906e-05 -7.94968211704e-06)
(-0.000180391979688 -3.65313169365e-05 -1.39877575189e-05)
(-0.000182548904714 -2.12638266897e-05 -2.19672122861e-05)
(-5.37190803527e-05 -1.45488137373e-05 -3.73786094852e-06)
(-8.66608145007e-05 -2.62449645244e-05 -8.06458520875e-06)
(-8.72016518466e-05 -1.55616367104e-05 -1.24162004056e-05)
(-4.58203570577e-06 -1.13656982531e-05 4.95633475899e-08)
(-2.51495248964e-05 -1.9951519323e-05 -3.43859364232e-06)
(-2.48046089877e-05 -1.20191422441e-05 -4.62375000634e-06)
(2.30735788732e-05 -9.49169390046e-06 3.60443026138e-06)
(1.29051164542e-05 -1.60638821321e-05 6.33101075097e-07)
(1.3719467183e-05 -9.85086809278e-06 2.22892291484e-06)
(3.26366409319e-05 -8.47511461636e-06 6.95062920502e-06)
(3.21054768162e-05 -1.40573606327e-05 4.45181849699e-06)
(3.31556001678e-05 -8.68501252318e-06 9.26817189923e-06)
(2.67932340068e-05 -8.10490180916e-06 9.67805621482e-06)
(3.29018796942e-05 -1.30910322275e-05 8.03580589433e-06)
(3.39208367678e-05 -8.23529588705e-06 1.60046310887e-05)
(1.22280125759e-05 -8.16313812492e-06 1.11342820802e-05)
(1.95906306337e-05 -1.30197743048e-05 1.03800974183e-05)
(2.0342642865e-05 -8.24603933332e-06 2.02940004799e-05)
(-4.49794804549e-06 -8.48489589836e-06 1.11780252385e-05)
(1.73800473805e-06 -1.33675601791e-05 1.10117876556e-05)
(2.14519091915e-06 -8.39305836538e-06 2.17220743417e-05)
(-1.70293755413e-05 -9.00638847133e-06 1.05275014649e-05)
(-1.28536943349e-05 -1.43128731125e-05 1.02665363723e-05)
(-1.27430188957e-05 -8.98385419801e-06 2.05702404161e-05)
(-2.47726098498e-05 -9.59698144498e-06 9.17589850072e-06)
(-2.38174050325e-05 -1.53056811875e-05 9.59080184043e-06)
(-2.40577789831e-05 -9.60083742056e-06 1.91692755368e-05)
(-2.28208228788e-05 -1.01554928895e-05 6.50054612611e-06)
(-2.86863748123e-05 -1.63327450217e-05 7.54811926073e-06)
(-2.94956978134e-05 -1.0224319617e-05 1.53493373166e-05)
(-6.02975811557e-06 -1.0567814459e-05 3.02372505584e-06)
(-2.03318290466e-05 -1.71654064259e-05 3.9932015952e-06)
(-2.15553145562e-05 -1.07395263323e-05 8.76299088151e-06)
(2.62506131171e-05 -1.06445445275e-05 3.26662466116e-08)
(7.10440226081e-06 -1.77070943816e-05 9.96821875116e-08)
(5.83645564946e-06 -1.10727087394e-05 1.56067353716e-06)
(6.6896454732e-05 -1.00281901969e-05 -9.14020660332e-07)
(4.84431184884e-05 -1.73873129725e-05 -2.20942528531e-06)
(4.74759123462e-05 -1.0940089585e-05 -2.94131115095e-06)
(0.000102876951615 -8.87329670967e-06 -1.50121484489e-07)
(8.95640259541e-05 -1.57508285216e-05 -1.24555221524e-06)
(8.89028753153e-05 -1.01196389466e-05 -2.24482023036e-06)
(0.000130015084106 -7.55554608212e-06 1.45822155414e-06)
(0.000121848994243 -1.38477886225e-05 5.57538930004e-07)
(0.00012147232311 -9.12182894079e-06 2.73392241967e-07)
(0.000144670320093 -6.28199582307e-06 3.85522077843e-06)
(0.000142211524437 -1.16832130291e-05 3.20972336106e-06)
(0.000142244949279 -8.11699753601e-06 4.35024581564e-06)
(0.000145627778675 -5.02101492274e-06 6.37775616052e-06)
(0.000149761923474 -9.80176886571e-06 6.31575386995e-06)
(0.000150073444673 -7.23821075807e-06 9.31776515239e-06)
(0.000132773327813 -3.82033742855e-06 9.31508756175e-06)
(0.000143213134906 -7.78318346225e-06 9.11481256448e-06)
(0.000143727823267 -6.06809367968e-06 1.42053332608e-05)
(0.000103559324923 -3.44851253563e-06 1.31768930319e-05)
(0.000121771488636 -6.20688384349e-06 1.311374966e-05)
(0.000122517045591 -5.23683653412e-06 2.08089084009e-05)
(5.97192401176e-05 -4.98945978443e-06 1.88007275073e-05)
(8.43567515546e-05 -6.53508396063e-06 1.75858572033e-05)
(8.53717925599e-05 -5.79130112627e-06 2.84498128572e-05)
(3.47408465563e-05 -1.00522258032e-05 2.27456879716e-05)
(3.79334778875e-05 -8.09643179562e-06 3.99064366833e-05)
(0.00325365847484 0.00205526833254 -0.00240976933776)
(0.00147371371971 0.00291336531769 -0.00206757030134)
(0.00190195260897 0.00233729937134 -0.00354856264772)
(0.00636446671967 0.00337414108493 -0.00297356089103)
(0.0056576244872 0.00405824085175 -0.00307081359991)
(0.00565008446069 0.003468809674 -0.00443489748812)
(0.0065768908445 0.00543807307742 -0.00314026796703)
(0.00784192241669 0.0070064376143 -0.00324688259068)
(0.00742387634229 0.00583619465977 -0.00465367880298)
(0.00371426008101 0.00702773589365 -0.00317799076227)
(0.00611543582459 0.0097723737515 -0.00315149287061)
(0.00575128632137 0.00803809191251 -0.0045574459506)
(-0.000693985907753 0.00762583173698 -0.00315548664335)
(0.00186047125294 0.011285275416 -0.00314646635225)
(0.00171218646182 0.00923915460067 -0.00453759261773)
(-0.00540527108363 0.00711800515865 -0.00300169708776)
(-0.00322997729084 0.0113383640677 -0.00305244768603)
(-0.00314708679834 0.00926585661631 -0.00439366365066)
(-0.00914565944897 0.00558545015256 -0.0027431731096)
(-0.00805925082991 0.00987441697505 -0.00286449090961)
(-0.00773329389521 0.00807976975257 -0.00411949905012)
(-0.0106716935506 0.00343471318118 -0.00235666298072)
(-0.0110002480825 0.00713130335781 -0.00265922789915)
(-0.0105198876084 0.00589235695615 -0.00377858384933)
(-0.00983831703405 0.00144534756986 -0.00182828347766)
(-0.0111255074287 0.00393938008348 -0.00229319780049)
(-0.0107305108945 0.00334935637428 -0.00320832034593)
(-0.00776236253737 0.000208101672422 -0.00126721156039)
(-0.00916103415128 0.00152671998147 -0.00174509310422)
(-0.00898335953683 0.00139780946805 -0.0024298812451)
(-0.00558310279876 -0.000321084010498 -0.000796962620042)
(-0.00672128518908 0.000225962352033 -0.00116133503346)
(-0.00671435424829 0.00032094806419 -0.00163750589237)
(-0.00379941188765 -0.000446885743463 -0.000470656344382)
(-0.00459940496166 -0.000304219131395 -0.00070302481739)
(-0.00467080287214 -0.000146121684584 -0.00101049180996)
(-0.00250815561161 -0.000397923669659 -0.000269306442654)
(-0.00302537451895 -0.000422921430859 -0.000404779404216)
(-0.00311230610104 -0.00027659749281 -0.00059354780747)
(-0.00163119993619 -0.000299448840765 -0.000153501631189)
(-0.00195730145401 -0.000373883795223 -0.000228479074902)
(-0.00203167195009 -0.000260575296771 -0.000340375519089)
(-0.00105057106651 -0.000207048415116 -9.08872614842e-05)
(-0.00125703934106 -0.000279379447301 -0.00013093767598)
(-0.00131182341556 -0.00020011919681 -0.000199552791826)
(-0.000667737172624 -0.000137997925997 -5.6159302238e-05)
(-0.000801673082573 -0.000193035691835 -7.88212037326e-05)
(-0.000838955333375 -0.00014013361612 -0.000122262956511)
(-0.000414397656878 -9.1496610041e-05 -3.56758714916e-05)
(-0.000503181649518 -0.000129672451429 -4.95322190575e-05)
(-0.000527754054125 -9.46604894083e-05 -7.77430908936e-05)
(-0.000244651489417 -6.17306469652e-05 -2.2848901185e-05)
(-0.000304988068187 -8.732889311e-05 -3.21932930382e-05)
(-0.000320933914084 -6.36675692982e-05 -5.09325002209e-05)
(-0.000130346095993 -4.3314911885e-05 -1.41026606106e-05)
(-0.000171315855157 -6.05436625746e-05 -2.09328486196e-05)
(-0.000181628688527 -4.39601772436e-05 -3.31472018025e-05)
(-5.44444644865e-05 -3.20198882003e-05 -7.76531790255e-06)
(-8.12681304286e-05 -4.39099123538e-05 -1.31019077488e-05)
(-8.81029690588e-05 -3.16169137281e-05 -2.02926514165e-05)
(-5.87684661384e-06 -2.50661992398e-05 -2.85505591481e-06)
(-2.18758150251e-05 -3.3511819082e-05 -7.39819402019e-06)
(-2.65903176187e-05 -2.38349843726e-05 -1.07305358249e-05)
(2.17775712041e-05 -2.10465675946e-05 1.4804893107e-06)
(1.49039172202e-05 -2.70254578466e-05 -2.77930941839e-06)
(1.16026087612e-05 -1.90734600758e-05 -2.87316131039e-06)
(3.14463169993e-05 -1.90714100836e-05 5.5369951863e-06)
(3.32519813573e-05 -2.37048505449e-05 1.68952218807e-06)
(3.08721127454e-05 -1.66375127592e-05 4.80498790243e-06)
(2.54030548166e-05 -1.84021145332e-05 8.73784709777e-06)
(3.34292106659e-05 -2.2325519833e-05 5.70818374982e-06)
(3.14882684151e-05 -1.58556864094e-05 1.22474777368e-05)
(9.75654759909e-06 -1.86902863465e-05 1.02576029936e-05)
(1.94529035085e-05 -2.21604135371e-05 8.19864189368e-06)
(1.76719974654e-05 -1.59123069091e-05 1.69549346916e-05)
(-7.02744255836e-06 -1.97208187501e-05 1.01002987894e-05)
(1.07796811134e-06 -2.31840609316e-05 8.70564535823e-06)
(-7.16909812506e-07 -1.66835841221e-05 1.8199426019e-05)
(-1.9273432681e-05 -2.11252489713e-05 9.3298367479e-06)
(-1.35838886803e-05 -2.49451343389e-05 7.77961610069e-06)
(-1.5385088814e-05 -1.80931079114e-05 1.67462745896e-05)
(-2.70317734968e-05 -2.25931574023e-05 7.96302260044e-06)
(-2.44735415481e-05 -2.67873750085e-05 7.08231260356e-06)
(-2.6271346416e-05 -1.96331350612e-05 1.53521840722e-05)
(-2.49391317255e-05 -2.39945477698e-05 5.04077472982e-06)
(-2.93043399738e-05 -2.87302019396e-05 4.98501766318e-06)
(-3.1355151897e-05 -2.11428854197e-05 1.13429715178e-05)
(-6.61724813005e-06 -2.49634417418e-05 1.06915872687e-06)
(-2.06017724745e-05 -3.04432784211e-05 9.56941120323e-07)
(-2.28204015398e-05 -2.24171702836e-05 4.10944646718e-06)
(2.72833896e-05 -2.5038622047e-05 -2.14240934441e-06)
(7.72698152834e-06 -3.10884620852e-05 -3.36603437679e-06)
(5.81999210757e-06 -2.29824559679e-05 -3.57570275997e-06)
(6.956222356e-05 -2.37467044302e-05 -2.54095684022e-06)
(5.04906553028e-05 -3.04873307232e-05 -5.64154333979e-06)
(4.93650865947e-05 -2.25922895082e-05 -8.04553608197e-06)
(0.000106742560824 -2.14722375668e-05 -5.37891800748e-07)
(9.26243792484e-05 -2.81819656052e-05 -3.95176824237e-06)
(9.22715126182e-05 -2.09668472606e-05 -6.16482554532e-06)
(0.000134027106032 -1.88016541081e-05 2.30904073692e-06)
(0.000125219925388 -2.55832830324e-05 -1.05069721137e-06)
(0.000125426482774 -1.90388868957e-05 -1.91250893784e-06)
(0.00014841346061 -1.6085465913e-05 5.67025645258e-06)
(0.000145413537741 -2.23464034687e-05 2.35432185029e-06)
(0.00014612160983 -1.67807141232e-05 3.46424493259e-06)
(0.000148773676352 -1.34710003855e-05 9.05281027391e-06)
(0.000152451568634 -1.94443625891e-05 6.05967837878e-06)
(0.000153545360523 -1.47463290568e-05 9.45679877301e-06)
(0.000135248950997 -1.10722794731e-05 1.29134746627e-05)
(0.000145237049108 -1.65849904717e-05 9.56195930391e-06)
(0.000146590282504 -1.25410124807e-05 1.55587092534e-05)
(0.00010472105671 -1.02023941222e-05 1.75227138314e-05)
(0.000122743524779 -1.43874554255e-05 1.42937683873e-05)
(0.000124304529864 -1.08783772642e-05 2.34391578782e-05)
(5.81415993926e-05 -1.25288719208e-05 2.15308176676e-05)
(8.35563271887e-05 -1.48409999301e-05 1.88376012008e-05)
(8.59575865732e-05 -1.1632329085e-05 3.15899089389e-05)
(3.24312595372e-05 -1.89359199516e-05 2.05257577764e-05)
(3.55167101488e-05 -1.5179975161e-05 3.79487425462e-05)
(0.00374964003248 0.00480157617341 -0.00272861456349)
(0.00182008841576 0.00479547451183 -0.00212385295018)
(0.00219773427941 0.0043266142721 -0.00375694634886)
(0.00739681977784 0.00752933349373 -0.00334413529956)
(0.00691507553996 0.00701418602595 -0.00319512234184)
(0.00653484652006 0.00634097575714 -0.00477955222074)
(0.00756848911189 0.0110933324294 -0.00325810749426)
(0.00936404592027 0.0113942918694 -0.00288724228446)
(0.00839821579904 0.00998267072869 -0.00447370397115)
(0.00427526643098 0.0137049520587 -0.0031199684606)
(0.00720165212151 0.0153042539394 -0.00236140057214)
(0.00642123228673 0.0132623774801 -0.00388528177406)
(-0.000652431219411 0.0146426899862 -0.00304342739494)
(0.00225372955376 0.0173891831305 -0.00218307079971)
(0.00195369100069 0.0150065459569 -0.00364007020908)
(-0.00587846875229 0.0137714056455 -0.00291524150789)
(-0.0035447225576 0.0174384828954 -0.00208193555107)
(-0.0033311726926 0.0150265062262 -0.00348711125041)
(-0.0100381930695 0.0111800253461 -0.00278054569916)
(-0.00904795727582 0.0153597754829 -0.00204352298126)
(-0.00830951083324 0.0132458885708 -0.00340550946201)
(-0.011673233386 0.00749011554894 -0.00259576271892)
(-0.0124223801954 0.0114293178129 -0.0021988642525)
(-0.0113518914312 0.00991961876524 -0.00348051044952)
(-0.0105991446891 0.00394764733932 -0.00221000742704)
(-0.0124404259379 0.00677030289777 -0.00224773698261)
(-0.0114772768474 0.00600881620023 -0.00336798532658)
(-0.00815924283022 0.00152001948801 -0.00163921657728)
(-0.0100257340686 0.00312200568459 -0.00193239424961)
(-0.00946015219505 0.00288950245026 -0.002815254742)
(-0.00569735063545 0.000242390367039 -0.0010673972308)
(-0.00712621351778 0.000999256098791 -0.00137124400049)
(-0.006907329022 0.0010196076859 -0.0020042562823)
(-0.00377089999988 -0.000272402217391 -0.000637147877224)
(-0.00471165676255 4.48772175336e-06 -0.000857598594982)
(-0.00468877219802 0.000102195278178 -0.00127194649236)
(-0.0024307107548 -0.000388381518602 -0.000363952036465)
(-0.00299936364249 -0.000339394208095 -0.000500806646719)
(-0.00305534329811 -0.000234908840705 -0.000753634248114)
(-0.00155178241727 -0.000344823705886 -0.000205915119693)
(-0.00188850103889 -0.00037900059453 -0.000285359150195)
(-0.00195776178514 -0.000295927523747 -0.000434358198691)
(-0.000987176303443 -0.000258905300764 -0.000118871618228)
(-0.00118794134042 -0.000310772813894 -0.00016276359932)
(-0.00124680062273 -0.000251159505739 -0.000250919249601)
(-0.000622837492405 -0.000180306388652 -7.21941205521e-05)
(-0.000747389799327 -0.000224421386432 -9.64771732038e-05)
(-0.000790368380112 -0.000184162759544 -0.000150792245462)
(-0.00038439083894 -0.000122514166958 -4.60496406041e-05)
(-0.000465144561657 -0.0001538409583 -6.04740482959e-05)
(-0.000494309196573 -0.000126920109495 -9.50625347553e-05)
(-0.000224935790343 -8.4051459041e-05 -3.02772404727e-05)
(-0.00027968795158 -0.000104471617383 -3.98376335501e-05)
(-0.000298767663879 -8.60832494612e-05 -6.25918944736e-05)
(-0.000117252324824 -5.96442961693e-05 -1.99320957578e-05)
(-0.000154703353449 -7.26389195449e-05 -2.68767580188e-05)
(-0.000166987989066 -5.95309468443e-05 -4.17531866829e-05)
(-4.54450707005e-05 -4.43070843962e-05 -1.27347838665e-05)
(-7.01475378565e-05 -5.25112706069e-05 -1.81122899443e-05)
(-7.81780790005e-05 -4.26448384957e-05 -2.73088982575e-05)
(4.95126161833e-07 -3.45950389425e-05 -7.32244752377e-06)
(-1.41144609604e-05 -3.97431852753e-05 -1.17738242066e-05)
(-1.95982286733e-05 -3.18044668683e-05 -1.67456234094e-05)
(2.60026186619e-05 -2.89240662193e-05 -2.57027654102e-06)
(2.03616493699e-05 -3.14335434364e-05 -6.83215791555e-06)
(1.66483376465e-05 -2.49738659007e-05 -8.35310049131e-06)
(3.41937992632e-05 -2.63521567523e-05 1.86071075159e-06)
(3.69782983014e-05 -2.73740996552e-05 -2.0461814127e-06)
(3.45056550649e-05 -2.16487969333e-05 -4.34436557283e-07)
(2.71914108704e-05 -2.56277801237e-05 5.16897854573e-06)
(3.60434640992e-05 -2.60996799267e-05 2.28059964473e-06)
(3.41427677472e-05 -2.05826648121e-05 7.2667095304e-06)
(1.13272457431e-05 -2.62002391892e-05 6.6466842583e-06)
(2.11372949983e-05 -2.61342327373e-05 4.77080413447e-06)
(1.94618544828e-05 -2.07416507551e-05 1.18969278611e-05)
(-5.90735263103e-06 -2.78870459559e-05 6.38496266948e-06)
(1.95031929911e-06 -2.75610596222e-05 5.14897555254e-06)
(3.52574995543e-07 -2.21147829694e-05 1.29852165132e-05)
(-1.83993555325e-05 -3.00993789731e-05 5.53209195634e-06)
(-1.3088688214e-05 -3.0060332424e-05 4.02066677943e-06)
(-1.4617348593e-05 -2.4266903698e-05 1.13522130895e-05)
(-2.62361092245e-05 -3.23653454418e-05 4.1043076663e-06)
(-2.4155066962e-05 -3.27155655453e-05 3.21668174347e-06)
(-2.56828488373e-05 -2.65884797974e-05 9.83788560719e-06)
(-2.39569987513e-05 -3.44760669675e-05 9.01184053681e-07)
(-2.91485861448e-05 -3.52550688967e-05 8.05977235833e-07)
(-3.09926398347e-05 -2.89441468019e-05 5.37714825193e-06)
(-5.72880872545e-06 -3.58502813823e-05 -3.47825198334e-06)
(-2.02727076312e-05 -3.73821083085e-05 -3.60069420168e-06)
(-2.23591934708e-05 -3.0811850208e-05 -2.182738815e-06)
(2.88861054195e-05 -3.58867904133e-05 -6.86516837217e-06)
(8.69287306963e-06 -3.82728299021e-05 -8.2338363463e-06)
(6.85889085414e-06 -3.15100695195e-05 -1.01298152578e-05)
(7.19245835838e-05 -3.43100210886e-05 -7.05235474194e-06)
(5.23866740003e-05 -3.74613682563e-05 -1.0463853143e-05)
(5.12720814776e-05 -3.08246021799e-05 -1.45513013142e-05)
(0.000109723951666 -3.17000809944e-05 -4.464573653e-06)
(9.50522956465e-05 -3.49546153788e-05 -8.45453815172e-06)
(9.47028243102e-05 -2.88124604432e-05 -1.21328003922e-05)
(0.000136596009759 -2.85684264802e-05 -1.00541609801e-06)
(0.000127728057704 -3.19762652455e-05 -4.95915510342e-06)
(0.000127916996061 -2.64344766375e-05 -7.04878224965e-06)
(0.000150488981121 -2.52142772827e-05 2.74374377649e-06)
(0.000147717246616 -2.83547273655e-05 -1.1611396381e-06)
(0.000148354898481 -2.35185036799e-05 -9.43972814689e-07)
(0.000150355168207 -2.20938910641e-05 6.56882740877e-06)
(0.000154252966733 -2.49228008911e-05 2.81191571894e-06)
(0.00015526615602 -2.07942735118e-05 5.53959429053e-06)
(0.000135880608802 -1.94279433565e-05 1.09422530285e-05)
(0.000146437946301 -2.17523707249e-05 6.78571390688e-06)
(0.000147732081799 -1.82117863817e-05 1.23991356068e-05)
(0.000103945127982 -1.8500881711e-05 1.56086557567e-05)
(0.000122943231304 -1.92974678284e-05 1.18650890294e-05)
(0.000124455686501 -1.63463708268e-05 2.08723185786e-05)
(5.60793462078e-05 -2.0537183777e-05 1.78325413097e-05)
(8.22083824038e-05 -1.94580993675e-05 1.60940707615e-05)
(8.47606230138e-05 -1.72060094044e-05 2.85441350796e-05)
(3.13240553475e-05 -2.19168117051e-05 1.59183264838e-05)
(3.38227450928e-05 -2.06091476643e-05 3.10146767842e-05)
(0.00481711373905 0.00693509353083 -0.00259036072852)
(0.00249840844992 0.00615154196553 -0.00210325682399)
(0.00286375257076 0.00591401475426 -0.00376464150547)
(0.00920823728132 0.0107422658233 -0.00273822932674)
(0.00879915842846 0.00911582782862 -0.00282406491853)
(0.00808748142806 0.00853643667914 -0.0042972206595)
(0.00921530351284 0.0153670174504 -0.00199053536235)
(0.0115272531998 0.0143716085621 -0.00168450561662)
(0.0100700559792 0.0130181362938 -0.00298086439744)
(0.00519322444985 0.0186675462693 -0.00142450291125)
(0.00874667111678 0.0188713645132 -0.000464877329772)
(0.00757411639784 0.0169374599315 -0.00155608259914)
(-0.000614810597903 0.0198344307974 -0.00122157895584)
(0.00280891606949 0.0212488057437 1.7568153728e-05)
(0.00235618610383 0.0189897231513 -0.000955613894431)
(-0.00671431371432 0.0187088497025 -0.00121021702445)
(-0.0040314952995 0.0212992274457 0.00011886096658)
(-0.00368080500309 0.0190048250559 -0.000811000919266)
(-0.0115751460343 0.0153734473205 -0.00146184153461)
(-0.0105031245115 0.018870165992 -0.000146549162398)
(-0.0093684912366 0.0168539682245 -0.00107998433684)
(-0.0134443084159 0.0105794090404 -0.00185083851619)
(-0.0144614353108 0.014280875973 -0.000929106623178)
(-0.0128535213374 0.0128038373925 -0.00191699079578)
(-0.0120354976629 0.00590223291691 -0.00197012380517)
(-0.0143830205533 0.00874245211302 -0.00168264715462)
(-0.0129076569219 0.00797191718529 -0.00267657163023)
(-0.00901415317614 0.00260413972865 -0.00166442167282)
(-0.0113680716058 0.00431986390915 -0.00182579107897)
(-0.0104505649291 0.00404312633732 -0.00270854822389)
(-0.00608545451143 0.000770114193518 -0.00116144536467)
(-0.00784144633157 0.0016521088662 -0.00142997320368)
(-0.00742489649207 0.00161338225287 -0.00211721855954)
(-0.00387636533113 -5.54167781071e-05 -0.000721257364478)
(-0.0049997118258 0.000312033530073 -0.000941913966724)
(-0.00488253895094 0.000359524790004 -0.00141210476013)
(-0.00241085269155 -0.000319734799386 -0.00042221376045)
(-0.00305886114178 -0.000210278886614 -0.000565724846497)
(-0.0030767400281 -0.000148693675204 -0.000861883950573)
(-0.00149285840201 -0.000336981122106 -0.000242207629822)
(-0.00185627352575 -0.000333758082283 -0.000326028874978)
(-0.00191267844837 -0.000283159464631 -0.000504250244048)
(-0.000927843376186 -0.000270789065512 -0.000140369154296)
(-0.00113227063062 -0.000300411690543 -0.000187745571504)
(-0.00118814756236 -0.000263580607085 -0.000292877849667)
(-0.000576505988904 -0.000194421894876 -8.47571009476e-05)
(-0.000696462315486 -0.000225827719615 -0.000110306973174)
(-0.000739796802654 -0.000200321317882 -0.00017427049441)
(-0.000352056439735 -0.000133605217882 -5.42620412419e-05)
(-0.000427145298804 -0.000157097546712 -6.8611639284e-05)
(-0.000457122168268 -0.00013982638117 -0.000108975472412)
(-0.000203532734587 -9.17325400014e-05 -3.64371510962e-05)
(-0.000253851395635 -0.000106965965494 -4.53875414166e-05)
(-0.000273393361116 -9.48367822931e-05 -7.17741455431e-05)
(-0.000103142533692 -6.47002633429e-05 -2.50569522054e-05)
(-0.000137727100883 -7.40292548481e-05 -3.12988520158e-05)
(-0.000150097761853 -6.50997315644e-05 -4.88109926421e-05)
(-3.59667258064e-05 -4.74402245991e-05 -1.71513302844e-05)
(-5.88704296839e-05 -5.29662534642e-05 -2.18202463982e-05)
(-6.67099277744e-05 -4.60366778492e-05 -3.31390406973e-05)
(6.49856846706e-06 -3.63826898191e-05 -1.12835345984e-05)
(-6.40388288584e-06 -3.93275274367e-05 -1.49560899671e-05)
(-1.15184496827e-05 -3.36309529073e-05 -2.16546797593e-05)
(3.08195797462e-05 -2.98103913037e-05 -6.30806278722e-06)
(2.55772936009e-05 -3.07450754903e-05 -9.7227545385e-06)
(2.22648333392e-05 -2.57757416102e-05 -1.28559143456e-05)
(3.71225713539e-05 -2.69865774718e-05 -1.62629251956e-06)
(4.01613242071e-05 -2.59769967727e-05 -4.8284237823e-06)
(3.82547748335e-05 -2.18320574991e-05 -4.55622159555e-06)
(2.90492036818e-05 -2.65233694216e-05 1.88242523347e-06)
(3.78970827608e-05 -2.5073298436e-05 -2.76366915205e-07)
(3.67105958275e-05 -2.09315166316e-05 3.00211712793e-06)
(1.23008108306e-05 -2.7401377641e-05 3.2730954287e-06)
(2.21231960868e-05 -2.54804672307e-05 2.27537285363e-06)
(2.10833398158e-05 -2.13433284738e-05 7.71192564243e-06)
(-5.65131156004e-06 -2.95696414307e-05 2.78467966249e-06)
(2.11515228397e-06 -2.71147622426e-05 2.43259307737e-06)
(1.18136143842e-06 -2.30267086498e-05 8.52117164334e-06)
(-1.8422699781e-05 -3.24473935237e-05 1.70525656655e-06)
(-1.33644267737e-05 -3.00882145079e-05 1.04326224514e-06)
(-1.41942044594e-05 -2.57659054962e-05 6.40509456633e-06)
(-2.62929647252e-05 -3.53226235708e-05 -8.16486869985e-08)
(-2.45466072921e-05 -3.3264118147e-05 -5.73269357241e-08)
(-2.54796004802e-05 -2.87453729587e-05 4.47550987353e-06)
(-2.38718531694e-05 -3.78475810961e-05 -3.69590101953e-06)
(-2.95454557878e-05 -3.61586597228e-05 -3.00934723178e-06)
(-3.0894142901e-05 -3.16794123465e-05 -3.14632583104e-07)
(-5.36569243224e-06 -3.94550170898e-05 -8.35627856464e-06)
(-2.03593558648e-05 -3.84831642749e-05 -7.69497309891e-06)
(-2.2027560188e-05 -3.37793650578e-05 -8.15901754281e-06)
(3.01296838115e-05 -3.94839045464e-05 -1.18325211171e-05)
(9.3508309202e-06 -3.94361008228e-05 -1.25233627174e-05)
(7.81464231464e-06 -3.45847565512e-05 -1.65906799926e-05)
(7.38887468169e-05 -3.77794565038e-05 -1.18660365528e-05)
(5.39642689608e-05 -3.84876919667e-05 -1.46649912617e-05)
(5.30173726453e-05 -3.36810874975e-05 -2.08588712776e-05)
(0.000112129648849 -3.49900537067e-05 -8.94911960214e-06)
(9.71638730895e-05 -3.59856367966e-05 -1.24471386496e-05)
(9.68858611789e-05 -3.14994382142e-05 -1.80948096271e-05)
(0.000138899719729 -3.16196092025e-05 -5.11487864351e-06)
(0.000129996296932 -3.29175967315e-05 -8.60214132557e-06)
(0.000130188790418 -2.88054259622e-05 -1.24491263419e-05)
(0.000152498537733 -2.80039551699e-05 -1.09296769564e-06)
(0.000149889345822 -2.92387930481e-05 -4.48116571889e-06)
(0.000150445960358 -2.55839249923e-05 -5.9209171082e-06)
(0.000152018417714 -2.46275014899e-05 3.02880221705e-06)
(0.000156080180655 -2.56771946126e-05 -3.20967098024e-07)
(0.000156971606054 -2.25024845385e-05 9.88887009515e-07)
(0.000136795363538 -2.17593696775e-05 7.70854990775e-06)
(0.000147833481404 -2.24878898527e-05 3.97261030633e-06)
(0.000148986222847 -1.97092339106e-05 8.34168062078e-06)
(0.000103740209913 -2.04597166722e-05 1.23505040342e-05)
(0.00012358029771 -1.9908312877e-05 9.25650788175e-06)
(0.000124887285411 -1.76538098288e-05 1.71331266097e-05)
(5.52154640412e-05 -2.10913210728e-05 1.41798559356e-05)
(8.1952819225e-05 -1.96089117995e-05 1.33544989939e-05)
(8.42079950644e-05 -1.81186913787e-05 2.44074261054e-05)
(3.11966802596e-05 -2.0113804999e-05 1.33403805347e-05)
(3.31558950483e-05 -2.0148733383e-05 2.57988784255e-05)
(0.00628824562745 0.00821098072321 -0.002336961014)
(0.00337589252885 0.00676645888908 -0.0021007575984)
(0.00377215679393 0.00688186850891 -0.00375905672575)
(0.0115344615784 0.0125536689144 -0.0017703412084)
(0.0110088041835 0.00998386409606 -0.0023051451699)
(0.0100584294003 0.00975149356104 -0.00349116096017)
(0.0112910996718 0.0176200576327 -0.000158847584045)
(0.0140040511585 0.0154275054226 -0.000219304345203)
(0.0121702431768 0.0145271282356 -0.000934229505241)
(0.00635500906096 0.0211651166961 0.000977193735208)
(0.0105086418369 0.0198765731235 0.00174127309913)
(0.00903459953178 0.0186057509142 0.00146282739064)
(-0.000582324775047 0.0224155288284 0.00135800807615)
(0.00343722969954 0.0222346302537 0.00253932898774)
(0.00287182382025 0.0207310004677 0.0024828372706)
(-0.00780788828067 0.0211757051518 0.00118252882863)
(-0.00459919018226 0.0222886943719 0.0026358178802)
(-0.00415490444697 0.0207451137666 0.00262331144747)
(-0.0135327116924 0.0175307343961 0.00038618574903)
(-0.0121795366614 0.0198399963478 0.00203223035292)
(-0.0107509303871 0.018457795609 0.00189257583927)
(-0.0157068826368 0.0122624973317 -0.000760915261607)
(-0.0167849707038 0.0152214508246 0.000570606712541)
(-0.0147723182418 0.0141682143003 0.000146500135754)
(-0.0139254448642 0.00705541944433 -0.00153831442841)
(-0.0166496246682 0.00952366004004 -0.000974670410671)
(-0.014768723354 0.00898831557497 -0.00167194186092)
(-0.0102079175574 0.00331999076632 -0.00159134260983)
(-0.0129801457995 0.00489416767611 -0.00164266622667)
(-0.0117874441607 0.00471720505889 -0.00243308440815)
(-0.00668426803479 0.00117607202087 -0.00121044180573)
(-0.00875427864279 0.00203530138749 -0.00144713293425)
(-0.00817971788798 0.00201634786649 -0.00214503359011)
(-0.00410511815012 0.000152976566697 -0.000786381448743)
(-0.00541353538101 0.000539223413048 -0.0010072580832)
(-0.00521859125111 0.000576206015477 -0.00151677918359)
(-0.0024520957742 -0.00022201660868 -0.000469539961025)
(-0.00318899602109 -8.44246834653e-05 -0.000620348925589)
(-0.00317383689317 -4.46622501922e-05 -0.000952377606602)
(-0.00146178815643 -0.00029331466288 -0.000271566816659)