/*--------------------------------*- C++ -*----------------------------------*\
| =========                 |                                                 |
| \\      /  F ield         | OpenFOAM: The Open Source CFD Toolbox           |
|  \\    /   O peration     | Version:  3.0.1                                 |
|   \\  /    A nd           | Web:      www.OpenFOAM.org                      |
|    \\/     M anipulation  |                                                 |
\*---------------------------------------------------------------------------*/
FoamFile
{
    version     2.0;
    format      ascii;
    class       volScalarField;
    location    "1.8";
    object      alpha.water;
}
// * * * * * * * * * * * * * * * * * * * * * * * * * * * * * * * * * * * * * //

dimensions      [0 0 0 0 0 0 0];

internalField   nonuniform List<scalar> 
15984
(
1.0000001272
1.00000015033
1.00000016477
1.00000005857
1.00000000254
1.00000000935
1.00000002121
1.00000018113
1.00000015959
1.00000012036
1.00000009823
1.00000037208
1.00000064112
1.00000004366
1.00000004238
1.00000004202
1.00000003832
1.00000000093
1.00000000351
1.00000000158
1.00000000002
1.00000000042
1.00000000001
1.00000000054
1.00000000154
1.00000000909
1.00000004868
1.00000005144
1.00000005135
1.00000005089
1.00000004837
1.00000004638
1.00000004218
1.00000003904
1.0000000358
1.00000002924
1.00000002586
1.00000004056
1.00000005473
1.00000003086
1.00000013423
1.00000023699
1.00000050645
1.00000000297
1.00000000787
1.00000000766
1.00000001044
1.00000036042
1.00000022089
1.00000013855
1.0000000848
1.00000018299
1.00000064746
1.00000049648
1.00000004648
1.00000004684
1.00000004484
1.00000004263
1.00000003418
1.00000000912
1.00000000421
1.00000000251
1.00000000305
1.00000000339
1.00000002779
1.00000004998
1.00000005249
1.00000005843
1.00000005855
1.00000006025
1.00000006211
1.00000006314
1.00000006085
1.00000005884
1.00000005317
1.00000004562
1.00000004171
1.00000005351
1.00000007116
1.00000005246
1.00000015588
1.00000034828
1.00000014998
1.0000000016
1.00000000117
1.00000001193
1.00000000021
1.0000000001
1.00000025309
1.00000017811
1.00000009122
1.00000013328
1.00000051869
1.00000057704
1.0000002291
1.00000004374
1.00000004354
1.00000006397
1.00000003501
1.00000002641
1.00000001962
1.00000000988
1.00000000757
1.00000003183
1.0000000457
1.00000004749
1.00000005312
1.00000005678
1.0000000594
1.00000006138
1.00000006335
1.00000006423
1.00000006413
1.00000006099
1.00000005595
1.00000005126
1.000000047
1.00000005551
1.00000008224
1.00000010627
1.00000013085
1.00000000073
1.00000000039
1.00000000135
0.999999995443
1.00000000004
1.00000000031
1.00000000011
1.00000000289
1.00000013553
1.00000024542
1.0000000681
1.00000018306
1.00000070691
1.00000041692
1.0000000549
1.00000003802
1.00000004784
1.00000006408
1.00000002848
1.00000002463
1.00000002207
1.00000002628
1.00000004034
1.00000004103
1.00000004456
1.00000004992
1.00000005242
1.00000005461
1.00000005697
1.00000005877
1.0000000585
1.00000005917
1.0000000563
1.00000005202
1.00000004499
1.00000004247
1.00000005006
1.00000008254
1.0000001151
1.00000010861
0.999999999851
1.00000000073
1.00000000084
0.999999998676
0.999999992618
1.00000000001
1.00000000012
1.00000004139
1.00000008027
1.00000016727
1.00000013047
1.00000005247
1.00000031823
1.00000061664
1.00000023826
1.00000003377
1.00000003199
1.00000008834
1.0000000234
1.00000001835
1.00000001776
1.00000002931
1.00000003667
1.00000003817
1.00000004198
1.00000004518
1.00000004934
1.00000005023
1.00000005169
1.00000005283
1.00000005376
1.00000005358
1.00000004932
1.00000004528
1.00000003918
1.00000003412
1.00000004102
1.00000007623
1.0000001108
1.00000000293
0.999999999024
1.00000000084
1
0.999999999606
0.99999999729
0.999999998886
1
1.00000000005
1.00000004914
1.00000005779
1.00000017477
1.00000004283
1.00000007775
1.00000044914
1.00000046321
1.00000004381
1.00000002865
1.00000002808
1.00000004853
1.00000001186
1.00000001741
1.00000002748
1.00000003464
1.00000003633
1.00000003888
1.00000004481
1.00000004628
1.00000004654
1.00000004771
1.00000004922
1.00000005214
1.00000004866
1.0000000472
1.00000004252
1.00000003458
1.00000002814
1.00000003517
1.00000007157
1.00000010767
1.0000000013
0.999999999225
1.00000000006
0.999999999352
0.999999996944
0.999999994959
0.999999998404
1
1.00000000001
1.00000000325
1.00000007454
1.00000004573
1.00000004333
1.00000004371
1.00000003645
1.00000066652
1.00000010106
1.00000002657
1.00000002606
1.00000002717
1.00000005403
1.00000002617
1.00000003251
1.00000003454
1.00000003525
1.00000003871
1.00000004241
1.0000000457
1.00000004398
1.00000004614
1.00000004734
1.00000004873
1.00000004761
1.00000004512
1.00000004039
1.00000003198
1.000000025
1.00000003137
1.0000000682
1.00000010585
1.00000000015
0.999999995468
0.999999999454
0.9999999984
0.999999993996
0.999999993213
0.999999998223
1.00000000003
1.00000000001
1.0000000032
1.00000002652
1.00000012274
1.0000000379
1.00000003602
1.00000002993
1.00000008876
1.00000055987
1.00000002545
1.000000025
1.00000002638
1.00000004285
1.00000003767
1.00000003365
1.00000003551
1.00000003609
1.00000003759
1.00000004232
1.00000004538
1.00000004458
1.00000004541
1.00000004705
1.00000004867
1.00000004679
1.00000004485
1.00000003995
1.00000003067
1.00000002346
1.00000002994
1.00000006682
1.0000001052
1.00000000009
0.99999999987
1
0.999999997691
0.999999991578
0.999999990934
0.99999999849
1.00000000005
1.00000000001
1.00000000621
1.00000000779
1.00000004398
1.00000006679
1.00000003778
1.00000003114
1.00000002866
1.00000049449
1.00000004898
1.00000002459
1.00000002615
1.00000002873
1.00000005528
1.00000003396
1.00000003794
1.00000003713
1.0000000384
1.00000004073
1.00000004649
1.00000004555
1.00000004635
1.00000004767
1.00000004773
1.00000004785
1.00000004563
1.00000004038
1.00000003095
1.00000002307
1.00000002963
1.00000006616
1.00000010506
1
1
0.999999999819
0.999999996727
0.99999998954
0.999999987658
0.999999996082
1.00000000003
1
1.00000000283
1.00000001025
1.00000005786
1.00000004536
1.00000003579
1.00000003094
1.00000002911
1.00000035376
1.00000004961
1.00000002462
1.00000002619
1.00000002888
1.00000005795
1.00000003429
1.00000003674
1.00000003907
1.00000003946
1.00000004091
1.000000044
1.00000004988
1.00000004779
1.00000004882
1.00000004948
1.00000004875
1.00000004651
1.00000004109
1.0000000315
1.00000002361
1.00000002986
1.00000006653
1.00000010511
1
1
0.99999999965
0.99999999566
0.999999987543
0.999999986658
0.999999994947
1.0000000001
1
1.00000000463
1.0000000125
1.00000003866
1.00000004489
1.00000003927
1.00000003178
1.00000002873
1.00000040092
1.00000006831
1.00000002464
1.00000002626
1.00000003037
1.00000005353
1.00000003465
1.00000003808
1.00000003875
1.00000003957
1.0000000412
1.00000004384
1.0000000516
1.000000048
1.00000004949
1.0000000498
1.00000004938
1.00000004696
1.00000004152
1.00000003182
1.00000002389
1.00000003006
1.00000006805
1.00000010537
1
0.999999995822
0.999999999994
0.999999996671
0.99999998778
0.999999989429
0.999999996545
1.00000000019
1
1.00000000614
1.00000000781
1.00000004173
1.00000005201
1.00000003652
1.00000003214
1.00000002876
1.00000047659
1.00000007885
1.00000002472
1.00000002632
1.00000003078
1.00000004341
1.00000003171
1.00000003936
1.00000003822
1.00000003792
1.00000004105
1.00000004502
1.0000000489
1.00000004725
1.00000004902
1.00000004975
1.00000004925
1.00000004713
1.00000004143
1.00000003281
1.00000002393
1.00000003016
1.00000006904
1.00000010615
1.00000000004
0.999999988285
0.999999993255
0.999999995852
0.999999990039
0.999999990636
0.999999997008
1.00000000013
1
1.00000000362
1.00000001179
1.0000000718
1.00000005071
1.0000000376
1.00000003035
1.00000008352
1.00000053882
1.0000000259
1.00000002517
1.00000002663
1.00000004915
1.00000002309
1.00000002538
1.00000003694
1.00000003574
1.00000003811
1.00000004128
1.00000004733
1.00000004499
1.00000004745
1.00000004883
1.00000004965
1.00000004916
1.00000004693
1.00000004157
1.00000003293
1.00000002411
1.00000003189
1.00000007006
1.00000010812
1
0.999999994594
0.999999988262
0.999999995868
0.999999993693
0.999999994555
0.999999997362
0.999999999879
1
1.00000000771
1.00000005742
1.00000005848
1.00000004454
1.00000003292
1.00000004302
1.00000048659
1.0000001664
1.00000002784
1.00000002656
1.00000002772
1.00000003688
1.00000001293
1.0000000274
1.00000003415
1.00000003643
1.0000000389
1.00000004222
1.00000004595
1.00000004637
1.0000000486
1.00000005027
1.00000005079
1.00000005027
1.00000004817
1.00000004292
1.00000003441
1.00000002601
1.00000003494
1.0000000728
1.00000011188
1.00000000324
1.00000000007
0.999999990216
0.99999999722
0.99999999533
0.999999997468
0.999999998074
1.00000000002
1.00000000001
1.00000000591
1.00000004959
1.00000006234
1.000000042
1.00000004389
1.00000024633
1.00000051334
1.00000005929
1.00000003056
1.0000000298
1.00000004786
1.00000001666
1.00000001889
1.00000003169
1.00000003619
1.00000003859
1.00000004127
1.00000004556
1.00000004885
1.00000005028
1.00000005217
1.0000000542
1.00000005501
1.00000005466
1.0000000524
1.00000004762
1.00000003947
1.00000003189
1.00000004182
1.00000008032
1.00000012031
1.00000005857
1.00000000006
1.00000000007
0.999999988692
0.999999988019
0.999999996334
1
1.00000000023
1.00000000012
1.00000006431
1.00000009247
1.00000015184
1.00000005097
1.00000016306
1.00000046141
1.00000028078
1.0000000407
1.00000003722
1.00000005842
1.00000002707
1.00000001934
1.00000001953
1.00000003141
1.00000004157
1.00000004319
1.0000000461
1.00000005076
1.00000005748
1.00000005847
1.00000006282
1.0000000623
1.00000006336
1.0000000636
1.00000006196
1.00000005782
1.00000005053
1.0000000444
1.00000005586
1.00000009534
1.00000013585
1.00000017447
1.00000000009
1.00000000005
1.00000000002
0.999999999814
1
1.0000000002
1.00000000007
1.00000000011
1.00000011439
1.00000023232
1.0000000803
1.00000007372
1.00000043318
1.00000050948
1.00000006529
1.00000005098
1.00000004737
1.00000005289
1.00000003543
1.00000002963
1.00000003262
1.00000003677
1.00000005122
1.00000005201
1.00000005415
1.00000005811
1.00000006472
1.00000007042
1.00000007279
1.00000007958
1.00000007743
1.0000000782
1.00000007785
1.00000007475
1.00000006936
1.00000006414
1.0000000786
1.0000001196
1.00000015953
1.0000001662
1.00000036491
1.00000000013
1.00000000647
1
1.00000000851
1.00000000009
1.00000000007
1.00000013226
1.0000002697
1.00000012425
1.00000013345
1.00000024863
1.00000074011
1.00000016571
1.000000072
1.0000000676
1.0000000646
1.00000006103
1.00000004765
1.0000000473
1.0000000396
1.00000005207
1.0000000679
1.00000006777
1.00000007082
1.00000007597
1.00000008164
1.0000000879
1.00000009224
1.00000009563
1.00000010126
1.00000010191
1.00000010141
1.00000009901
1.00000009519
1.00000009418
1.00000010907
1.00000015545
1.00000019544
1.00000022035
1.00000020731
1.00000065262
1.00000000723
1.00000001308
1.00000001189
1.00000003116
1.00000023195
1.00000022965
1.00000017592
1.00000016447
1.00000013808
1.000000714
1.00000041016
1.00000009575
1.00000009256
1.00000008715
1.00000008292
1.00000007626
1.0000000565
1.00000002175
1.00000001051
1.00000000919
1.00000004039
1.00000007196
1.0000000825
1.00000009524
1.0000001032
1.00000010965
1.00000011534
1.00000012098
1.00000012202
1.00000012345
1.00000011863
1.00000011555
1.00000011223
1.00000011789
1.00000013973
1.00000018205
1.00000015792
1.00000014485
1.00000015118
1.00000006035
1.00000001118
1.00000001486
1.00000002755
1.00000002017
1.00000014189
1.00000012716
1.00000014291
1.00000009618
1.00000034247
1.00000058104
1.00000006584
1.00000006405
1.00000006037
1.00000003179
1.00000000083
1.00000000189
1.00000000055
1.00000000015
1.00000000013
1.00000000002
1.00000000015
1.0000000007
1.00000000036
1.0000000329
1.00000006644
1.00000006867
1.00000006816
1.00000006767
1.00000006705
1.00000006611
1.00000006665
1.00000006834
1.00000007042
1.00000007682
1.0000000989
1.00000011437
1.00000004093
1.00000014088
1.00000016762
1.00000001182
1.00000000393
1.00000001283
1.00000000655
1.00000001214
1.0000001093
1.00000014584
1.00000015351
1.00000017477
1.00000143105
1.00000006902
1.00000006581
1.0000000623
1.00000006137
1.00000002122
1.00000000222
1.00000000079
1.00000000012
1.00000000063
1
1.00000000002
1.00000000016
1.00000000098
1.00000000039
1.00000005856
1.00000006542
1.00000006603
1.00000006447
1.00000006313
1.00000006441
1.00000006561
1.00000005663
1.00000005158
1.00000005685
1.00000005307
1.00000007336
1.0000000847
1.00000004185
1.00000016892
1.00000000319
1.00000001046
1.00000000743
1.0000000043
1.00000000868
1.00000000946
1.00000001141
1.00000022806
1.00000019088
1.00000013353
1.00000035087
1.00000156524
1.00000007228
1.00000007014
1.00000006619
1.00000006466
1.00000005037
1.00000000223
1.00000000161
1.00000000097
1.0000000013
1.00000000039
1.00000000132
1.0000000057
1.00000006373
1.00000007213
1.00000007264
1.00000007718
1.0000000773
1.00000007781
1.00000007916
1.00000007499
1.00000007457
1.00000007492
1.00000006936
1.00000006975
1.00000009386
1.00000011646
1.00000008917
1.00000016708
1.00000000057
1.00000000101
1.00000000299
1.00000000003
1.00000000006
1.00000000005
1.0000000003
1.00000000183
1.00000016427
1.00000017123
1.00000013488
1.0000004146
1.00000093376
1.00000006691
1.00000006606
1.00000006039
1.00000004974
1.00000002162
1.0000000151
1.00000000611
1.0000000036
1.00000000386
1.00000001709
1.00000006479
1.00000006641
1.00000006904
1.00000007236
1.00000007665
1.00000008367
1.0000000893
1.00000008921
1.00000009103
1.00000008983
1.00000008801
1.00000008587
1.00000008621
1.00000010151
1.00000013279
1.00000015846
1.00000006748
1.00000000021
1.000000001
1.00000000069
1.00000000121
1.00000000069
1.00000000042
1.00000000009
1.00000000026
1.00000017344
1.00000008835
1.0000001296
1.00000008887
1.00000051528
1.00000036538
1.00000005917
1.00000005683
1.00000004505
1.00000002141
1.00000001695
1.00000001452
1.00000000951
1.00000000808
1.00000003752
1.00000006128
1.00000005977
1.00000006296
1.00000006729
1.00000007139
1.00000007873
1.00000008282
1.00000008576
1.00000008703
1.0000000882
1.00000008673
1.00000008413
1.00000008396
1.0000000985
1.00000013882
1.00000017371
1.00000001757
1.00000000019
1.0000000003
1.00000000479
1.00000000413
1.00000000343
1.00000000482
1.00000000047
1.00000000006
1.00000003388
1.00000016736
1.00000007028
1.00000011422
1.00000007939
1.00000056907
1.00000007075
1.00000005121
1.00000009192
1.0000000233
1.0000000163
1.00000001369
1.00000001244
1.00000001522
1.00000004189
1.00000005563
1.00000005516
1.00000005868
1.00000006379
1.00000006635
1.00000007426
1.00000007759
1.00000007793
1.00000008034
1.00000007927
1.00000007735
1.00000007318
1.00000007332
1.00000008902
1.00000013086
1.00000016866
1.00000000538
1.00000000005
1.00000000235
1.00000000343
1.00000001236
1.00000000331
1.00000000305
1.00000000394
1.00000000008
1.00000001502
1.00000011566
1.00000011815
1.00000006182
1.00000010134
1.00000009253
1.00000032918
1.00000004756
1.00000004382
1.00000012753
1.00000001646
1.0000000139
1.00000001304
1.00000001359
1.00000003602
1.00000005011
1.00000005082
1.00000005591
1.00000005906
1.00000006368
1.00000007258
1.00000007015
1.00000007211
1.00000007227
1.00000007308
1.00000007099
1.00000006618
1.00000006508
1.00000008115
1.00000012502
1.00000016499
1.00000000146
1.00000000025
1.00000000168
1.00000000638
1.00000000381
1.00000000408
1.00000000571
1.00000000213
1.0000000004
1.00000000569
1.00000004455
1.00000019635
1.00000007053
1.00000005501
1.00000012491
1.00000017813
1.00000007677
1.00000004105
1.00000003636
1.00000008219
1.00000001345
1.00000001307
1.00000001175
1.00000003481
1.00000004782
1.00000005121
1.00000005247
1.00000005534
1.00000006732
1.0000000631
1.00000006443
1.00000006659
1.00000006868
1.00000006951
1.00000006735
1.00000006215
1.00000006
1.00000007659
1.00000012128
1.00000016265
1.00000000289
1.00000000005
1.00000000156
1.00000000064
0.999999999032
0.999999997523
1.00000000327
1.00000000467
1.00000000016
1.00000000718
1.00000003859
1.00000007139
1.00000009921
1.00000006077
1.000000059
1.0000002372
1.00000006056
1.00000003989
1.00000003823
1.00000008901
1.00000003913
1.00000001099
1.00000001179
1.0000000378
1.00000004976
1.00000004954
1.0000000517
1.00000005632
1.00000005924
1.00000006415
1.00000006226
1.00000006522
1.00000006739
1.00000006772
1.00000006538
1.0000000597
1.00000005741
1.00000007416
1.00000011932
1.00000016155
1.00000000063
1.00000000014
1.00000000021
1.00000000011
0.999999997747
0.99999999538
1.00000000047
1.00000000237
1.00000000045
1.00000000684
1.00000002304
1.00000007546
1.00000005904
1.00000005414
1.00000006473
1.00000011619
1.00000014648
1.00000003917
1.00000003756
1.00000004638
1.00000008435
1.0000000106
1.00000001598
1.00000004313
1.0000000492
1.00000004952
1.00000005198
1.00000005423
1.00000006312
1.0000000617
1.00000006262
1.00000006529
1.00000006672
1.00000006717
1.00000006486
1.00000005883
1.00000005645
1.00000007301
1.00000011858
1.00000016128
1.00000000025
1
1.00000000002
0.99999999907
0.99999999565
0.999999991241
0.999999997381
1.00000000088
1.00000000016
1.00000000732
1.00000001583
1.00000005928
1.00000005842
1.00000005706
1.00000004991
1.00000011618
1.00000010528
1.00000003897
1.00000003729
1.00000003809
1.00000009568
1.00000001069
1.00000001337
1.00000004638
1.00000005095
1.00000004942
1.0000000526
1.00000005526
1.00000005802
1.00000006623
1.00000006354
1.00000006543
1.00000006681
1.0000000671
1.00000006512
1.00000005871
1.00000005592
1.00000007162
1.0000001184
1.00000016136
0.999999999995
1
1
0.999999999035
0.999999995052
0.999999990603
0.999999996156
1.00000000071
1.00000000006
1.00000000902
1.00000001351
1.00000005901
1.00000005793
1.00000005535
1.00000004885
1.0000001215
1.00000009886
1.00000003896
1.00000003722
1.00000003965
1.00000010168
1.00000001029
1.00000001586
1.00000004659
1.00000004916
1.0000000493
1.00000005262
1.00000005527
1.00000005853
1.00000006616
1.00000006372
1.00000006568
1.00000006695
1.00000006715
1.00000006461
1.00000005859
1.00000005573
1.00000007221
1.00000011907
1.0000001614
1.0000000002
1.00000000009
1.00000000004
1.00000000001
0.999999996845
0.9999999936
0.999999998864
1.00000000268
1.00000000016
1.00000000639
1.0000000215
1.0000000721
1.00000006816
1.00000005572
1.00000005826
1.00000009046
1.00000017606
1.00000003906
1.0000000374
1.00000004613
1.00000010074
1.00000001028
1.00000001054
1.00000004373
1.00000004939
1.00000004905
1.00000005185
1.00000005445
1.00000006094
1.00000006367
1.00000006291
1.00000006521
1.00000006702
1.00000006721
1.00000006461
1.00000005834
1.00000005561
1.00000007252
1.0000001196
1.00000016221
1.00000000012
1.00000000013
1.00000000042
0.999999999597
0.99999999651
0.999999997553
1.00000000204
1.00000000517
1.00000000012
1.00000000691
1.00000002093
1.00000007956
1.00000006538
1.0000000588
1.00000008672
1.00000017424
1.00000007501
1.00000004002
1.0000000381
1.00000009888
1.00000002868
1.00000001071
1.00000001067
1.00000004107
1.00000004807
1.0000000496
1.00000005205
1.00000005542
1.00000006402
1.00000006334
1.00000006279
1.00000006534
1.00000006724
1.00000006772
1.00000006538
1.00000005941
1.00000005658
1.00000007354
1.00000012146
1.0000001642
1.00000000515
1.0000000003
1.0000000003
1.00000000112
1.00000000028
1.00000000261
1.00000000708
1.00000000224
1.00000000025
1.00000000649
1.00000002281
1.00000013607
1.00000007524
1.00000005576
1.00000009539
1.00000022914
1.00000006594
1.00000004202
1.00000004158
1.00000010674
1.00000001291
1.00000001144
1.00000001145
1.00000004096
1.00000004699
1.00000005073
1.00000005329
1.00000005708
1.00000006682
1.00000006438
1.00000007412
1.00000007059
1.00000007107
1.00000007017
1.00000006835
1.00000006309
1.00000006039
1.00000007811
1.00000012567
1.00000016931
1.00000001048
1.00000000021
1.00000000066
1.00000000173
1.00000000632
1.00000000506
1.00000000285
1.0000000036
1.00000000017
1.00000002644
1.0000001235
1.00000013536
1.00000006417
1.00000008387
1.00000012454
1.00000030989
1.00000005189
1.00000004643
1.00000010714
1.00000001805
1.00000001477
1.00000001388
1.00000001458
1.00000004434
1.00000005493
1.00000005295
1.00000005809
1.00000006209
1.0000000657
1.00000007236
1.00000007249
1.00000007979
1.000000081
1.00000008118
1.00000007627
1.00000007178
1.00000007045
1.00000008766
1.0000001363
1.00000017997
1.00000001467
1.00000000024
1.00000000029
1.00000000219
1.00000000125
1.0000000027
1.0000000046
1.00000000072
1.00000000013
1.00000007897
1.00000008652
1.00000008277
1.00000010438
1.00000008901
1.0000004098
1.00000011999
1.00000005856
1.00000006439
1.00000004638
1.00000002225
1.00000001938
1.00000001818
1.00000001787
1.00000004913
1.00000006024
1.00000006621
1.00000006642
1.00000007456
1.00000007661
1.00000008106
1.00000008429
1.00000008859
1.00000009107
1.00000009304
1.00000009231
1.00000008641
1.00000008672
1.00000010538
1.00000015553
1.00000019838
1.00000002697
1.00000000026
1.00000000021
1.00000000006
1.00000000071
1.00000000044
1.00000000038
1.00000000068
1.00000000032
1.00000017252
1.00000011602
1.00000011902
1.00000008872
1.00000037645
1.00000040131
1.00000007603
1.00000007191
1.00000006673
1.00000003226
1.00000002751
1.00000002185
1.00000001979
1.00000001999
1.00000006307
1.00000007263
1.00000007267
1.00000007976
1.00000008429
1.00000009362
1.00000009721
1.00000010247
1.00000010555
1.00000010729
1.00000011017
1.00000011091
1.0000001086
1.00000011143
1.00000013176
1.00000018456
1.0000002247
1.00000014711
1.00000000833
1.00000000035
1.00000001189
1.00000000016
1.00000000397
1.00000000027
1.00000000024
1.00000000035
1.00000015032
1.00000022882
1.00000018137
1.00000045183
1.00000083466
1.00000009821
1.00000009518
1.00000008793
1.00000008378
1.00000004073
1.00000003032
1.00000001937
1.00000001437
1.00000001013
1.00000006889
1.00000008548
1.00000009038
1.0000000951
1.00000010208
1.00000011029
1.00000011775
1.00000012176
1.00000012664
1.00000013338
1.00000013378
1.00000013623
1.00000013681
1.00000014027
1.00000016309
1.00000021854
1.00000025435
1.00000025128
1.00000006807
1.00000001835
1.00000001088
1.00000000964
1.00000000824
1.00000002995
1.00000005235
1.00000022049
1.00000021344
1.00000018542
1.00000038881
1.00000143382
1.00000012615
1.00000012335
1.00000011462
1.00000010255
1.00000009096
1.0000000394
1.00000000377
1.00000000175
1.00000000139
1.00000000099
1.0000000014
1.00000005448
1.0000000836
1.00000010991
1.0000001202
1.0000001291
1.00000013034
1.00000013473
1.00000013769
1.00000013685
1.00000014243
1.00000014544
1.0000001504
1.00000016273
1.0000001938
1.0000002367
1.00000019001
1.00000018487
1.00000000653
1.00000000918
1.00000001806
1.00000002602
1.00000001957
1.00000002621
1.00000010464
1.00000017807
1.00000012261
1.00000017978
1.00000136693
1.00000008972
1.00000008706
1.00000005993
1.00000001399
1.00000000115
1.00000000153
1.00000000051
1.00000000001
1.00000000021
0.999999999966
1.00000000005
0.99999999999
1.00000000008
1.0000000001
1.00000000009
1.00000003938
1.00000007664
1.00000008108
1.00000008434
1.00000008146
1.00000008477
1.00000008577
1.00000008924
1.00000009496
1.00000010293
1.00000013455
1.00000014638
1.00000005001
1.00000027131
1.00000008869
1.00000000013
1.00000000181
1.00000000116
1.00000001287
1.000000007
1.0000000082
1.0000001505
1.00000021842
1.00000153334
1.0000001194
1.00000011252
1.00000010478
1.00000003976
1.00000015422
1.00000003758
1.00000000038
1.00000000026
1.00000000006
1.00000000099
1.00000000004
0.999999999793
0.999999999981
1.00000000126
1.00000000004
1.00000001331
1.0000000907
1.00000009281
1.00000008907
1.00000008838
1.0000000909
1.00000009009
1.0000001056
1.00000009258
1.00000009395
1.00000010016
1.00000014186
1.00000015132
1.00000005864
1.00000018439
1.00000000021
1.00000000218
1.00000000087
1.0000000108
1.00000000203
1.00000000013
1.00000000252
1.00000008342
1.00000011595
1.00000026509
1.00000257434
1.00000012331
1.00000011564
1.00000010735
1.0000001054
1.00000010719
1.00000008938
1.00000000069
1.00000000034
1.00000000063
1.00000000012
1.00000000124
1.0000000012
1.00000000202
1.00000006753
1.0000000949
1.00000009744
1.00000009753
1.00000010431
1.00000010182
1.00000010982
1.00000011215
1.00000011143
1.00000012102
1.00000012782
1.00000013417
1.00000016445
1.00000019379
1.00000014055
1.00000012703
1.00000000175
1.00000000226
1.00000000201
1.00000000142
1.00000000163
1.0000000009
1.00000000088
1.0000000016
1.00000004741
1.00000009584
1.00000036148
1.00000170852
1.00000011289
1.00000010692
1.00000009838
1.00000009336
1.000000034
1.00000000689
1.00000000615
1.00000000289
1.00000000242
1.000000002
1.00000000236
1.00000005594
1.00000008858
1.00000009655
1.0000001025
1.00000010606
1.00000011142
1.00000012228
1.00000013005
1.00000013031
1.00000013808
1.0000001434
1.00000014647
1.00000015862
1.00000018133
1.00000021679
1.00000024686
1.00000001245
1.00000000145
1.0000000024
1.0000000067
1.00000000512
1.00000001118
1.00000001837
1.00000000387
1.00000000138
1.00000002585
1.00000003264
1.0000000931
1.00000032795
1.00000086981
1.00000009945
1.00000009651
1.00000008037
1.00000004163
1.00000002859
1.00000002416
1.00000001593
1.0000000088
1.00000000635
1.0000000097
1.00000007901
1.00000008345
1.00000008762
1.00000009512
1.0000001011
1.00000011183
1.00000011529
1.00000012076
1.00000013191
1.00000013681
1.00000014368
1.00000014657
1.0000001519
1.00000017895
1.00000023079
1.00000026267
1.00000001326
1.00000000155
1.00000000721
1.00000000847
1.00000002344
1.00000001444
1.00000002763
1.00000002495
1.00000000235
1.00000002177
1.00000002623
1.00000004778
1.00000011319
1.00000040494
1.00000034969
1.00000009012
1.00000013184
1.00000004771
1.0000000342
1.00000002719
1.00000002241
1.00000002083
1.00000002229
1.00000002195
1.00000007706
1.00000007768
1.00000008383
1.00000008693
1.00000010029
1.00000010279
1.00000010928
1.00000011339
1.00000011953
1.00000013069
1.00000013406
1.00000013583
1.00000014173
1.00000016703
1.00000022164
1.00000025879
1
1.00000000289
0.999984956961
0.999958212386
0.999925784493
0.999929206616
0.999967906157
0.999994350316
1.00000000766
1.00000001424
1.00000002266
1.0000000147
1.00000014553
1.00000013368
1.00000036048
1.00000009425
1.0000000631
1.00000007466
1.00000003293
1.00000002979
1.00000002489
1.00000002186
1.00000002201
1.00000001973
1.00000007605
1.00000007753
1.00000007727
1.00000008965
1.00000008948
1.00000009697
1.00000009923
1.00000010604
1.00000011493
1.00000012392
1.00000012459
1.00000012537
1.00000013143
1.00000015862
1.00000021439
1.00000025452
1
1.00000000121
0.999935713713
0.999840723712
0.999759973448
0.999765437183
0.999852120212
0.999948646772
1.00000002032
1.00000001492
1.0000000211
1.00000001032
1.0000001186
1.00000014837
1.00000014266
1.00000028074
1.00000005513
1.00000003625
1.00000003049
1.00000002647
1.00000002334
1.00000001993
1.00000001825
1.00000001638
1.00000007085
1.000000072
1.00000007723
1.00000007896
1.00000008579
1.0000000884
1.00000009384
1.00000010293
1.00000011378
1.00000011608
1.00000011561
1.00000011791
1.00000012368
1.0000001515
1.0000002095
1.00000025191
1.00000000003
1.00000000192
0.999889709553
0.999744684407
0.999679793762
0.999685224283
0.99974929044
0.999909043856
1.00000002681
1.00000001293
1.00000002166
1.00000000608
1.00000012432
1.00000016116
1.00000021379
1.00000013148
1.00000008516
1.00000007056
1.00000011517
1.00000003216
1.00000002164
1.00000001953
1.00000001825
1.00000001665
1.00000006472
1.00000007115
1.00000007174
1.00000007741
1.00000008075
1.00000008567
1.00000009511
1.00000009963
1.00000010816
1.00000010634
1.0000001108
1.00000011249
1.00000011927
1.0000001472
1.00000020657
1.00000025019
1.00000000077
1.00000000266
0.999880053986
0.999729060061
0.999668673212
0.999671684434
0.999729603118
0.999901354326
1.00000002162
1.0000000127
1.00000001727
1.00000000394
1.00000009257
1.00000011318
1.00000022048
1.0000001423
1.00000007069
1.00000006606
1.00000008735
1.00000015622
1.00000002121
1.00000001914
1.00000001773
1.00000001598
1.00000006097
1.00000006951
1.00000007163
1.00000007481
1.00000007939
1.00000008381
1.00000009352
1.00000010105
1.00000009833
1.00000010384
1.00000010765
1.00000010958
1.00000011622
1.00000014502
1.00000020511
1.00000024947
1.00000000095
1.00000000105
0.999882199066
0.999732260582
0.999674273193
0.999677561831
0.999732459337
0.999901107624
1.00000000663
1.00000001758
1.00000001703
1.00000000275
1.00000007147
1.00000009073
1.00000020794
1.00000010737
1.00000007599
1.00000006699
1.00000006652
1.00000020534
1.00000002057
1.00000001676
1.0000000151
1.00000002257
1.00000005995
1.00000007021
1.00000007167
1.0000000749
1.00000008036
1.00000008489
1.00000009132
1.00000009906
1.00000009871
1.00000010287
1.00000010665
1.000000108
1.00000011526
1.00000014363
1.00000020441
1.00000024897
1.00000000131
1.00000000017
0.999881014431
0.999732009472
0.999675494553
0.999675438294
0.999734464917
0.999901017463
1.00000000977
1.00000001251
1.00000001199
1.00000000168
1.00000003782
1.00000008961
1.00000020498
1.00000011347
1.00000007186
1.00000006781
1.00000006112
1.00000019712
1.00000001978
1.00000001636
1.00000001474
1.00000003443
1.00000005734
1.00000006719
1.00000007116
1.00000007482
1.00000008069
1.00000008521
1.00000008909
1.00000009896
1.00000010164
1.00000010357
1.00000010597
1.00000010718
1.00000011364
1.00000014293
1.00000020422
1.00000024856
1.00000000006
1.00000000072
0.999878831566
0.999727804145
0.999667663205
0.999673484368
0.999729774551
0.99990021192
1.00000001882
1.00000000521
1.00000002148
1.00000000463
1.00000009359
1.00000010564
1.00000019444
1.00000014346
1.00000006975
1.00000006526
1.00000010753
1.00000018452
1.00000001942
1.00000001745
1.000000017
1.00000001651
1.00000005768
1.00000006925
1.00000007113
1.00000007449
1.00000007977
1.00000008281
1.00000009022
1.00000010033
1.00000009812
1.00000010329
1.00000010614
1.00000010791
1.00000011434
1.00000014347
1.00000020456
1.00000024749
1.0000000001
1.00000000028
0.999888572973
0.999743558655
0.999677613592
0.999684481217
0.999748626413
0.999906730881
1.00000002413
1.00000001805
1.00000001772
1.00000000535
1.00000011973
1.00000014935
1.0000002187
1.00000012296
1.00000007587
1.00000007739
1.00000012735
1.00000003073
1.00000001988
1.00000001621
1.00000001504
1.00000001463
1.00000004957
1.00000006936
1.00000007096
1.00000007714