/*--------------------------------*- C++ -*----------------------------------*\
| =========                 |                                                 |
| \\      /  F ield         | OpenFOAM: The Open Source CFD Toolbox           |
|  \\    /   O peration     | Version:  3.0.1                                 |
|   \\  /    A nd           | Web:      www.OpenFOAM.org                      |
|    \\/     M anipulation  |                                                 |
\*---------------------------------------------------------------------------*/
FoamFile
{
    version     2.0;
    format      ascii;
    class       volScalarField;
    location    "1.8";
    object      k_0;
}
// * * * * * * * * * * * * * * * * * * * * * * * * * * * * * * * * * * * * * //

dimensions      [0 2 -2 0 0 0 0];

internalField   nonuniform List<scalar> 
15984
(
0.00342876375294
0.00363730411803
0.00370764075935
0.00372077309769
0.0037199030272
0.00372038049533
0.00372347259427
0.00372497813289
0.00372168628445
0.00371391689699
0.00370547067004
0.00369928892789
0.00369432864074
0.00369083755052
0.00368855055304
0.00368715031225
0.00368634200986
0.0036859155316
0.00368571576208
0.00368566452877
0.00368565998827
0.00368567497355
0.00368569728119
0.00368572189736
0.00368574044088
0.00368574071709
0.00368572142244
0.00368568482751
0.00368563572195
0.00368557895479
0.00368551811292
0.00368544592216
0.00368536232082
0.00368526370737
0.00368511679775
0.00368463043846
0.0036820238184
0.0036679432587
0.00360528560294
0.00341150781522
0.00422954744946
0.00521331803373
0.00555374492475
0.00562528625212
0.00563179327792
0.00563203165965
0.00564173505911
0.00566148558623
0.00567264247862
0.00566317015155
0.00564297474663
0.00562384179571
0.00561024846346
0.00560074458922
0.00559464831406
0.00559087689632
0.0055885911135
0.00558727100763
0.00558655189187
0.00558620384541
0.00558606902775
0.00558602993611
0.00558602547126
0.00558602500425
0.00558599823765
0.00558593517185
0.00558584232285
0.00558572593207
0.00558560794645
0.00558550566255
0.00558543697752
0.00558536549383
0.00558527680994
0.00558511588193
0.00558449190037
0.00558089766252
0.00556128843478
0.00547053010236
0.00513125584422
0.00417180388569
0.00452789080437
0.0062060284273
0.0067817743069
0.00691189877548
0.00692831285703
0.00693171037339
0.00695193981428
0.00699386837899
0.007023444383
0.00701570444991
0.00698753547616
0.00696028494781
0.00693987696035
0.00692651029498
0.00691804527757
0.00691290964332
0.00690984275219
0.00690807119704
0.00690709106115
0.00690659499192
0.0069063743993
0.00690628803781
0.00690625066285
0.00690621484543
0.00690614582231
0.00690603033275
0.00690587443071
0.0069056916805
0.00690549777282
0.00690531369723
0.00690516934439
0.00690507576762
0.00690496444446
0.00690467642008
0.00690326054874
0.00689527227629
0.00685518785976
0.00668630307019
0.00610119607841
0.00444881348994
0.00464533415751
0.00674483939083
0.00747073479439
0.00763080152284
0.00764908089629
0.00765672841448
0.00769591951498
0.00777639021402
0.0078437276911
0.00784935666908
0.00781735300157
0.00778353569755
0.0077583235538
0.00774191208012
0.00773174248234
0.00772561955242
0.00772203380283
0.00771997829001
0.00771884601719
0.00771826500598
0.00771799895575
0.00771788815857
0.00771782998031
0.00771777210202
0.00771767816834
0.00771753312753
0.00771733911796
0.00771710770809
0.00771685791675
0.00771661122634
0.00771638687004
0.0077162083857
0.00771605250948
0.00771560623447
0.00771327732703
0.00770068532328
0.00764130206563
0.00740697542826
0.00664106996298
0.00455339164588
0.00469441829201
0.00701104143533
0.00781068543604
0.00800298504752
0.00804037472817
0.0080557667714
0.00810169202239
0.00819404216146
0.00831721540838
0.00834892769887
0.00831743990213
0.00827830869341
0.00824873542268
0.00822962215897
0.00821806650234
0.00821116382852
0.00820717276347
0.00820491976192
0.00820368827895
0.00820305324063
0.00820275966292
0.0082026347036
0.00820256667322
0.00820249818604
0.00820239092637
0.00820222990325
0.00820201639297
0.00820176136814
0.00820148294042
0.00820119736786
0.00820093095942
0.00820069667205
0.00820046291439
0.00819985073737
0.00819664432194
0.00817991058959
0.00810441196922
0.00782001564301
0.0069304536837
0.00459439985512
0.00471553161344
0.0071196514198
0.00795965281691
0.00819905175734
0.00823684284983
0.00825608234093
0.00831828792271
0.00842860420069
0.00856868936864
0.00863471010577
0.00860724499638
0.00856417797456
0.00853067565144
0.00850918616864
0.00849635235268
0.00848887909412
0.00848455058918
0.00848214967616
0.00848085586187
0.00848018731494
0.00847987383902
0.00847973882026
0.00847966436623
0.00847958951108
0.00847947622182
0.00847930943231
0.00847908691982
0.0084788207973
0.00847852860529
0.00847822681551
0.00847793977955
0.00847767845127
0.00847739404606
0.00847663066003
0.0084726960995
0.00845268618464
0.00836512533924
0.00804573404642
0.00707779631603
0.00461077966595
0.00472450550975
0.00714714565568
0.00802689155787
0.00826694906438
0.00829790726981
0.00831974304806
0.0084004571577
0.00854056663479
0.00868728778322
0.00878829896694
0.00876649033869
0.00872069085495
0.00868398247193
0.00866045136689
0.00864653560737
0.00863857541268
0.00863401040666
0.00863149669616
0.00863015102546
0.00862947192429
0.00862914436661
0.00862899935955
0.00862892028259
0.00862884216991
0.00862872450485
0.00862855300187
0.0086283279638
0.0086280576446
0.00862776081193
0.00862745331878
0.00862716053228
0.00862688880752
0.00862657965259
0.00862570908455
0.00862124471766
0.008598934457
0.00850325787724
0.00816160994849
0.00714800595856
0.00461722003014
0.00472861154314
0.00714356251417
0.00804119593227
0.00827333305229
0.0082948008246
0.00831834099638
0.00841626391306
0.00858224973883
0.00873746612213
0.00886560915186
0.0088488060137
0.00880114138394
0.00876201464106
0.00873689196893
0.00872214599708
0.00871376476766
0.0087090774895
0.00870646952748
0.00870509194664
0.00870439955539
0.00870406441475
0.00870391030353
0.0087038268314
0.00870374684635
0.00870362803758
0.00870345322297
0.00870322642191
0.00870295700606
0.00870265801136
0.00870235156189
0.00870205754693
0.00870178601377
0.00870146898698
0.00870053386172
0.00869572940728
0.00867198200474
0.00857140384668
0.00821693846558
0.00717904261586
0.0046196444626
0.00473097629688
0.00713565878142
0.0080382174054
0.00826276137309
0.00827547021926
0.00830010486273
0.00841129084506
0.00859455196614
0.00876201614912
0.00890194314903
0.00888818134878
0.00883925900037
0.00879850922208
0.00877230641214
0.00875699521368
0.00874833584144
0.00874355271763
0.00874089811121
0.00873950022277
0.00873879982821
0.00873846072005
0.0087383004384
0.00873821358862
0.00873813173958
0.00873801125855
0.00873783706097
0.00873760878628
0.00873733899676
0.00873704210719
0.00873673913634
0.00873644693408
0.00873617854469
0.00873585960005
0.00873489066328
0.00872989606438
0.00870536157781
0.00860216942293
0.0082411336154
0.00719162403003
0.00462050020628
0.0047322704
0.00713166178231
0.00803452289035
0.00825494480678
0.00826216367886
0.00828743442904
0.0084060222377
0.00859747206975
0.00877204016804
0.00891625953208
0.0089037176267
0.00885412066452
0.00881255141933
0.00878580292868
0.00877021143937
0.00876141687181
0.0087565717318
0.0087539047621
0.00875249886327
0.0087517951642
0.0087514534553
0.00875129014641
0.00875120161457
0.00875111867469
0.00875099726066
0.00875082268487
0.00875059539129
0.00875032539775
0.00875003022269
0.00874972680087
0.00874943777557
0.00874917076556
0.00874885400057
0.0087478714292
0.0087427943392
0.00871792337729
0.00861363407931
0.00824991812025
0.00719591271024
0.00462076179437
0.00473229950535
0.00713184130993
0.00803467089005
0.00825514382986
0.00826244989931
0.00828770051798
0.00840622303879
0.00859759466717
0.00877210351329
0.00891629375541
0.00890370451656
0.00885409973414
0.00881253425005
0.00878579038488
0.00877020150397
0.00876140971777
0.0087565680788
0.00875390216438
0.00875249624671
0.00875179293475
0.00875145166787
0.00875128716235
0.00875119845894
0.00875111523786
0.00875099339757
0.00875081874562
0.0087505915362
0.00875032147925
0.00875002675396
0.00874972323666
0.00874943438568
0.00874916804802
0.00874885193943
0.00874786957381
0.00874279231443
0.00871792111215
0.00861363134611
0.00824991502234
0.00719590969869
0.00462076163447
0.00473104960977
0.00713615644926
0.00803864337237
0.00826331991471
0.0082762001359
0.00830081540881
0.00841182234625
0.00859488644425
0.00876221686246
0.00890203417758
0.00888813917293
0.0088391963938
0.0087984571412
0.00877226787666
0.00875696478193
0.00874831191785
0.00874353778498
0.00874088828383
0.00873949200545
0.00873879255526
0.00873845380133
0.00873829074111
0.00873820283244
0.00873812037186
0.00873799940266
0.00873782479287
0.00873759623839
0.00873732658759
0.00873703014363
0.00873672758984
0.00873643709843
0.00873616973124
0.00873585243837
0.00873488452342
0.00872988940346
0.008705354176
0.00860216062689
0.00824112385535
0.00719161471682
0.00462049948225
0.00472869800849
0.0071442838361
0.00804184061756
0.00827417807493
0.00829581220242
0.00831931903175
0.0084170284496
0.00858273220405
0.00873808794233
0.00886571513272
0.00884872091183
0.00880103182412
0.00876192508423
0.00873682600964
0.00872209500909
0.00871372014506
0.00870904750139
0.00870644687627
0.00870507480315
0.00870438391661
0.00870404699488
0.00870389066469
0.00870380590683
0.00870372511414
0.00870360531392
0.00870343014252
0.0087032026942
0.00870293303221
0.00870263533289
0.00870233135618
0.00870203833929
0.00870176911901
0.00870145521413
0.00870052132086
0.00869571598006
0.00867196734265
0.00857138698655
0.00821692049247
0.00717902623026
0.004619642671
0.00472456447627
0.00714792662173
0.00802764901155
0.00826795262511
0.00829905032551
0.00832083567932
0.00840132094764
0.00854110191084
0.00868799691463
0.00878835919844
0.00876634246281
0.00872052771569
0.00868385510029
0.00866035512576
0.00864646054496
0.00863851131082
0.00863396707975
0.00863145804631
0.00863012040098
0.00862944298542
0.00862911290723
0.00862896614148
0.00862888569877
0.00862880689725
0.0086286881156
0.00862851582464
0.00862829102028
0.00862802147754
0.00862772555846
0.00862741980534
0.00862712897194
0.00862686063552
0.00862655522137
0.00862568705483
0.00862122145246
0.00859890949284
0.00850323010425
0.0081615815388
0.00714798137089
0.00461721611194
0.00471552640803
0.00712032607919
0.00796043713265
0.00820005040282
0.00823796684006
0.00825715224881
0.0083191297172
0.00842914135501
0.00856925340952
0.00863465695198
0.00860701906306
0.00856395885388
0.00853050979213
0.0085090574368
0.00849624468694
0.00848880403081
0.00848448721989
0.00848209198743
0.00848080501864
0.0084801397435
0.0084798258872
0.00847968988063
0.00847961418653
0.00847953852254
0.00847942441828
0.00847925597221
0.00847903523234
0.00847877025869
0.00847847743045
0.00847817984569
0.00847789584276
0.00847763810409
0.0084773582031
0.00847659636539
0.00847266028516
0.00845264824986
0.00836508409561
0.00804569330503
0.00707776260417
0.00461077223513
0.00469433084782
0.00701149802466
0.00781201028822
0.00800389390762
0.00804142754524
0.0080567718121
0.00810248206973
0.00819514221764
0.0083174986458
0.00834872541422
0.00831712747645
0.00827804621642
0.0082485344983
0.00822945641889
0.00821793126716
0.00821107419723
0.00820709184416
0.00820484463276
0.00820362106895
0.00820298871139
0.00820269564612
0.00820257066895
0.0082025015194
0.00820243280711
0.00820232623074
0.00820216515216
0.00820195189261
0.00820169846357
0.00820142239007
0.0082011398608
0.00820087620356
0.00820064708058
0.00820041551141
0.00819980410398
0.00819659598395
0.00817985983693
0.00810435747443
0.00781996269438
0.00693041129499
0.00459438751273
0.0046451646849
0.00674498938719
0.00747157778702
0.00763222922592
0.00765084858586
0.00765840168638
0.00769724150243
0.00777704146375
0.00784370234729
0.00784901801457
0.00781699087358
0.00778323947185
0.00775808983357
0.00774172066483
0.00773162040023
0.00772551668597
0.00772194446436
0.00771989570446
0.00771876840653
0.00771819036
0.00771792597506
0.00771781569104
0.00771775744551
0.00771770029374
0.00771760701194
0.00771746281156
0.00771726936547
0.00771704128859
0.00771679364852
0.00771654853051
0.00771632878596
0.00771615399777
0.00771599957042
0.00771555280124
0.00771322209878
0.00770062750661
0.0076412399825
0.0074069151018
0.00664102227153
0.00455337442252
0.00452766286843
0.00620594079474
0.00678209016235
0.00691272889941
0.00692936463468
0.00693271173003
0.00695265633398
0.00699408153345
0.00702320014284
0.00701530612884
0.00698716849508
0.00695998289028
0.00693963678978
0.00692634925878
0.006917925681
0.00691281312455
0.00690975847755
0.00690799405486
0.00690702004301
0.00690652647705
0.00690630798009
0.0069062230755
0.00690618735618
0.00690615262454
0.00690608418428
0.006905970275
0.00690581747652
0.00690563383591
0.00690544263327
0.00690526271226
0.00690512149159
0.00690502909525
0.00690491790654
0.00690462967719
0.00690321233947
0.00689522164579
0.00685513255471
0.00668624796732
0.00610115255496
0.00444879650303
0.00422933175989
0.00521310215365
0.00555376218244
0.00562560578007
0.00563225884071
0.00563246788419
0.00564199489244
0.00566143045576
0.00567233908957
0.00566280995087
0.00564265968181
0.00562358181331
0.00561006341572
0.00560062156094
0.00559456144173
0.00559080628444
0.00558853162447
0.00558721839384
0.00558650467067
0.00558615879458
0.00558602953175
0.00558599018032
0.00558598576744
0.00558598662355
0.00558596131719
0.00558590148894
0.0055858085646
0.00558569726732
0.00558558054558
0.005585481553
0.00558541478593
0.00558534388434
0.00558525554616
0.00558509487553
0.00558447024788
0.00558087444507
0.0055612611452
0.00547050015228
0.00513123192999
0.00417179775727
0.00342867751983
0.00363715894646
0.0037075177602
0.00372073023757
0.00371991486134
0.00372037832504
0.0037234025139
0.00372482844623
0.00372149302957
0.0037137285669
0.00370532716726
0.00369918797899
0.00369426354072
0.00369079758918
0.00368852644378
0.00368713495726
0.00368633316004
0.00368591050515
0.00368572082436
0.00368567289026
0.003685668531
0.00368568175566
0.0036857038484
0.00368572791238
0.00368574669753
0.00368574873741
0.00368573163894
0.00368569763337
0.00368565136863
0.00368559807162
0.00368553908988
0.00368546745352
0.00368538439609
0.00368528647838
0.00368514009416
0.00368465398289
0.00368204650783
0.00366796254281
0.0036053025442
0.00341152439078
0.00418578047921
0.00514875338515
0.00548837700828
0.00556613545125
0.00557531958231
0.00557780350998
0.0055890343993
0.00560777429638
0.00562140171429
0.00562177245183
0.00561414410221
0.0056054939027
0.00559865075405
0.00559446888946
0.00559141304033
0.00558929859209
0.00558794016011
0.00558713403685
0.00558668173894
0.00558645834811
0.00558636191288
0.00558632299085
0.00558631179606
0.00558630969298
0.0055863014284
0.00558627462359
0.00558622604362
0.00558615805155
0.00558607377696
0.00558597968135
0.00558587349398
0.00558575471658
0.00558562341971
0.00558542300208
0.00558476745188
0.00558113912186
0.00556150435665
0.00547072041841
0.00513148191004
0.00417224092163
0.00762995186962
0.0106217442831
0.0116440653009
0.0118882006184
0.0119195473965
0.0119321950362
0.0119825957649
0.0120751706394
0.012163614091
0.0122055880949
0.0122097752545
0.0122003319449
0.012188767045
0.0121792608147
0.0121726915318
0.0121683848883
0.0121656424786
0.012163949245
0.0121629292122
0.0121623334889
0.0121619750766
0.0121617439294
0.0121615624469
0.0121613784425
0.0121611733212
0.0121609414423
0.0121606872275
0.0121604193299
0.0121601485568
0.0121598853938
0.0121596404243
0.0121594316879
0.0121592107238
0.0121586667654
0.0121558276464
0.012139713701
0.0120605996978
0.0117379605049
0.0106606856773
0.00761678331981
0.00864855022306
0.013085326295
0.0145796380754
0.0149801609102
0.0150514996542
0.0150767203099
0.0151443406475
0.0152632143241
0.0153720608749
0.0154172975741
0.015413399781
0.0153944480058
0.0153761072711
0.0153621573199
0.0153529395468
0.0153471181515
0.0153435153888
0.0153413290125
0.0153400293368
0.0153392744527
0.0153388296237
0.0153385415381
0.0153383109368
0.0153380824666
0.0153378282926
0.0153375418693
0.015337230233
0.0153369051414
0.0153365784356
0.0153362652763
0.0153359732583
0.0153357010204
0.0153353738985
0.0153343343004
0.0153287858838
0.0152995726915
0.0151677592515
0.0146722371424
0.0131183140462
0.00860863090122
0.00908555793024
0.0144433780183
0.0162729771561
0.0167848007164
0.0168832704775
0.0169213868782
0.0170159162395
0.0171787431752
0.0173271563736
0.0173874309606
0.0173795565988
0.0173522378159
0.0173273928827
0.0173095798386
0.0172980894865
0.0172910107425
0.0172867363141
0.0172841905972
0.0172827001457
0.0172818407308
0.0172813426862
0.0172810219432
0.0172807664105
0.0172805132103
0.0172802321393
0.0172799157855
0.0172795718277
0.017279212798
0.0172788554822
0.0172785151661
0.0172782022277
0.017277903038
0.0172774625554
0.0172758536929
0.0172673772736
0.0172251235327
0.0170453150925
0.0164065754726
0.0144954211103
0.00902792939965
0.00928100936967
0.0151706141373
0.0172169801613
0.0177960130786
0.0179056050948
0.0179554741207
0.0180863987482
0.0183084826683
0.0185172335871
0.0186064050706
0.0185998965881
0.0185658504346
0.0185349838648
0.018513536881
0.0185000341786
0.0184918739968
0.0184870370548
0.0184842068403
0.0184825733801
0.0184816359431
0.0184810984783
0.0184807535981
0.0184804797677
0.0184802085503
0.0184799080949
0.0184795710363
0.0184792046534
0.0184788233201
0.0184784443296
0.0184780831606
0.0184777509041
0.0184774241131
0.0184768810513
0.0184747116566
0.0184634614217
0.018409531521
0.0181893460346
0.0174382524075
0.0152702247917
0.00921471875906
0.0093666237648
0.015521405754
0.0176906396982
0.0182785065788
0.0183828553889
0.0184425640504
0.018618182565
0.0189244013845
0.0192065848417
0.019335042225
0.0193348365686
0.019296071085
0.0192599892906
0.0192352325647
0.0192199385156
0.0192108726635
0.0192055656242
0.0192025072398
0.0192007645398
0.0191997694237
0.0191991980266
0.0191988327868
0.019198543279
0.0191982573346
0.0191979419483
0.0191975900279
0.0191972078147
0.0191968107715
0.0191964164287
0.0191960399302
0.0191956919023
0.0191953398937
0.0191947012636
0.01919204524
0.0191784622339
0.0191151054844
0.0188638068092
0.018030864395
0.0156900080621
0.00929902937406
0.00940067839597
0.0156602917142
0.0178775731926
0.0184550534223
0.0185454295842
0.0186122779107
0.0188318227067
0.0192163758842
0.0195773119538
0.0197474497132
0.0197563583314
0.0197147683661
0.0196745318156
0.019646973434
0.0196301697942
0.019620355247
0.0196146834336
0.0196114460287
0.0196096183751
0.0196085836566
0.0196079842335
0.01960760042
0.0196072971131
0.0196069991057
0.0196066718507
0.0196063083717
0.0196059155292
0.019605507836
0.0196051029807
0.0196047163624
0.0196043573424
0.0196039850161
0.0196032701919
0.0196002356234
0.0195848989475
0.0195146655984
0.0192414716466
0.0183535638239
0.0159048074759
0.00933617819704
0.00941222181407
0.0156974571964
0.0179267615245
0.0184870110488
0.0185618076716
0.0186331992645
0.0188887270108
0.0193352039192
0.0197626182033
0.019965689301
0.0199834868673
0.0199404334885
0.0198971784008
0.019867469955
0.0198494983151
0.019839101671
0.0198331728855
0.0198298051197
0.0198279173915
0.0198268524487
0.0198262321547
0.0198258323256
0.0198255174835
0.019825210121
0.0198248740966
0.0198245022528
0.0198241023385
0.0198236884278
0.0198232770021
0.0198228838891
0.0198225174508
0.0198221311769
0.0198213623771
0.0198180678631
0.0198015540162
0.0197268065911
0.0194396375504
0.0185180080453
0.0160073190952
0.00935173934239
0.00941552405279
0.0156982945137
0.0179280396077
0.0184745587585
0.0185376094617
0.0186114410673
0.0188909751045
0.0193764781213
0.019846803926
0.0200714674301
0.0200957110976
0.0200519636201
0.020006767406
0.019975622816
0.0199568637798
0.0199460759412
0.0199399794712
0.0199365303599
0.019934604972
0.0199335211773
0.0199328865566
0.0199324749985
0.0199321518011
0.0199318378095
0.019931496025
0.0199311190255
0.0199307144532
0.0199302966421
0.0199298818284
0.0199294857671
0.0199291149233
0.0199287202842
0.0199279190618
0.0199244695182
0.01990726533
0.0198299135226
0.0195348526539
0.0185947885996
0.0160521577994
0.00935780278924
0.00941637202482
0.0156936471111
0.0179224881096
0.0184621431234
0.0185195083357
0.0185942795478
0.0188851174172
0.0193884375593
0.0198781516266
0.0201133289516
0.0201407992969
0.0200967583161
0.020050614537
0.020018756434
0.0199996037501
0.0199886226764
0.0199824414725
0.0199789560256
0.0199770134646
0.0199759206362
0.0199752785787
0.0199748607941
0.0199745331064
0.0199742157385
0.0199738708644
0.0199734913575
0.0199730846692
0.0199726650702
0.0199722489611
0.0199718519394
0.0199714788239
0.0199710809108
0.0199702645886
0.0199667443294
0.0199492291164
0.0198707164995
0.0195721880851
0.0186242071565
0.0160684351006
0.00935981204382
0.00941641681134
0.0156939612773
0.0179229094045
0.0184626467833
0.0185201077268
0.018594846446
0.0188856464547
0.0193888110402
0.0198783452482
0.0201133786641
0.0201407853302
0.0200967333154
0.0200505931009
0.0200187398882
0.019999590298
0.0199886117553
0.0199824330342
0.0199789492077
0.0199770074716
0.0199759150928
0.019975273113
0.0199748546859
0.0199745266761
0.0199742091375
0.0199738639541
0.0199734842905
0.0199730774686
0.0199726578316
0.0199722418585
0.0199718449172
0.0199714719403
0.0199710741284
0.0199702578987
0.0199667375093
0.019949221891
0.0198707087512
0.0195721795009
0.0186241980418
0.0160684262024
0.00935980843818
0.00941564434842
0.0156991852444
0.0179292769868
0.0184760159432
0.0185392819856
0.0186131085193
0.018892415013
0.019377510641
0.0198473214777
0.020071598033
0.0200956638236
0.0200518864871
0.020006701571
0.0199755714799
0.0199568217428
0.0199460407902
0.0199399520399
0.0199365076051
0.0199345852318
0.0199335026663
0.0199328677176
0.0199324545285
0.0199321303261
0.0199318157655
0.0199314734134
0.0199310958734
0.0199306908699
0.019930273
0.0199298584652
0.0199294629016
0.0199290923562
0.0199286982579
0.0199278973005
0.0199244470686
0.0199072416814
0.0198298882981
0.0195348250426
0.0185947598063
0.016052130327
0.00935779126749
0.00941238144483
0.0156987817854
0.0179286918805
0.0184893341916
0.0185643718903
0.0186357123202
0.0188908957452
0.0193367166069
0.0197631703965
0.0199658414317
0.0199833867724
0.0199402958637
0.0198970621381
0.0198673786403
0.0198494233498
0.0198390368281
0.0198331200934
0.0198297593115
0.0198278770594
0.0198268137618
0.0198261925203
0.0198257909928
0.0198254748326
0.0198251666343
0.0198248295977
0.0198244569955
0.0198240565154
0.0198236426252
0.019823231499
0.0198228394006
0.019822473544
0.0198220878086
0.0198213192446
0.019818023867
0.0198015080233
0.0197267580561
0.019439585602
0.0185179555716
0.0160072710212
0.00935171838838
0.00940082577487
0.0156618233114
0.0178799405141
0.0184579991584
0.0185486268504
0.0186153561692
0.0188344290652
0.0192181566037
0.0195781820979
0.0197475611699
0.0197561807248
0.0197145599361
0.0196743588351
0.0196468349974
0.0196300538197
0.0196202558698
0.0196145986649
0.0196113687942
0.0196095481076
0.0196085154775
0.01960791511
0.0196075297121
0.0196072249945
0.019606926036
0.0196065976645
0.0196062331406
0.0196058402748
0.0196054326202
0.0196050285646
0.0196046427147
0.0196042847484
0.0196039131416
0.0196031979432
0.0196001623081
0.0195848228978
0.01951458619
0.0192413883428
0.0183534824643
0.0159047363193
0.00933614508676
0.00936671107672
0.0155228864202
0.0176930859607
0.0182816429327
0.0183862716425
0.0184458307016
0.0186209056458
0.0189261801484
0.0192073635318
0.0193350317052
0.0193345627638
0.0192957881507
0.0192597556262
0.0192350411354
0.0192197768236
0.0192107361047
0.0192054431013
0.0192023919165
0.0192006562664
0.0191996638999
0.019199092474
0.019198726079
0.0191984352501
0.0191981483447
0.0191978320725
0.0191974789677
0.0191970970815
0.0191967003973
0.0191963061103
0.0191959314601
0.0191955847953
0.0191952335727
0.0191945947796
0.0191919367896
0.0191783504686
0.0191149896517
0.0188636868193
0.018030750373
0.0156899125694
0.00929898111858
0.0092810124812
0.0151718309163
0.0172191385851
0.0177988747767
0.0179088239004
0.0179585533558
0.0180889303543
0.0183100023621
0.0185177424446
0.0186062336511
0.0185995274308
0.0185655008277
0.0185346944253
0.0185132952198
0.0184998314304
0.0184917020191
0.0184868782034
0.018484055426
0.018482428653
0.0184814938335
0.0184809567845
0.0184806113955
0.018480336502
0.0184800645165
0.018479763721
0.0184794259841
0.0184790593917
0.018478678616
0.0184783008484
0.0184779410633
0.0184776100307
0.0184772848589
0.0184767408688
0.0184745692907
0.0184633152146
0.0184093805619
0.0181891906563
0.0174381070769
0.0152701070209
0.00921465361305
0.00908548120069
0.0144442187829
0.016274601911
0.0167871286745
0.0168859283083
0.0169239377842
0.0170180041021
0.0171798867223
0.017327368272
0.0173871209906
0.0173791267016
0.0173518459351
0.0173270662072
0.0173093080072
0.0172978685753
0.0172908162197
0.0172865557284
0.0172840171675
0.0172825317171
0.0172816747846
0.0172811773757
0.017280856522
0.0172806004239
0.0172803467026
0.0172800655895
0.0172797490974
0.0172794044009
0.0172790461721
0.0172786906671
0.0172783512219
0.0172780400782
0.0172777405957
0.0172772996606
0.017275689381
0.0172672087194
0.0172249498484
0.0170451360795
0.0164064084671
0.0144952882845
0.00902785009135
0.0086484351864
0.0130858077844
0.0145807016753
0.0149818292494
0.0150534487289
0.0150785993708
0.0151458395395
0.0152639529016
0.0153720543765
0.0154169254053
0.015412967334
0.0153940565044
0.0153757808664
0.0153618968253
0.0153527249372
0.0153469278995
0.0153433389266
0.0153411585401
0.0153398633695
0.0153391101823
0.0153386660085
0.0153383779174
0.0153381469234
0.0153379179913
0.0153376637279
0.0153373772575
0.0153370650939
0.0153367393214
0.0153364146367
0.01533610235
0.0153358108771
0.0153355395296
0.0153352123463
0.0153341716273
0.0153286192016
0.0152994007058
0.0151675799979
0.0146720678648
0.0131181801531
0.00860855044264
0.00762986868241
0.010621965065
0.0116446857513
0.0118892752939
0.0119208358497
0.0119334416946
0.0119835655391
0.0120756012374
0.0121635220129
0.0122052574169
0.0122094138256
0.0122000011255
0.0121884964668
0.0121790521771
0.0121725210022
0.0121682341218
0.0121655035659
0.0121638147083
0.0121627984736
0.0121622030932
0.0121618421962
0.0121616112372
0.0121614302264
0.0121612459525
0.0121610409786
0.0121608080726
0.0121605527906
0.0121602842107
0.0121600135683
0.0121597507017
0.0121595062985
0.0121592983476
0.0121590774442
0.0121585329832
0.0121556905993
0.0121395719138
0.0120604487976
0.0117378124109
0.0106605642527
0.00761671296401
0.00418570720789
0.00514867384625
0.00548836776417
0.00556627533393
0.005575546104
0.00557801217855
0.00558912480998
0.00560768741551
0.00562118454878
0.00562152651408
0.00561392961406
0.00560531990468
0.00559852735621
0.00559438030233
0.00559134632545
0.0055892454439
0.00558789596597
0.00558709162104
0.0055866378838
0.0055864164001
0.00558631942044
0.00558627858122
0.00558626572172
0.00558626277097
0.00558625507393
0.00558622656154
0.00558617705285
0.00558610727039
0.00558602361414
0.00558593029097
0.00558582258824
0.00558570405554
0.00558557290245
0.00558537275137
0.00558471595456
0.00558108459526
0.00556144269238
0.00547065103785
0.00513141843436
0.00417221169929
0.0044598610258
0.0060915027973
0.00666698120996
0.00681303603279
0.00683721307554
0.00684393742883
0.00686253366362
0.00689495012811
0.00692352804844
0.00693388836023
0.0069310332766
0.00692438908103
0.00691812375984
0.00691378969458
0.00691112481031
0.00690918083486
0.00690789585536
0.00690713067096
0.00690671434784
0.00690650881765
0.00690642941161
0.00690641220082
0.00690642244
0.00690644489578
0.00690646594704
0.00690646838408
0.00690644436397
0.00690639644629
0.0069063232727
0.00690622910631
0.00690611675051
0.00690598823569
0.00690582902992
0.00690549099044
0.006904026202
0.00689598725375
0.00685585103768
0.00668695941528
0.0061019453877
0.00444990404857
0.00859792479313
0.0129968404277
0.014470028844
0.014861101646
0.0149296145409
0.0149567255957
0.0150300166847
0.015157489895
0.015282653495
0.0153514254858
0.0153706792875
0.0153689142158
0.0153613655324
0.0153540301904
0.0153483775051
0.0153445349711
0.0153420466423
0.0153404924733
0.0153395539651
0.0153389986714
0.0153386692467
0.0153384565781
0.0153382882504
0.0153381234992
0.0153379441172
0.0153377426617
0.0153375206521
0.0153372868956
0.0153370493165
0.0153368162618
0.0153365959763
0.0153363944154
0.0153361153663
0.0153351096241
0.0153295747404
0.0153003694985
0.0151685424306
0.0146730751278
0.0131192531006
0.00860971305194
0.00992637034378
0.0161034275631
0.0181442453973
0.0187423302682
0.0188702599875
0.0189172022669
0.0190116604109
0.0191650263193
0.0193080924311
0.0193796715208
0.0193915376151
0.0193807503297
0.019366556539
0.0193549330919
0.0193468265395
0.0193415907788
0.0193383071669
0.0193362927421
0.0193350855564
0.0193343760769
0.0193339570485
0.0193336833484
0.0193334661057
0.0193332537534
0.0193330222609
0.0193327646987
0.0193324853055
0.0193321945113
0.0193319025777
0.0193316215991
0.0193313573909
0.0193310895439
0.0193306403946
0.0193287621295
0.0193187373751
0.0192696405111
0.0190647617006
0.0183495390927
0.0162302773319
0.00991650130026
0.010543643387
0.0178621030041
0.020309591221
0.0210579766354
0.0212281281466
0.0212943575391
0.0214197018616
0.0216165069093
0.0217946640378
0.0218799621127
0.0218884306154
0.0218697106703
0.0218491948339
0.0218336757226
0.0218233862938
0.0218169617638
0.0218130384884
0.0218106804135
0.0218092860652
0.0218084760152
0.0218080009611
0.0218076933218
0.0218074492558
0.0218072103815
0.0218069496476
0.0218066599138
0.0218063468156
0.0218060215619
0.0218056975053
0.0218053876427
0.0218050971149
0.0218047863526
0.0218041436039
0.0218012908533
0.0217865878046
0.0217183403587
0.0214488391261
0.0205556836897
0.018017138112
0.0105188536361
0.0108411873603
0.018845711356
0.0215720701044
0.0224162066357
0.02260522766
0.022688107654
0.0228580735943
0.0231206916945
0.0233531960144
0.0234656647341
0.0234762559145
0.023451357536
0.0234250188363