/*--------------------------------*- C++ -*----------------------------------*\
| =========                 |                                                 |
| \\      /  F ield         | OpenFOAM: The Open Source CFD Toolbox           |
|  \\    /   O peration     | Version:  3.0.1                                 |
|   \\  /    A nd           | Web:      www.OpenFOAM.org                      |
|    \\/     M anipulation  |                                                 |
\*---------------------------------------------------------------------------*/
FoamFile
{
    version     2.0;
    format      ascii;
    class       volScalarField;
    location    "3.5";
    object      k_0;
}
// * * * * * * * * * * * * * * * * * * * * * * * * * * * * * * * * * * * * * //

dimensions      [0 2 -2 0 0 0 0];

internalField   nonuniform List<scalar> 
7968
(
0.00107947575676
0.00120917742776
0.00130672141322
0.00136232938597
0.00138812410288
0.00139501251205
0.00139163875237
0.00138315471876
0.00137405160361
0.00136709501987
0.0013670945398
0.00137405071156
0.00138316052191
0.00139165821657
0.0013950487061
0.00138817815236
0.00136239089729
0.00130678184194
0.00120923546311
0.00107950617065
0.00120915301539
0.00172224156628
0.00205354513779
0.00223722607685
0.00232399183925
0.00234993405351
0.00234301225394
0.0023222511992
0.00230250606346
0.00229109585314
0.00229106724644
0.00230243300765
0.00232215265294
0.00234291579048
0.00234987659576
0.0023240027024
0.00223729773866
0.0020536480729
0.00172234920394
0.00120920617617
0.00130666245561
0.00205348513879
0.00252934196221
0.00279647850048
0.00292761390062
0.0029719118459
0.00296762139816
0.00294325554534
0.00291958034843
0.00290630165861
0.00290624745289
0.00291943510148
0.00294304059799
0.00296737995846
0.00297171083809
0.00292750772281
0.00279647093597
0.00252940148729
0.00205357503046
0.00130671931302
0.00136221922047
0.00223709245594
0.00279642439132
0.00311011026041
0.00326163087513
0.00330838547915
0.00329786214067
0.0032652170414
0.00323568475501
0.00322025369712
0.00322018021922
0.00323547427064
0.0032648820809
0.00329746608034
0.0033080180757
0.00326137216565
0.00310997796384
0.00279639224283
0.0022371255327
0.00136226991179
0.00138796259515
0.00232383363118
0.00292759797702
0.00326171769001
0.00341285791551
0.00344794851311
0.00345472432682
0.00344686618148
0.00343056142121
0.00341916554753
0.00341911254071
0.0034304122288
0.00344663602591
0.00345443251637
0.00344748042329
0.00341245747841
0.00326144560259
0.00292744846595
0.00232378061183
0.00138799085682
0.00139482421174
0.00234985627524
0.0029721003815
0.00330881432097
0.00344836788391
0.00352498888134
0.00355557845291
0.00355140123922
0.00353430904418
0.00352137838442
0.00352133168021
0.00353417647369
0.00355119348154
0.00355531732027
0.00352466715496
0.00344789958369
0.00330843131818
0.00297184555905
0.00234971728418
0.00139481904209
0.00139144177224
0.00234308156057
0.00296813871442
0.00329882731273
0.00345529856428
0.00355589253906
0.00358911863626
0.00357982261871
0.00355653415535
0.00353952765782
0.00353948793172
0.00355642074388
0.00357964234107
0.00358889174813
0.00355563471027
0.00345500028438
0.00329842943546
0.00296784235774
0.00234288803342
0.00139140259851
0.00138295089717
0.00232244718531
0.00294404655596
0.00326664578112
0.00344775261302
0.00355201019291
0.00358007677933
0.0035617733044
0.00352956818443
0.00350674733298
0.00350671498583
0.00352947950668
0.00356163939503
0.003579920856
0.00355184095128
0.00344756001298
0.00326637532524
0.00294381148065
0.00232226010589
0.00138288942673
0.00137382139016
0.002302711702
0.00292041816685
0.00323720084797
0.00343160071144
0.00353507812767
0.00355689143786
0.00352962246295
0.0034877030371
0.00345820225559
0.00345818381438
0.00348766506177
0.00352958202002
0.00355686018226
0.00353505468539
0.00343157512802
0.0032371763611
0.00292034284349
0.00230259859263
0.0013737559812
0.00136683321173
0.00229120495651
0.00290696593168
0.00322148566433
0.00342012363372
0.00352214930255
0.00353990538118
0.00350680916766
0.00345818848105
0.00342327236577
0.00342329655182
0.00345825453977
0.00350691327311
0.00354004355007
0.00352231383633
0.00342030507664
0.00322174623532
0.00290711020344
0.00229121746776
0.00136678770724
0.00136687356569
0.00229109567654
0.00290672041239
0.00322114544932
0.0034199262049
0.0035220173608
0.00353984187601
0.0035068162316
0.00345825501175
0.00342340078227
0.00342347903786
0.00345844957427
0.00350708624107
0.00354016879224
0.0035223861756
0.00342032835149
0.00322169730365
0.00290708930706
0.00229124544915
0.00136686628669
0.00137388807029
0.00230243454818
0.00291977956706
0.00323626418336
0.0034310950179
0.00353477331105
0.0035567871012
0.0035297192987
0.00348798390731
0.00345865103561
0.00345874254558
0.00348822229252
0.00353006795361
0.00355722644674
0.00353527689232
0.00343165720879
0.00323705434728
0.00292029874498
0.0023026746786
0.00137390301102
0.00138304039462
0.00232212464715
0.00294323408738
0.00326539584356
0.00344712910411
0.00355168465185
0.00358005174042
0.00356204136102
0.00353010882277
0.00350751600224
0.00350760171612
0.00353033748234
0.0035623930598
0.00358051613187
0.00355222643516
0.00344773356096
0.00326625264909
0.00294378029182
0.00232238047242
0.0013830572166
0.00139156714875
0.00234284968715
0.00296740401093
0.00329763298748
0.00345468983077
0.00355564603143
0.00358923537463
0.00358029345076
0.003557312478
0.00354053986615
0.00354061386026
0.00355751394213
0.00358061264973
0.00358966081425
0.00355614751567
0.00345524761399
0.00329835635232
0.00296784774931
0.0023430439917
0.00139156623048
0.00139498797766
0.00234980943648
0.00297163455017
0.00330793397624
0.00344744226321
0.00352478181111
0.00355581564595
0.00355202308428
0.00353525420697
0.00352254815374
0.00352261096901
0.00353542641368
0.00355229538681
0.00355617711231
0.00352522565998
0.00344805702391
0.00330838972087
0.00297188565761
0.00234989538922
0.00139496327064
0.00138815092731
0.00232399004446
0.0029274492506
0.00326123634459
0.00341224970481
0.00344763925007
0.00345500570165
0.00344755308463
0.00343156992591
0.00342037343642
0.00342042944494
0.00343172215418
0.00344778613375
0.00345530470931
0.00344804220186
0.00341256876072
0.00326141391961
0.00292750948852
0.0023239709359
0.00138810786969
0.00136238802321
0.00223738026692
0.00279653055294
0.00310997975447
0.00326136899555
0.00330825360864
0.00329812613879
0.00326596002175
0.00323679456114
0.0032215523672
0.0032216111818
0.00323694977736
0.00326618587145
0.00329838259446
0.00330847141604
0.00326148456452
0.00310999710122
0.00279648265814
0.0022373052575
0.00136234154307
0.0013067895305
0.00205380946275
0.00252958651971
0.0027965788585
0.00292761284485
0.0029719514391
0.00296786611518
0.00294378428514
0.00292035061326
0.00290723198263
0.0029072966798
0.00292050773528
0.00294398689392
0.0029680630213
0.00297209255595
0.00292766560933
0.00279655387457
0.00252951554358
0.00205373117748
0.00130674961612
0.00120923508443
0.00172250481085
0.00205379574467
0.00223741020726
0.00232411273312
0.0023500561743
0.00234322359196
0.00232261193083
0.00230300887724
0.00229170810001
0.00229176744066
0.00230315231372
0.0023227923414
0.00234339250143
0.00235017531332
0.00232416449119
0.00223739669382
0.00205374475667
0.00172245007276
0.0012092066048
0.00107950100316
0.00120926390943
0.0013068260033
0.00136243083471
0.0013882131584
0.00139508889225
0.00139171871394
0.00138325858486
0.00137418613592
0.00136726607482
0.00136730376847
0.00137426440851
0.00138334712318
0.00139179416896
0.00139513643161
0.00138823152062
0.00136242155108
0.00130680414498
0.00120924512141
0.00107948709383
0.00118963873763
0.00160851931857
0.00190946137544
0.0020940511693
0.00219643002629
0.00224376806155
0.00225710334868
0.00225238837455
0.00224238416154
0.00223512308765
0.00223510894397
0.00224235006358
0.00225234731377
0.0022570702966
0.00224375900782
0.00219645541025
0.00209410149779
0.0019095219931
0.00160858136234
0.00118967310601
0.00160845499396
0.00312184618745
0.00391504963176
0.00437667967644
0.00462752482033
0.00474192592837
0.00477424383204
0.00476449991362
0.0047430686693
0.00472811264077
0.00472806793601
0.00474295213919
0.0047643392118
0.00477408168757
0.0047418207481
0.00462752009218
0.00437676709796
0.00391518303587
0.00312197189604
0.00160849993085
0.00190934549468
0.00391491569369
0.00496574166824
0.00559399984581
0.00595072726766
0.00612639001017
0.00618895619161
0.00619115540986
0.00617293176843
0.00615838637481
0.00615831857997
0.00617274575076
0.00619087535496
0.00618863744235
0.00612611791465
0.00595056567707
0.00559395802992
0.00496578635245
0.00391499813146
0.00190937725447
0.00209387478405
0.00437641601147
0.00559388581253
0.00633351587464
0.00676155219811
0.00697809554753
0.00706033114974
0.00706924129205
0.00705455041066
0.00704284263642
0.00704277195346
0.00705434145473
0.00706885580923
0.0070598593448
0.00697765579573
0.00676120356284
0.00633329339809
0.00559377785432
0.00437638987164
0.00209387555154
0.00219622099844
0.00462724092962
0.00595064137383
0.00676161542132
0.00723322183137
0.00747414325295
0.00757093823302
0.0075788120896
0.00755820909905
0.00754126615933
0.0075411686475
0.00755792560461
0.00757835895097
0.00757039820636
0.00747369641983
0.00723273429949
0.00676121387805
0.00595036044097
0.00462707306454
0.00219617214962
0.00224358324248
0.00474179608941
0.00612654902446
0.00697848999928
0.00747443857636
0.00772309223094
0.0078049227154
0.00780085966577
0.00777041755494
0.00774769221807
0.00774759837883
0.00777014143499
0.00780041323576
0.00780436546621
0.00772252088256
0.00747395934047
0.00697797056158
0.00612613093248
0.00474150450088
0.00224347864352
0.0022569928371
0.00477437646489
0.00618950645244
0.00706127822558
0.00757202549212
0.00780563097677
0.00787049575014
0.00785002588157
0.00780662455447
0.00777673098963
0.007776651582
0.00780638979269
0.00784964576322
0.00787000903987
0.00780509674437
0.00757148700512
0.00706074445696
0.00618905253671
0.00477403104451
0.00225684769386
0.00225235370304
0.00476484773112
0.00619200276474
0.00707056715578
0.00758049342782
0.0078021722832
0.00785055270449
0.00781324162057
0.00775783517901
0.00772085993945
0.00772079459121
0.00775765099372
0.00781296539295
0.00785023368122
0.00780183837134
0.00758014829378
0.0070702062889
0.00619166450514
0.00476456062618
0.00225220518974
0.00224236600247
0.00474345319825
0.0061738102027
0.00705568181183
0.0075600863459
0.00777197374468
0.0078072730352
0.00775787382846
0.00769011551994
0.0076460866013
0.00764605090275
0.0076900361012
0.00775778540807
0.00780722076143
0.0077719638605
0.0075600828935
0.00705560742835
0.0061737169027
0.0047433311309
0.00224225889033
0.00223506081224
0.00472837273202
0.00615908691281
0.00704378381721
0.00754300039808
0.00774918832027
0.0077773371699
0.00772083208283
0.00764599689653
0.0075979687371
0.00759799975787
0.00764610033331
0.00772101814494
0.00777763474719
0.00774957973979
0.0075434078872
0.00704401835085
0.00615931166803
0.00472848565771
0.00223503375429
0.00223501462822
0.004728190376
0.00615880388509
0.00704352487523
0.00754265326299
0.00774893067961
0.00777723442723
0.00772087946434
0.00764616197202
0.00759823236042
0.00759834988288
0.00764648793043
0.00772137840303
0.00777791636717
0.00774974643589
0.00754348403075
0.00704408839558
0.00615935335558
0.00472854790632
0.00223507923815
0.00224225791202
0.00474299885234
0.00617307236111
0.00705496163769
0.00755917194913
0.00777134627138
0.00780710888469
0.00775814544653
0.00769075011278
0.00764701402948
0.00764717307647
0.00769119453236
0.00775883844306
0.00780806049953
0.00777247702469
0.00756032655338
0.00705580872446
0.00617385455719
0.00474352468821
0.00224238065313
0.00225225432315
0.00476432257708
0.0061910508315
0.00706936687359
0.00757929529097
0.00780144711352
0.00785053524303
0.00781388020623
0.00775903147356
0.00772248631683
0.0077226525182
0.00775950169318
0.00781463355637
0.00785159335039
0.00780271111687
0.00758059187822
0.00707047300801
0.00619191847931
0.0047648984819
0.00225238617104
0.00225697515993
0.00477401267878
0.0061886625618
0.00706009910551
0.00757094558386
0.00780506659343
0.00787075215617
0.00785110360876
0.0078083682411
0.00777894884812
0.00777910823174
0.00780882510231
0.00785184782889
0.00787176840451
0.00780626034294
0.00757213265732
0.00706113310231
0.00618943988743
0.0047745161105
0.00225707106534
0.00224369385948
0.00474178290629
0.00612609774537
0.00697772583964
0.00747399132615
0.00772288487102
0.00780546036167
0.00780223526272
0.00777249333956
0.00775024356556
0.00775038710676
0.00777290429585
0.00780289668455
0.00780633183318
0.00772383548052
0.00747478859885
0.00697847470655
0.00612664822754
0.00474212468394
0.00224373121313
0.0021964519283
0.00462763615162
0.00595067742609
0.00676132568565
0.00723291817203
0.00747432495458
0.00757165474501
0.00758026360131
0.00756028904211
0.00754376619221
0.00754389588162
0.00756065451781
0.0075808301902
0.00757235041728
0.0074749871347
0.0072335284727
0.00676179251421
0.0059509882516
0.00462780690942
0.00219643746844
0.00209417027114
0.00437714405444
0.00559435906358
0.00633370026147
0.0067616183656
0.00697836277043
0.00706105959357
0.00707053600544
0.00705622019251
0.0070447966574
0.0070449216869
0.0070565637442
0.00707105237256
0.0070616558893
0.00697891664714
0.00676205064791
0.00633398895946
0.0055945219202
0.00437720944169
0.00209413281962
0.00190963951734
0.00391581117414
0.00496649929213
0.00559454227127
0.00595113871286
0.00612687432895
0.00618972698917
0.00619231964245
0.00617445048353
0.00616017867318
0.00616031257242
0.00617480386936
0.00619281402229
0.00619026721664
0.00612736269827
0.00595150750385
0.00559477726659
0.00496661923018
0.00391584812401
0.00190960276164
0.00160867660065
0.0031226686333
0.00391585368091
0.00437736284995
0.00462810752764
0.00474252779168
0.00477501012643
0.00476552072637
0.00474433740392
0.00472958563473
0.00472970725699
0.00474465495625
0.00476596117627
0.00477549094848
0.00474297040241
0.00462845842725
0.00437759706567
0.00391597976266
0.00312271151047
0.00160864781649
0.00118968238786
0.00160880405613
0.00190979312238
0.00209435043173
0.00219668447741
0.00224400732638
0.00225738376801
0.00225275661411
0.00224284628398
0.00223566674252
0.00223572031252
0.00224297669357
0.00225292362693
0.00225754945729
0.00224414367057
0.002196777001
0.00209439745284
0.00190980880148
0.00160880262794
0.00118966262004
0.0012736354026
0.00185535633075
0.00228088796258
0.00255083566235
0.00270876816316
0.00278993906196
0.00282207663363
0.00282740941256
0.00282303531197
0.00281879279696
0.00281877089375
0.00282298255159
0.00282734271277
0.00282201550195
0.00278990977438
0.00270878996481
0.0025508996007
0.0022809743014
0.00185544506222
0.00127367567361
0.00185527014238
0.00375504488411
0.0047758217554
0.00539140798366
0.00574466124053
0.00592360542649
0.00599314958429
0.00600327852306
0.00599136494453
0.00598009204206
0.00598004412546
0.00599124339755
0.00600311236206
0.0059929806425
0.00592350492857
0.00574468900502
0.00539155583654
0.00477603300725
0.0037552485124
0.00185533821332
0.00228073515487
0.00477562252312
0.00610533581132
0.0069275782284
0.00742067669889
0.00768801181403
0.00780781828014
0.00784341871994
0.0078419586667
0.00783344850968
0.00783338220982
0.00784178201512
0.00784316098731
0.00780751155616
0.00768774897495
0.00742053560144
0.00692756815198
0.00610542129546
0.00477575287021
0.00228077866134
0.00255061332135
0.0053910427963
0.00692741597772
0.00789353248144
0.00848769309294
0.008822115087
0.00898115475655
0.00904098163439
0.00905233400311
0.00904718334124
0.00904710718151
0.00905212520628
0.00904069491952
0.00898072367435
0.00882168762052
0.00848735891071
0.00789331824411
0.00692731105014
0.0053910232713
0.00255060253397
0.00270852930656
0.00574427611987
0.0074205101415
0.00848769486783
0.00915467221127
0.00954217391683
0.00972750190167
0.00979337476225
0.00980181340046
0.00979467567089
0.00979458685577
0.00980155712407
0.00979297816251
0.00972700498991
0.00954166388706
0.00915418294533
0.00848728323328
0.00742019968001
0.00574407373107
0.00270844526166
0.00278976301043
0.00592341349683
0.00768806679609
0.0088223624606
0.0095424336974
0.00995035565369
0.0101460788612
0.0102126656588
0.0102151413792
0.0102030965347
0.0102030009658
0.0102148610911
0.0102122312182
0.0101455419694
0.0099497879525
0.00954187757345
0.0088218133529
0.0076875965991
0.0059230562434
0.00278960397754
0.00282203611149
0.00599328781629
0.00780823379309
0.0089817920098
0.00972824013803
0.0101466114673
0.0103461405154
0.0104080159096
0.0104001924856
0.0103807360304
0.010380642516
0.0103999191665
0.0104076166358
0.0103456364909
0.0101460701964
0.00972770121313
0.00898124068092
0.0078077321871
0.00599287813206
0.00282183264469
0.00282749894325
0.0060036691737
0.00784406208892
0.00904164885399
0.00979447940701
0.010213700335
0.0104086148912
0.0104588158464
0.0104364727582
0.0104070306626
0.0104069560821
0.0104362666099
0.0104585522374
0.0104082542339
0.0102133195846
0.00979412248195
0.00904131168223
0.00784370818903
0.00600335818299
0.00282731024675
0.00282315174395
0.00599177366364
0.00784264199909
0.0090532610239
0.00980309755281
0.010216378647
0.0104009813835
0.0104367137984
0.0103993489115
0.0103607619887
0.0103607480388
0.0103993054631
0.010436621721
0.0104008610371
0.0102162943523
0.00980305608649
0.0090532101486
0.00784257781763
0.00599169730078
0.00282304209258
0.00281882808442
0.00598030909023
0.0078339474842
0.00904800962357
0.00979587982265
0.010204277412
0.010381444567
0.010407169218
0.0103607320087
0.010317298345
0.0103173271674
0.0103608295784
0.0104073104713
0.0103816609596
0.0102045805872
0.00979623940936
0.00904834547227
0.00783426642674
0.00598055276811
0.00281884427593
0.00281871377163
0.00598002747422
0.00783359563435
0.00904766515732
0.00979555114643
0.0102040402688
0.0103813560143
0.0104072462509
0.0103609847793
0.0103176431904
0.0103177439509
0.0103612537023
0.0104076596876
0.0103819385748
0.0102047442978
0.00979631115776
0.0090483796257
0.00783428650061
0.00598058678315
0.00281886046253
0.00282286976087
0.00599106014891
0.00784173660459
0.00905237941602
0.00980223817854
0.0102157833781
0.0104008206363
0.0104369924765
0.0104000514262
0.0103617410173
0.010361897497
0.0104004635886
0.0104376223215
0.0104016579151
0.0102167734264
0.00980327784304
0.00905333508705
0.00784266328039
0.00599182183321
0.00282309668979
0.00282717110376
0.00600278931606
0.00784290343468
0.00904063376714
0.00979335727386
0.0102129513141
0.0104085223967
0.0104594494303
0.0104376461337
0.0104085876167
0.0104087561846
0.0104381193598
0.0104601910205
0.0104094838218
0.0102140734227
0.00979450745904
0.00904159498722
0.00784389258496
0.0060036036939
0.00282741005691
0.00282179626128
0.00599255250633
0.00780711569234
0.00898050682912
0.00972710382493
0.0101459367376
0.0103462248167
0.0104089717337
0.0104018327882
0.0103828268879
0.0103829901038
0.0104023091125
0.0104097242218
0.0103471879206
0.0101470347599
0.00972821506542
0.00898154525294
0.007808027177
0.00599327196886
0.00282198382359
0.00278971402472
0.00592311017951
0.00768736026747
0.00882140554045
0.00954160616369
0.00994993885334
0.0101463754608
0.0102137882247
0.0102169682002
0.0102054114398
0.0102055699556
0.0102174235988
0.0102144922539
0.0101472478002
0.0099508773382
0.00954249512507
0.00882220891757
0.00768803123848
0.00592361697147
0.00278981350416
0.00270868416132
0.0057445129031
0.00742037364229
0.00848725354249
0.00915419184646
0.00954204110466
0.00972794881282
0.00979450610401
0.00980356565129
0.00979687657062
0.00979703174566
0.00980399973209
0.00979515138991
0.00972871136024
0.00954279761581
0.00915485252
0.00848778015322
0.00742077916291
0.00574479115308
0.00270870335794
0.00255091495741
0.0053917590315
0.00692782613829
0.00789362966724
0.0084876486267
0.00882222942957
0.00898170612397
0.00904204091048
0.00905392143584
0.00904915851815
0.00904932122568
0.00905436123552
0.00904266216549
0.00898242380142
0.00882289339251
0.00848816758458
0.00789400452718
0.006928077522
0.00539190033016
0.00255089642108
0.00228109531995
0.00477663931218
0.00610615268767
0.00692812842947
0.00742105729911
0.00768844103109
0.00780853417627
0.00784454228296
0.007843483917
0.00783531055696
0.00783549108161
0.00784395911369
0.007845200818
0.00780925053606
0.00768909382982
0.00742156555051
0.00692848393631
0.00610637264939
0.00477674701108
0.0022810759265
0.00185557271217
0.00375608446922
0.00477680316832
0.00539221276742
0.00574532001525
0.00592426988787
0.00599401125947
0.00600445252441
0.00599284119537
0.00598182393412
0.00598199398169
0.00599328559824
0.00600507069212
0.00599469142954
0.00592490918812
0.00574584308623
0.00539259361993
0.00477704575587
0.0037562044236
0.00185555806189
0.00127367070293
0.0018557483128
0.00228133560343
0.00255122207718
0.0027090787762
0.00279022044338
0.00282241491006
0.00282787151923
0.00282362039989
0.00281947653895
0.00281954516228
0.00282379071132
0.0028280971138
0.00282264884602
0.00279042571212
0.00270922977658
0.00255131673337
0.00228138662454
0.00185576560222
0.00127364713214
0.00133529965139
0.0020294283293
0.00254446427998
0.00287731703985
0.00307753605063
0.00318605696816
0.00323620094561
0.00325501158224
0.00326131807063
0.0032635775593
0.00326354426072
0.00326123593258
0.0032549022702
0.00323609001731
0.00318598421642
0.00307753609832
0.00287738514748
0.00254457688213
0.0020295499021
0.00133534458536
0.00202933871303
0.00420309155435
0.00539645233742
0.00612954036745
0.0065601339752
0.00678750651026
0.00688639271405
0.00691499073964
0.00691491619966
0.00690996735187
0.00690990509528
0.0069147585767
0.00691476925848
0.00688615200793
0.00678733605774
0.00656012536808
0.00612969521447
0.00539670926453
0.00420336097922
0.00202943843503
0.00254429926275
0.00539621726865
0.00694299932567
0.00791591699957
0.00851381395306
0.00885142911768
0.00901644333505
0.00907970157366
0.00909271180339
0.00909056573304
0.00909049244461
0.0090925158692
0.00907940783027
0.00901608891154
0.00885110763954
0.0085136330121
0.00791589366784
0.00694309514682
0.00539637289713
0.00254436086995
0.00287708117151
0.00612913879854
0.00791573905355
0.00905620626751
0.00977632301523
0.0102007027866
0.0104228987753
0.0105230100335
0.0105492390426
0.0105495090371
0.0105494306244
0.010549017872
0.0105226655116
0.010422442209
0.0102002286022
0.00977594943066
0.00905595734547
0.00791560364603
0.00612909313343
0.00287705985112
0.00307731416832
0.00655974679715
0.00851362948602
0.00977628398401
0.0105914667074
0.0110939016675
0.0113651959446
0.0114833629268
0.0115126138234
0.0115108612306
0.0115107757032
0.011512354353
0.0114829498089
0.0113646765148
0.0110933473777
0.0105909377995
0.00977582169078
0.00851325133321
0.0065594695378
0.00307719187164
0.00318594900394
0.00678738488907
0.00885146744885
0.0102008263223
0.0110940410603
0.0116479770606
0.0119519386637
0.0120789721841
0.0121029625177
0.0120952668575
0.0120951625793
0.0121026476985
0.0120784832748
0.011951323239
0.0116473276286
0.0110934215955
0.0102002104576
0.00885090524219
0.00678691693901
0.00318572897355
0.00323629143938
0.00688669740065
0.00901684015803
0.0104233336297
0.0113656365287
0.0119523376542
0.0122703108175
0.0123931038892
0.0124037696905
0.0123861374839
0.0123860257254
0.0124034382229
0.0123926259828
0.0122696825538
0.0119516569969
0.0113650073265
0.0104227165531
0.00901625885067
0.0068861826057
0.003236020027
0.0032552754745
0.00691560278262
0.00908032680739
0.0105235787952
0.0114840617014
0.0120798271541
0.01239369542
0.0125010627755
0.0124932760989
0.0124632742868
0.0124631839899
0.0124930166184
0.0125007160769
0.0123931941961
0.0120792679686
0.0114835700645
0.0105231554319
0.00907992879352
0.00691523647111
0.00325503118304
0.00326159092163
0.00691548241328
0.00909327482794
0.0105498133385
0.0115133915007
0.0121039356569
0.0124044999501
0.012493509164
0.0124676213094
0.0124270390876
0.0124270209986
0.0124675422112
0.012493314132
0.012404205695
0.0121036437107
0.011513183217
0.0105497048858
0.00909322436294
0.00691543466437
0.0032614543266
0.00326370049318
0.00691019190252
0.00909082587708
0.0105499103024
0.0115115364814
0.0120961134879
0.0123866582567
0.0124632979489
0.0124269603706
0.0123810163069
0.0123810256447
0.0124269923545
0.0124632976543
0.012386666256
0.0120961836656
0.0115117003132
0.0105502069031
0.00909122353402
0.00691056142438
0.00326372526364
0.00326350038734
0.00690973521967
0.00909032070505
0.0105494631604
0.0115111620333
0.0120958341653
0.0123865230423
0.0124633288851
0.0124271799538
0.0123813202241
0.0123813952776
0.012427354291
0.0124635698801
0.0123868704083
0.0120962785851
0.0115116948637
0.0105501521689
0.00909114448223
0.00691049828588
0.00326368281239
0.00326106885566
0.00691428361231
0.0090919417479
0.0105486175491
0.0115123718633
0.0121032060801
0.0124041917478
0.0124936249091
0.012468162484
0.0124278308246
0.0124279711753
0.0124685012664
0.0124941077819
0.0124048035306
0.0121039214712
0.0115131616292
0.0105495593055
0.00909302450269
0.00691528850055
0.00326134899912
0.00325459334815
0.00691401248589
0.00907852100707
0.0105219263141
0.0114826272854
0.0120788022116
0.0123933512842
0.0125014424249
0.0124941485038
0.012464482078
0.0124646440778
0.0124945836946
0.0125020880488
0.0123941275886
0.0120796633837
0.0114835407049
0.0105229602364
0.00907966182288
0.00691506423497
0.00325488910018
0.00323565083819
0.00688515684136
0.00901499716583
0.0104214737183
0.0113640907927
0.0119512382557
0.0122700059356
0.0123937060714
0.0124050182241
0.0123877815659
0.012387945264
0.0124054865573
0.0123944109229
0.0122708338842
0.0119521150884
0.0113649805206
0.0104224723275
0.00901600650124
0.00688606471068
0.00323588038025
0.00318552932877
0.0067863144105
0.00885002005984
0.0101992197044
0.0110926574999
0.0116470264058
0.0119516787775
0.0120795694143
0.0121042619156
0.0120970335269
0.0120972009512
0.0121047396335
0.0120802720981
0.0119524731706
0.0116477991084
0.0110933990214
0.0101999752935
0.0088507389978
0.00678693079388
0.00318563856824
0.00307716685677
0.00655933573402
0.0085128168833
0.00977518997176
0.0105903351863
0.0110931107568
0.0113649391856
0.0114837599448
0.0115136227701
0.0115123258102
0.0115124999058
0.0115141111412
0.0114844477133
0.0113656716751
0.0110937753861
0.0105908865123
0.00977564706294
0.00851321175986
0.00655963530282
0.00307716163421
0.0028771559089
0.00612935215123
0.0079155780606
0.00905569979393
0.00977563178585
0.0102001072525
0.0104227039642
0.0105233305706
0.0105500393718
0.0105507087357
0.0105509005279
0.0105505526357
0.0105240314354
0.0104234396243
0.0102007366059
0.00977607953953
0.00905601656252
0.0079157924533
0.00612946573306
0.00287709777101
0.00254450458422
0.00539688441363
0.00694337623282
0.00791595981282
0.00851361799903
0.00885121396971
0.0090164687266
0.00908011550285
0.00909351889847
0.00909172943349
0.00909194890121
0.00909408245769
0.009080870625
0.00901724364425
0.00885188223057
0.0085141032392
0.00791628175694
0.00694356119796
0.00539695555373
0.00254445140407
0.00202955455557
0.0042039417841
0.00539715610909
0.00612998488182
0.00656035088685
0.00678766769301
0.00688673804616
0.00691567125266
0.0069159114265
0.00691122894618
0.00691143362055
0.00691643362768
0.00691637792866
0.00688748880033
0.00678835071349
0.00656088142915
0.00613035710856
0.00539738439565
0.00420404288188
0.00202951701584
0.00133525753511
0.00202974157025
0.00254479479609
0.00287754248278
0.00307763752459
0.0031860815584
0.0032362532555
0.00325517827941
0.00326158957395
0.00326392695885
0.0032639966796
0.00326175727459
0.00325539376223
0.00323646873316
0.00318626328049
0.00307775619561
0.00287760552378
0.00254481975989
0.00202973801883
0.00133521979807
0.00139789534576
0.00221339891304
0.00282024394824
0.00321614555763
0.00345967305638
0.00359803929901
0.00367198447285
0.00371426220876
0.00374273868607
0.00375917641408
0.00375912674439
0.00374261142332
0.00371408702419
0.0036717972078
0.00359789406638
0.00345962129879
0.00321618898274
0.00282035720843
0.00221353156805
0.00139794216775
0.00221333868376
0.00466798480506
0.00602911469704
0.00687207330477
0.00737071699389
0.00763701010288
0.00775975831104
0.00780764215474
0.00782491923921
0.00783118788215
0.0078310987044
0.00782468960031
0.00780731157595
0.00775938278947
0.00763670513536
0.00737061015053
0.00687217384727
0.00602935362459
0.00466826467799
0.002213460392
0.00282011744837
0.00602888299348
0.00778528992212
0.00889389966347
0.00957693979775
0.00996592648262
0.0101639137884
0.0102480462934
0.0102727136252
0.0102759768495
0.0102758793644
0.0102724585249
0.0102476523823
0.0101634212986
0.00996544643928
0.00957663262546
0.00889379230975
0.0077853370152
0.00602901668837
0.00282018697506
0.00321595769376
0.00687170458773
0.00889374716596
0.0101844375843
0.0110058489511
0.011502522041
0.011774446137
0.0118975193051
0.0119297549704
0.0119295848788
0.0119294834422
0.0119294698936
0.0118970691939
0.0117738630377
0.0115018345139
0.0110053108654
0.0101840743486
0.00889352949105
0.0068716017417
0.00321591661487
0.0034595273776
0.0073704234053
0.00957681612511
0.0110058118861
0.0119455603157
0.0125450248237
0.0128820642335
0.0130264157175
0.0130540631776
0.0130451385707
0.0130450351666
0.0130537439314
0.0130258887714
0.0128813527777
0.0125442205759
0.0119448258631
0.0110051911009
0.00957631649189
0.00737004749319
0.00345935908471
0.00359803574363
0.00763705502429
0.00996605729115
0.0115026061092
0.0125451376572
0.0132176819095
0.0135876354219
0.0137276327121
0.0137366247972
0.0137138800784
0.0137137626004
0.013736256901
0.0137270024013
0.0135867547994
0.0132167084625
0.0125442353472
0.011501769805
0.00996533736836
0.00763644767783
0.00359774389608
0.00367219583015
0.00776029115817
0.0101643993159
0.0117747536185
0.0128823933383
0.0135879888592
0.0139514393672
0.0140635871678
0.0140432857557
0.0140022138212
0.0140021134842
0.0140429710173
0.0140629887623
0.013950543149
0.0135869438444
0.0128814488346
0.0117739203229
0.0101636628695
0.00775962616144
0.00367182767137
0.00371464330984
0.00780848580952
0.0102487274444
0.0118979896615
0.0130269738594
0.0137284169262
0.0140636555757