/*--------------------------------*- C++ -*----------------------------------*\
| =========                 |                                                 |
| \\      /  F ield         | OpenFOAM: The Open Source CFD Toolbox           |
|  \\    /   O peration     | Version:  3.0.1                                 |
|   \\  /    A nd           | Web:      www.OpenFOAM.org                      |
|    \\/     M anipulation  |                                                 |
\*---------------------------------------------------------------------------*/
FoamFile
{
    version     2.0;
    format      ascii;
    class       volVectorField;
    location    "9.2";
    object      ddt0(U);
}
// * * * * * * * * * * * * * * * * * * * * * * * * * * * * * * * * * * * * * //

dimensions      [0 1 -2 0 0 0 0];

internalField   nonuniform List<vector> 
7968
(
(8.66498361317e-05 6.84808067679e-05 -8.61161110814e-05)
(0.000271963344783 0.000108384262715 -0.000110340402986)
(0.000396917754896 0.000119482533252 -0.000105635595314)
(0.000461102775587 0.000105691864227 -7.59182186495e-05)
(0.000501385419117 7.86401505104e-05 -2.8477088728e-05)
(0.000473455565592 4.5137254465e-05 2.45563561841e-05)
(0.000460575354657 1.57540702279e-05 4.8595640899e-05)
(0.000445875440131 -1.14262880248e-05 7.78136466304e-05)
(0.000408510337921 -2.28199962831e-05 0.000103947065848)
(0.000348801481295 -2.39576342876e-05 0.00011746871542)
(0.000276642571658 -1.99355150196e-05 0.000121087971908)
(0.00019259694849 -1.1214251699e-05 0.00011502262802)
(0.00010341417127 5.68504596145e-06 9.63773926965e-05)
(1.83924151941e-05 3.29946832533e-05 7.05652534229e-05)
(-6.53385860459e-05 4.74967739302e-05 3.12458590625e-05)
(-0.000155971185446 0.000108867433135 1.52324844448e-05)
(-0.000220886928719 0.000118089852199 -5.01662054525e-05)
(-0.000228131585884 0.000131803152798 -7.99918506641e-05)
(-0.000179284160761 0.00012006532201 -8.73200258604e-05)
(-5.74231581164e-05 7.57144136397e-05 -6.57744195133e-05)
(0.000130167598325 0.000212783947585 -0.000106798429248)
(0.000346370308701 0.000280225131547 -0.000145727661218)
(0.000429131171034 0.00028942297056 -0.000114037248466)
(0.000460395313231 0.000237695420822 -5.9863678872e-05)
(0.000463538175215 0.000143516605347 1.79766211225e-05)
(0.000420202086705 2.80264360563e-05 9.72047077326e-05)
(0.000407989755136 -9.55716031372e-05 0.000152651818559)
(0.000399484452899 -0.000194825096336 0.000212988593844)
(0.000378939763275 -0.000253503680448 0.000264527426861)
(0.000344164305262 -0.000274256282611 0.000293495757715)
(0.000298465794879 -0.000268781968384 0.000300210226168)
(0.000239480962864 -0.000238632916506 0.000285037104526)
(0.000169624316741 -0.000174046285755 0.000245630141556)
(9.1250343325e-05 -7.23455905589e-05 0.000190549482432)
(5.75054126252e-06 4.5554963278e-05 0.000131725910337)
(-0.000112807354671 0.000175913402866 6.86347331827e-05)
(-0.000200335097991 0.000266637590979 -1.70073662073e-05)
(-0.000249182581657 0.000317435464458 -7.5840975155e-05)
(-0.000245242376695 0.000307551067134 -0.000114714476284)
(-9.78145621026e-05 0.000234075566777 -8.75829272951e-05)
(0.000142390123182 0.000289683985295 -0.00010083217657)
(0.000357956042523 0.000312601817679 -0.000111632262109)
(0.000397126878954 0.000277311338472 -3.07695261445e-05)
(0.000380709071036 0.000158926994692 3.81055367606e-05)
(0.000348019771356 -1.51209220699e-05 0.000110534973577)
(0.000301717053802 -0.000221635886701 0.000172989336749)
(0.000301258317148 -0.000431087385988 0.000213574527021)
(0.000317261747286 -0.000595795310208 0.000258103569261)
(0.000329369989283 -0.000697544497716 0.00030049963612)
(0.00033253753762 -0.000739763743582 0.000325809257026)
(0.000324066072227 -0.000729833806051 0.000332111013606)
(0.000301220334901 -0.000669693614985 0.00031940550524)
(0.000260897539841 -0.000555531908676 0.000287905249816)
(0.000203764051507 -0.000385643396596 0.000248526912026)
(0.000128066595144 -0.000177799619755 0.00020944329893)
(2.66386521125e-06 3.99060686945e-05 0.000158171137162)
(-0.000118063951404 0.000206325555333 8.39859216539e-05)
(-0.000213557675896 0.000320779345188 1.09531538965e-05)
(-0.000253307836003 0.000353409358928 -7.71578577925e-05)
(-0.000108559521587 0.000323023479288 -8.06424175109e-05)
(0.000129917679211 0.000308154319329 -7.28313576886e-05)
(0.00030782849498 0.000294505655628 -5.63544085691e-05)
(0.00028123574852 0.000212345906257 3.89540855503e-05)
(0.000201746624248 3.12554365919e-05 9.23855543771e-05)
(0.000127536634265 -0.000217304024236 0.000144677073929)
(7.61994785061e-05 -0.000492330706382 0.00015411559538)
(0.00010175262288 -0.00075749607978 0.000149629619078)
(0.000163370683916 -0.000961153959204 0.000165565306281)
(0.000236349637373 -0.00108793935535 0.000190005641817)
(0.000306527113285 -0.0011394388109 0.000205121500275)
(0.000365532724935 -0.00112534423393 0.000210559597246)
(0.000408745854977 -0.00104821596536 0.000207143530782)
(0.000427483402811 -0.000903175503326 0.000195596808383)
(0.000410349219716 -0.000690761094016 0.000185549904662)
(0.000354200042926 -0.000427713648559 0.00019281670148)
(0.000220216310385 -0.000146375579535 0.000191157697278)
(5.9044068518e-05 9.28678654808e-05 0.000137932896678)
(-9.71853018176e-05 0.000267135074163 8.22374598806e-05)
(-0.000202010854423 0.000345891397529 -2.07365329607e-05)
(-9.41703412131e-05 0.000351690678808 -5.24101620125e-05)
(0.000111700639392 0.000294404728445 -2.03171142254e-05)
(0.000216546003406 0.000247334642427 2.30042250676e-05)
(0.000110533732321 0.000130525009597 0.000110695305917)
(-4.50745237756e-05 -9.27505472717e-05 0.00014287605132)
(-0.000157458717521 -0.000381666235363 0.000135805235725)
(-0.000207983288143 -0.000700685845082 9.22230008779e-05)
(-0.000147626340659 -0.000997520240018 4.5117256324e-05)
(-2.63170587883e-05 -0.00122350918529 2.46521315675e-05)
(0.000123867159179 -0.00135995648481 2.00779877813e-05)
(0.000276604888634 -0.00141369476288 2.11992591841e-05)
(0.00041897600641 -0.00139465572994 2.78521342511e-05)
(0.000542183473527 -0.00130662087533 4.12676077022e-05)
(0.00063214578726 -0.00114477411411 6.0830682135e-05)
(0.000667000656936 -0.000908890606136 9.04104756316e-05)
(0.000635113919025 -0.000615465024046 0.000137302675479)
(0.000498845493279 -0.000293191826511 0.000180324387171)
(0.000298836955291 -1.87929690056e-05 0.000190927594026)
(7.00278437163e-05 0.00019332270295 0.000155913265797)
(-0.000112166055755 0.000305359296189 6.10900859571e-05)
(-7.53713201258e-05 0.000343618520111 4.14828725923e-06)
(6.87073712571e-05 0.00022830262364 1.69928936527e-05)
(9.44508713559e-05 0.000163550356804 9.41165133422e-05)
(-0.000103054370104 4.19500490958e-05 0.000167549974162)
(-0.000329335316437 -0.000187403755132 0.0001466222969)
(-0.000482738838253 -0.000478296426965 8.48593916338e-05)
(-0.000521041201095 -0.000788151987244 -2.52126004549e-05)
(-0.000416692738247 -0.00106426898217 -0.000116778479739)
(-0.000224139354372 -0.0012715935928 -0.000167776010518)
(9.75993363795e-06 -0.00139315570065 -0.000187147161066)
(0.000247219114896 -0.00143727900075 -0.00018916493612)
(0.00047330155135 -0.00141526560969 -0.000180441407244)
(0.000679281431355 -0.00133252589439 -0.000158966827444)
(0.000846642461072 -0.00118139370262 -0.000119045101599)
(0.000940987497347 -0.00096187509353 -5.58417628635e-05)
(0.000941233301554 -0.000689313549343 3.39038127101e-05)
(0.000815532180118 -0.000381929314318 0.000145674838158)
(0.000569713867011 -0.00010953406067 0.000200623954539)
(0.000277244834698 0.000107569083835 0.000213225630574)
(7.85903606447e-06 0.000221513235261 0.000132486587958)
(-3.00028842162e-05 0.000277365723573 4.01848563731e-05)
(4.64751270684e-05 0.000181962376646 4.60567250418e-05)
(-2.66362621332e-05 0.000116830552334 0.000150863776096)
(-0.000314202019524 4.73927487366e-06 0.000208119079685)
(-0.000600433628349 -0.000201208617249 0.000139703604585)
(-0.00078469011189 -0.000463261393542 3.40427672542e-05)
(-0.000800092977967 -0.000737577860924 -0.000120996348336)
(-0.000652053229242 -0.000978473239129 -0.000243661840599)
(-0.000393936097103 -0.00116030328241 -0.000317511032281)
(-8.52346522112e-05 -0.00126441219934 -0.00034780098485)
(0.000227119688037 -0.00129636440195 -0.000351979910129)
(0.000523787411787 -0.00127361044748 -0.000339874601804)
(0.000801607011031 -0.00119982970511 -0.000311483648524)
(0.00103686619968 -0.00106576808948 -0.000253750005844)
(0.00118142600179 -0.000872019475998 -0.000164842371084)
(0.00121117782126 -0.000636518590161 -4.69723296524e-05)
(0.00110273652188 -0.000368715483915 0.000106376013888)
(0.000823723741747 -0.000126714605449 0.000198649929327)
(0.000479220391156 6.72138102684e-05 0.000253211252461)
(0.000124557759963 0.000169706001632 0.000190273043683)
(-9.25902770446e-06 0.000226770314942 7.14248177696e-05)
(1.92951993952e-05 0.000133708376627 7.24726253256e-05)
(-0.000126634031376 7.52777397399e-05 0.000208279999736)
(-0.00048322600341 -1.4324710261e-05 0.000250817703013)
(-0.000813733446505 -0.000175646774846 0.000151181328906)
(-0.00102391114965 -0.00038225953159 6.64128979367e-06)
(-0.00102040443178 -0.000593104701937 -0.000183948103847)
(-0.000839456202023 -0.000777313841706 -0.000334304383942)
(-0.000526238766408 -0.000914257532834 -0.000433342568147)
(-0.000152922742091 -0.000990812241232 -0.000472120060796)
(0.000211993298737 -0.00103188598864 -0.000423942105327)
(0.000567768108841 -0.00100558282706 -0.000425841400935)
(0.000901421499723 -0.000939502114374 -0.000415611180107)
(0.0011879827662 -0.00082997182833 -0.000350188798317)
(0.00137215459059 -0.000683569988179 -0.000234728397964)
(0.00142055925441 -0.000505123810968 -9.40001506903e-05)
(0.00132587816665 -0.000301739099483 8.93056734059e-05)
(0.00102268728002 -0.000115033157031 0.000216584765196)
(0.000639109291874 3.83541845312e-05 0.000295496288642)
(0.000220639213285 0.000117987199883 0.000248770588629)
(1.55306670332e-05 0.000169896427102 9.83890281366e-05)
(4.60568211065e-06 7.41651039741e-05 9.40937893514e-05)
(-0.000188463113075 3.39406163781e-05 0.000252494366232)
(-0.000595224289805 -2.36868004989e-05 0.000287963626285)
(-0.000955759145339 -0.000125587866782 0.000170804608372)
(-0.00118038976373 -0.000255275103808 -7.77461110368e-06)
(-0.00116440134648 -0.000385768379837 -0.000219234616326)
(-0.000960905452271 -0.000500831869633 -0.000387568455519)
(-0.000609445971217 -0.00057653534391 -0.000498528587427)
(-0.000209404030441 -0.000631016154655 -0.000487007793734)
(0.00019642297658 -0.000652346079706 -0.000503905256723)
(0.000593111737096 -0.00063864104234 -0.000498206953433)
(0.000970674019669 -0.000599143354208 -0.000465289069385)
(0.00128643999122 -0.000522651614991 -0.000403172947451)
(0.00149297145956 -0.00043427176646 -0.000270743621492)
(0.00155373144042 -0.000326602956782 -0.000116651120694)
(0.00146956809756 -0.00020204128263 8.33303811505e-05)
(0.0011502082747 -8.55323788199e-05 0.00023649882206)
(0.000742518404266 1.12011307695e-05 0.000332114730903)
(0.000278530590441 6.1551932401e-05 0.000294556375879)
(2.71484770117e-05 9.7132607742e-05 0.000120184956546)
(-8.09206172493e-07 8.86213168948e-06 0.000102936733122)
(-0.000214329831327 -5.69036279394e-06 0.000273234891704)
(-0.000648496421044 -2.55912721698e-05 0.000306410949315)
(-0.00102395049687 -6.03202946289e-05 0.000179985983372)
(-0.00125724775122 -0.000105791020158 -1.5261497803e-05)
(-0.00123577776393 -0.00015093218011 -0.000234267677075)
(-0.00101488989727 -0.000190949190179 -0.000411652913381)
(-0.00069266191798 -0.000221766374432 -0.000419233419396)
(-0.000249542652748 -0.000233460651855 -0.000515580181912)
(0.000181310992803 -0.000243451870288 -0.000540375106574)
(0.000600996575096 -0.000239694569366 -0.000529871178839)
(0.000999101819791 -0.000227019482219 -0.000491422843865)
(0.00133190045993 -0.000198482881554 -0.000416647614034)
(0.0015494997808 -0.000166419592336 -0.000283489801142)
(0.00161549064191 -0.000131042515846 -0.000125716645667)
(0.00153791703725 -8.89421465152e-05 7.99826013064e-05)
(0.0012101650107 -4.88559212597e-05 0.000246975310874)
(0.000787767995131 -1.59260019498e-05 0.000351395593427)
(0.000302183081629 2.0225427117e-06 0.000316244390765)
(3.05815820804e-05 1.49649170339e-05 0.000129461791648)
(-1.02506372864e-06 -5.56310926658e-05 0.000102320531109)
(-0.000214660117719 -4.28665399409e-05 0.000272491100305)
(-0.000649319968961 -2.44589944624e-05 0.000305652224448)
(-0.00102520680516 8.51072713268e-06 0.000179583897576)
(-0.00125917340301 5.04711481019e-05 -1.5790855909e-05)
(-0.00123788133107 9.21186400215e-05 -0.000234960139485)
(-0.00101707883763 0.000128609754044 -0.000412676053232)
(-0.00069429109418 0.000155252709463 -0.000422029056684)
(-0.000251564575586 0.000165119346916 -0.000516328693369)
(0.000180548003832 0.000173728000734 -0.000541754086541)
(0.000601563163276 0.000169928728328 -0.00053133943761)
(0.00100084888742 0.000158810003058 -0.000492542339916)
(0.00133432109929 0.000131763409108 -0.000416766971739)
(0.00155125790849 0.00010107534179 -0.000284727984373)
(0.00161704860489 6.80412198644e-05 -0.000126650962551)
(0.00153918734066 2.74996702504e-05 7.92873369942e-05)
(0.00121128996912 -1.00917086747e-05 0.000246331459558)
(0.000788625720273 -4.11279710071e-05 0.000350750378993)
(0.000302660704078 -5.74238650337e-05 0.000315545644944)
(3.09439593248e-05 -6.8344537631e-05 0.000128900127741)
(3.89971586271e-06 -0.000118126567908 9.2483786853e-05)
(-0.000189655058034 -7.94909263883e-05 0.000250581801685)
(-0.000597843329661 -2.32590371885e-05 0.000286256788699)
(-0.000959728755244 7.65827876424e-05 0.000169728284612)
(-0.00118614538502 0.00020282431965 -9.38808624398e-06)
(-0.00117096161886 0.000329969376008 -0.000221660221745)
(-0.000967896522912 0.000441171270717 -0.000390657704912)
(-0.00061624518839 0.000512904960885 -0.000502776441825)
(-0.000214891147231 0.000565494068121 -0.000489755259372)
(0.000194452272136 0.000585902046091 -0.000508101329896)
(0.000594848955928 0.000572394547947 -0.000502612494855)
(0.000975742653177 0.000534296611642 -0.000468128740675)
(0.00129422573932 0.000459977683563 -0.000402348695107)
(0.00149826351497 0.000372646034026 -0.000274400006205)
(0.00155847407301 0.000266915633236 -0.000119600962559)
(0.00147356806766 0.000143928537527 8.08987568241e-05)
(0.00115350951696 2.97541857836e-05 0.000234620637188)
(0.000744716558288 -6.48351021624e-05 0.000330394165168)
(0.000280241065577 -0.000113992325345 0.00029269641552)
(2.81999062939e-05 -0.000147848911789 0.000118899364616)
(1.81710207541e-05 -0.000173338735348 7.02748853124e-05)
(-0.000129053229321 -0.000115879464261 0.000205739996718)
(-0.000487679500747 -2.72900591535e-05 0.000248582719154)
(-0.000820599601254 0.000131544434937 0.000149334483992)
(-0.00103349966854 0.000335151308416 3.96482658618e-06)
(-0.0010313317374 0.000543115359083 -0.00018813534767)
(-0.000851153818111 0.00072405295902 -0.000339975509432)
(-0.000537378088071 0.000857932226902 -0.000441453974052)
(-0.000161250057756 0.000932697093355 -0.000482171373002)
(0.000208328359113 0.000976265751398 -0.000427632671258)
(0.00057085843503 0.000950262699943 -0.00042988493951)
(0.000908811922211 0.000883239837955 -0.000423679760189)
(0.00119665175648 0.000774477628274 -0.000358470545893)
(0.00138062230728 0.000629748624481 -0.000240639528889)
(0.00142787933499 0.000452376816681 -9.90223298312e-05)
(0.00133247026558 0.000250118625569 8.5073369153e-05)
(0.00102846557529 6.52704613737e-05 0.000213341589846)
(0.000643900032641 -8.63309979296e-05 0.000292779034273)
(0.000223824196263 -0.000165194574038 0.000246337473957)
(1.716967411e-05 -0.000216114803195 9.65498400332e-05)
(4.51509883923e-05 -0.000215583162028 4.33179201216e-05)
(-3.00500044715e-05 -0.000151113378749 0.000148596054603)
(-0.000320930702885 -3.96777014337e-05 0.000205873175964)
(-0.000610250525678 0.000164346634868 0.000137184736908)
(-0.0007974250166 0.000424243191906 3.01567644511e-05)
(-0.000814341044003 0.000696730671455 -0.000126703439647)
(-0.000666846499744 0.000935739046184 -0.000251223759967)
(-0.000407523937852 0.00111643085898 -0.000327605979208)
(-9.49822853875e-05 0.0012204129875 -0.000360617062047)
(0.000223697518733 0.00125236497491 -0.000366011613881)
(0.000527243185403 0.00122986953911 -0.000353250120669)
(0.000809929880629 0.00115638572796 -0.000322608185506)
(0.00104689037714 0.00102220017207 -0.000261996759876)
(0.00119099593818 0.000828257921962 -0.000171481878953)
(0.00122004766163 0.000593266179002 -5.29956291492e-05)
(0.00111130415116 0.000326198772534 0.000100924910907)
(0.000831766077744 8.55045229721e-05 0.000194464615329)
(0.000485868331788 -0.000107268209555 0.000249861663383)
(0.000128850900698 -0.00020959731849 0.000187508598955)
(-7.29143191162e-06 -0.000266280125798 6.88494514639e-05)
(6.82044117258e-05 -0.000256068270006 1.43755876208e-05)
(9.03712810532e-05 -0.000191575893236 9.22209425642e-05)
(-0.000111421086894 -6.97518941151e-05 0.000165459624238)
(-0.00034131900294 0.000158786609077 0.000143596871687)
(-0.000497623082645 0.000448560049578 8.01422558079e-05)
(-0.00053717321611 0.000757774794483 -3.16351018191e-05)
(-0.000432740873665 0.00103321167664 -0.000124584081482)
(-0.000238235648058 0.00124050854003 -0.000177160032928)
(-6.91806659338e-08 0.00136267517273 -0.000197955325997)
(0.000243603901546 0.00140722086642 -0.000200535921265)
(0.000476205739353 0.00138480505028 -0.000191077884828)
(0.000686899234189 0.00130082159143 -0.000168004362143)
(0.000856191024957 0.001148388395 -0.000126552654756)
(0.000950866939735 0.000928291942531 -6.26022913934e-05)
(0.000951184028075 0.000656022753404 2.73298261893e-05)
(0.000825739117174 0.000349243385416 0.000139471147761)
(0.000579579635553 7.76610451781e-05 0.000195668013108)
(0.000285465895476 -0.000139017671307 0.000209613216195)
(1.27970449215e-05 -0.000253651015761 0.000129690885465)
(-2.91718023242e-05 -0.000309927961439 3.739150045e-05)
(0.000110977862534 -0.000315663996544 -2.24930626089e-05)
(0.000212238670824 -0.00026808064868 2.16905878385e-05)
(0.000101351014512 -0.00015057423291 0.0001091264737)
(-5.85020694177e-05 7.27267075793e-05 0.00014019267532)
(-0.000173922270125 0.000361554615421 0.000131577321626)
(-0.00022581483841 0.000680446914134 8.58740775371e-05)
(-0.000165165601415 0.000976719069838 3.74403180381e-05)
(-4.15571491649e-05 0.001202275717 1.5618919084e-05)
(0.00011316485804 0.00133879405446 9.76436668786e-06)
(0.000272154551489 0.00139226023408 1.03745970011e-05)
(0.000421041623028 0.00137244549814 1.75459591874e-05)
(0.000549282244406 0.00128330574638 3.19876862816e-05)
(0.00064198025352 0.00112075226321 5.26234950583e-05)
(0.000678039957142 0.000885045458344 8.27558666935e-05)
(0.000646913494934 0.000592531985024 0.00012986201222)
(0.000511241941364 0.000271178447784 0.00017411838337)
(0.00031050273574 -2.94194864836e-06 0.000186065799958)
(7.94828125437e-05 -0.000215251975588 0.000152787371833)
(-0.00010673646265 -0.000328373413067 5.90041028921e-05)
(-7.40124233519e-05 -0.00036798510752 1.41897337305e-06)
(0.000129711846852 -0.000324118173147 -7.51721222822e-05)
(0.000304346879891 -0.000309045873475 -5.73697626522e-05)
(0.000272678567779 -0.000225472053646 3.83012151538e-05)
(0.000188441946308 -4.33801834111e-05 9.08259641167e-05)
(0.000111319539155 0.000205574866456 0.000141533740143)
(5.84809155613e-05 0.000481051899826 0.000149524576414)
(8.44843475568e-05 0.000745990131294 0.000144092157209)
(0.000148420007475 0.000949595099743 0.000159491861336)
(0.000225875894743 0.0010761153945 0.000182561425754)
(0.000301600233074 0.00112720585546 0.00019712488628)
(0.000366463802165 0.00111237620035 0.000202746766692)
(0.000414631396814 0.00103447552866 0.000199860557868)
(0.000436671254574 0.000889234561354 0.000189045605307)
(0.000421274150421 0.000677283428473 0.00017938079107)
(0.000366321992972 0.000415262445395 0.000186807238841)
(0.000232810634973 0.000134274071034 0.00018609715016)
(7.09450015672e-05 -0.000104891693289 0.000134772700619)
(-8.83314593207e-05 -0.000280353745363 8.01478122529e-05)
(-0.000197514163502 -0.00036090868277 -2.25535142338e-05)
(-9.35659121553e-05 -0.00036884305032 -5.56607025916e-05)
(0.000142638318226 -0.000300459946083 -0.000103076247137)
(0.000355487134383 -0.000321748064615 -0.000112014828342)
(0.000389762266087 -0.00028478749443 -3.03157858669e-05)
(0.000368433369912 -0.000165074343609 3.79531287354e-05)
(0.000332204181981 9.82450539815e-06 0.000109229709194)
(0.000284406252899 0.000216997727354 0.000170255481068)
(0.000284321254619 0.000426065257307 0.000209429573447)
(0.000302404444819 0.000590434955781 0.000252607378876)
(0.00031853368576 0.000691502767733 0.000293657249048)
(0.00032713276247 0.000733243676265 0.000318284754092)
(0.000324321718585 0.000722856303583 0.000324661413765)
(0.000306581491843 0.000662493854983 0.000312507497413)
(0.00026994374979 0.000548802349708 0.000281948034997)
(0.000214861863672 0.000380025307716 0.000243504126443)
(0.000140227778018 0.000173539932937 0.00020524072216)
(1.52192159983e-05 -4.40473900325e-05 0.00015529132617)
(-0.000107205466435 -0.000211039051265 8.22941906866e-05)
(-0.000205940118058 -0.000326796774349 1.00819874845e-05)
(-0.000249941538039 -0.000361296688241 -7.85445123346e-05)
(-0.000108432392456 -0.000332901294056 -8.4016440892e-05)
(0.000130694562183 -0.000219529487041 -0.000109096662332)
(0.000345307802751 -0.000285797342684 -0.000146061603002)
(0.000423421659904 -0.000293482639252 -0.00011295479989)
(0.000449745277935 -0.000240467530307 -5.88906468358e-05)
(0.000449083318457 -0.00014538725156 1.80413568566e-05)
(0.000404178877901 -2.90284349126e-05 9.59936390347e-05)
(0.000392140466203 9.43180103955e-05 0.000150268029585)
(0.000385496875407 0.00019355220308 0.000209245911263)
(0.000368770180447 0.000252207133628 0.000259521693287)
(0.000338881600706 0.000272769595532 0.000287837647463)
(0.000298304811366 0.000267143640117 0.000294603457607)
(0.000244121488302 0.000237064257129 0.000279929630454)
(0.00017799326694 0.000172872214735 0.000241827624746)
(0.000101583231703 7.18627358046e-05 0.000187903727535)
(1.6691987882e-05 -4.50268466877e-05 0.000129748927645)
(-0.000101514823674 -0.000175713389622 6.80106387509e-05)
(-0.000191247533924 -0.00026712270132 -1.68535496795e-05)
(-0.000243313937362 -0.000318988628633 -7.55721327958e-05)
(-0.000243192688913 -0.00031042565741 -0.000115478730701)
(-9.77820384587e-05 -0.00023832672031 -8.99770272255e-05)
(8.66493713515e-05 -7.09650833081e-05 -8.79480758398e-05)
(0.00027090324675 -0.000110963122688 -0.000111238833246)
(0.000391910619912 -0.00012152638557 -0.000105634497268)
(0.000451613695091 -0.000107065823574 -7.57642310167e-05)
(0.000488057344047 -7.95601915976e-05 -2.86249242021e-05)
(0.000458902172161 -4.53806667352e-05 2.3225890786e-05)
(0.000446004961311 -1.61220861276e-05 4.67311831462e-05)
(0.000433014744711 1.12011931871e-05 7.50487807134e-05)
(0.000399188725733 2.28406652801e-05 0.000100567543829)
(0.000343857418217 2.41142002644e-05 0.000113722073037)
(0.00027629546391 2.01388514478e-05 0.00011738000173)
(0.0001965748218 1.14410477421e-05 0.000111792282978)
(0.000110854335957 -5.41394526516e-06 9.40268276848e-05)
(2.76454330689e-05 -3.24071582888e-05 6.91314769114e-05)
(-5.59163184409e-05 -4.64577270045e-05 2.98984854105e-05)
(-0.000145516706426 -0.000108488137642 1.58058934595e-05)
(-0.000213275563718 -0.000117859776044 -4.98284475937e-05)
(-0.000222895624766 -0.000131983647741 -7.94492712092e-05)
(-0.000177140645269 -0.000120486212496 -8.68276992587e-05)
(-5.67533234622e-05 -7.61098297214e-05 -6.55245264136e-05)
(0.000111630054348 9.48980469581e-05 -0.00052322245361)
(0.000342330280436 0.000140940306326 -0.000580953117241)
(0.000388086343393 0.000168496557762 -0.000483854247478)
(0.000356010339268 0.000154341374449 -0.000350017655639)
(0.000282852597922 0.000114412554968 -0.000193226404333)
(0.000228590367652 4.77030781882e-05 -5.45987971998e-05)
(0.000199177836672 -1.02771290623e-05 6.32978616831e-05)
(0.000207512113278 -6.98164730445e-05 0.000174209294275)
(0.000241878668932 -0.000111718282152 0.000264390253955)
(0.000289779049688 -0.000131794352187 0.000311893739778)
(0.000336894734886 -0.000131102893044 0.000325241098223)
(0.000360904026642 -0.000110337775613 0.000305649249294)
(0.000346628599928 -6.81788779923e-05 0.000242223204402)
(0.000286910194637 -9.34677196375e-06 0.000145361291405)
(0.0001828578644 4.98579704461e-05 3.0008355925e-05)
(6.07219654936e-05 0.000121569519722 -9.98605125193e-05)
(-9.88437749951e-05 0.000165710346556 -0.000253420803562)
(-0.000209985269941 0.000181759551148 -0.000395248999429)
(-0.000243408614687 0.000154800210143 -0.000498662458624)
(-8.48197572857e-05 0.000101970464605 -0.000452917323564)
(0.000171435594223 0.000279782315044 -0.000578387254327)
(0.000352163667133 0.000266842687473 -0.000356566353775)
(0.000358799239679 0.000248265238273 -0.000161558059036)
(0.000312571891178 0.000195547431992 3.52308018134e-06)
(0.000243974624477 9.35909632021e-05 0.000152693687364)
(0.000192640250432 -4.03092482756e-05 0.000278879665968)
(0.000176146536011 -0.000177257290713 0.000382489435993)
(0.000195184748506 -0.000294496895783 0.000476431411228)
(0.000239024180525 -0.000373195006955 0.000554405664756)
(0.000292089497924 -0.000408444536618 0.000600386622274)
(0.000339744138149 -0.000402101359081 0.000612510617814)
(0.000367118008271 -0.00035553129016 0.000590920229402)
(0.000362420392376 -0.000268888710688 0.000533862188198)
(0.000315942716425 -0.000149377075264 0.000451452641679)
(0.000227445026417 -1.35828926278e-05 0.000354802093093)
(0.00010520844562 0.000123509033724 0.00023924896861)
(-3.56941729537e-05 0.00022566886956 9.47529678958e-05)
(-0.000154132274124 0.000279747720038 -7.00755431954e-05)
(-0.000221898495303 0.000299184193177 -0.000264690522423)
(-0.000124576790804 0.00030190729424 -0.000494054299046)
(0.000204315580041 0.00027013787339 -0.000482345372883)
(0.000338827149304 0.000220406151555 -0.000165248668017)
(0.000327602367541 0.000183633330358 9.30696434163e-05)
(0.000246279523102 7.68762350944e-05 0.000254515934617)
(0.000161952771119 -9.28466260805e-05 0.000364363462054)
(0.000108483946151 -0.000296132744594 0.000435261316679)
(0.000101020879084 -0.000495924886805 0.000482999956448)
(0.00013936415949 -0.000659667486212 0.000524749849052)
(0.000209257274097 -0.000769108578117 0.000566435464282)
(0.000286691602568 -0.000816249660228 0.000598410177598)
(0.000355615001448 -0.000803219134484 0.000611414244856)
(0.000404296797786 -0.000732485019515 0.000605484545201)
(0.000421452796552 -0.000605657185751 0.000585067047288)
(0.00039124976431 -0.000433864624617 0.000555240598366)
(0.000309989582259 -0.000233231555961 0.000514462222629)
(0.000184606939271 -3.29335001141e-05 0.000452595452217)
(3.3589478739e-05 0.000131661429337 0.000345632239011)
(-0.000113625670996 0.000236633037105 0.000187113727319)
(-0.000199974234162 0.000274122680802 -6.53534706053e-05)
(-0.000147532422333 0.000314728202747 -0.000388381019118)
(0.000192964864602 0.000184280364332 -0.000351028004015)
(0.000289505479072 0.000127089259473 -3.7112845529e-06)
(0.000223798351827 5.9063755347e-05 0.000250585466665)
(9.41485173875e-05 -9.33494550645e-05 0.000370456579622)
(-2.89583890476e-05 -0.000319170335751 0.000397461037755)
(-8.42174000288e-05 -0.000577349321576 0.00037670330022)
(-5.92946854884e-05 -0.000815709428447 0.000344378942078)
(2.86329614774e-05 -0.000999876432524 0.00032460534014)
(0.000147987856703 -0.00111556799735 0.000325745802483)
(0.000271666611245 -0.00116235369726 0.000337935322806)
(0.000384481324583 -0.00114354507628 0.000352472708539)
(0.000476379533523 -0.00106261083991 0.000368425934568)
(0.000536972893623 -0.00092148641951 0.00039104045141)
(0.00055094883609 -0.000725335913845 0.00042552340553)
(0.000496571522789 -0.000487927296505 0.000465927401961)
(0.000368820550812 -0.00024277284985 0.000496538309906)
(0.000183202140396 -2.31067030148e-05 0.000463202009654)
(-7.31043790236e-06 0.00012653673712 0.00034682988418)
(-0.000145406167875 0.000194707493752 9.9739628885e-05)
(-0.00013026955041 0.000247903856655 -0.000249406712363)
(0.000153797638863 5.62022617653e-05 -0.000202025552902)
(0.000189800662375 1.47710964421e-05 0.000138953318008)
(5.6246046628e-05 -6.45987497495e-05 0.0003569456753)
(-0.000130392295999 -0.000254088148546 0.000395372870454)
(-0.000275961026954 -0.000502335285715 0.000315255925209)
(-0.000313838026518 -0.000762029536104 0.000186012171976)
(-0.000242064947868 -0.000996996748735 6.32957494853e-05)
(-9.96627059425e-05 -0.00117543303228 -1.42784289844e-05)
(7.68680731789e-05 -0.0012828962744 -4.64078391284e-05)
(0.000256736342442 -0.00132159977011 -4.88037724204e-05)
(0.00042341114186 -0.00129763377664 -3.18964747171e-05)
(0.000567658436756 -0.00121493050678 3.99503813664e-06)
(0.00067799746462 -0.00107356883647 6.56061361924e-05)
(0.000733237422621 -0.00087750016215 0.000161674497161)
(0.000711411609195 -0.000644091827512 0.000290947582378)
(0.000603153151191 -0.000398986265636 0.00042146594635)
(0.000405030498303 -0.000166892526422 0.000487605506891)
(0.000158484245178 1.46475236799e-05 0.000452672801891)
(-4.47304879639e-05 9.34387052504e-05 0.000246061709674)
(-8.90051304223e-05 0.000134944516712 -9.15225040078e-05)
(8.44181064168e-05 -3.78639418307e-05 -7.60331809372e-05)
(5.54152568608e-05 -7.50784408916e-05 0.000257417819796)
(-0.000148677815483 -0.000155875886293 0.000424732211144)
(-0.000391688273306 -0.000348626782148 0.000372109180131)
(-0.000538425979064 -0.000582452817245 0.00018194535492)
(-0.000548593950311 -0.000819821844581 -5.15566997671e-05)
(-0.000433113828915 -0.00103571646859 -0.000250473055838)
(-0.000232826357371 -0.00119558933215 -0.000373633529263)
(4.92112680186e-06 -0.00128712296542 -0.000427680295839)
(0.000244235625653 -0.0013150709411 -0.000436497739076)
(0.000467968736098 -0.00128730423107 -0.000415859055102)
(0.000668390968279 -0.00120791011713 -0.00036493873965)
(0.000831334780339 -0.0010752013066 -0.000270167041482)
(0.000929081886521 -0.000893742680479 -0.000120770220268)