/*--------------------------------*- C++ -*----------------------------------*\
| =========                 |                                                 |
| \\      /  F ield         | OpenFOAM: The Open Source CFD Toolbox           |
|  \\    /   O peration     | Version:  3.0.1                                 |
|   \\  /    A nd           | Web:      www.OpenFOAM.org                      |
|    \\/     M anipulation  |                                                 |
\*---------------------------------------------------------------------------*/
FoamFile
{
    version     2.0;
    format      ascii;
    class       volScalarField;
    location    "9.2";
    object      p_rgh;
}
// * * * * * * * * * * * * * * * * * * * * * * * * * * * * * * * * * * * * * //

dimensions      [1 -1 -2 0 0 0 0];

internalField   nonuniform List<scalar> 
7968
(
4891.43982453
4891.43706091
4891.40443524
4891.35920852
4891.31402239
4891.27502523
4891.24774106
4891.23145816
4891.22043937
4891.20940102
4891.19609238
4891.18041794
4891.16506151
4891.15559168
4891.15831162
4891.17325974
4891.19976312
4891.22941258
4891.25236446
4891.25155537
4891.4394229
4891.45290038
4891.42860964
4891.38683861
4891.34156403
4891.30316458
4891.27561269
4891.25952955
4891.24917782
4891.23846426
4891.22506889
4891.2089196
4891.19272495
4891.18245637
4891.18479265
4891.20046077
4891.22579458
4891.25180821
4891.26639746
4891.24989451
4891.4133986
4891.43514271
4891.41332661
4891.37003395
4891.3210046
4891.27938577
4891.24979514
4891.23231955
4891.22100877
4891.20959184
4891.19579794
4891.17960641
4891.16374206
4891.15452942
4891.15886837
4891.17765106
4891.20662009
4891.23390954
4891.24595551
4891.22151067
4891.37779807
4891.40320784
4891.37979707
4891.33378705
4891.28409015
4891.24593074
4891.22225915
4891.2108536
4891.20373036
4891.19408756
4891.17995042
4891.16136865
4891.14084924
4891.12530045
4891.123659
4891.13884007
4891.16823685
4891.19778021
4891.21108915
4891.18307297
4891.34409109
4891.36977608
4891.34241383
4891.29561768
4891.25160319
4891.22410249
4891.21253604
4891.2122789
4891.21288609
4891.20705012
4891.19266149
4891.169739
4891.14082787
4891.11371552
4891.09988695
4891.10458533
4891.12823976
4891.15815775
4891.17497111
4891.14652699
4891.31897207
4891.34456978
4891.31376175
4891.27032632
4891.23706624
4891.22384185
4891.22762879
4891.24152848
4891.25230738
4891.25160005
4891.23701912
4891.20849987
4891.16856532
4891.12653254
4891.09706305
4891.08779974
4891.10114242
4891.12754685
4891.14752358
4891.11911991
4891.30568477
4891.33124021
4891.29827947
4891.26076742
4891.23990825
4891.24232233
4891.26341368
4891.29343152
4891.31623029
4891.32162596
4891.30694926
4891.2721467
4891.21928827
4891.16013521
4891.11289668
4891.08824367
4891.0897686
4891.11037366
4891.13243162
4891.10393671
4891.3040087
4891.32990362
4891.2956175
4891.26434297
4891.25508285
4891.27214539
4891.30960197
4891.35540856
4891.39004849
4891.40404971
4891.39005882
4891.34638784
4891.28098354
4891.20494443
4891.14066226
4891.10138708
4891.09174423
4891.10635965
4891.12974391
4891.10082698
4891.30779256
4891.33439001
4891.29940134
4891.27262484
4891.27151439
4891.2992327
4891.3489283
4891.40644242
4891.45710084
4891.48141588
4891.4682953
4891.41560756
4891.33275026
4891.24371705
4891.16660578
4891.11654171
4891.09882634
4891.10914868
4891.13325599
4891.10364645
4891.31158522
4891.33854955
4891.30326298
4891.27859008
4891.28162175
4891.31480856
4891.37088205
4891.43521542
4891.49579852
4891.52478598
4891.51203869
4891.45637672
4891.36407151
4891.26511124
4891.1817154
4891.12615306
4891.10432926
4891.11254749
4891.13696799
4891.10697185
4891.31287205
4891.33985959
4891.3046329
4891.2800103
4891.28308428
4891.3163132
4891.3724137
4891.43674565
4891.49733393
4891.52631961
4891.51356017
4891.4578788
4891.36557654
4891.2666732
4891.18330005
4891.12775429
4891.10591628
4891.11407167
4891.1384127
4891.10840116
4891.31154924
4891.33822918
4891.30341524
4891.27681769
4891.27586308
4891.30375492
4891.35359589
4891.41119606
4891.46190112
4891.48619744
4891.47303141
4891.42028686
4891.3374225
4891.24847863
4891.17138133
4891.12130076
4891.10351392
4891.11363693
4891.1375012
4891.10781228
4891.31001719
4891.33605684
4891.3020492
4891.27112325
4891.26220218
4891.27964909
4891.31746803
4891.36354998
4891.39838933
4891.41244299
4891.39840636
4891.35463213
4891.28908396
4891.21295602
4891.14858757
4891.10917285
4891.09931425
4891.11357005
4891.13656098
4891.10748812
4891.31359906
4891.33928331
4891.3067027
4891.26971988
4891.24942413
4891.25245769
4891.27417208
4891.30470443
4891.32784511
4891.33338066
4891.318649
4891.28364418
4891.23054074
4891.17113071
4891.12362163
4891.0986452
4891.09976312
4891.11984087
4891.14139307
4891.11274735
4891.32828595
4891.35401572
4891.32366081
4891.28090326
4891.24838821
4891.23595459
4891.2405393
4891.25512576
4891.26637632
4891.26588532
4891.25128088
4891.2225528
4891.1822917
4891.13986798
4891.10996165
4891.10020781
4891.11297982
4891.1387272
4891.15815866
4891.12964055
4891.35434016
4891.38023193
4891.35331887
4891.3072543
4891.26408746
4891.23748152
4891.22679058
4891.22731838
4891.22848101
4891.22293284
4891.20857219
4891.18546684
4891.15620263
4891.12862079
4891.11423986
4891.11831803
4891.14128652
4891.17051007
4891.18682368
4891.15821919
4891.388689
4891.41429098
4891.39127928
4891.34597126
4891.29713604
4891.25991428
4891.23716506
4891.22660633
4891.22008593
4891.21078637
4891.19673052
4891.17799613
4891.15710603
4891.14101604
4891.13873198
4891.15319748
4891.18187563
4891.21077532
4891.22366433
4891.19559576
4891.42464254
4891.44660733
4891.42510513
4891.38241671
4891.33417959
4891.29347824
4891.26482814
4891.24821356
4891.23754454
4891.22650297
4891.21281926
4891.19649046
4891.18023642
4891.17042684
4891.17406206
4891.19211778
4891.22043247
4891.24718032
4891.25892091
4891.2344503
4891.4511169
4891.4645947
4891.44055101
4891.39927606
4891.35465876
4891.31710794
4891.29046579
4891.27521991
4891.26547968
4891.25512654
4891.24183809
4891.22555871
4891.20897621
4891.19811047
4891.19976853
4891.21479581
4891.239602
4891.26518164
4891.27957318
4891.26312312
4891.45176208
4891.44908427
4891.41664012
4891.37189195
4891.32739917
4891.2892588
4891.26279348
4891.24726339
4891.23679949
4891.22609845
4891.21289144
4891.19709182
4891.18137926
4891.17135418
4891.17342558
4891.18767473
4891.21364053
4891.24283877
4891.2654896
4891.26451055
4891.4170008
4891.40079562
4891.35891981
4891.30846674
4891.263417
4891.22830879
4891.20398816
4891.19051468
4891.1817808
4891.17176414
4891.158416
4891.14171368
4891.12413237
4891.11165077
4891.11103642
4891.12395783
4891.14945124
4891.18406774
4891.21588099
4891.22805116
4891.40302252
4891.39764269
4891.36021374
4891.31415126
4891.27546907
4891.2471016
4891.22852647
4891.21876094
4891.21195342
4891.20271868
4891.18945559
4891.17199853
4891.15272162
4891.13661694
4891.13041879
4891.13681213
4891.15561533
4891.18522928
4891.21195705
4891.21325031
4891.3675987
4891.36695825
4891.32351886
4891.27366547
4891.23416557
4891.20811603
4891.19342808
4891.18707516
4891.18236659
4891.17397932
4891.16036281
4891.14154708
4891.11963279
4891.10009322
4891.09028736
4891.09436895
4891.11379707
4891.14673027
4891.17888047
4891.17544824
4891.32705356
4891.33093977
4891.28349745
4891.23425378
4891.20168245
4891.18655676
4891.18376715
4891.18706546
4891.18825153
4891.18245364
4891.16846712
4891.14639234
4891.11793657
4891.08858095
4891.06694956
4891.06068316
4891.07309201
4891.10484007
4891.14022797
4891.13210743
4891.29401707
4891.30413304
4891.2554579
4891.21295614
4891.19406652
4891.19857089
4891.21442931
4891.23315298
4891.24478388
4891.24388997
4891.22957718
4891.2018862
4891.16215557
4891.11671977
4891.07672173
4891.05185571
4891.0503113
4891.07506036
4891.11096146
4891.09628995
4891.27225833
4891.28860924
4891.2418947
4891.21017639
4891.2109881
4891.2362704
4891.27413132
4891.31177627
4891.33633715
4891.34182256
4891.32744318
4891.29295212
4891.23916662
4891.17354721
4891.1110201
4891.06498546
4891.04503276
4891.0595719
4891.09317103
4891.07194393
4891.26234879
4891.28404897
4891.24092737
4891.22110044
4891.2409721
4891.28868743
4891.34951228
4891.40728067
4891.44624495
4891.45905483
4891.44487617
4891.40305479
4891.33378176
4891.24639716
4891.15988636
4891.09168239
4891.05386708
4891.05678191
4891.08682233
4891.06002032
4891.26357297
4891.28878915
4891.24912091
4891.23913094
4891.27500014
4891.34241835
4891.42373559
4891.50036734
4891.55230378
4891.5686194
4891.55405432
4891.50972456
4891.42704283
4891.31928046
4891.21107058
4891.12311364
4891.06975583
4891.06326594
4891.09018392
4891.05978535
4891.26959774
4891.29671294
4891.2592945
4891.25548891
4891.30243434
4891.38348557
4891.47939469
4891.56896357
4891.62121719
4891.6387594
4891.62438994
4891.57761702
4891.49505038
4891.37455784
4891.25075725
4891.14894227
4891.0848012
4891.07219374
4891.09701984
4891.06483856
4891.274535
4891.30232291
4891.26603542
4891.26508292
4891.31737223
4891.40506167
4891.50815734
4891.60298657
4891.65531015
4891.67493394
4891.66082304
4891.61095925
4891.52562789
4891.40339557
4891.27201146
4891.16340543
4891.09397581
4891.07845789
4891.10223315
4891.06928451
4891.27590007
4891.30369691
4891.26748169
4891.26648803
4891.31880383
4891.40652128
4891.50962977
4891.60447515
4891.65681624
4891.67644535
4891.66232136
4891.61243491
4891.52710069
4891.40486818
4891.27356043
4891.16501815
4891.09561995
4891.08008088
4891.10376134
4891.07080887
4891.27358699
4891.3007489
4891.26346571
4891.25965979
4891.30677337
4891.38800583
4891.48401646
4891.57362746
4891.62593998
4891.64348146
4891.62905607
4891.58219712
4891.49962264
4891.37913861
4891.25552513
4891.15383006
4891.08969849
4891.07700031
4891.10154558
4891.06930012
4891.2698278
4891.29526459
4891.25578988
4891.24601007
4891.28223954
4891.35011574
4891.43178672
4891.50865703
4891.56071943
4891.57705091
4891.56238148
4891.51784765
4891.43505619
4891.32728012
4891.21915344
4891.13120526
4891.07774845
4891.07100064
4891.09747457
4891.06693962
4891.27044167
4891.29234635
4891.24968637
4891.23036706
4891.25082845
4891.29929699
4891.36082687
4891.41915267
4891.45847286
4891.47134467
4891.45702369
4891.41489643
4891.3452936
4891.25768887
4891.17101349
4891.10260773
4891.06450929
4891.06696871
4891.09642793
4891.06943481
4891.2818101
4891.2983414
4891.25224876
4891.22128851
4891.2229104
4891.24912034
4891.28791498
4891.32633024
4891.35139997
4891.35705438
4891.34257557
4891.30776214
4891.25355899
4891.18754088
4891.1246238
4891.07818989
4891.05776418
4891.07162664
4891.10456203
4891.08312677
4891.3046794
4891.31499012
4891.26691016
4891.22527706
4891.20729483
4891.21279546
4891.22965925
4891.24923526
4891.26147871
4891.26086913
4891.24652623
4891.21857978
4891.17843131
4891.13254072
4891.09206101
4891.06663935
4891.06443062
4891.08837814
4891.12363848
4891.1087656
4891.33841068
4891.34246762
4891.29547334
4891.24713436
4891.21559373
4891.20148236
4891.19972031
4891.20391483
4891.20579243
4891.20037132
4891.18644169
4891.16418693
4891.13534343
4891.10547528
4891.08327333
4891.07630065
4891.08786688
4891.11878355
4891.15363119
4891.14534562
4891.37933132
4891.37878211
4891.33564078
4891.28655545
4891.24810807
4891.22313555
4891.20952217
4891.20415447
4891.20017632
4891.19222195
4891.17870368
4891.15973242
4891.13741548
4891.11728729
4891.1067868
4891.11004528
4891.12859403
4891.16079502
4891.19256221
4891.18904311
4891.41498642
4891.40961971
4891.37235596
4891.3268845
4891.28908705
4891.26173983
4891.24426652
4891.23554164
4891.22941733
4891.22058375
4891.20739369
4891.18980745
4891.17003452
4891.15329315
4891.14637627
4891.15201374
4891.17007655
4891.19913315
4891.22560472
4891.2268616
4891.42913769
4891.41297857
4891.37121479
4891.32130314
4891.27713873
4891.24304486
4891.21970642
4891.20705105
4891.19891556
4891.18930154
4891.17607507
4891.15921992
4891.14121933
4891.12811811
4891.12676712
4891.1389476
4891.16369019
4891.19771947
4891.22915446
4891.24097989
4891.38007111
4891.35157689
4891.30422929
4891.25066695
4891.20445294
4891.16842811
4891.14356588
4891.1281235
4891.11650844
4891.10430123
4891.09048211
4891.07527184
4891.06022095
4891.05007449
4891.05037916
4891.06428899
4891.09091032
4891.12863281
4891.1657211
4891.18949892
4891.35380799
4891.34575432
4891.30874475
4891.2656481
4891.23212057
4891.20842286
4891.19330736
4891.18419809
4891.17540292
4891.16425196
4891.15050862
4891.13449964
4891.11696281
4891.10116868
4891.09194574
4891.09350386
4891.10755637
4891.13410786
4891.15959382
4891.16298442
4891.31305862
4891.31620887
4891.26454668
4891.21147436
4891.17206783
4891.14852889
4891.13686218
4891.13175164
4891.12648471
4891.11709847
4891.10273067
4891.08370835
4891.06174351
4891.04142483
4891.02960275
4891.03190279
4891.05147709
4891.08770968
4891.12719544
4891.12012318
4891.26957483
4891.28339072
4891.22135388
4891.16525081
4891.1330366
4891.12487204
4891.12966098
4891.13779986
4891.14131381
4891.13585585
4891.12082094
4891.09664264
4891.06498421
4891.03133273
4891.00378322
4890.99141176
4891.00410392
4891.04274814
4891.0918446
4891.07399031
4891.23570814
4891.26170525
4891.19326582
4891.14409221
4891.13019544
4891.14210543
4891.16791758
4891.19320724
4891.20789188
4891.20764634
4891.19200104
4891.161335
4891.11782632
4891.06684821
4891.01826606
4890.98533158
4890.98114726
4891.01303727
4891.06776463
4891.03740544
4891.21326745
4891.25112905
4891.1819598
4891.14765447
4891.15367496
4891.19068621
4891.23927721
4891.28209066
4891.30796231
4891.31272643
4891.29610239
4891.25840194
4891.20162293
4891.13288544
4891.06310872
4891.00670742
4890.98245396
4890.99964445
4891.05504664
4891.01254062
4891.2027147
4891.24954893
4891.18353018
4891.16565715
4891.19265054
4891.2530585
4891.32416798
4891.38465062
4891.42194822
4891.43210343
4891.41411038
4891.36760959
4891.29560847
4891.20831167
4891.11904769
4891.04197158
4890.99725722
4890.9992169
4891.05209954
4891.00017384
4891.2022623
4891.25454245
4891.19279797
4891.18825098
4891.23322298
4891.31330952
4891.4042674
4891.4812689
4891.53083395
4891.54734513
4891.52840944
4891.47265798
4891.38447353
4891.27884422
4891.17217923
4891.0782369
4891.01695416
4891.00654176
4891.05522693
4890.99800202
4891.20580965
4891.26065227
4891.20304321
4891.20772157
4891.26528314
4891.35903236
4891.46399936
4891.55382667
4891.61457444
4891.63660166
4891.61729849
4891.55558457
4891.45374899
4891.33279499
4891.21235448
4891.1064297
4891.03395456
4891.01491293
4891.05992554
4891.00044437
4891.20878573
4891.26475368
4891.2097603
4891.2189777
4891.28282768
4891.3832435
4891.49523557
4891.59172627
4891.65879989
4891.68389304
4891.66435693
4891.59921602
4891.4916227
4891.36223297
4891.23420407
4891.12196524
4891.04394412
4891.02067725
4891.06369964
4891.0031939
4891.21017236
4891.26621586
4891.21135055
4891.22054556
4891.28444765
4891.38495737
4891.49709986
4891.59375811
4891.66098815
4891.68616895
4891.66661207
4891.60141117
4891.49364589
4891.36415251
4891.23607011
4891.12382898
4891.04581392
4891.02247223
4891.06536862
4891.00490129
4891.20983577
4891.26497701
4891.20763611
4891.2123271
4891.27021342
4891.36443873
4891.46989516
4891.56020361
4891.62137929
4891.64359113
4891.62421405
4891.56223259
4891.45995326
4891.33864873
4891.21800013
4891.11205556
4891.0396395
4891.0203913
4891.06491158
4891.00535019
4891.20881597
4891.26151788
4891.20031044
4891.19583596
4891.24138123
4891.32236405
4891.41432917
4891.49234141
4891.54272714
4891.55952544
4891.54046016
4891.48427993
4891.39524796
4891.28879278
4891.18162846
4891.08751549
4891.02619656
4891.01532847
4891.06314823
4891.00580046
4891.2114157
4891.25858846
4891.19330063
4891.17585963
4891.20358077
4891.26503158
4891.33757913
4891.39951853
4891.4378936
4891.4483991
4891.43011908
4891.3827103
4891.30960112
4891.22136949
4891.13159583
4891.05436092
4891.00941835
4891.01071611
4891.06251144
4891.01032303
4891.22337177
4891.26131379
4891.19333717
4891.15999397
4891.16691139
4891.20487773
4891.2547101
4891.29881684
4891.32565341
4891.33079967
4891.31391383
4891.27539955
4891.21768235
4891.14827556
4891.07817515
4891.02165518
4890.99691402
4891.01315764
4891.06733938
4891.02451418
4891.24693535
4891.27308979
4891.20577636
4891.15779197
4891.14504602
4891.15784211
4891.18461992
4891.21095299
4891.226563
4891.22675138
4891.21092912
4891.17979981
4891.13553521
4891.08419666
4891.03541943
4891.00212812
4890.99714655
4891.02785934
4891.08137944
4891.05071345
4891.28153284
4891.29559024
4891.2342523
4891.17955426
4891.1486484
4891.14167482
4891.1475124
4891.15667317
4891.16105859
4891.15613168
4891.14116366
4891.11663179
4891.08435039
4891.05027599
4891.022294
4891.0090916
4891.02068285
4891.05814874
4891.10623092
4891.08801386
4891.32543668
4891.32875114
4891.27750152
4891.22564204
4891.18772201
4891.16560156
4891.15535238
4891.15150922
4891.1472213
4891.13828623
4891.12400972
4891.10477573
4891.08219471
4891.06107219
4891.04835337
4891.04950858
4891.06789529
4891.10302736
4891.14180579
4891.13432812
4891.366411
4891.35836411
4891.32152333
4891.27927428
4891.24690974
4891.22475083
4891.21117297
4891.20285005
4891.19477045
4891.18414939
4891.17057364
4891.15435357
4891.13633352
4891.11957022
4891.10944209
4891.11002902
4891.12311491
4891.14886134
4891.17398115
4891.17708499
4891.39254039
4891.36410817
4891.31699985
4891.26431221
4891.21948544
4891.18489251
4891.16130791
4891.14690021
4891.13596699
4891.12422355
4891.11055325
4891.09516384
4891.07959019
4891.06833118
4891.06755479
4891.08039441
4891.10602694
4891.14291226
4891.17934472
4891.20275799
4891.31950882
4891.28123418
4891.23356282
4891.17672226
4891.12611131
4891.08532548
4891.05492209
4891.03267027
4891.01424268
4890.99744335
4890.98259997
4890.97041678
4890.96097745
4890.95731156
4890.96387405
4890.98331863
4891.01467533
4891.05583669
4891.09330625
4891.12678515
4891.2832598
4891.27255809
4891.23152461
4891.1800453
4891.13409946
4891.09745985
4891.06944644
4891.04533666
4891.02261592
4891.0053846
4890.99036897
4890.98017502
4890.97445755
4890.97265385
4890.97775469
4890.99293347
4891.01894267
4891.0546041
4891.08448107
4891.09084822
4891.24230047
4891.23897149
4891.18745995
4891.12273701
4891.07061788
4891.03600057
4891.01626785
4891.00632614
4890.99682453
4890.9839267
4890.96799295
4890.94997875
4890.93116856
4890.91608656
4890.91388908
4890.92838088
4890.96078221
4891.00775835
4891.04855987
4891.04807347
4891.19590946
4891.19748195
4891.13298696
4891.05998544
4891.01617616
4891.00674496
4891.01501838
4891.02769129
4891.03292887
4891.02705512
4891.00993101
4890.98266574
4890.94817525
4890.91189291
4890.88270589
4890.87394251
4890.89724369
4890.95238986
4891.00515413
4890.99949005
4891.15772532
4891.16351998
4891.09163257
4891.02644637
4891.00976855
4891.03264763
4891.07132121
4891.10568296
4891.12417368
4891.12377047
4891.10409772
4891.06628
4891.01544388
4890.95853124
4890.90458713
4890.86653161
4890.86352195
4890.91007704
4890.96966521
4890.9589602
4891.12984649
4891.13891448
4891.06806709
4891.02631812
4891.04180417
4891.09916502
4891.16709256
4891.21977879
4891.24711338
4891.24820885
4891.22384478
4891.17505707
4891.10688846
4891.02988583
4890.95515018
4890.89360873
4890.86303536
4890.8851263
4890.94395851
4890.92912189
4891.11321125
4891.12304014
4891.0604797
4891.0464692
4891.09327181
4891.18374759
4891.27883207
4891.34785293
4891.38211554
4891.38351054
4891.35332825
4891.29152063
4891.20386421
4891.10618231
4891.01238049
4890.93289971
4890.88014432
4890.87550677
4890.9267807
4890.91089721
4891.10606646
4891.11389444
4891.06372185
4891.07225094
4891.1460824
4891.26344709
4891.38212627
4891.46605712
4891.50776676
4891.51093887
4891.47596239
4891.40134017
4891.29381077
4891.1766059
4891.06574947
4890.97089693
4890.90126541
4890.87799531
4890.91524413
4890.901998
4891.10363041
4891.10823218
4891.07008091
4891.09411178
4891.18737967
4891.32305372
4891.45839941
4891.55244113
4891.60061755
4891.60616766
4891.56926389
4891.4876504
4891.36516163
4891.23207222
4891.10752076
4891.00063401
4890.91872476
4890.8821459
4890.90716149
4890.89811024
4891.1032091
4891.10595462
4891.0745887
4891.10734415
4891.21015097
4891.3541774
4891.4978024
4891.5975168
4891.64977903
4891.65662304
4891.61842553
4891.53366359
4891.4040951
4891.26297991
4891.13109058
4891.01751944
4890.92894896
4890.88526478
4890.90326752
4890.89712595
4891.10484939
4891.10764566
4891.07653113
4891.10931768
4891.21243332
4891.35682593
4891.50083887
4891.60104226
4891.65375403
4891.66076594
4891.62263191
4891.53774702
4891.40774665
4891.26615873
4891.1338735
4891.02001
4890.93139585
4890.8875638
4890.90543387
4890.89905126
4891.1084464
4891.11322446
4891.07569637
4891.09991295
4891.193924
4891.33124312
4891.46806919
4891.56356325
4891.61315781
4891.6192711
4891.58222343
4891.50006708
4891.37623066
4891.24166743
4891.11582317
4891.00796664
4890.92588215
4890.88887804
4890.91308209
4890.9035833
4891.11370251
4891.12177697
4891.07273042
4891.08149388
4891.15664371
4891.2767633
4891.39848225
4891.48536246
4891.52975286
4891.5341061
4891.49891166
4891.42308785
4891.31284782
4891.19264347
4891.07946659
4890.98296716
4890.91260971
4890.88851252
4890.92443988
4890.91061243
4891.12312668
4891.13336109
4891.07220347
4891.05887868
4891.10694574
4891.20041709
4891.2994848
4891.37249893
4891.40989857
4891.41236288
4891.38137483
4891.3169995
4891.22603626
4891.12537648
4891.02924983
4890.9482905
4890.89477437
4890.88919976
4890.93853506
4890.92200399
4891.14144906
4891.15115328
4891.08152602
4891.04130437
4891.0577313
4891.11705819
4891.188181
4891.24396783
4891.27342679
4891.2753715
4891.2503851
4891.19969213
4891.1291192
4891.05008202
4890.97374625
4890.9113827
4890.88014904
4890.90080642
4890.95754576
4890.94201321
4891.17028306
4891.17648404
4891.10622752
4891.04259632
4891.02743813
4891.05094039
4891.09112557
4891.1273045
4891.14715099
4891.14751215
4891.12734399
4891.08852771
4891.03632085
4890.97873702
4890.92432784
4890.88607734
4890.88237662
4890.92679521
4890.9844008
4890.97293181
4891.2089857
4891.21094367
4891.14822191
4891.07663244
4891.03436176
4891.02620577
4891.03585627
4891.0491378
4891.0556548
4891.05045401
4891.03316276
4891.00543872
4890.97012324
4890.93336211
4890.90398965
4890.89439597
4890.91605281
4890.96914436
4891.02058315
4891.01416852
4891.25557894
4891.25245912
4891.20202047
4891.13981774
4891.08876446
4891.05600648
4891.03799085
4891.02922378
4891.02076101
4891.00872159
4890.99307258
4890.9748388
4890.95535911
4890.93934125
4890.93579942
4890.9484393
4890.97882116
4891.02458392
4891.06400094
4891.06308646
4891.29661293
4891.28589538
4891.24551083
4891.19552076
4891.15180304
4891.11639251
4891.08960774
4891.06753755
4891.04675044
4891.0289424
4891.01427219
4891.00413826
4890.99754721
4890.99449757
4890.99804682
4891.01153223
4891.03634244
4891.07054284
4891.0995482
4891.10545898
4891.33267189
4891.2943189
4891.24730495
4891.19211563
4891.14324801
4891.10369977
4891.07468649
4891.05365222
4891.03627293
4891.02019415
4891.00562355
4890.99329479
4890.98317449
4890.9784288
4890.98357056
4891.00121792
4891.03094665
4891.07094147
4891.10740858
4891.14106665
4891.29353741
4891.25632815
4891.20742816
4891.14075962
4891.0783676
4891.0233481
4890.9794757
4890.94511065
4890.91729313
4890.89455768
4890.87761792
4890.86773777
4890.8660859
4890.87435066
4890.89490193
4890.92884091
4890.97263761
4891.02453292
4891.06352923
4891.09738776
4891.25821952
4891.22503667
4891.17245993
4891.096719
4891.02334792
4890.95717388
4890.90225154
4890.84761445
4890.80016002
4890.78505492
4890.77191777
4890.7569694
4890.77459961
4890.79746835
4890.83041424
4890.87601443
4890.92974293
4890.9888403
4891.03196425
4891.06198196
4891.21671721
4891.17925878
4891.11572607
4891.02465745
4890.92324635
4890.8643317
4890.83134398
4890.81286125
4890.79804746
4890.78113667
4890.76251474
4890.74347179
4890.72760147
4890.72461607
4890.73317883
4890.77986774
4890.85701287
4890.93080893
4890.98440558
4891.01821694
4891.1600946
4891.11387131
4891.0350727
4890.89432484
4890.82936207
4890.83287255
4890.83837671
4890.84538396
4890.85493547
4890.85276342
4890.83170033
4890.80266887
4890.76269512
4890.72864147
4890.69666926
4890.69362588
4890.73620472
4890.84888904
4890.91802004
4890.9596043
4891.10995899
4891.05179651
4890.9400972
4890.83123194
4890.8386282
4890.88234119
4890.94184882
4890.99011872
4891.01525897
4891.01435763
4890.98611004
4890.93316111
4890.86686883
4890.79714416
4890.73326258
4890.68885288
4890.68779235
4890.7643898
4890.85524128
4890.90656543
4891.06834848
4890.99701693
4890.88836554
4890.84524707
4890.88932039
4890.9853796
4891.08136657
4891.14606374
4891.17327444
4891.16698237
4891.12847214
4891.06001494
4890.97246027
4890.88024768
4890.79396261
4890.72111361
4890.68107454
4890.71261782
4890.79900576
4890.86246492
4891.03906106
4890.95442291
4890.86990397
4890.87091281
4890.96638683
4891.1089391
4891.2378651
4891.31593366
4891.34097356
4891.32543507
4891.27418772
4891.185604
4891.07231309
4890.95841973
4890.85444198
4890.76447931
4890.69955655
4890.68922147
4890.75259402
4890.82999769
4891.02082202
4890.9147848
4890.86187489
4890.90482969
4891.0441345
4891.22216892
4891.38112815
4891.47180425
4891.49815668
4891.47812838
4891.41625333
4891.30632325
4891.16262168
4891.02742042
4890.90903759
4890.80613303
4890.70140034
4890.67791541
4890.71435662
4890.80795269
4891.0107133
4890.89015381
4890.85675411
4890.93474543
4891.10485986
4891.30697786
4891.48613752
4891.58077386
4891.60457352
4891.58292493
4891.52087002
4891.40851297
4891.24015567
4891.0841732
4890.9529369
4890.83978428
4890.72183172
4890.67541761
4890.68864108
4890.79464997
4891.00617969
4890.89397381
4890.87035946
4890.9522539
4891.13883699
4891.35064512
4891.53833087
4891.63431179
4891.6552571
4891.63251662
4891.5725774
4891.45978085
4891.28205447
4891.11709015
4890.97863695
4890.85875459
4890.7267207
4890.67646961
4890.67766013
4890.78937048
4891.00800974
4890.89774758
4890.87456947
4890.9548439
4891.14273276
4891.35514326
4891.54333636
4891.63980883
4891.6611006
4891.63893433
4891.57946673
4891.46676826
4891.28808116
4891.12209548
4890.98279884
4890.8621749
4890.73021156
4890.67954205
4890.68070496
4890.79177255
4891.01626772
4890.89817454
4890.86527349
4890.94161741
4891.11425945
4891.32093511
4891.50264145
4891.59931166
4891.62521998
4891.60437113
4891.54296439
4891.42957336
4891.25850873
4891.09921506
4890.96525367
4890.84951059
4890.73031715
4890.68451743
4890.69580429
4890.80134157
4891.02947666
4890.92567598
4890.87506302
4890.91636375
4891.05940444
4891.24424219
4891.40963321
4891.50614893
4891.53865668
4891.52128755
4891.45856409
4891.34704021
4891.19544601
4891.05264808
4890.92966534
4890.82342623
4890.71539473
4890.69113899
4890.72529388
4890.81814341
4891.05004553
4890.9657093
4890.88338927
4890.88649444
4890.98526418
4891.13504102
4891.27307391
4891.36025446
4891.39275201
4891.37871233
4891.32437822
4891.22834425
4891.10671557
4890.98662372
4890.87850772
4890.78594765
4890.71876861
4890.70587441
4890.76678096
4890.84277059
4891.08091642
4891.01060572
4890.9087276
4890.86309938
4890.90956524
4891.01072922
4891.1141479
4891.18475902
4891.21588036
4891.21060916
4891.17023241
4891.09696493
4891.00423994
4890.90831983
4890.81927728
4890.74333137
4890.7032873
4890.73420566
4890.81473275
4890.87685806
4891.12367997
4891.06643718
4890.95982281
4890.85467511
4890.85914369
4890.9045654
4890.96732681
4891.01852955
4891.04633136
4891.04685681
4891.01766774
4890.96211968
4890.89294868
4890.82268508
4890.75821357
4890.71391749
4890.71237709
4890.78517892
4890.87153156
4890.92166532
4891.17417166
4891.1284532
4891.05135331
4890.91869608
4890.85415991
4890.85441009
4890.86574547
4890.87734558
4890.88830605
4890.88541024
4890.8651418
4890.83440054
4890.79371667
4890.75362561
4890.72316627
4890.71957064
4890.75969883
4890.86764218
4890.93411728
4890.9747714
4891.23081257
4891.1936102
4891.13222022
4891.04300473
4890.9485305
4890.89338223
4890.8565222
4890.84013169
4890.82715436
4890.81150203
4890.79346919
4890.77431294
4890.75732191
4890.75288535
4890.7618577
4890.80428636
4890.87733252
4890.94836025
4891.00063248
4891.03310512
4891.27229561
4891.23910247
4891.18760477
4891.11413739
4891.04287399
4890.97827205
4890.92571487
4890.87555943
4890.82838287
4890.81708649
4890.8022716
4890.78972753
4890.80409992
4890.82403271
4890.85435827
4890.8971713
4890.94824528
4891.0059784
4891.04750122
4891.07650655
4891.30744033
4891.27015927
4891.22232347
4891.15706256
4891.09634281
4891.04353435
4891.00185975
4890.96950663
4890.94341538
4890.92202287
4890.90550038
4890.89530085
4890.89250061
4890.89899967
4890.91725622
4890.94872607
4890.99025295
4891.0404494
4891.07811476
4891.11166156
4891.34128634
4891.30357574
4891.25572113
4891.1857321
4891.11913419
4891.0598758
4891.01308543
4890.97912573
4890.95443901
4890.93399543
4890.9149269
4890.89926625
4890.89215116
4890.89868645
4890.92146088
4890.9597066
4891.00844405
4891.06400794
4891.10345948
4891.13789576
4891.30568212
4891.2281676
4891.16103673
4891.05678527
4890.95186304
4890.85199932
4890.76768471
4890.68727601
4890.61991688
4890.59723235
4890.58118958
4890.57190118
4890.60930546
4890.65220394
4890.71315546
4890.79313427
4890.8800146
4890.96830904
4891.0274778
4891.1014343
4891.26482494
4891.16719448
4891.09214255
4890.96942482
4890.58303973
4889.67278353
4889.4499161
4889.59446598
4889.72776133
4889.80852197
4889.80246156
4889.69221625
4889.51633074
4889.39447138
4889.67414852
4890.44536008
4890.78571331
4890.8955495
4890.96516938
4891.05718667
4891.20680355
4891.07499246
4890.981424
4890.2258624
4889.48946884
4890.52618501
4890.61760357
4890.65964334
4890.68317069
4890.67872577
4890.64921458
4890.59819651
4890.52952699
4890.46128797
4889.9764727
4889.45718621
4890.10789055
4890.77569682
4890.86856923
4890.99395532
4891.1553415
4890.98485706
4890.59782809
4889.45451173
4890.6168237
4890.69799194
4890.79584008
4890.87651475
4890.92482523
4890.92953025
4890.88186532
4890.78678719
4890.6952478
4890.59760151
4890.49771587
4890.29377966
4889.49389185
4890.4372406
4890.76967986