/*--------------------------------*- C++ -*----------------------------------*\
| =========                 |                                                 |
| \\      /  F ield         | OpenFOAM: The Open Source CFD Toolbox           |
|  \\    /   O peration     | Version:  3.0.1                                 |
|   \\  /    A nd           | Web:      www.OpenFOAM.org                      |
|    \\/     M anipulation  |                                                 |
\*---------------------------------------------------------------------------*/
FoamFile
{
    version     2.0;
    format      ascii;
    class       surfaceVectorField;
    location    "9.2";
    object      Uf_0;
}
// * * * * * * * * * * * * * * * * * * * * * * * * * * * * * * * * * * * * * //

dimensions      [0 1 -1 0 0 0 0];

internalField   nonuniform List<vector> 
22672
(
(0.00203598380243 0.000532533480499 -0.0014320433412)
(0.00062096421724 0.00187004768186 -0.00142802502586)
(0.00131658290917 0.00123319368111 -0.00390605163748)
(0.00495189022869 0.000167230758787 -0.00150420090946)
(0.00322072421674 0.00151308324596 -0.00272216958853)
(0.00423341664666 0.00136257314778 -0.00442900726879)
(0.00777684591277 5.30021694181e-05 -0.00127575341178)
(0.0066512084648 0.00149376472004 -0.00301201182288)
(0.00731695042306 0.00156321606247 -0.00431873928654)
(0.00981683372234 0.000167051802647 -0.000874048618674)
(0.00926871628483 0.00176041477824 -0.00273352730926)
(0.00960213799338 0.00188282191841 -0.00380042108601)
(0.0106764775377 0.000493763743302 -0.000454454945322)
(0.0108715523159 0.00229907724268 -0.00228504497834)
(0.0109462202745 0.00232891500348 -0.00315873909564)
(0.0102745318421 0.000853241794628 -0.000144589445608)
(0.0109716929426 0.00296956341388 -0.00182600423447)
(0.0109032943418 0.00280953052711 -0.00256763529544)
(0.0089515762142 0.0011806773807 5.37927288024e-05)
(0.0100797592902 0.0034797980611 -0.00152523841394)
(0.00996505664594 0.00314814910449 -0.00215685940669)
(0.00679692055339 0.00150169299295 0.000196361423276)
(0.00822063360959 0.00397250643769 -0.00127185645035)
(0.00810709045275 0.00347631170275 -0.00181786703554)
(0.00407310891611 0.00172335699245 0.000262107385612)
(0.00562716047849 0.00435321023281 -0.00112130037144)
(0.00554724727368 0.00372635536175 -0.00162941402431)
(0.00107630324113 0.00180821121777 0.000282024024973)
(0.00264860853267 0.00456247824578 -0.00106275155487)
(0.00261851360604 0.00386122380057 -0.00156568710845)
(-0.00195451301704 0.00174885950855 0.000278090271356)
(-0.000463652469146 0.00457906895826 -0.00105093144438)
(-0.00043854824692 0.00387191159715 -0.00154826641491)
(-0.00477991825981 0.00154868355661 0.000230727028492)
(-0.00350871620347 0.00439957187327 -0.00108471527655)
(-0.00343345029682 0.00375586467744 -0.00157417971094)
(-0.00710057104082 0.00124021312136 0.000107881480721)
(-0.0062407042914 0.00404012037655 -0.00120885607207)
(-0.00613139087957 0.00351929344647 -0.00171948027792)
(-0.00863627144404 0.000899676861216 -8.70946665639e-05)
(-0.00830101836748 0.00355667684895 -0.0014412022097)
(-0.00819042168741 0.00319541508192 -0.00202098897352)
(-0.00924463104543 0.000552010698127 -0.000372716212905)
(-0.0094113024784 0.00303177881726 -0.00174389602566)
(-0.00935039427033 0.00283772920108 -0.00242343188681)
(-0.00868926947225 0.000238886861585 -0.000770285783172)
(-0.00956622422996 0.0024075879622 -0.00215688303677)
(-0.00963838350735 0.00240245728083 -0.00296296285584)
(-0.00694293958638 0.000110921259804 -0.00117887812439)
(-0.00827548833838 0.00185779845924 -0.0026152650627)
(-0.00860984111946 0.00194433757559 -0.00360414290466)
(-0.00441587313442 0.000224214255333 -0.00140882099758)
(-0.00596009213299 0.00159436876856 -0.00289605261595)
(-0.0066238448913 0.00162919837873 -0.00412145204279)
(-0.00178495874711 0.000580852770069 -0.00134302653029)
(-0.00282891732297 0.00160920637477 -0.00261993730676)
(-0.00384272533959 0.00142446197657 -0.00424014145722)
(-0.000489773531567 0.00194728211946 -0.00134415203936)
(-0.00119333097195 0.00127521166842 -0.00373225666858)
(0.00168769310938 0.00296059389047 -0.00271815127319)
(0.000261688600701 0.0046057282674 -0.00150018375347)
(0.00146525831858 0.0039768911867 -0.0044233907031)
(0.00504666579469 0.00296921384582 -0.00422998050194)
(0.00323877569651 0.00468565042375 -0.00422933019115)
(0.00455761673645 0.0042666886252 -0.00653155575835)
(0.0082660810097 0.00334957927094 -0.00446978572036)
(0.00715112041083 0.00510873612131 -0.00487166527423)
(0.00770738364683 0.00479085682417 -0.00683440352158)
(0.0104323808538 0.00406536501342 -0.00414452366893)
(0.0100211963111 0.00592129846933 -0.0045542418803)
(0.00993832832407 0.00558691098405 -0.00632720014326)
(0.011249307457 0.00497617322685 -0.00365659426749)
(0.0116056033993 0.00704602348963 -0.00394862923844)
(0.0110965446626 0.00657714118537 -0.00556388918669)
(0.0107892208132 0.00582169496767 -0.0032066532028)
(0.0116736608327 0.00822936278206 -0.00333827384337)
(0.0110153405513 0.00756215835228 -0.00479972880774)
(0.00928078284496 0.00651703546637 -0.00285088759309)
(0.0105913296531 0.009179988877 -0.00288328781845)
(0.00994861708628 0.00833939268412 -0.00419176858891)
(0.00698414535348 0.00708826518487 -0.00258951824506)
(0.0085451984526 0.00999284676444 -0.00254452819695)
(0.00803021776331 0.00899017781837 -0.00372371809735)
(0.00417062149603 0.00746965807615 -0.00244615931192)
(0.00580913284823 0.0106005933556 -0.002343728224)
(0.00548914542687 0.00947052836645 -0.00343387389106)
(0.00110835158064 0.00761572359314 -0.00239570702423)
(0.00272441498466 0.0109323109592 -0.00226131925277)
(0.00261318585725 0.00973401581637 -0.00330757668011)
(-0.00198945496312 0.00750883988121 -0.00241373699229)
(-0.000483715542594 0.0109610514537 -0.00224495540775)
(-0.000386312761404 0.00975791501438 -0.00328418910794)
(-0.00490793323541 0.00715845715066 -0.00252429837711)
(-0.00364092588806 0.0106803877136 -0.00229417238013)
(-0.00333362412051 0.00953610534655 -0.00336235013412)
(-0.00736978602696 0.00660553147933 -0.0027579397625)
(-0.00652222471146 0.0101071524182 -0.00246331302523)
(-0.0060146379756 0.00908332870814 -0.00360519140989)
(-0.00908409342806 0.00591576430226 -0.0030980035688)
(-0.0087729424818 0.00930780885026 -0.00277939369853)
(-0.00813056655956 0.00844274490385 -0.00403683658512)
(-0.00979218896859 0.00509082678748 -0.00352806284953)
(-0.0100792003097 0.00835955357096 -0.00322102717144)
(-0.0094200299681 0.00766698325194 -0.00461969140732)
(-0.00925693456573 0.00420337261224 -0.0040018623163)
(-0.0102760901431 0.00721815521101 -0.00380047020808)
(-0.00975759961717 0.00671380191839 -0.00534583469845)
(-0.00739993793322 0.0034928052064 -0.00433243955425)
(-0.00899642953464 0.00609702638161 -0.00440211241671)
(-0.00888989563633 0.00573431559361 -0.0060962393342)
(-0.00449194065244 0.00311175408651 -0.00410716892512)
(-0.00644122341322 0.00528845459053 -0.00472593944086)
(-0.00696208674624 0.00494613062279 -0.00660210071614)
(-0.00142881042661 0.0030877066002 -0.00262106281582)
(-0.00283631070661 0.00485865636454 -0.00410826312329)
(-0.00411487012734 0.00441814393605 -0.0063126017683)
(-0.000126155423125 0.0047528389117 -0.00141436337659)
(-0.00131282642643 0.00409564529989 -0.00423438334747)
(0.00167385877112 0.00621068301555 -0.00301136267143)
(0.000150326009792 0.00725950315302 -0.00127892883674)
(0.00167488757467 0.00687349760329 -0.0043276503606)
(0.00547758760866 0.00669738331202 -0.00487101496343)
(0.0036232654602 0.00772465754944 -0.00447229436828)
(0.00509500746461 0.00722984253035 -0.00684275109987)
(0.0090341123461 0.00753696456706 -0.00495612143418)
(0.00799653335544 0.00848430141983 -0.00496064816682)
(0.00847898062063 0.00798909386727 -0.00693210601756)
(0.0113239690821 0.00872885012935 -0.00435834744981)
(0.0111105221347 0.00966561279386 -0.00432706890156)
(0.0107572358909 0.00909696612303 -0.00603418683605)
(0.0121022401903 0.0100841809246 -0.00363030881432)
(0.0127037310123 0.0111398367002 -0.00339622795333)
(0.0118222860375 0.0104125970132 -0.00487209997335)
(0.0114985280151 0.0113275225883 -0.00301490845901)
(0.0126587944591 0.0126171500702 -0.00255693679876)
(0.0116134398973 0.0117037849841 -0.00378409070892)
(0.00979147559833 0.0123531126541 -0.00257692842231)
(0.0113485346844 0.0138387317023 -0.00196067902009)
(0.0103635048117 0.0127718481408 -0.00295170588661)
(0.00730347326549 0.0131652711364 -0.0022987381759)
(0.00905420626225 0.0148556799958 -0.00157360801924)
(0.00828465987938 0.0136424179984 -0.00237484608598)
(0.00433288925812 0.0136988923852 -0.00215888816485)
(0.00610186157848 0.0156101696068 -0.00137213290461)
(0.00563107000166 0.0142810801826 -0.00203900688685)
(0.00113261380162 0.0139040943559 -0.00211056763629)
(0.00283564782046 0.016024550532 -0.00129992244424)
(0.00267168453624 0.0146338077547 -0.00189197799657)
(-0.00210781565584 0.0137652270564 -0.00212539079559)
(-0.000542995072601 0.0160661345883 -0.00128201351137)
(-0.000406854280601 0.0146739373637 -0.0018646667258)
(-0.00519382732503 0.0132834331966 -0.00223318702825)
(-0.0038920023914 0.0157250574825 -0.00131873955249)
(-0.00344778360879 0.0143919545315 -0.0019586703781)
(-0.00785696954372 0.0124999375639 -0.00248476696127)
(-0.00700423671318 0.0150177477753 -0.00148823079769)
(-0.00625418407269 0.0137995719281 -0.00224746476902)
(-0.00977719101522 0.0114864102338 -0.00290241730117)
(-0.00951252159093 0.0140169041567 -0.00185280492879)
(-0.00853568032456 0.0129464702978 -0.0027888850427)
(-0.0106289921514 0.0102662069361 -0.00349343452999)
(-0.011051816315 0.0128006036823 -0.00242878186565)
(-0.0100094232517 0.0118858637708 -0.00358926024667)
(-0.010132203676 0.00893228816824 -0.00420072030849)
(-0.0113596394152 0.0113588524161 -0.003235746453)
(-0.010470883943 0.0106197488216 -0.00463749789887)
(-0.00815145965275 0.00774439917309 -0.00479561230332)
(-0.0100699211709 0.00989072335273 -0.00415353793868)
(-0.0096869290458 0.00931187223265 -0.00577445530321)
(-0.00491132400631 0.00690337020572 -0.00472703363903)
(-0.00727296463396 0.00871321864492 -0.00479076893747)
(-0.00770783075989 0.00821090037216 -0.00666491739992)
(-0.0014103863462 0.00639973600224 -0.00290156368406)
(-0.00321206219781 0.00794903551084 -0.00433180550977)
(-0.00462759301281 0.00744953776055 -0.00659133888736)
(-1.10903433904e-05 0.00745576723362 -0.00118373798121)
(-0.0015073704981 0.00706526239907 -0.00411333116213)
(0.00194129528712 0.00866000745347 -0.00273986053359)
(0.000271747794362 0.0091437924035 -0.00088038297585)
(0.0019984169729 0.00898592914409 -0.00382559875131)
(0.0062928691576 0.00939301531786 -0.00456192757167)
(0.00433957080682 0.00972716493117 -0.0041546453541)
(0.005894412208 0.00928818854172 -0.00635409378769)
(0.0102195005224 0.0104758944825 -0.0043315956342)
(0.00919110916937 0.0106112546811 -0.00437491737796)
(0.00959178777977 0.0100986483946 -0.00605359812337)
(0.0126399971862 0.0119115023625 -0.00336494940507)
(0.0125483741325 0.0119231331195 -0.00337392337657)
(0.0119539680681 0.0112932201308 -0.00467803061189)
(0.0133345787017 0.013484299128 -0.00232285593777)
(0.0141584963324 0.0135112138359 -0.00208218397596)
(0.0129171182712 0.0126829261823 -0.00306597258663)
(0.012511511095 0.014930180431 -0.00150270735984)
(0.0139514446551 0.0150780009515 -0.000965901540935)
(0.0125030220441 0.0140338963876 -0.0016377976625)
(0.0105370184517 0.0161415065587 -0.00095735861702)
(0.0123766999858 0.0163961638306 -0.000163399917718)
(0.011011070816 0.0151791124937 -0.000582954258919)
(0.00778212480298 0.0171002616002 -0.000647002747952)
(0.00977793096631 0.0175009092278 0.00035376638401)
(0.00870812747867 0.0161205129351 0.000109649555028)
(0.00457564799655 0.0177338342948 -0.000513167184003)
(0.00653621620663 0.0183291112467 0.000616010105972)
(0.00587434242727 0.0168182592486 0.000487520681208)
(0.00116106541051 0.0179829858391 -0.000471368319323)
(0.00300151847298 0.0187928145681 0.000708242026778)
(0.0027662872375 0.0172124556423 0.000646304864116)
(-0.00229974433834 0.0178230723893 -0.000475362268269)
(-0.000640666321542 0.0188472022946 0.000731373073184)
(-0.00045346227905 0.0172666841545 0.000679729373698)
(-0.00563658298074 0.0172583127288 -0.000573783321925)
(-0.00427514160961 0.0184780519968 0.000683389962652)
(-0.00365714068808 0.0169675633255 0.00058383252146)
(-0.00858227937924 0.0163350509394 -0.000856268765211)
(-0.00770020751968 0.0177075805144 0.000456272050552)
(-0.0066633608661 0.0163303603356 0.000255853076449)
(-0.0107795894675 0.0151338728791 -0.00137916949327)
(-0.0105295152193 0.0166158121466 -3.99928392784e-05)
(-0.00918134898259 0.0154086892206 -0.000401607689838)
(-0.0118498945576 0.0137052237159 -0.00217109378866)
(-0.0123398184191 0.0152939932091 -0.000823488154298)
(-0.0109002196615 0.0142646854214 -0.00142309405574)
(-0.0114349166913 0.0121508746663 -0.00318856408319)
(-0.0128056430749 0.0137540020654 -0.00190561116723)
(-0.0115599015377 0.012927897957 -0.00281013812701)
(-0.00932243356478 0.0107194207387 -0.00414869457282)
(-0.0114978755052 0.0121693909523 -0.00317739597768)
(-0.0108710785598 0.0115429235794 -0.0043911637625)
(-0.00571501963179 0.00963598319661 -0.0043955408082)
(-0.00845754737184 0.0108590898652 -0.00418099846797)
(-0.0088030286729 0.0103542056179 -0.00575330209139)
(-0.00167126483797 0.00888695176037 -0.00261397980692)
(-0.00392215804075 0.00997257340913 -0.00399154467115)
(-0.00541202284139 0.00954540056384 -0.00606731442411)
(-0.00012904794063 0.00936295553234 -0.000770368275117)
(-0.00181837123859 0.00922120246891 -0.00357846937277)
(0.00248665469755 0.0101067075372 -0.00229516779636)
(0.000595925537985 0.00985878596898 -0.000475538058013)
(0.00245354917721 0.0101686927608 -0.00320165984269)
(0.00741940987338 0.0108231020863 -0.00396763516038)
(0.00524270601556 0.0104073480934 -0.0036812362354)
(0.00688462778375 0.0102963382917 -0.00561294825102)
(0.0116945821032 0.0119150914413 -0.00341724512032)
(0.0105400894942 0.0112526004677 -0.00366474477675)
(0.0109087222921 0.011018781425 -0.00491652919702)
(0.0142284763557 0.0133664105448 -0.00209115794746)
(0.0141133315013 0.0124799735393 -0.00235039172409)
(0.0133428344619 0.012114079579 -0.00309074656876)
(0.0148291130269 0.0149561820979 -0.000725229579129)
(0.0157435818818 0.013971976966 -0.000734570293705)
(0.0142051187283 0.0134034730088 -0.00106141275664)
(0.0137840216417 0.0164140239904 0.000373405901185)
(0.0153419639887 0.0154262778441 0.000660163018838)
(0.0135930647348 0.0146832966974 0.000696800274266)
(0.0115227186388 0.0176412703761 0.00114772508331)
(0.0135028601138 0.0166726941001 0.00167697780587)
(0.0118743969435 0.0157886690252 0.0019847574037)
(0.00845585593948 0.0186258019073 0.00161677923793)
(0.0105932004699 0.0177341355945 0.00235159747334)
(0.00933034023562 0.0167152170939 0.00283362044298)
(0.00493378511269 0.0192909587471 0.00183741931675)
(0.00703882003788 0.0185492699457 0.00270498698571)
(0.00626178801397 0.0174182426042 0.00330189646368)
(0.00120084101615 0.0195628199057 0.00191098341929)
(0.00319848664232 0.0190219614973 0.00283833956025)
(0.00292229282747 0.0178283585393 0.00350378242915)
(-0.0025886416037 0.0194050591452 0.0018901253041)
(-0.000753571129163 0.0190885381909 0.00287220901333)
(-0.000535773516323 0.0178973875156 0.0035481333229)
(-0.0062662771082 0.0188233828076 0.00171344533513)
(-0.00471880808921 0.018729767116 0.00279993160722)
(-0.00399378102568 0.0176069249628 0.0034259085043)
(-0.0095507232711 0.0178746610872 0.00127254797649)
(-0.00849183569838 0.017981135287 0.00248438236692)
(-0.00726784815117 0.0169761830914 0.00301088108869)
(-0.0120507519397 0.016647860285 0.00051568849969)
(-0.0116570184308 0.0169282370294 0.00182122037119)
(-0.0100525193952 0.0160660112194 0.00218759483259)
(-0.0133439485921 0.0151967635511 -0.00055800553287)
(-0.0137387270666 0.0156651312287 0.000811680300261)
(-0.0120059371737 0.0149485058449 0.000922050255415)
(-0.0130185818088 0.0136176768684 -0.00189444306172)
(-0.0143883786484 0.0142216136098 -0.000546302799406)
(-0.0128540727339 0.0136696072378 -0.000792987580126)
(-0.010790527181 0.0121654283609 -0.00320969987283)
(-0.0130613335298 0.0127231149062 -0.00213759561368)
(-0.0122561345504 0.012373105392 -0.00278179045847)
(-0.006835782577 0.011071786009 -0.00377700233092)
(-0.00980069940726 0.0114923810605 -0.00345272353208)
(-0.0101113414177 0.0112799993399 -0.00458805193611)
(-0.0022137802177 0.0103406837891 -0.00214793313934)
(-0.00482131014522 0.0106418763307 -0.00350004507496)
(-0.00639470271317 0.0105596258916 -0.00529132644326)
(-0.000448189156481 0.0100665328268 -0.000353723414675)
(-0.00226678678506 0.0104145934507 -0.00291737325957)
(0.00314114568405 0.0100884869435 -0.00186160649706)
(0.000952733011371 0.00936486527629 -0.00018014263601)
(0.0029194706263 0.0100107744117 -0.00264723401803)
(0.00858731343184 0.0107686398541 -0.00337834585177)
(0.00608060782819 0.00983953203911 -0.00324648937515)
(0.00785903198553 0.0100965538237 -0.00487835911843)
(0.013156983391 0.0117462395376 -0.00259789138052)
(0.0117738023699 0.0105372388831 -0.00306506758065)
(0.0121900470481 0.0106912392312 -0.00385431756058)
(0.0157807535794 0.0130336645106 -0.000993804070337)
(0.0155466988317 0.0115400197327 -0.00154500860269)
(0.0146820888423 0.0115803660522 -0.0016838271532)
(0.0162715458024 0.0144272633985 0.000650822304262)
(0.0171927842205 0.0128026785822 0.000350900940966)
(0.0154740087362 0.0126691131679 0.000678493253765)
(0.014998021132 0.0157019539049 0.00196373492352)
(0.016609466297 0.0140214657253 0.00196297371568)
(0.0146754204428 0.0137593587196 0.002678321506)
(0.0124585105837 0.0168048880326 0.0028808501959)
(0.0145417125642 0.0150858003378 0.00313072071817)
(0.0127467736496 0.0147301117737 0.00412638698071)
(0.00909472627249 0.0177128916544 0.00343980522111)
(0.0113542405484 0.0160184969499 0.00391718424001)
(0.00997428321196 0.0155684063624 0.00507940447441)
(0.00527498649648 0.0183447835436 0.0037059072292)
(0.00751335618627 0.0167591456112 0.00433831126544)
(0.00667147894758 0.0162255026033 0.00560984566098)
(0.001243998534 0.0186153977497 0.0037995651543)
(0.00339128115628 0.0172085032156 0.00451145335059)
(0.0030938076597 0.0166259862214 0.0058444288599)
(-0.00285666618794 0.0184768628084 0.00378201531645)
(-0.000850452881322 0.0172831114014 0.00455958497066)
(-0.000613423042517 0.0167069407302 0.00590607584622)
(-0.00686432066953 0.0179405915596 0.00357086863901)
(-0.00512672637094 0.0169587220226 0.00446710680092)
(-0.00433840559853 0.0164463485064 0.00577868600681)
(-0.0104814668477 0.0170710656509 0.00303305476162)
(-0.00922872780809 0.0162915931743 0.00408496315117)
(-0.00789192401922 0.0158739749998 0.00530667703041)
(-0.0132787352659 0.0159595947488 0.00211721217176)
(-0.0127061507786 0.0153660494889 0.00329658762798)
(-0.0109429159649 0.0150504299054 0.00435944680585)
(-0.014797696763 0.0146740634112 0.000823383033725)
(-0.0150286386032 0.0142748167177 0.00212067167397)
(-0.013118504433 0.0140532496741 0.00290926808335)
(-0.0145739003989 0.0132761685467 -0.000789455351373)
(-0.01584693164 0.013050596867 0.000545384969434)
(-0.0141414281882 0.0129441505537 0.000947211940377)
(-0.012250640753 0.0119795223932 -0.00238061927293)
(-0.0145045815636 0.0117690850052 -0.00132766118792)
(-0.0136058776845 0.0118319877593 -0.00136924082573)
(-0.00799830587295 0.0109936427903 -0.00317576627612)
(-0.011034884271 0.01075296644 -0.00284540255193)
(-0.0113918540575 0.0109350147119 -0.00351293573855)
(-0.00286199820116 0.0102967323696 -0.0017058353503)
(-0.0056587181259 0.0100429390475 -0.00305648133373)
(-0.00736507832267 0.0103366539802 -0.00453739093037)
(-0.000803078493055 0.00954737222613 -5.34882207114e-05)
(-0.00272463221231 0.0102348477626 -0.00234285278578)
(0.00365758903319 0.00910586723881 -0.0015650255141)
(0.00128387199351 0.00795686865711 1.2990176385e-05)
(0.00326710021836 0.00898148837242 -0.00224959868686)
(0.00953659847032 0.00959122681692 -0.00293321110402)
(0.0067717785126 0.00824932446122 -0.00290274746333)
(0.00863536054363 0.00893778788746 -0.0042888066024)
(0.0143721743586 0.0103328783299 -0.00201218480282)
(0.012789176716 0.00874055933017 -0.00263916324599)
(0.0132500615314 0.00934391500303 -0.00303890345524)
(0.0170906498917 0.0113452229251 -0.000200303591386)
(0.0167418696776 0.00946485830084 -0.00101328507226)
(0.015813387767 0.00998118703399 -0.000643323889288)
(0.0175119877596 0.0124624647617 0.00166305235239)
(0.0184058828337 0.010425730914 0.0011123598305)
(0.0165650615078 0.0108308544186 0.00195559655242)
(0.016064907879 0.0134954492761 0.00312995951033)
(0.0176993153138 0.0113496179316 0.0028722586982)
(0.0156364955949 0.0116963362532 0.00411891071746)
(0.0133004551721 0.0144142257608 0.00416705476228)
(0.0154610967682 0.0121702844961 0.00415919040766)
(0.0135488310609 0.0124899209509 0.00567994842005)
(0.00968018672464 0.015199964148 0.00481569028433)
(0.01204868874 0.0129117844715 0.00506000499846)
(0.0105852769683 0.0131993585347 0.00672695888824)
(0.00559964875271 0.0157600606598 0.00514385738683)
(0.00793895328734 0.013509441463 0.0055966330298)
(0.00707524171542 0.0137859476999 0.00733021977657)
(0.00129553019515 0.0160042696154 0.00527147316695)
(0.00356570923918 0.0138930051258 0.00570918448356)
(0.00327422192635 0.0141536209969 0.00761959540725)
(-0.00309476385488 0.0158993417948 0.00524467645513)
(-0.000926980786477 0.0139689055518 0.00574462468012)
(-0.000676036779039 0.0142389356748 0.00770448070946)
(-0.00739783289903 0.0154431240035 0.00498120131308)
(-0.00547298573833 0.0137031758913 0.0057590239967)
(-0.00465589034469 0.0140210059767 0.00755859870105)
(-0.0113134628072 0.0146984635111 0.00434849601752)
(-0.009889163497 0.0131798903104 0.00527077983479)
(-0.00846748209243 0.0135254642197 0.00702731945251)
(-0.0143651607078 0.0137672293541 0.00330004713019)
(-0.0136342136428 0.0124472320882 0.00435567280987)
(-0.0117595454337 0.0128313475802 0.00597050503582)
(-0.0160639887361 0.0127124804308 0.00184267360968)
(-0.0161478583358 0.0115979596356 0.00304727646991)
(-0.0141203315501 0.0120054136896 0.00437567687825)
(-0.0159042440805 0.0115770825016 7.17913288257e-06)
(-0.0170847522577 0.0106592704426 0.00131822975843)
(-0.0152700400738 0.0111069109593 0.00223157349836)
(-0.0134764301025 0.0105438380521 -0.00179244446692)
(-0.0157226234036 0.00966986639849 -0.00078863856)
(-0.0147642979264 0.0102198945631 -0.000328606142522)
(-0.00895205012984 0.00978549482986 -0.00272611760954)
(-0.0120625589475 0.00892333972065 -0.00241681079514)
(-0.0124642609452 0.0095603710213 -0.002694768351)
(-0.00338195093489 0.0092822096198 -0.00140413420415)
(-0.00635688744988 0.0084138348582 -0.0027087495602)
(-0.00814747089803 0.00914325962076 -0.00394101505007)
(-0.00113983170934 0.00810285919755 0.000140695172576)
(-0.00307496916718 0.00917245657419 -0.00193745263699)
(0.00414310218013 0.00717038978189 -0.00132473177285)
(0.00159523799785 0.00574627670796 0.000144740795243)
(0.00359112767965 0.00704990096389 -0.00193251312498)
(0.0103375483075 0.00746514373608 -0.0026086996053)
(0.0073294146214 0.00589757933323 -0.00265851172368)
(0.00927588133707 0.00694657456123 -0.00384270244295)
(0.0153699145787 0.00794934792091 -0.00164026351543)
(0.0135770031235 0.0061905338798 -0.00237705446431)
(0.0140996605571 0.00718494363235 -0.00248234525968)
(0.018172171874 0.00864267903996 0.000299378349628)
(0.0176673034471 0.0066378274142 -0.000724462459328)
(0.0167238167714 0.0075851748932 2.47653437571e-05)
(0.0185498332518 0.00942974674544 0.00232156617632)
(0.0193542604889 0.00726893543568 0.00155556083278)
(0.0174572652399 0.00817602241733 0.00277912099239)
(0.0169815180679 0.010163172235 0.00390148959554)
(0.0185691878151 0.00787425440432 0.00340460375552)
(0.0164421385689 0.00879010726327 0.00504366046225)
(0.0140459568707 0.0108329193834 0.00505214064385)
(0.0162201127897 0.00841565638876 0.00477575417455)
(0.0142429980442 0.00936437531468 0.0066901666248)
(0.0102069192068 0.0113906005604 0.00584094774394)
(0.0126053781059 0.00891230835947 0.00581399652724)
(0.0111393161539 0.00990122397328 0.00783848825773)
(0.00585373457209 0.011808150485 0.00616196012654)
(0.0083030919373 0.00928470888213 0.00615484626134)
(0.0074392723937 0.0103369612135 0.00857789084371)
(0.00133558142219 0.0120316503921 0.00618233599673)
(0.00369858179604 0.00955829963735 0.00615658605298)
(0.00343943560757 0.0106526365868 0.00885283316888)
(-0.00326181440793 0.0119380396511 0.00625897222169)
(-0.000992688153172 0.00962168307447 0.0061836401339)
(-0.000723574164016 0.0107345620854 0.00894459509309)
(-0.00786133961989 0.0116070078252 0.00604860251841)
(-0.00577681403588 0.00942969446832 0.00629361876029)
(-0.00492339644416 0.0105463142776 0.00887298674183)
(-0.0120421955051 0.0110939655364 0.00527795662714)
(-0.0104109008858 0.0091283974915 0.00604961906261)
(-0.00897527199424 0.010196053212 0.00823233285659)
(-0.0153003066098 0.0104158802239 0.00410290214959)
(-0.0143954593266 0.00864351477432 0.00501516187916)
(-0.0124615824418 0.00967524298948 0.00706181655983)
(-0.0171343167509 0.00965890957739 0.00252283261865)
(-0.0170456376445 0.00807865701124 0.00361006783838)
(-0.014966435616 0.00907254189553 0.00535330367208)
(-0.0170170777581 0.00884627828699 0.000522412065543)
(-0.0180629971697 0.00745796176907 0.00178496173002)
(-0.0162078619003 0.00842534169833 0.00308406096202)
(-0.0144982161032 0.00812469595156 -0.00141300488822)
(-0.0166775808861 0.00679643426469 -0.000484719925816)
(-0.0157150856469 0.00779339344799 0.000354559522811)
(-0.00976748928396 0.0076185471999 -0.00239944274581)
(-0.0128726761246 0.00632735024541 -0.00215234793285)
(-0.0133410091201 0.00736190324705 -0.0021347524225)
(-0.0038758763595 0.00730535443474 -0.00116392018348)
(-0.00692666050556 0.00601636758278 -0.00246356211115)
(-0.0088040339903 0.00710641841008 -0.00349416546641)
(-0.00145939150502 0.00585102014707 0.000269554081852)
(-0.00340629897036 0.00719619817426 -0.00162405180657)
(0.00450832743884 0.00453845341014 -0.00118903915559)
(0.00180257937695 0.00300446415691 0.000200761624182)
(0.00383026858733 0.00445546734392 -0.00176651360415)
(0.0109189178245 0.00468784255437 -0.0024268665827)
(0.00768964027977 0.00306705594108 -0.00253362985359)
(0.00973414153252 0.00437003230377 -0.00358006432715)
(0.0160865001768 0.0049478085426 -0.00146125340821)
(0.0140737703425 0.00319858670474 -0.00225620976514)
(0.0147002852843 0.00448781039761 -0.0021756360045)
(0.0189531394665 0.00533908699478 0.000531720023821)
(0.0182518897518 0.00340384886175 -0.000616431855933)
(0.0173695660761 0.00469775235165 0.000367333612349)
(0.0193120907864 0.00579466834661 0.00263859841198)
(0.0199610758704 0.00371008333765 0.00174084554366)
(0.0180983240343 0.00503857554769 0.00319988898267)
(0.0176724194783 0.0062190449359 0.00427886833453)
(0.0191357406182 0.00400182798366 0.00362613108736)
(0.0170324767374 0.00539713364191 0.00551207942384)
(0.0146137911444 0.00659865466221 0.00553761005794)
(0.0167245924138 0.00426472814798 0.00504645207905)
(0.014774157124 0.00573809987872 0.00720953257365)
(0.0105668224393 0.00694586694994 0.00612789504464)
(0.0129648172507 0.00448222697906 0.00612845319826)
(0.0115516907101 0.00605353830178 0.00847702223924)
(0.00606403441692 0.00722444231713 0.00614947218778)
(0.00856163601789 0.00469064389945 0.00612677485836)
(0.0077433415187 0.0063503745338 0.00909682355421)
(0.00135518301816 0.00735785321393 0.00615789019014)
(0.00378766673629 0.00483772140411 0.00613838874608)
(0.00356258910383 0.0065504746557 0.00942940073375)
(-0.00343995418413 0.00730890232311 0.0062182866725)
(-0.00105489456025 0.00486956740579 0.0061833123242)
(-0.000764776477683 0.00660392493199 0.00954722629723)
(-0.00818739966248 0.00709377727459 0.0062946353045)
(-0.00601585335953 0.00476325073967 0.00623411707047)
(-0.00515835035365 0.00649501812426 0.00941386632967)
(-0.0125901347333 0.00678258048536 0.00578682431464)
(-0.0107839836888 0.00459387138493 0.00626706218062)
(-0.00934648030443 0.00626051473167 0.00893724302809)
(-0.0160040826818 0.00640107075689 0.00452232756796)
(-0.0148922697906 0.0043963967559 0.00532584732873)
(-0.0129940165235 0.00595624724525 0.00766105253107)
(-0.0179246282695 0.00595884040286 0.00287219694975)
(-0.0176331161965 0.00411674207048 0.00386132320625)
(-0.0155883044732 0.00559583699671 0.00588245028512)
(-0.0178290572821 0.00548199712304 0.000777829738665)
(-0.018692818729 0.00381572382139 0.00199440085417)
(-0.0168891853335 0.0052144787779 0.00354665739897)
(-0.0152428779506 0.00506684864626 -0.00122406297044)
(-0.0172860408432 0.00349159213941 -0.000362839618792)
(-0.0163994939655 0.00484221528294 0.000718651231194)
(-0.0103685356625 0.00478927915301 -0.00221646729819)
(-0.0133898783165 0.00327420119585 -0.00202899954585)
(-0.0139713181389 0.00460715806238 -0.00182120866216)
(-0.00425252950476 0.00462661915981 -0.00103008784582)
(-0.00729786721024 0.00313282528373 -0.00233874227669)
(-0.00928159590879 0.0044749782172 -0.00323248380356)
(-0.00167435622579 0.00306335523802 0.000323422824148)
(-0.00365584447512 0.00455039476789 -0.00146487914291)
(0.00469859896443 0.00156458329701 -0.00114382907382)
(0.0018727483353 2.81758861997e-05 0.000212213433824)
(0.0039520829534 0.00153526058798 -0.00172230467516)
(0.0112175875376 0.00160766626001 -0.00236297303604)
(0.00781200524401 2.79368345911e-05 -0.00249994814463)
(0.00996956860502 0.0015018953129 -0.00347986210841)
(0.0164533432166 0.00168393325236 -0.00141138821286)
(0.0142391569629 2.29108839486e-05 -0.00222653877686)
(0.0150064911082 0.00153279823423 -0.0020600762804)
(0.0193560788515 0.00180347836832 0.00059269366391)
(0.0184477728182 1.57133187244e-05 -0.000598038021604)
(0.0177006972392 0.00159175877764 0.000485397932063)
(0.0197127719767 0.00194584585187 0.00272837821904)
(0.0201660952902 7.24269088166e-06 0.00178048931977)
(0.0184304625203 0.00169713682397 0.00334613841432)
(0.0180446095431 0.00207796500806 0.00439371483188)
(0.0193291526325 -7.52650487646e-07 0.00367203611688)