/*--------------------------------*- C++ -*----------------------------------*\
| =========                 |                                                 |
| \\      /  F ield         | OpenFOAM: The Open Source CFD Toolbox           |
|  \\    /   O peration     | Version:  3.0.1                                 |
|   \\  /    A nd           | Web:      www.OpenFOAM.org                      |
|    \\/     M anipulation  |                                                 |
\*---------------------------------------------------------------------------*/
FoamFile
{
    version     2.0;
    format      ascii;
    class       volScalarField;
    location    "4.2";
    object      epsilon;
}
// * * * * * * * * * * * * * * * * * * * * * * * * * * * * * * * * * * * * * //

dimensions      [0 2 -3 0 0 0 0];

internalField   nonuniform List<scalar> 
15984
(
0.000397389037897
0.000487006908745
0.000531219435962
0.000542399595732
0.000541630195664
0.00054342292403
0.00055005756704
0.000556273210651
0.000556785551835
0.000550478606257
0.000544087392593
0.000536390968473
0.000529161027176
0.000523614603066
0.000519733516216
0.000517169036874
0.000515513967598
0.000514480958024
0.000513837321918
0.000513433359627
0.000513186076388
0.000513036936069
0.000512948528551
0.000512890997994
0.000512851096353
0.00051282270931
0.000512799988818
0.00051277398066
0.00051277431583
0.00051278229223
0.00051278749114
0.00051278373632
0.000512728917777
0.000512583973524
0.000512119997027
0.000510550869132
0.000505525775367
0.000491027699819
0.000454137644421
0.000379133189386
0.000627057871471
0.00101425291507
0.00118842211643
0.00122682249639
0.00122722820932
0.00123547004988
0.00127151755061
0.001330285304
0.00137906597287
0.00139107373292
0.00136892210951
0.00134111309362
0.00131688328662
0.00129906773615
0.00128740387216
0.0012801323803
0.00127563617533
0.0012728658251
0.00127115258323
0.00127008260505
0.00126941696174
0.00126901197233
0.00126875944309
0.00126861650044
0.00126853724087
0.00126852180699
0.00126852939465
0.00126852348778
0.00126856355199
0.00126863688819
0.0012687373992
0.00126872262224
0.00126828796434
0.00126700135865
0.00126291641625
0.00125026711785
0.00121489470714
0.00112708772822
0.000933226822041
0.000567756544613
0.000744156909631
0.00140415499032
0.00169298850409
0.00176001707443
0.00176599986804
0.00178514658712
0.0018527296103
0.00196669653061
0.00206973735375
0.00210827127066
0.00208620149464
0.00204015710781
0.00199992776284
0.00197091987623
0.00195220089319
0.0019408419475
0.0019340391244
0.00192994871855
0.00192744583834
0.00192590207412
0.00192494518259
0.00192433499847
0.001923915027
0.00192367514667
0.00192356604972
0.00192356449415
0.0019236106428
0.00192363510618
0.0019237226937
0.00192389658188
0.00192412647805
0.00192402297465
0.00192303089028
0.00191998489304
0.00191072924983
0.00188402361256
0.00181412144051
0.00165088180803
0.00130709812727
0.000659397825423
0.000807965647568
0.00163844657861
0.00199038762668
0.00206456981129
0.00207024096976
0.00210152119454
0.00220507887374
0.00238531333438
0.00256106855781
0.00264473336853
0.00263274356795
0.00258036799721
0.00252661442166
0.00248765551493
0.00246263137209
0.00244756768983
0.00243875690235
0.00243359044709
0.00243049645947
0.00242860271835
0.00242742891879
0.00242667609779
0.00242612288346
0.00242577483983
0.00242563877267
0.00242565545165
0.00242574563657
0.00242580418735
0.00242595184113
0.00242629139844
0.00242656827481
0.00242632125385
0.00242468349134
0.00241960988445
0.00240470518064
0.00236356626529
0.00226102199675
0.00203164994847
0.00156576010062
0.000707523797741
0.000844161619915
0.0017564861532
0.0021236773502
0.00223066523025
0.00226170943927
0.00230993456115
0.00243357364894
0.00263289463147
0.00289256870482
0.00303932893911
0.00304792051975
0.00299274376412
0.00292945917314
0.002881336681
0.00285041989403
0.00283189190822
0.00282123026766
0.00281514004425
0.00281157873896
0.00280942031749
0.00280808135054
0.00280721782359
0.00280658807447
0.00280615859494
0.00280600065784
0.0028060377591
0.00280617171617
0.00280627025263
0.002806534286
0.00280695299366
0.00280724537994
0.00280681911342
0.00280448519086
0.00279733218414
0.00277679214424
0.00272202170633
0.00259023562677
0.00230515452339
0.00174313678984
0.000734458645381
0.000863699107336
0.00179566143707
0.0021849746727
0.00233049625118
0.0023675360965
0.00242844160588
0.00258261996431
0.00282621247707
0.00310424931733
0.0033226833295
0.00335832959632
0.00330401775855
0.00323303054623
0.0031767286059
0.00314023933275
0.00311862140278
0.00310627643771
0.00309939557635
0.00309547742274
0.00309312840297
0.0030916641406
0.00309071489041
0.00309003281436
0.00308957116973
0.00308940368039
0.0030894605009
0.00308963648825
0.00308979098177
0.00309012997029
0.00309060474683
0.00309089223691
0.00309027269397
0.00308724873916
0.0030781029406
0.00305235723946
0.00298547753524
0.00282879134042
0.00249854280899
0.00186318259115
0.000750025821848
0.000872799226878
0.0017896977711
0.00221221505214
0.00236260211148
0.00239615651155
0.00246729708882
0.002654022978
0.00294365419954
0.00324478766566
0.00351937499628
0.00358316719482
0.00353200738058
0.00345509263046
0.00339187836338
0.0033505153036
0.00332617079291
0.00331243458953
0.00330490300214
0.00330070452196
0.00329824036476
0.00329668551544
0.00329567230572
0.00329495296499
0.00329449459586
0.0032943293885
0.00329440293681
0.00329461453245
0.00329481515
0.00329520414875
0.00329572071262
0.00329599255702
0.00329518652414
0.00329153550201
0.0032806250294
0.00325040718335
0.00317343515239
0.00299669896179
0.00263148907875
0.00194232436922
0.000759028246684
0.000876419395901
0.00176745558447
0.00220883013148
0.00235480194781
0.00237960876412
0.00245877052298
0.00267650077885
0.0030084414193
0.00335085660851
0.00364979058831
0.00373769605116
0.00369035918715
0.00360912095496
0.00354067373973
0.00349544918849
0.00346886939832
0.00345411896666
0.00344607874347
0.00344168701832
0.00343914376464
0.0034375315226
0.00343646806882
0.00343573139814
0.00343529271422
0.0034351336426
0.00343521920175
0.00343545650959
0.00343568688285
0.00343611272427
0.00343665936538
0.00343691066513
0.00343594519423
0.00343177774659
0.00341944758485
0.0033857117225
0.0033009819869
0.00310924335484
0.00271867882728
0.00199223056544
0.000764097569881
0.000877981346317
0.00174812864662
0.00219556624217
0.00233543834795
0.00234977268559
0.00243456679847
0.00267792281988
0.00304109071618
0.00341455494053
0.00372920959098
0.00383391295316
0.00378968189186
0.00370570360734
0.00363370123544
0.00358583399941
0.00355771271081
0.00354224985535
0.00353389317482
0.0035293796074
0.00352679299097
0.0035251498963
0.00352404976989
0.0035233101714
0.00352288903996
0.00352273530215
0.00352282798631
0.00352308244125
0.00352332838153
0.00352378045154
0.00352434416351
0.00352457668957
0.00352349513075
0.00351896056449
0.0035056398126
0.00346948791541
0.00337951711003
0.00317783689939
0.00277085420951
0.00202110470877
0.000766767518036
0.000878812152993
0.00173860840685
0.00218643277331
0.00232226344223
0.00232858343983
0.00241642730709
0.00267555095526
0.00305506774381
0.00344442690759
0.00376722202247
0.00388010830862
0.00383743217197
0.0037520852263
0.00367829232598
0.00362909975191
0.00360020984782
0.00358436792289
0.00357587094767
0.00357130022086
0.00356869569449
0.00356703726302
0.0035659170807
0.00356517669227
0.00356476529657
0.00356461383087
0.00356470813671
0.00356497263113
0.00356522454496
0.00356569021377
0.00356626164116
0.00356648144352
0.00356533742854
0.00356061145783
0.00354678235151
0.0035094033369
0.00341679656561
0.00321017693105
0.00279514812175
0.00203423658046
0.000767905210544
0.000878933307609
0.00173911265481
0.00218692616752
0.00232279586545
0.00232927742571
0.00241707152181
0.002675988668
0.00305540814124
0.00344467134403
0.00376750401471
0.0038801178938
0.00383733617128
0.00375198872224
0.00367822611215
0.00362905427975
0.00360017994409
0.0035843504762
0.00357585866315
0.00357128903538
0.00356868488519
0.00356702556578
0.0035659018419
0.00356515945198
0.00356474586673
0.00356459218426
0.00356468598735
0.0035649501877
0.00356520179368
0.003565667466
0.0035662366062
0.00356645379206
0.00356530623026
0.0035605780672
0.00354674882763
0.00350937234995
0.00341677030839
0.00321015873294
0.00279513570428
0.00203422957718
0.000767904171796
0.000878306966506
0.00174956371094
0.00219696014981
0.00233692988335
0.00235154150502
0.00243621436716
0.00267915486049
0.00304207010353
0.0034152653799
0.00373001605914
0.00383394065463
0.00378941138767
0.00370542778069
0.00363350414249
0.00358570076732
0.0035576214059
0.00354219344246
0.00353385531126
0.00352934727377
0.00352676186668
0.00352511531767
0.00352400599832
0.00352325991386
0.00352283294295
0.00352267361183
0.0035227639898
0.00352301821209
0.00352326360001
0.00352371557758
0.00352427308555
0.00352449826242
0.00352340656363
0.00351886572478
0.00350554449228
0.00346939933705
0.00337944110237
0.00317778482667
0.00277081843938
0.00202108438243
0.000766764346364
0.000876862964295
0.00176969765676
0.00221102782595
0.00235716251712
0.00238220765847
0.00246118039786
0.00267843410729
0.00300996040925
0.00335191927794
0.00365091764434
0.00373765856359
0.00368989965445
0.00360867376965
0.0035403561559
0.00349523969436
0.00346871998231
0.00345402486406
0.00344601271353
0.00344163347305
0.00343909182284
0.00343747297606
0.00343640058662
0.00343565516988
0.00343520788271
0.00343504039002
0.00343512225022
0.00343535956986
0.0034355895652
0.00343601483462
0.00343655099176
0.00343679166617
0.00343581106589
0.00343163468459
0.00341930366553
0.00338557804048
0.00330086754679
0.00310916324462
0.00271862325624
0.00199219826714
0.000764091947463
0.000873242027218
0.00179245667635
0.00221500332848
0.00236563036363
0.00239938852707
0.00247028591637
0.0026564859048
0.00294555708394
0.00324618593065
0.00352051944371
0.00358295105527
0.00353134904252
0.00345449565522
0.00339145827553
0.00335023591628
0.00332597680825
0.00331231386491
0.00330481279019
0.00330063071297
0.00329817192282
0.00329660954725
0.00329558918909
0.00329486185375
0.00329439355947
0.00329421853643
0.00329428703385
0.00329449863859
0.00329469873928
0.00329508609928
0.00329558981076
0.00329585010164
0.0032950262446
0.00329136438455
0.00328045317031
0.00325024701979
0.00317329656531
0.00299660055733
0.00263141959517
0.00194228275929
0.000759020380126
0.000864023081438
0.00179849497576
0.00218820624348
0.00233388331869
0.00237109812855
0.00243171469882
0.0025853456472
0.00282830849583
0.00310691777389
0.00332352239828
0.00335783506018
0.00330317084759
0.0032323322457
0.00317623037878
0.00313990551496
0.00311841353653
0.00310613400342
0.0030992866278
0.00309538713024
0.00309304693833
0.00309158254756
0.00309062859893
0.00308994069241
0.00308946880259
0.00308929176637
0.00308934299234
0.00308951908925
0.00308967337491
0.00309000912095
0.00309046998512
0.0030907454534
0.00309010936218
0.00308707532681
0.00307792863336
0.00305219445499
0.00298533578772
0.00282868702849
0.00249846735881
0.00186313617421
0.000750015994873
0.000844282408934
0.00175893756317
0.00212821068595
0.00223429641637
0.00226552555846
0.00231336089276
0.00243643201171
0.00263496687287
0.00289459837177
0.00303961126972
0.0030471123564
0.00299176229684
0.00292867905201
0.00288079503284
0.00285006242241
0.00283168418993
0.00282108076305
0.00281502484744
0.00281148666436
0.00280933864694
0.00280800459139
0.00280713948549
0.00280650840876
0.0028060692924
0.00280590321668
0.0028059353056
0.0028060694198
0.00280616946695
0.00280642939967
0.00280683565359
0.0028071166676
0.00280667645331
0.00280433415188
0.0027971811141
0.00277665026802
0.00272189629311
0.00259013818412
0.00230508223866
0.00174309074593
0.000734447927442
0.000807866434843
0.00164016534576
0.0019939816833
0.00206926882275
0.00207533689354
0.00210589055344
0.00220891422531
0.00238791081242
0.00256217910885
0.00264442792203
0.00263172281332
0.00257934557014
0.00252583617949
0.00248711955269
0.00246232108461
0.00244737434814
0.00243862169833
0.0024334889284
0.00243041336118
0.0024285317561
0.00242736573759
0.0024266168643
0.00242606468401
0.00242570994706
0.0024255669498
0.00242557980346
0.00242567043919
0.00242572957089
0.00242587724613
0.00242620783549
0.00242647663881
0.00242621887766
0.00242457534674
0.00241950223864
0.0024046028784
0.00236347394584
0.00226094296765
0.00203158930136
0.00156572047047
0.000707513491753
0.000743888311913
0.00140504680437
0.00169531796572
0.0017632918567
0.00176962568161
0.0017883539322
0.00185526013503
0.00196818984586
0.00207002014975
0.00210759440627
0.00208516346224
0.00203923747285
0.00199924504216
0.00197049153353
0.00195193851213
0.00194068505693
0.00193393227105
0.00192987062219
0.00192738504249
0.00192585154107
0.00192490293988
0.00192429852115
0.00192388070453
0.00192363835445
0.00192352454454
0.00192352085547
0.00192356750093
0.00192359273724
0.00192368029205
0.0019238541996
0.00192407978912
0.00192397039315
0.00192297565017
0.00191992788585
0.00191067204861
0.00188396584501
0.00181406875842
0.00165083979985
0.00130707094629
0.00065939122366
0.000626754068802
0.00101446397543
0.00118954090506
0.00122858462401
0.00122925173768
0.0012372090478
0.00127276462692
0.00133084612624
0.00137889863758
0.00139040718236
0.00136816026085
0.00134044679648
0.00131641859431
0.0012987803262
0.00128723175283
0.00128002423424
0.0012755638711
0.00127281613965
0.00127111332596
0.00127005154991
0.00126939274564
0.00126899272987
0.00126874348787
0.00126860157788
0.00126852208943
0.00126850495549
0.00126851377843
0.00126850862068
0.00126854897087
0.00126862267815
0.00126872581847
0.00126870915472
0.00126827178705
0.00126698338563
0.00126289445868
0.0012502452603
0.00121487193988
0.00112706880976
0.00093321644733
0.000567756303549
0.000397268860778
0.000486916820436
0.000531349386991
0.000542739031822
0.000542087483886
0.000543764950108
0.000550228592491
0.00055624130125
0.000556580121263
0.000550191366273
0.000543788194909
0.000536149984104
0.000528996513645
0.000523511511846
0.0005196712603
0.000517129980779
0.000515492123653
0.000514469369708
0.000513830933593
0.000513431132899
0.000513186643968
0.000513039687095
0.00051295361056
0.00051289643341
0.000512856317434
0.000512827219268
0.000512804659327
0.000512778534663
0.000512778157781
0.00051278693607
0.000512789973974
0.000512784164577
0.000512732519527
0.000512591532688
0.00051212756714
0.000510559087014
0.000505531930652
0.000491033434796
0.000454145925876
0.000379142860263
0.000586898798134
0.00094423003473
0.00112319286918
0.00117894132392
0.00118974427169
0.0012009207803
0.001232107059
0.00127855376801
0.00131804893397
0.00133342445737
0.00132771121151
0.00131343957234
0.00130134522453
0.00129181741894
0.00128411810785
0.00127861125449
0.00127491396181
0.00127252283271
0.00127099582027
0.00127001867321
0.00126939598306
0.00126900999303
0.00126875528089
0.00126858764688
0.00126849749636
0.00126848797681
0.00126852771378
0.00126855868795
0.00126863779203
0.00126874659602
0.00126883201839
0.00126881406507
0.00126842958182
0.00126716661528
0.00126305112539
0.00125034564293
0.0012149095668
0.00112705344479
0.000933210812959
0.000567832739562
0.000771731194223
0.0010727070354
0.00123936421389
0.00129806993931
0.00131334569358
0.00132557205934
0.0013541231472
0.00139770276139
0.00143710902486
0.00145518327047
0.00145264081275
0.00144151182857
0.00143010838368
0.00142150653245
0.00141544281848
0.00141147058751
0.0014089579384
0.00140740032596
0.00140644262667
0.00140585387537
0.0014054907438
0.00140526159258
0.00140510918647
0.00140501686611
0.00140497557276
0.00140498223328
0.0014050112878
0.00140503461384
0.00140507698601
0.00140513541142
0.00140518664251
0.00140511316408
0.00140469437758
0.0014033416099
0.00139894230836
0.00138549700056
0.0013485689586
0.00125900827055
0.00106976829038
0.000759595689137
0.000991137830407
0.00128177534883
0.00146825706495
0.0015354197982
0.00155400693495
0.00157193854567
0.00161313799191
0.00167694500337
0.00173801992319
0.00177102852286
0.00177438551828
0.00176307674092
0.00174937362866
0.00173858375747
0.00173117614504
0.00172647412531
0.00172359213237
0.00172185260602
0.00172080652811
0.00172017791917
0.00171979693617
0.00171955826243
0.00171940033012
0.00171930884277
0.00171927328912
0.00171928309731
0.00171931422003
0.00171934141301
0.00171938502051
0.00171944913741
0.00171949220559
0.00171935704067
0.00171871361852
0.00171661809921
0.0017100320512
0.00169083708558
0.00164067220585
0.00152481574144
0.00129279824941
0.000961617659584
0.00111899087357
0.00143513090556
0.00164324943817
0.00172162443908
0.00174581123553
0.00177100082666
0.0018253396824
0.00190976873958
0.00199426204323
0.00204397317395
0.00205348578886
0.00204187434395
0.00202548233407
0.00201208009323
0.00200300605667
0.00199735474474
0.00199397713366
0.00199198900906
0.00199081838972
0.00199012480766
0.00198970789202
0.00198944799242
0.00198927257794
0.00198916888673
0.00198913212102
0.00198914427206
0.00198918029054
0.0019892125297
0.00198926456829
0.00198934812246
0.00198937940691
0.00198916464421
0.00198823254123
0.00198522037051
0.00197605237066
0.00195037369019
0.00188597286844
0.00174289838011
0.00146622432453
0.00107847055629
0.00119382209692
0.00153109878478
0.00175734631747
0.00185748932244
0.00189417772439
0.00192760829226
0.0019916336563
0.00208512992036
0.00218975439103
0.00225767891394
0.00227430055757
0.00226253666403
0.00224360460449
0.00222752060028
0.00221670865322
0.00221007110981
0.00220618405462
0.00220395164735
0.00220266558857
0.00220191294527
0.00220146284019
0.00220118308138
0.00220099505628
0.00220087934248
0.00220084063435
0.00220085576329
0.00220089792023
0.00220093689862
0.00220100748751
0.00220109944614
0.00220111435923
0.00220080779554
0.00219955772202
0.00219557825975
0.00218377281702
0.00215174392799
0.00207395079884
0.00190625393273
0.00159019424463
0.00114988064684
0.00123503421119
0.00158243865485
0.00182987176781
0.00195133145152
0.00199727256982
0.00203856223449
0.00211408961704
0.00221998839589
0.00233102650392
0.0024168134791
0.00244131865764
0.0024299074941
0.00240860730857
0.00239007496287
0.00237756842668
0.00236998696761
0.0023656133651
0.00236315557208
0.00236177001715
0.00236096885218
0.0023604905907
0.00236019387966
0.0023599966931
0.002359876119
0.00235983690535
0.00235985536579
0.00235990420175
0.00235995223433
0.00236003563356
0.00236013217102
0.00236012782083
0.00235972584363
0.00235815839114
0.00235324521964
0.00233897393197
0.00230120374891
0.00221171385014
0.00202327348722
0.00167527856014
0.00119453570726
0.00125483497121
0.00160369848937
0.00187098933933
0.00200593003235
0.00205737059329
0.00210579005968
0.00219397090084
0.00231365876688
0.00243111090505
0.00253015308172
0.00256240093424
0.00255182012504
0.0025285714893
0.00250791488116
0.00249389070724
0.00248545735968
0.00248065758246
0.00247800337193
0.00247653386175
0.00247569596431
0.00247519482809
0.00247488380313
0.00247467986695
0.00247456040801
0.00247452261887
0.00247454410785
0.00247459843494
0.00247465442135
0.00247474613545
0.00247484547005
0.00247482140684
0.00247432934227
0.00247247240219
0.00246672997782
0.00245032744134
0.00240772671531
0.00230867778979
0.00210381908903
0.00173156205045
0.0012222965069
0.00126254429476
0.0016083356897
0.00188840417256
0.00203049194225
0.00208369606186
0.00213808245246
0.00223923513106
0.00237305172392
0.00250070266787
0.00260658219991
0.00264535162979
0.0026357953037
0.00261110626488
0.00258877253934
0.00257352340693
0.00256438856078
0.00255925255492
0.00255644082849
0.00255490660659
0.0025540404947
0.00255352205285
0.00255319906064
0.00255299128947
0.00255287555333
0.0025528397527
0.0025528635816
0.00255292170374
0.00255298302205
0.00255308079191
0.00255318177149
0.00255313985018
0.00255257146639
0.00255047603621
0.00254406518781
0.00252598076598
0.0024796475256
0.00237338285417
0.00215646042922
0.00176703642487
0.00123900737789
0.00126483782682
0.00160671604078
0.00189268820673
0.00203736261406
0.00209000099637
0.00214866833294
0.00226078981943
0.00240646807206
0.00254309810546
0.00265335017742
0.00269675218742
0.00268806494891
0.00266244249453
0.00263895093475
0.00262285146138
0.00261322353333
0.00260785100524
0.00260493255602
0.00260335434652
0.00260246940085
0.00260193905656
0.00260160683324
0.00260139738789
0.0026012849512
0.0026012507492
0.00260127598169
0.00260133644686
0.00260140073636
0.00260150289136
0.00260160449218
0.00260154881034
0.00260092493004
0.00259866002136
0.00259178222424
0.00257254079368
0.00252367876827
0.00241260873606
0.00218781671329
0.00178752967223
0.00124833241891
0.00126538556944
0.00160483721213
0.00189258981604
0.00203772720973
0.00208910636504
0.00215004654025
0.00226882587992
0.00242126521848
0.00256299715675
0.00267557168593
0.00272129671593
0.00271305846485
0.00268696619072
0.00266288388541
0.00264635468961
0.00263647609509
0.0026309806117
0.00262800973159
0.00262640938109
0.00262551479202
0.0026249777348
0.00262463988217
0.00262442938242
0.00262431822591
0.00262428450025
0.00262431043864
0.00262437211394
0.00262443771927
0.00262454230806
0.00262464395999
0.00262458029952
0.00262392670462
0.00262157352656
0.00261445600018
0.00259462657356
0.00254449128798
0.00243102709285
0.00220236416757
0.00179683839662
0.00125247267501
0.00126552636672
0.00160505673666
0.00189279600784
0.00203792736364
0.00208931665239
0.00215022352387
0.00226893353848
0.00242131899565
0.00256302482082
0.00267562278765
0.00272128550162
0.00271302105173
0.00268693125777
0.0026628600078
0.00264633785157
0.00263646395183
0.00263097190741
0.00262800271469
0.0026264028263
0.00262550814316
0.00262497037419
0.0026246312088
0.00262441951756
0.00262430727254
0.00262427266147
0.00262429825694
0.00262436001563
0.00262442583464
0.00262453053013
0.00262463158998
0.00262456682549
0.00262391198987
0.00262155797182
0.0026144404073
0.00259461208636
0.0025444789429
0.00243101791598
0.00220235773456
0.00179683420762
0.00125246935039
0.00126522575895
0.00160734080513
0.00189326056936
0.00203790697575
0.00209053706655
0.00214912127185
0.00226109268991
0.0024066354382
0.00254319723855
0.00265350435515
0.00269672317452
0.00268795903157
0.00266234223119
0.00263887956491
0.00262280154446
0.00261318725458
0.0026078247991
0.00260491156827
0.00260333503744
0.00260244985645
0.00260191735366
0.00260158155682
0.00260136868942
0.00260125316638
0.00260121648014
0.00260124073083
0.00260130145866
0.00260136640277
0.00260146886635
0.00260156884012
0.00260151007321
0.00260088265711
0.00259861536387
0.00259173742886
0.00257249906746
0.00252364304657
0.00241258210234
0.00218779795017
0.00178751740138
0.00124832264098
0.00126310028548
0.00160929918729
0.00188926336282
0.00203125910059
0.00208441091343
0.0021386792438
0.00223965671528
0.00237331691338
0.00250088104018
0.00260680314544
0.00264528940629
0.00263562142095
0.00261094538778
0.00258865704199
0.00257344316624
0.00256432975295
0.00255920968622
0.00255640602958
0.00255487497672
0.00255400864177
0.00255348688276
0.00255315925363
0.00255294656677
0.00255282626615
0.00255278674625
0.00255280899461
0.00255286756757
0.00255292993583
0.00255302806853
0.0025531265043
0.0025530800379
0.00255250633426
0.00255040737031
0.00254399627694
0.00252591641621
0.00247959211973
0.00237334098786
0.00215643061874
0.00176701670574
0.00123899153162
0.00125544298942
0.00160488135771
0.00187205703349
0.00200682767977
0.00205818969303
0.0021064743809
0.00219447565176
0.00231402322246
0.00243141809609
0.00253038578889
0.00256228279601
0.00255157993005
0.00252835811965
0.00250776133132
0.0024937838117
0.00248538011937
0.00248060073726
0.00247795622841
0.0024764910482
0.00247565347625
0.00247514882327
0.0024748329627
0.00247462359161
0.00247449880445
0.00247445658706
0.00247447611723
0.00247453093834
0.00247458817146
0.00247468011575
0.00247477637688
0.00247474703385
0.00247424865838
0.00247238749369
0.00246664477384
0.00245024752892
0.00240765718267
0.00230862427702
0.00210378034318
0.00173153606176
0.00122227530923
0.00123557100544
0.00158368929988
0.00183114211751
0.00195240226436
0.00199823163401
0.0020393813994
0.002114750612
0.00222049100703
0.00233164942778
0.00241699957745
0.00244112568967
0.0024296082814
0.00240835394441
0.00238989210819
0.00237744121031
0.00236989814199
0.00236554583535
0.00236309878311
0.00236171846932
0.00236091846259
0.00236043782558
0.00236013687154
0.00235993456387
0.00235980853775
0.00235976477869
0.002359781171
0.00235983053467
0.00235987988888
0.00235996328688
0.00236005657312
0.00236004677119
0.0023596385301
0.00235806687225
0.00235315335879
0.00233888731092
0.00230112733949
0.00221165334543
0.00202322870186
0.00167524817476
0.00119451132691
0.00119419338966
0.0015322683753
0.00175896269385
0.00185879345152
0.00189539223351
0.00192865389753
0.0019925107656
0.00208578347729
0.00219034012881
0.0022577524973
0.00227402727224
0.00226219424763
0.00224332554993
0.00222732038885
0.00221657107593
0.0022099769485
0.00220611106231
0.00220388999504
0.00220261009017
0.00220185929616
0.00220140808621
0.00220112527273
0.00220093316842
0.00220081249655
0.00220076956557
0.00220078281763
0.00220082549607
0.00220086588492
0.00220093644366
0.00220102541559
0.00220103528697
0.00220072322577
0.00219946949516
0.00219548979203
0.0021836886823
0.00215166831983
0.00207388856977
0.00190620665676
0.00159016179624
0.00114985606715
0.00111916153018
0.00143609126184
0.00164478659435
0.00172331325787
0.00174744461248
0.00177236425686
0.00182658798187
0.00191065640442
0.00199469576355
0.00204390994912
0.00205314957166
0.00204151225829
0.0020252009027
0.00201187809918
0.00200287249925
0.00199726201478
0.00199390547626
0.00199192886503
0.00199076415953
0.0019900730401
0.00198965616412
0.00198939474089
0.00198921657073
0.00198910894436
0.00198906863581
0.00198907917843
0.00198911568995
0.00198914907644
0.00198920158043
0.00198928298025
0.00198931021841
0.00198909122063
0.00198815643396
0.00198514412813
0.00197597893846
0.00195030611109
0.00188591450042
0.00174285269238
0.00146619284376
0.00107845032716
0.000991141034586
0.00128247350571
0.00146954053387
0.0015369643238
0.00155561695793
0.00157336104517
0.00161428801723
0.0016776782353
0.00173825926634
0.0017708465816
0.00177401877072
0.00176272275149
0.00174910231335
0.00173839884592
0.00173105297447
0.00172638933207
0.00172352745643
0.00172179908184
0.00172075882581
0.0017201327938
0.0017197527027
0.00171951381665
0.00171935435441
0.00171926048761
0.00171922246318
0.00171923095356
0.00171926247398
0.00171929060856
0.00171933448198
0.00171939790836
0.00171943831323
0.0017193005181
0.00171865565753
0.00171655989617
0.00170997505313
0.00169078261826
0.0016406231932
0.00152477624532
0.00129277129356
0.000961605847821
0.000771647588804
0.00107317516027
0.00124038255831
0.00129940031128
0.00131478462813
0.0013268354123
0.00135507839374
0.0013982297592
0.00143717528629
0.0014549192191
0.00145227036002
0.00144117924204
0.00142986301034
0.00142134220472
0.00141533372519
0.00141139528457
0.00140890220127
0.0014073559697
0.00140640357453
0.00140581760182
0.0014054559041
0.00140522725607
0.00140507462345
0.00140498131411
0.00140493894636
0.0014049441152
0.00140497354205
0.00140499738602
0.00140503987126
0.00140509824319
0.0014051483403
0.00140507369772
0.00140465462642
0.00140330265883
0.00139890355937
0.00138545953164
0.00134853336705
0.00125897895246
0.00106974856158
0.000759587838911
0.000586775861915
0.000944586192063
0.00112414141403
0.00118032756529
0.00119133953629
0.00120229158327
0.0012330694675
0.00127898480005
0.00131794463899
0.00133297839473
0.00132718036096
0.00131298788329
0.00130101546403
0.00129159611249
0.00128397227332
0.00127851540558
0.00127485163069
0.0012724792672
0.0012709602647
0.00126998604676
0.00126936385911
0.00126897646879
0.00126871915053
0.00126854899784
0.00126845649934
0.00126844549744
0.00126848299608
0.00126851308074
0.00126859380101
0.00126870466391
0.00126878935088
0.00126877158239
0.00126838927066
0.00126713232248
0.00126301796518
0.00125031352983
0.00121487489219
0.00112702480007
0.000933193176428
0.000567831153232
0.00067721839564
0.00128081512279
0.00158465544154
0.0016894223275
0.0017186206285
0.0017419085043
0.00179358444183
0.00187318296626
0.00194794978802
0.00198787351294
0.0019926044263
0.00197971909552
0.00196341864407
0.00195224537254
0.00194305035633
0.00193620482836
0.00193152185118
0.0019284806296
0.00192653135864
0.00192527653422
0.00192447812284
0.00192398403727
0.00192365516791
0.00192344798146
0.00192334231314
0.00192335394144
0.00192343267249
0.0019234957207
0.00192362370853
0.00192378016673
0.00192390123642
0.0019238018886
0.00192295090019
0.00192005708949
0.00191088725003
0.00188415156021
0.00181418950268
0.00165091434144
0.0013072124181
0.000659669817903
0.000957680842347
0.00127981880232
0.00149059172402
0.00157714984043
0.00160603375424
0.00162469057984
0.00165732745294
0.00170393940391
0.00174559166094
0.00176557497388
0.0017647723372
0.00175447342734
0.00174335045469
0.00173523477305
0.00172945089685
0.00172560191728
0.00172314815648
0.00172162388703
0.00172067987349
0.00172009252566
0.00171972717846
0.00171949260703
0.00171932995567
0.00171922131216
0.00171917377537
0.00171918783586
0.00171923154079
0.00171926412161
0.00171931982282
0.00171939716389
0.00171945455458
0.00171933081677
0.00171869424402
0.00171660026154
0.00170999714103
0.00169076777504
0.00164056147256
0.00152467918264
0.00129270573342
0.000961880157291
0.00126415016975
0.00146132665453
0.00165173053006
0.00173499944928
0.0017650201357
0.00178748223132
0.00182724393715
0.00188485420562
0.00194004969559
0.00197187251566
0.00197813284901
0.00197070553171
0.00196018513449
0.00195152388954
0.00194546534749
0.00194156892965
0.00193916743777
0.00193771922511
0.00193684933763
0.0019363239144
0.00193600469611
0.00193580491071
0.00193566916611
0.00193558123106
0.00193554692609
0.00193556372169
0.00193560408578
0.00193563508985
0.0019356812804
0.00193574703515
0.00193577361515
0.00193558558547
0.00193476686719
0.00193211484531
0.00192403904101
0.00190147486315
0.00184506818283