/*--------------------------------*- C++ -*----------------------------------*\
| =========                 |                                                 |
| \\      /  F ield         | OpenFOAM: The Open Source CFD Toolbox           |
|  \\    /   O peration     | Version:  3.0.1                                 |
|   \\  /    A nd           | Web:      www.OpenFOAM.org                      |
|    \\/     M anipulation  |                                                 |
\*---------------------------------------------------------------------------*/
FoamFile
{
    version     2.0;
    format      ascii;
    class       volVectorField;
    location    "2.8";
    object      U_0;
}
// * * * * * * * * * * * * * * * * * * * * * * * * * * * * * * * * * * * * * //

dimensions      [0 1 -1 0 0 0 0];

internalField   nonuniform List<vector> 
7968
(
(0.000511677175778 0.0005125704195 -0.00100621685644)
(0.00170827809258 0.000243560890945 -0.0010384505348)
(0.00332286497952 0.000159774576747 -0.000981821789319)
(0.00464944609238 0.000242163772907 -0.00087323354055)
(0.00549767351723 0.000469133274258 -0.000772911347293)
(0.00566818640287 0.000783457913024 -0.000695332940175)
(0.00519111782411 0.00107797183738 -0.000644271899662)
(0.00411814019112 0.00134820073102 -0.000613400698301)
(0.00262059549144 0.00153618902431 -0.000602047649631)
(0.00088099846941 0.00163081836513 -0.000599962637671)
(-0.000937417104547 0.00163154890252 -0.000599846798512)
(-0.00268045075886 0.00153799104354 -0.000601850808403)
(-0.00418374029084 0.0013502441054 -0.000613520067238)
(-0.00526142079734 0.00107930185081 -0.000645492733512)
(-0.00573960754667 0.000784780853546 -0.000698279659892)
(-0.00556453268663 0.000469242680674 -0.00077913991179)
(-0.00470429858092 0.000243016284947 -0.00088304592123)
(-0.0033604042829 0.000162069717713 -0.000994406296553)
(-0.00172594725157 0.000248564069245 -0.00105325421485)
(-0.000515040743602 0.000522973959996 -0.00102076679473)
(0.000240862146969 0.00171402071328 -0.00104123740116)
(0.00146728146603 0.00147807439427 -0.00199582443969)
(0.00342849893218 0.00162320866196 -0.0023857875564)
(0.00500543206497 0.00215134276217 -0.00249878906504)
(0.00599456498895 0.00297987500932 -0.00253747358238)
(0.0062190093354 0.00394057314176 -0.00254589005763)
(0.00567599407196 0.00485156899496 -0.00255535242818)
(0.0044846743709 0.00560356553671 -0.00257712911116)
(0.00284131725786 0.00612024458796 -0.00261076058228)
(0.000952453804833 0.00637954755467 -0.00263705794943)
(-0.00101362620302 0.0063828762797 -0.00263749011705)
(-0.00290709989385 0.00612923720326 -0.00261215498126)
(-0.00455804338298 0.00561571610341 -0.00258002840813)
(-0.00575599500194 0.00486407479544 -0.00256075250784)
(-0.00630116797262 0.00395203122503 -0.00255501255373)
(-0.0060712648698 0.00299020212237 -0.00255213281426)
(-0.00506842406111 0.00216225566501 -0.00251783936749)
(-0.00347052672407 0.00163675038833 -0.00240886946399)
(-0.00148329030485 0.00149692380094 -0.00201759238807)
(-0.000241463017299 0.0017414736343 -0.00105067081623)
(0.000157838407166 0.00334397752403 -0.000991185441664)
(0.00161178114621 0.00345556788755 -0.00238738170132)
(0.00401808011789 0.00404822598246 -0.00290960176162)
(0.00593104158987 0.00517805787904 -0.00296530215447)
(0.00710059676595 0.00669844133821 -0.00286446320729)
(0.00733626916065 0.00836599929822 -0.00271904190751)
(0.00664903916271 0.00991962201737 -0.00259358175663)
(0.00521169907845 0.0111802035644 -0.00252827580608)
(0.00328055496631 0.0120423644451 -0.00252289913598)
(0.00110054262896 0.0124751106158 -0.00253814803962)
(-0.00115371303738 0.0124810596168 -0.00253754828018)
(-0.00334089170412 0.0120585368539 -0.00252146773732)
(-0.00528363962387 0.0112023393521 -0.00252757305301)
(-0.0067311925866 0.00994282261494 -0.00259581900177)
(-0.00742194233916 0.00838804548536 -0.00272654508736)
(-0.00718088691529 0.00671968999577 -0.0028775763167)
(-0.00599708889058 0.00520042623642 -0.00298459231448)
(-0.00406149306511 0.00407391606495 -0.00293334422361)
(-0.00162642588509 0.00348673118918 -0.00240812219494)
(-0.00015672243638 0.00338215693182 -0.00099557356726)
(0.000240003410021 0.00468769031213 -0.000879921250426)
(0.00213942375323 0.0050505797529 -0.0025014396791)
(0.00514709410089 0.00597962821309 -0.00296360608039)
(0.00751556434047 0.00756653639001 -0.00276622299028)
(0.00891417262902 0.0096060961063 -0.00232911600786)
(0.0091242344475 0.0117940190219 -0.00183144841207)
(0.00818795025927 0.0138100000869 -0.00140460020763)
(0.0063544450357 0.0154308132632 -0.00113009412968)
(0.00396765024676 0.0165312435866 -0.00101396590387)
(0.00133219297253 0.0170806521812 -0.000986252045805)
(-0.0013706752403 0.0170882621899 -0.00098358469251)
(-0.00401721522362 0.016552089005 -0.00100680963538)
(-0.00642192836536 0.0154588209524 -0.00112190232271)
(-0.00827077328567 0.0138380385657 -0.00140015487225)
(-0.00921218845658 0.0118193634256 -0.00183318612289)
(-0.00899618282592 0.00963028242294 -0.00233728060641)
(-0.00758218737538 0.00759279207118 -0.00278141796607)
(-0.00518972243926 0.00601027450492 -0.00298423014563)
(-0.00215146480649 0.00508704530893 -0.00251810795591)
(-0.000236685086112 0.00473057599564 -0.000878089455294)
(0.000468479104396 0.00555008943616 -0.000779743330299)
(0.00296959659251 0.00605490639394 -0.00253431023636)
(0.0066683852284 0.00716546530478 -0.00286058478752)
(0.00955551659373 0.00898303136092 -0.00232448832484)
(0.0111990986442 0.0112700411055 -0.0014458611614)
(0.0113514044096 0.0136951056722 -0.000490420369946)
(0.0100955350811 0.0159056142932 0.000319983191665)
(0.00777019340602 0.0176719543899 0.000864626527016)
(0.0048209902516 0.0188681290622 0.00112732024283)
(0.00162039240704 0.0194638956544 0.00121188275487)
(-0.00164137110013 0.0194719596193 0.00121661806937)
(-0.00485807084577 0.018889969859 0.00114113850373)
(-0.00783368400862 0.0177006009434 0.000880947108649)
(-0.0101807303995 0.0159317749972 0.000329969227823)
(-0.0114425069529 0.0137159197493 -0.000490210607578)
(-0.0112816018634 0.0112888406162 -0.00145238862231)
(-0.00962031722243 0.00900483457895 -0.00233713001737)
(-0.00670830785713 0.00719286689034 -0.0028773806495)
(-0.00297851790191 0.00608833273715 -0.00254640119022)
(-0.000463153388115 0.00559008263935 -0.000772291020046)
(0.000784128335851 0.00573179566749 -0.000700773049099)
(0.00393318051816 0.0062905608832 -0.0025434355691)
(0.00833979530921 0.00741350287872 -0.00271216570336)
(0.0117471353299 0.00920657757504 -0.00182284326878)
(0.0136260138313 0.0114379374802 -0.000483422105866)
(0.0136770157607 0.0137637260722 0.000925872012947)
(0.0120659400558 0.0158489064305 0.00211154080664)
(0.00921967552095 0.0175074468144 0.00290238537074)
(0.0056838171177 0.0186212240122 0.00328014429318)
(0.00190856622739 0.0191699907352 0.00339741270541)
(-0.00191280728892 0.019177811814 0.00340378288166)
(-0.00570928025852 0.0186416742936 0.0032997522294)
(-0.00928100003457 0.0175338410504 0.00292553602033)
(-0.0121561374529 0.0158706997956 0.00212347392842)
(-0.0137725597917 0.013777574145 0.000923660866763)
(-0.0137083982587 0.0114479004254 -0.000493491645604)
(-0.0118084886164 0.00921983518617 -0.00183630811599)
(-0.00837582893109 0.00743292439163 -0.00272784998811)
(-0.00393852026387 0.00631649253525 -0.00255522215511)
(-0.000776549275958 0.00576413154213 -0.00069031144744)
(0.00107908888255 0.00526169049722 -0.000648978413983)
(0.00484724043668 0.00575464702027 -0.00255083704005)
(0.00989777302635 0.00673250027504 -0.00258271957547)
(0.0137680846628 0.00827577418257 -0.00138942901395)
(0.0158396841175 0.0101869502604 0.000336724432486)
(0.0157632518626 0.0121577807861 0.00212249168429)
(0.0138202529086 0.0139121561377 0.00358659812453)
(0.0104948412851 0.0153228571765 0.00455763309713)
(0.00643249649501 0.0162688044628 0.00500735382444)
(0.00215644783919 0.0167316130811 0.00513844675222)
(-0.00214587244382 0.0167382352919 0.00514662256181)
(-0.00644836756214 0.0162847639097 0.00503175485547)
(-0.0105557673525 0.0153440830276 0.00458548334712)
(-0.0139173412291 0.0139295562336 0.00359767371203)
(-0.0158652698822 0.0121677492857 0.00211458053965)
(-0.015923024398 0.010191723803 0.000319637614135)
(-0.0138254712106 0.008282635689 -0.00140727526079)
(-0.00992927659535 0.00674462925629 -0.00259956246536)
(-0.00484922950316 0.00577310052562 -0.00256062538094)
(-0.00107042219185 0.00528635242655 -0.000637361500536)
(0.00135050114942 0.00419176115166 -0.000616959899196)
(0.00560114866521 0.00456514327754 -0.00257028473055)
(0.0111610632408 0.00529465880475 -0.002514035063)
(0.0153919669075 0.00643862721818 -0.00110961607055)
(0.0176081648877 0.00785492689028 0.000888206949802)
(0.0174231011898 0.00930216369867 0.00292177159993)
(0.0152314883616 0.0105761225113 0.00456772855137)
(0.0115215270515 0.011602725525 0.00567227711343)
(0.00704815538491 0.0123164334694 0.00606062638465)
(0.0023614225884 0.0126625248737 0.00614882011754)
(-0.00234112518016 0.0126679997491 0.00615787113361)
(-0.00705684258737 0.0123253654121 0.006084577523)
(-0.011579904994 0.0116163472252 0.0057020505969)
(-0.0153324464843 0.0105902112125 0.00457737303548)
(-0.0175297922978 0.0093114289852 0.00291006174574)
(-0.0176933037076 0.00785910890415 0.000865860345064)
(-0.015447500096 0.00644354280112 -0.00113199955124)
(-0.0111899022014 0.00530262530798 -0.00253324215988)
(-0.00560106284647 0.00457768776885 -0.00258099252687)
(-0.00134098522635 0.00420982285477 -0.000605305073756)
(0.00153904184624 0.00269364613847 -0.000604571406591)
(0.006118041605 0.00291969189847 -0.00260193064583)
(0.0120231592553 0.00335895106112 -0.00250664765674)
(0.0164919890137 0.00404389243417 -0.000991400448769)
(0.0188027752538 0.0048942345282 0.0011520802434)
(0.0185348763612 0.00575208343191 0.00329767963541)
(0.0161771980419 0.00649819552538 0.00501442608053)
(0.0122368442676 0.00711613493879 0.00605941638712)
(0.00746507402725 0.00753543718464 0.00644440709321)
(0.0024993893632 0.00773580838925 0.00654410075312)
(-0.0024723332163 0.00773786705243 0.00655607492334)
(-0.00746998849371 0.00754035828735 0.00646543312331)
(-0.0122900492355 0.00712459519298 0.00608756527732)
(-0.016277822171 0.00651044800457 0.00502689535615)
(-0.0186443804706 0.00576198680068 0.00328660289481)
(-0.0188896688999 0.00490007012847 0.0011271083927)
(-0.0165471708115 0.00404959427731 -0.0010167857854)
(-0.0120511280877 0.00336592427139 -0.00252774794702)
(-0.00611707804408 0.0029295395843 -0.00261394017207)
(-0.0015290818028 0.00270763368135 -0.000593377584693)
(0.00163370524917 0.000951594396771 -0.000601494925714)
(0.00637619896075 0.00102700239327 -0.00262674384954)
(0.0124539462555 0.00117365646419 -0.00252118210189)
(0.0170385251137 0.00140177566117 -0.000964317572016)
(0.0193953574876 0.00168577188602 0.00123289948825)
(0.0190818332365 0.00196965340761 0.00340757428029)
(0.0166420515337 0.00221506687381 0.00513732272565)
(0.0125896578409 0.00242211952752 0.00614536249091)
(0.00767023755381 0.00256268696831 0.00655001609619)
(0.00256467742682 0.00263003244299 0.00664519606867)
(-0.00253498444543 0.0026291469949 0.00665249640564)
(-0.00766928731167 0.00256594630064 0.00657093867846)
(-0.0126385179045 0.00242735387669 0.00617492851076)
(-0.0167408632275 0.00222279915941 0.00515543206882)
(-0.0191925233513 0.00197711930612 0.00340090849062)
(-0.0194838964663 0.00169203322521 0.00120900308939)
(-0.0170943865961 0.00140824081498 -0.000990653101536)
(-0.0124819435165 0.00118106072022 -0.00254301715056)
(-0.00637515766099 0.00103617857212 -0.0026394475347)
(-0.00162363105705 0.000963238417283 -0.000590724570155)
(0.00163441430574 -0.000870208844042 -0.000601021297683)
(0.00637835194018 -0.000943279486842 -0.00262653726206)
(0.0124579643896 -0.00108484000352 -0.00252084944109)
(0.0170438429489 -0.00130446877358 -0.000963434324386)
(0.0194013846821 -0.00157756436268 0.00123438584738)
(0.0190879026832 -0.00185011266066 0.00340960487811)
(0.0166480534934 -0.00208484111143 0.0051400205766)
(0.0125953716902 -0.00228145558575 0.00614850899179)
(0.0076747054022 -0.00241363703645 0.00655476142909)
(0.00256662673288 -0.00247548887606 0.00665130462527)
(-0.00253605170362 -0.00247307796173 0.00665849536736)
(-0.00767249192461 -0.00241265936919 0.00657577075863)
(-0.0126432434188 -0.00228080557094 0.00617840664682)
(-0.0167462013695 -0.00208522769619 0.00515837841979)
(-0.0191979597859 -0.00184890030999 0.00340305291659)
(-0.0194892089245 -0.00157329025769 0.00121069289551)
(-0.0170991095053 -0.00129820594766 -0.000989318795469)
(-0.0124855867007 -0.00107721618361 -0.00254208610127)
(-0.00637723663153 -0.000934613905621 -0.00263869944787)
(-0.00162435995817 -0.000860654150126 -0.000590015643349)
(0.00154107938828 -0.0026165071722 -0.000603098002714)
(0.00612440002757 -0.00284039871657 -0.00260120215721)
(0.0120349863994 -0.00327480041488 -0.00250554366806)
(0.016507689287 -0.00395153513737 -0.000988746719079)
(0.0188204461904 -0.00479149493748 0.00115661256037)
(0.0185524361172 -0.00563875017354 0.00330366622106)
(0.0161941631289 -0.00637524889283 0.00502186329962)
(0.0122520498249 -0.00698441294659 0.00606763585507)
(0.00747568097417 -0.0073973814621 0.00645531156613)
(0.00250478855284 -0.00759464141428 0.00655661306269)
(-0.002473037843 -0.00759517293554 0.00656983343507)
(-0.00747770162235 -0.00739898435593 0.00647849008672)
(-0.0123034117136 -0.00698842497107 0.00609691632044)
(-0.0162929403503 -0.00638116775984 0.00503524584945)
(-0.0186600458429 -0.00564067827433 0.00329312382367)
(-0.0189053413081 -0.00478752566218 0.00113242598249)
(-0.0165613135847 -0.00394545620681 -0.00101277811993)
(-0.0120620457687 -0.00326794619123 -0.00252505546247)
(-0.00612330594192 -0.00283367993652 -0.00261176296903)
(-0.00153127099073 -0.00261035157035 -0.00059126713588)
(0.00135375771431 -0.00412298121273 -0.000614611004927)
(0.00561152651632 -0.00449478663769 -0.00256912141278)
(0.0111803037527 -0.00521999083009 -0.00251211915019)
(0.0154174873615 -0.00635643767453 -0.00110498314644)
(0.0176365253432 -0.00776333762772 0.000896181141895)
(0.0174507109988 -0.00920093413565 0.00293207230147)
(0.0152576419812 -0.0104660322329 0.00457960421661)
(0.0115437295357 -0.0114856371581 0.00568796572096)
(0.00706328519923 -0.0121952879791 0.00607505581272)
(0.00236837715968 -0.012538928538 0.00616411313846)
(-0.00234231539985 -0.0125439111967 0.00617393976245)
(-0.00706788201506 -0.0122028209799 0.00609981909319)
(-0.0115982495025 -0.0114962100378 0.00571788740022)
(-0.0153548150014 -0.0104748751854 0.00458993796036)
(-0.0175539678527 -0.00920301967242 0.00292092796055)
(-0.0177184674656 -0.00775888747071 0.000875032201581)
(-0.0154707391149 -0.00635121002002 -0.00112539528951)
(-0.0112079234526 -0.00521610565786 -0.00252907564841)
(-0.00561137669978 -0.00449285105844 -0.0025777410781)
(-0.00134458259955 -0.00412270452056 -0.000602037151505)
(0.00108336236318 -0.00520487311055 -0.000646239694893)
(0.00486109475916 -0.00569710357902 -0.00254982336829)
(0.0099235309757 -0.00667155685892 -0.00258054157222)
(0.0138023069546 -0.00820869862244 -0.00138337893394)
(0.0158776399409 -0.0101121471709 0.000347598706563)
(0.0158001790353 -0.0120747726224 0.00213653383917)
(0.0138538146032 -0.0138213595674 0.00360393058296)
(0.0105221670397 -0.0152269703786 0.00457829159755)
(0.00645047402788 -0.0161691632313 0.00503028412865)
(0.00216459334257 -0.0166294738224 0.00516151018443)
(-0.00214738700129 -0.0166355313725 0.00517000337389)
(-0.00646088299723 -0.0161832528806 0.00505462748964)
(-0.0105774062145 -0.0152446099459 0.00460550213182)
(-0.0139451746704 -0.0138337413126 0.00361547379799)
(-0.0158974576854 -0.0120782993195 0.00213044390385)
(-0.0159572537343 -0.0101096750257 0.000332311443947)
(-0.0138572328529 -0.00820739812119 -0.00139877690852)
(-0.00995386915986 -0.00667422062299 -0.00259475746528)
(-0.00486324346845 -0.00570357074877 -0.0025571756299)
(-0.00107529459602 -0.00521357388928 -0.000633607093804)
(0.000788527077611 -0.00568803307968 -0.000698336233435)
(0.00394991697048 -0.00624712355348 -0.002544349066)
(0.00837086215447 -0.007368464896 -0.00271083302191)
(0.0117883881042 -0.00915753513072 -0.00181690296936)
(0.0136719734819 -0.011383604127 -0.000471088819552)
(0.0137217799069 -0.0137035807522 0.000942905982741)
(0.0121055648306 -0.0157827139489 0.00213228898425)
(0.00925093530842 -0.0174371658145 0.00292569205074)
(0.00570451876448 -0.0185483106354 0.00330470537817)
(0.00191834863886 -0.0190950194607 0.00342226582477)
(-0.00191429818384 -0.0191021990385 0.00342883348799)
(-0.00572268584893 -0.018566482352 0.00332443002317)
(-0.00930513268331 -0.0174595105704 0.00294886280426)
(-0.0121891487079 -0.015799554211 0.00214510427318)
(-0.0138120348344 -0.0137117966725 0.000942505215243)
(-0.0137505933434 -0.0113879179772 -0.00047914741726)
(-0.0118475830766 -0.0091649405615 -0.00182756438825)
(-0.00840614099504 -0.00738128234813 -0.0027235333264)
(-0.00395596158615 -0.00626443427347 -0.00255237151877)
(-0.000781772334165 -0.00570711898783 -0.000686987996856)
(0.000474007031068 -0.00551995809944 -0.000778180482346)
(0.00298827278031 -0.0060257015088 -0.00253589806167)
(0.00670262816053 -0.00713616817553 -0.00286122364267)
(0.00960120596374 -0.00895201542812 -0.0023203561255)
(0.011249794533 -0.011236343908 -0.00143571808813)
(0.0114015409026 -0.0136585609269 -0.00047542579349)
(0.0101403409132 -0.0158656618729 0.000339965223253)
(0.00780578761583 -0.0176293274238 0.000887848580628)
(0.00484514884149 -0.0188234860006 0.00115265012704)
(0.00163209025854 -0.0194176216118 0.00123845648397)
(-0.00164286301296 -0.019425086597 0.00124340526414)
(-0.00487279375594 -0.0188431591506 0.00116709921196)
(-0.0078605355632 -0.0176544023512 0.00090536956048)
(-0.0102179582162 -0.0158876758902 0.00035199064145)
(-0.0114871789895 -0.0136752478177 -0.000471696575455)
(-0.0113291499026 -0.0112514672479 -0.00143945467316)
(-0.00966475420299 -0.00897044241932 -0.00233004835402)
(-0.00674294456963 -0.00715987634536 -0.00287530281796)
(-0.00299850409419 -0.00605387446092 -0.00254630370843)
(-0.000469527443143 -0.00554944748866 -0.000769988093149)
(0.000245856600294 -0.00466857656648 -0.00088014824049)
(0.00215889570409 -0.00503294449633 -0.00250540203178)
(0.00518260114113 -0.00596276002549 -0.00296720434264)
(0.00756307811937 -0.00754978856872 -0.00276564701371)
(0.00896707133685 -0.00958897746106 -0.00232262099116)
(0.00917620436293 -0.0117759501645 -0.00182051287916)
(0.00823426550679 -0.0137910891204 -0.00138989005321)
(0.00639141849673 -0.0154110477953 -0.00111241400783)
(0.00399307270561 -0.0165105686495 -0.000994278238465)
(0.00134503928113 -0.0170591218717 -0.000965171511176)
(-0.00137116163833 -0.0170662383655 -0.000962108643734)
(-0.00403111390541 -0.0165297758518 -0.000985899386831)
(-0.00644866804926 -0.0154365636807 -0.00110225763606)
(-0.00830884791373 -0.0138164408109 -0.00138276975903)
(-0.00925849523729 -0.0117990718468 -0.00181943658564)
(-0.00904600911708 -0.00961142684602 -0.00232819705554)
(-0.00762895606555 -0.0075748844915 -0.00277804036566)
(-0.00522633053515 -0.00599226384687 -0.00298534647742)
(-0.00217258623784 -0.00506674064743 -0.00252054773562)
(-0.000243478818508 -0.00470381729949 -0.000877164543819)
(0.000163713280603 -0.00333330458014 -0.000991917544258)
(0.00163135754947 -0.0034452263907 -0.00239397250965)
(0.00405377019495 -0.00403886318722 -0.00291602774677)
(0.00597865070346 -0.00516968466612 -0.00296839339281)
(0.00715380372797 -0.00669099783956 -0.00286307868056)
(0.00738885031339 -0.00835898588187 -0.00271370707392)
(0.00669609130163 -0.00991263150075 -0.00258501075512)
(0.00524968202738 -0.0111731403352 -0.00251744021404)
(0.00330720907022 -0.0120349576853 -0.00251047259859)
(0.00111455341246 -0.0124673272773 -0.00252471632884)
(-0.00115314381081 -0.012472974408 -0.00252363327728)
(-0.0033538820187 -0.0120502078119 -0.00250769040334)
(-0.00530961586284 -0.0111939350315 -0.00251451900796)
(-0.00676864881967 -0.00993454712511 -0.00258451591253)
(-0.00746781667528 -0.00838018182122 -0.00271812788844)
(-0.00723051048781 -0.00671195473695 -0.00287320641834)
(-0.00604395375575 -0.00519268480984 -0.00298487456812)
(-0.00409853981224 -0.00406546277318 -0.00293811712212)
(-0.00164781691753 -0.00347638818791 -0.00241356524169)
(-0.000163931746881 -0.00336722095933 -0.000995408364773)
(0.000247060455275 -0.00170957896088 -0.00104562916604)
(0.00148751989355 -0.0014719080688 -0.00200334971174)
(0.00346408492685 -0.00161724946359 -0.00239306396374)
(0.00505268929654 -0.00214616382531 -0.0025033144797)
(0.0060474760008 -0.00297571524566 -0.0025383774075)
(0.00627142117207 -0.00393718756268 -0.00254353476649)
(0.00572321534083 -0.00484853620875 -0.0025505027309)
(0.0045232367287 -0.00560083829322 -0.00257038337913)
(0.00286890652069 -0.00611757142585 -0.00260270326267)
(0.000967656656451 -0.00637679612592 -0.0026281595487)
(-0.00101163362291 -0.00638004972813 -0.00262821915905)
(-0.00291841320573 -0.0061263540689 -0.002603015441)
(-0.00458208142056 -0.00561274625782 -0.00257152711966)
(-0.00579124234978 -0.00486096719461 -0.00255371263795)
(-0.00634443813958 -0.00394901148062 -0.0025503928309)
(-0.00611856090381 -0.00298692465688 -0.00254990055467)
(-0.00511335699502 -0.00215844252255 -0.00252069186184)
(-0.00350635439095 -0.00163224005748 -0.00241488017286)
(-0.00150474338913 -0.00149167477222 -0.00202410577985)
(-0.000249392149486 -0.0017342886494 -0.00105385855239)
(0.000517910965543 -0.000509211943476 -0.0010116086727)
(0.00172924369838 -0.000239312164779 -0.001044132382)
(0.00335846062909 -0.000155804230006 -0.000986125173849)
(0.00469588788647 -0.000238671220691 -0.000875174359644)
(0.00554948400277 -0.000466156427074 -0.000772124317797)
(0.00571943441105 -0.000780956368451 -0.000692165963383)
(0.00523789126198 -0.0010756308947 -0.000639387779642)
(0.00415677692104 -0.00134631122034 -0.000607121154932)
(0.00264884407229 -0.00153450254165 -0.000594928869824)
(0.000897490250416 -0.00162919431357 -0.000592311803858)
(-0.000933430592272 -0.00162991485127 -0.000592055210974)
(-0.00268896742429 -0.00153629544189 -0.000594253433252)
(-0.00420402732709 -0.0013483568319 -0.000606417012364)
(-0.0052920139688 -0.00107714595405 -0.000639459755572)
(-0.00577719418429 -0.000782553619267 -0.000693949777844)
(-0.00560566649147 -0.000466983114179 -0.000777163157063)
(-0.00474308662025 -0.000240300980182 -0.000883824966715)
(-0.00339159585444 -0.000159232007057 -0.000997580847706)
(-0.00174420367439 -0.000245853350644 -0.00105734847379)
(-0.000521621598313 -0.000519907942521 -0.0010221326511)
(0.000822163562123 0.000822331977635 -0.00343731935631)
(0.00233374882179 0.00104193478273 -0.00372397545832)
(0.00401060529503 0.00131661559887 -0.00381882138686)
(0.00535549147997 0.00173970108107 -0.0037866593776)
(0.00616434326457 0.00225873641281 -0.00372818560553)
(0.00627104576661 0.0028057033966 -0.00367869325354)
(0.0056865561664 0.00328986828007 -0.00364858366257)
(0.00448651902217 0.00369192239625 -0.00364915439611)
(0.00284381067942 0.003966666321 -0.00367669273414)
(0.000954188211142 0.00410444000443 -0.00370322526747)
(-0.00101467658924 0.00410636025533 -0.00370348534406)
(-0.00290853876821 0.00397192040876 -0.00367772901712)
(-0.00455846925516 0.00369925549807 -0.00365194752428)
(-0.00576523770649 0.00329791298431 -0.00365500852421)
(-0.00635301301222 0.00281441269196 -0.00369129962055)
(-0.0062434642549 0.00226693016791 -0.00374999099341)
(-0.00542356652054 0.00174813257092 -0.00381925172837)
(-0.00405977921654 0.00132587142456 -0.00386082729019)
(-0.00235900807772 0.00105336477108 -0.0037706842075)
(-0.000828482351229 0.000838104440159 -0.00348239612483)
(0.00103439032026 0.00234128056744 -0.00372869973267)
(0.00263285068152 0.00265078887592 -0.00502644127841)
(0.0043056445252 0.0031918862853 -0.00552014526032)
(0.00562744041459 0.00405608040323 -0.00562626474381)
(0.00638930839118 0.00512754505208 -0.00557085520157)
(0.00646372130614 0.00625681210283 -0.00544800482558)
(0.00583368229551 0.00729306222595 -0.00533078404938)
(0.00459110700018 0.00813298473562 -0.00526415613152)
(0.00290835768539 0.0087102969004 -0.00525590309993)
(0.000977121226301 0.00900257414547 -0.00527070135047)
(-0.00103446990424 0.00900769499333 -0.00527104400918)
(-0.00297128661579 0.00872450056953 -0.00525720269772)
(-0.00466348380581 0.00815318025384 -0.00526798369312)
(-0.00591553967204 0.00731570564114 -0.00533981853448)
(-0.0065512023952 0.00628002841938 -0.0054655451267)
(-0.00647597147296 0.0051508299411 -0.0056000844281)
(-0.00570525897102 0.00408002136934 -0.00566776320114)
(-0.0043660663594 0.00321754678794 -0.00557201656318)
(-0.00266929344118 0.00268043386682 -0.00507988042163)
(-0.00104854212154 0.00237856060913 -0.0037657849127)
(0.00130607002781 0.00403391342354 -0.00383138197144)
(0.00316945700189 0.00433842306784 -0.0055226895256)
(0.00504742387087 0.00508486557212 -0.00602248640006)
(0.00648366039065 0.00628529845797 -0.00589121154507)
(0.00726595813519 0.00777060534681 -0.00546577647395)
(0.0072767051956 0.00933432773043 -0.00493523708118)
(0.00650969907164 0.0107720617132 -0.00445151885523)
(0.00508562524118 0.0119343915263 -0.00411863930022)
(0.00320683108505 0.0127333184881 -0.00395643481227)
(0.00108053053165 0.0131389734386 -0.00390516217798)
(-0.00112479372852 0.013146645345 -0.00390270116132)
(-0.00325939329476 0.0127544966096 -0.00395014297855)
(-0.00515210246957 0.0119641674798 -0.00411239834907)
(-0.00658998890391 0.0108046136404 -0.00445087220057)
(-0.00736536342626 0.009366835857 -0.00494478948915)
(-0.00735541054838 0.00780325008506 -0.00548808064258)
(-0.00656576637224 0.00631936494983 -0.00592739105626)
(-0.00511316652357 0.00512140921498 -0.00606991074447)
(-0.00321061743454 0.00437906075127 -0.00557029366532)
(-0.00132316043646 0.00408129808742 -0.00385751828612)
(0.0017292286674 0.00539474798371 -0.00379725078074)
(0.00403248863745 0.00567507216311 -0.00562827853045)
(0.00624590602212 0.00653590107108 -0.00588926349712)
(0.00788560002918 0.00794022743224 -0.00525468812436)
(0.0087161555466 0.00967515026546 -0.0041858250332)
(0.00862542989894 0.0114939859424 -0.00298988014428)
(0.0076334201344 0.0131565557778 -0.00193107427742)
(0.00590786966109 0.0144912665957 -0.00119035537664)
(0.00370201789566 0.0154033461541 -0.000799189872254)
(0.00125094499691 0.0158647297626 -0.000651781034873)
(-0.00127667011543 0.0158737124611 -0.000644933857065)
(-0.00374001154703 0.0154283251479 -0.000780874548196)
(-0.00596638959992 0.014525708247 -0.0011682962836)
(-0.00771163283453 0.0131924825009 -0.00191616202205)
(-0.00871451956203 0.0115278629725 -0.00298764294042)
(-0.00880649512481 0.00970868820381 -0.00419721339557)
(-0.00796915433503 0.00797608643768 -0.00528006163258)
(-0.00631381812694 0.00657538143921 -0.00592642104614)
(-0.00407541621994 0.00571908391142 -0.0056648719396)
(-0.00174697655565 0.00544458286842 -0.00380926362259)
(0.00224792709136 0.00622007684376 -0.00373772519503)
(0.00510442066305 0.00645146293264 -0.00556768348719)
(0.00773157596656 0.00733221034244 -0.00545903512354)
(0.00962030513725 0.00878537885954 -0.00417928044295)
(0.0105071609743 0.010577721989 -0.00231714919264)
(0.0102822585582 0.0124440865913 -0.000319536798577)
(0.00900770593956 0.0141451528749 0.00141234599779)
(0.00691226685442 0.0155052818818 0.00261195185259)
(0.00430530418628 0.0164313451082 0.00325156574758)
(0.00145704695749 0.0168982716774 0.00349938074276)
(-0.00146294033949 0.0169075372488 0.00351084060056)
(-0.00432809429268 0.0164572150097 0.00328353025569)
(-0.00696401341855 0.0155402779498 0.00265011078782)
(-0.00908620345263 0.0141788958747 0.00143835951821)
(-0.010373267418 0.012472655327 -0.000312347613048)
(-0.0105976766083 0.010604290095 -0.00232438131196)
(-0.00970300601443 0.0088145832398 -0.00419793406706)
(-0.00779902754744 0.00736605234407 -0.00548713775392)
(-0.00514698647617 0.0064903591672 -0.00559406368246)
(-0.00226540315902 0.00626427377947 -0.00373675495777)
(0.00279693259065 0.00633998983318 -0.00368518452932)
(0.00623585888124 0.00653771274702 -0.00544116497265)
(0.00929792573717 0.0073539410199 -0.00492155666648)
(0.0114418193092 0.00870601423409 -0.00297296122755)
(0.0123749523751 0.0103653328937 -0.000305078477569)
(0.0120095467596 0.0120929474323 0.00247777051882)
(0.0104439214722 0.0136628168654 0.00483368532814)
(0.00796261353228 0.0149145743324 0.00643867504602)
(0.00493743997011 0.0157673956741 0.00728649161556)
(0.00167261706404 0.0161968181408 0.00761210955278)
(-0.00166021851458 0.0162055656817 0.00762838011156)
(-0.00494676647524 0.0157916969604 0.00733320623422)
(-0.00801058686246 0.0149475844305 0.00649473799315)
(-0.0105266419331 0.0136919573576 0.00486699236027)
(-0.0121051652388 0.0121138901665 0.00248011584392)
(-0.0124660558976 0.0103824835758 -0.000319861299858)
(-0.0115220421163 0.00872500834565 -0.00299369284341)
(-0.00936273680819 0.0073775916897 -0.00494684798011)
(-0.0062765336893 0.00656623794604 -0.0054628939765)
(-0.0028133685437 0.00637330756053 -0.00367675343965)
(0.00328183501795 0.00576319298652 -0.0036514248663)
(0.00727435461647 0.00591403571487 -0.00531840605258)
(0.0107392572509 0.00659193336206 -0.0044290519501)
(0.0131086530758 0.00771769963663 -0.00190013605726)
(0.0140795341018 0.00909354918822 0.0014465173018)
(0.0135812452769 0.0105304497929 0.00485651532823)
(0.0117470586756 0.01183279867 0.00768183270878)
(0.00891873978226 0.0128798156649 0.00958952828801)
(0.00551466784009 0.0135969765398 0.010589844118)
(0.00186914284072 0.0139572969652 0.0109641777157)
(-0.00184107466336 0.013964193593 0.0109852758394)
(-0.00551236367175 0.0136155154651 0.0106512347006)
(-0.00896459182946 0.0129064410255 0.00966499590933)
(-0.0118361575878 0.0118564645104 0.00772350789076)
(-0.0136829004395 0.010545859819 0.00485040014631)
(-0.0141718547646 0.00910449629988 0.0014179218499)
(-0.013186712153 0.00772875336476 -0.00193016737224)
(-0.0108011752958 0.00660620938046 -0.0044575009999)
(-0.0073128656628 0.00593213704289 -0.0053391770311)