/*--------------------------------*- C++ -*----------------------------------*\
| =========                 |                                                 |
| \\      /  F ield         | OpenFOAM: The Open Source CFD Toolbox           |
|  \\    /   O peration     | Version:  3.0.1                                 |
|   \\  /    A nd           | Web:      www.OpenFOAM.org                      |
|    \\/     M anipulation  |                                                 |
\*---------------------------------------------------------------------------*/
FoamFile
{
    version     2.0;
    format      ascii;
    class       volScalarField;
    location    "2.3";
    object      ddt0(epsilon);
}
// * * * * * * * * * * * * * * * * * * * * * * * * * * * * * * * * * * * * * //

dimensions      [0 2 -4 0 0 0 0];

internalField   nonuniform List<scalar> 
15984
(
-0.00196470990461
-0.0020923968396
-0.00212254371643
-0.00212449867412
-0.0021236393341
-0.00212318266306
-0.00212230820737
-0.00212042837024
-0.00211816260786
-0.00211630787213
-0.00211386534861
-0.00211374301681
-0.00211427288825
-0.00211497070832
-0.00211564747353
-0.00211617969526
-0.00211641471445
-0.00211621399821
-0.00211608123278
-0.00211605566228
-0.00211610106592
-0.00211615963791
-0.00211621376729
-0.00211624700512
-0.00211624590849
-0.00211621090305
-0.00211614452765
-0.0021160571754
-0.00211597597354
-0.00211590386605
-0.00211585846502
-0.00211585159109
-0.00211571082119
-0.00211562756715
-0.00211569414743
-0.00211620785647
-0.00211749700178
-0.00211612270114
-0.00208695995804
-0.00196216389551
-0.00260585463526
-0.00339278497086
-0.00364136375723
-0.00368517597907
-0.00368890349292
-0.00368445363282
-0.00367232623751
-0.00365549842717
-0.00363746153333
-0.00362344044404
-0.00361942025877
-0.00361843617094
-0.00362010745645
-0.0036219910218
-0.00362373995615
-0.00362505187481
-0.00362572819386
-0.00362544012992
-0.0036241528065
-0.00362337725644
-0.00362304518789
-0.00362313748059
-0.00362324635014
-0.00362330744321
-0.00362328882558
-0.00362317085695
-0.00362296872704
-0.00362270337139
-0.00362243170548
-0.0036221830598
-0.00362201017905
-0.00362197923187
-0.00362155497374
-0.00362150654995
-0.00362268488382
-0.00362693514426
-0.0036321878247
-0.00360026692315
-0.00336504977695
-0.00259057619031
-0.0028357720082
-0.00430612603061
-0.00480390357938
-0.00490678689399
-0.00491807737461
-0.0049095587981
-0.00488845717704
-0.00486057409049
-0.00482834992899
-0.00479950191725
-0.00478680986769
-0.00478759744471
-0.00479062072868
-0.00479440505824
-0.00479740593667
-0.00479947332832
-0.00480046150248
-0.00480044646585
-0.00479951040775
-0.00479805925815
-0.00479716291698
-0.00479668620849
-0.00479680241174
-0.00479692410264
-0.0047969045787
-0.00479674975191
-0.00479647101591
-0.0047960760917
-0.00479566228644
-0.00479528367888
-0.00479504309916
-0.00479411282688
-0.00479348084293
-0.00479376092757
-0.00479673436496
-0.00480516282214
-0.00480996038974
-0.0047282929913
-0.00425860310548
-0.00281524535787
-0.00291121929366
-0.004816965134
-0.00550330193872
-0.00565148558987
-0.00566684327156
-0.00565465685523
-0.00563042582126
-0.00560261975692
-0.00556542652484
-0.00552178991604
-0.00549858366998
-0.00549607327543
-0.00550169448491
-0.00550751876714
-0.00551199195258
-0.00551489242174
-0.00551623305837
-0.00551621168195
-0.0055152889021
-0.00551404687447
-0.00551301872453
-0.00551251411567
-0.00551237053676
-0.00551238243334
-0.00551237737142
-0.00551225068723
-0.00551200020557
-0.00551158044836
-0.00551120886439
-0.00551061218408
-0.00550929468918
-0.00550806239316
-0.00550730915476
-0.00550803958842
-0.00551304235006
-0.00552551629207
-0.0055284601797
-0.00540072728844
-0.00475012293582
-0.00288856971599
-0.00293323842885
-0.00506894473375
-0.00586812430052
-0.00604397304499
-0.00606499259268
-0.0060494915781
-0.00601911018664
-0.00599433579302
-0.00596446981603
-0.00590943130252
-0.00587435504079
-0.00586854963964
-0.00587531732294
-0.00588344616435
-0.00588958862996
-0.00589339769314
-0.00589511090126
-0.00589512080359
-0.00589407872991
-0.0058926869166
-0.00589156267955
-0.00589103475881
-0.00589107880607
-0.00589146037811
-0.00589140778893
-0.00589131160326
-0.0058911233314
-0.00589076368844
-0.00589022300678
-0.00588881391527
-0.00588727804836
-0.00588587644427
-0.00588512792945
-0.00588646162989
-0.00589363751261
-0.00591033746742
-0.00591308534996
-0.00575319006556
-0.00498665092005
-0.00290977285601
-0.00293825333845
-0.00517339786845
-0.00602445404731
-0.00623550125784
-0.00625286964642
-0.00623295991923
-0.00620057618518
-0.00616375323619
-0.00614201549671
-0.00608008799686
-0.00603329782534
-0.0060239431703
-0.00603167035478
-0.00604218498243
-0.00605001416362
-0.00605476745923
-0.00605683973855
-0.00605690045633
-0.00605578584207
-0.00605431034471
-0.00605313832595
-0.00605261377113
-0.00605269919067
-0.00605315863012
-0.00605337029515
-0.00605328495607
-0.00605314329369
-0.0060528661215
-0.00605175970115
-0.00605020795574
-0.00604854804889
-0.00604706582145
-0.00604640420321
-0.00604841831164
-0.00605781031353
-0.00607898240078
-0.00608439513877
-0.00590812987777
-0.00508046893016
-0.00291396847611
-0.00293895879723
-0.00520630784089
-0.00608807068312
-0.00629754525663
-0.00630810305161
-0.00628394024795
-0.00625085467353
-0.00621795522386
-0.00619368080605
-0.00612820668667
-0.00607076265729
-0.00605792996647
-0.00606677471073
-0.0060792589349
-0.00608865324839
-0.00609425801216
-0.00609666199034
-0.00609677826753
-0.00609561473432
-0.0060941050241
-0.0060929188211
-0.00609241460899
-0.00609254351844
-0.0060930458842
-0.00609332007888
-0.00609323338406
-0.00609310072262
-0.0060928352451
-0.00609153675403
-0.00608990491939
-0.00608817738852
-0.00608666846231
-0.00608614021018
-0.00608881635808
-0.00610027121744
-0.00612588302003
-0.00613628509641
-0.00595621443446
-0.00510485715179
-0.00291330866482
-0.00293921267311
-0.00521322319387
-0.00610306068096
-0.0063053089213
-0.00630894851941
-0.00628105245386
-0.00624702283342
-0.00621562803079
-0.00616675382564
-0.00612117711916
-0.0060547131587
-0.00603875999454
-0.00604846716006
-0.00606262041871
-0.00607329617612
-0.00607956714491
-0.00608225759622
-0.00608241280768
-0.00608122251852
-0.00607969602103
-0.00607851801126
-0.00607803848889
-0.00607820472028
-0.00607873738476
-0.00607893415515
-0.0060788434903
-0.00607868340064
-0.00607842173727
-0.0060771560695
-0.00607547734678
-0.00607371196254
-0.00607220819577
-0.0060718174022
-0.00607505236823
-0.00608823038074
-0.00611776773253
-0.00613393358766
-0.00595717474858
-0.00510242262141
-0.00291187484574
-0.00293970727808
-0.00521470779626
-0.0061042836651
-0.00630054533582
-0.006299642125
-0.00626907983446
-0.00623328456661
-0.00620033695835
-0.00614389935785
-0.00610062092155
-0.00602701442146
-0.00600862677708
-0.00601887990177
-0.00603419997615
-0.00604578213822
-0.00605252463271
-0.00605539991492
-0.00605558653037
-0.00605438053651
-0.00605284725836
-0.00605168309124
-0.00605122783435
-0.00605142177943
-0.00605197193564
-0.00605206772233
-0.00605196511446
-0.00605177659753
-0.00605147994919
-0.00605034957664
-0.00604864833393
-0.00604686683805
-0.00604537796976
-0.00604508543037
-0.00604872923391
-0.00606313354505
-0.00609555761867
-0.00611661534032
-0.00594506615782
-0.00509430703522
-0.00291082209445
-0.00294008367591
-0.00521561096984
-0.00610386887982
-0.00629714125562
-0.00629449462462
-0.00626257157025
-0.00622493626722
-0.00619040837109
-0.00613071971563
-0.00608656078765
-0.00600900419307
-0.00598930851998
-0.00599982793998
-0.0060157505694
-0.00602779033555
-0.0060347670202
-0.00603772610655
-0.00603792985855
-0.00603671745926
-0.00603518184212
-0.0060340269822
-0.00603358678812
-0.00603379610123
-0.0060343542565
-0.00603438723917
-0.00603427772976
-0.00603406887168
-0.00603374906384
-0.00603271466912
-0.00603100048949
-0.00602921621283
-0.00602773376476
-0.00602749976018
-0.0060313476058
-0.00604638407339
-0.00608034557174
-0.00610415466573
-0.00593608773165
-0.00508899559113
-0.00291031980199
-0.00294004791885
-0.00521543378344
-0.00610366528597
-0.00629694980218
-0.00629426752626
-0.00626234383097
-0.0062248034263
-0.00619026818268
-0.00613061918353
-0.00608645267836
-0.00600901256799
-0.00598934846641
-0.00599986239592
-0.00601577206222
-0.00602780281124
-0.0060347746127
-0.00603773099694
-0.00603793303671
-0.00603671960527
-0.00603518316331
-0.00603402834962
-0.00603358781631
-0.0060337971209
-0.00603435551119
-0.00603438563752
-0.00603427597991
-0.00603406634991
-0.00603374425083
-0.00603271829731
-0.00603100441386
-0.00602922123225
-0.00602774047311
-0.00602750771683
-0.00603135606848
-0.00604639306001
-0.00608035466545
-0.00610416268627
-0.0059360948106
-0.00508900148373
-0.00291032089171
-0.00293960744433
-0.00521419392182
-0.00610371101714
-0.00630001000464
-0.00629903039495
-0.00626850764924
-0.00623287441311
-0.00619993020199
-0.0061436406589
-0.00610031636875
-0.00602704007474
-0.00600874067101
-0.00601897593653
-0.00603425939245
-0.00604581629372
-0.00605254507127
-0.00605541161988
-0.00605559445746
-0.00605438639651
-0.00605285017452
-0.00605168557121
-0.0060512297351
-0.00605142384481
-0.00605197459022
-0.00605206271389
-0.00605195840153
-0.00605176563663
-0.00605146430441
-0.00605035780532
-0.00604865826399
-0.00604688194941
-0.00604539612379
-0.00604510710629
-0.00604875195214
-0.0060631566061
-0.00609558219153
-0.00611664016848
-0.00594508563392
-0.00509432217623
-0.00291082370901
-0.00293907032769
-0.00521239779327
-0.00610215635289
-0.00630443774784
-0.00630798597495
-0.00628016041474
-0.00624633157786
-0.006215006017
-0.00616679941742
-0.00612075695677
-0.00605477802197
-0.00603894470531
-0.00604861691451
-0.00606270986239
-0.00607334426315
-0.00607959282132
-0.00608227011536
-0.00608241905073
-0.0060812278205
-0.00607969780513
-0.0060785175798
-0.00607803650404
-0.00607820285668
-0.00607873703999
-0.00607891793158
-0.00607882473746
-0.00607866008775
-0.00607838818169
-0.00607716409643
-0.00607549073515
-0.00607373002674
-0.00607223313421
-0.00607184991807
-0.0060750893256
-0.00608827036713
-0.00611780100404
-0.00613396563213
-0.00595719896366
-0.00510244453487
-0.0029118760783
-0.00293880668468
-0.00520523794691
-0.00608691063682
-0.00629639250664
-0.00630684706675
-0.00628277511741
-0.00624989816599
-0.00621709564704
-0.00619259024395
-0.00612778371453
-0.0060708880052
-0.00605817272769
-0.00606696307213
-0.00607937136582
-0.00608870884516
-0.00609428213334
-0.00609667066433
-0.00609677650114
-0.00609561380357
-0.00609409789325
-0.00609290849944
-0.00609240150217
-0.00609252955926
-0.0060930342194
-0.00609328651309
-0.00609319764702
-0.00609305899541
-0.00609279979945
-0.0060915384181
-0.00608991019477
-0.00608818845088
-0.00608668891876
-0.00608616832694
-0.00608884802906
-0.00610030407833
-0.00612592091545
-0.00613631525619
-0.00595623926242
-0.00510487861177
-0.00291330789947
-0.00293812575549
-0.00517224296143
-0.00602306925775
-0.00623412776598
-0.00625139793739
-0.00623161764607
-0.00619942302599
-0.00616286981502
-0.00614096240245
-0.00607978236013
-0.0060334975647
-0.00602422417344
-0.00603187722678
-0.00604229757965
-0.00605005557243
-0.0060547802402
-0.00605683128112
-0.00605688284854
-0.00605576656689
-0.00605428577191
-0.00605310918266
-0.00605258152479
-0.00605266505794
-0.00605312647906
-0.00605331893659
-0.00605323122803
-0.00605308607364
-0.00605280017486
-0.00605174157551
-0.00605019810597
-0.00604854638066
-0.00604707301727
-0.00604642380369
-0.00604843910102
-0.00605783418763
-0.00607900036452
-0.00608441153064
-0.00590813896181
-0.00508048096678
-0.00291396371076
-0.00293316922557
-0.00506791511417
-0.00586636568883
-0.00604238307717
-0.00606334549329
-0.0060480583457
-0.00601787224449
-0.00599367169238
-0.00596367545084
-0.00590930950335
-0.0058746206941
-0.00586884761959
-0.00587551896153
-0.00588353489456
-0.00588960617397
-0.00589338591175
-0.00589508029966
-0.00589508192627
-0.00589403805463
-0.00589264055051
-0.00589151184042
-0.00589098026755
-0.00589102067197
-0.00589140334354
-0.00589134466411
-0.00589124892223
-0.00589106042554
-0.00589070076061
-0.00589018588621
-0.00588878436752
-0.00588725593231
-0.00588586834036
-0.00588511671141
-0.0058864613468
-0.00589363952934
-0.00591033314324
-0.00591307448414
-0.00575317723906
-0.00498664622895
-0.00290976023935
-0.00291121432808
-0.00481618466894
-0.00550181493121
-0.00564967630518
-0.00566527384609
-0.00565329416363
-0.00562920170284
-0.00560175266279
-0.00556494517827
-0.00552184903092
-0.00549888912525
-0.00549635544602
-0.00550185986535
-0.00550757905092
-0.0055119991292
-0.00551485467074
-0.00551618226698
-0.0055161538476
-0.00551523261936
-0.00551398330941
-0.00551295302392
-0.00551244345738
-0.00551229187086
-0.00551231419407
-0.00551231008171
-0.00551218665766
-0.00551193853461
-0.00551152406314
-0.00551115822062
-0.00551056364604
-0.00550925570767
-0.00550803240709
-0.00550728223684
-0.00550801347202
-0.00551301208146
-0.00552548533972
-0.00552842332214
-0.00540068417109
-0.00475009286454
-0.00288854733915
-0.00283581643352
-0.00430568851112
-0.00480282004055
-0.00490546221813
-0.00491675087612
-0.00490849033796
-0.00488757997959
-0.00486000595856
-0.00482816544027
-0.00479967619834
-0.00478710316173
-0.00478782005347
-0.00479074012048
-0.00479445270902
-0.0047973983289
-0.00479942953049
-0.00480040494005
-0.00480038274315
-0.00479939088131
-0.00479795587278
-0.00479707882125
-0.00479661620486
-0.00479674186043
-0.004796866093
-0.00479684997228
-0.00479669907116
-0.00479642559547
-0.00479603167747
-0.00479562327692
-0.00479525511975
-0.00479500845891
-0.00479407849866
-0.00479344617114
-0.004793723266
-0.00479669387564
-0.00480511781231
-0.00480990999538
-0.00472823121127
-0.00425854968818
-0.00281521258562
-0.00260591989503
-0.00339261624748
-0.00364080230747
-0.0036843948453
-0.00368808508164
-0.00368380675909
-0.00367185053703
-0.00365523177327
-0.00363743766987
-0.0036235981031
-0.00361960604647
-0.00361857636594
-0.00362018941116
-0.00362202220841
-0.00362373419298
-0.00362502281158
-0.00362569179117
-0.00362533610638
-0.00362407227746
-0.00362330715965
-0.00362300948397
-0.00362310210466
-0.00362321212075
-0.00362327344065
-0.0036232578056
-0.00362314386236
-0.00362294064177
-0.00362268258597
-0.00362241161865
-0.00362216814447
-0.00362200142359
-0.00362197610411
-0.00362154377449
-0.00362149415428
-0.00362267047525
-0.00362691605913
-0.00363216609713
-0.00360023578041
-0.00336500210247
-0.00259056278513
-0.00196473216272
-0.00209238861289
-0.00212242823436
-0.00212430767591
-0.00212341753601
-0.00212301902062
-0.00212219561125
-0.00212038048927
-0.00211817323586
-0.00211634860393
-0.00211392715372
-0.00211379856012
-0.00211431027077
-0.00211499103248
-0.00211565790607
-0.00211618529437
-0.0021163808502
-0.00211618973087
-0.00211606794663
-0.00211605740902
-0.00211610278659
-0.00211616016377
-0.00211621452119
-0.00211624762653
-0.00211624623154
-0.00211621141857
-0.00211614469953
-0.00211605832267
-0.00211597759674
-0.00211590732706
-0.00211586393421
-0.00211585368084
-0.00211574674598
-0.00211566535127
-0.00211573334961
-0.00211624856112
-0.00211753834833
-0.00211615862104
-0.00208699504385
-0.00196219306172
-0.00259156886468
-0.00337455565925
-0.00361909252237
-0.00365787715884
-0.00365745733784
-0.00365308198564
-0.0036453413442
-0.00363522683258
-0.0036251601168
-0.00361796250383
-0.00361582169667
-0.00361694872557
-0.00361808326594
-0.00362021095971
-0.00362214814499
-0.00362346321921
-0.00362423741085
-0.00362424493695
-0.00362391267066
-0.00362357491838
-0.00362342614253
-0.00362342853351
-0.00362353170195
-0.00362366627326
-0.00362375658261
-0.00362374005687
-0.00362360153792
-0.00362335444755
-0.00362303535998
-0.0036226773687
-0.0036223359925
-0.00362204485139
-0.00362190961695
-0.00362205569482
-0.00362341814664
-0.0036278151868
-0.00363319986883
-0.00360123379589
-0.00336584479092
-0.00259142605889
-0.00312281612509
-0.00367661579497
-0.0038988563512
-0.00393795131689
-0.00393796597299
-0.00393321510335
-0.00392499751396
-0.00391482541216
-0.00390525744112
-0.00389890230457
-0.00389769728501
-0.00389943891929
-0.00390166183273
-0.00390349042712
-0.00390495253304
-0.00390595869151
-0.00390656159583
-0.00390685041535
-0.00390675128959
-0.00390667635934
-0.00390662855598
-0.00390666174876
-0.00390670322999
-0.00390671970606
-0.00390670671073
-0.00390665281538
-0.00390655646228
-0.00390643861619
-0.00390631189529
-0.00390618138624
-0.00390606996438
-0.00390596405419
-0.00390587980619
-0.00390615734971
-0.00390770267301
-0.00391231465363
-0.00391734221316
-0.00388507364453
-0.00367072546061
-0.00312288619902
-0.00370713724119
-0.00420056465419
-0.00447527319113
-0.00453319536665
-0.00453603830333
-0.00452953748663
-0.00451792809467
-0.0045034034906
-0.00448860093153
-0.00447715019487
-0.004473234293
-0.00447471523359
-0.00447773815689
-0.00448006854352
-0.00448179645772
-0.00448288774582
-0.00448348126957
-0.00448373031122
-0.00448372258554
-0.00448361791231
-0.00448358842636
-0.00448359305741
-0.00448364042222
-0.00448364375471
-0.0044835996026
-0.0044835090162
-0.00448338755031
-0.00448326530901
-0.00448315269024
-0.00448306296944
-0.00448300094103
-0.00448288424598
-0.004482921837
-0.0044835402943
-0.00448602364325
-0.0044924052982
-0.00449723630695
-0.00445029993941
-0.00418835026996
-0.00370108135984
-0.00393767147295
-0.00452087303161
-0.00485261412056
-0.0049287940501
-0.00493390050746
-0.00492514325132
-0.00490987929631
-0.00489081885678
-0.00487047600583
-0.00485238266896
-0.0048443933474
-0.00484482808204
-0.00484815648469
-0.00485130569366
-0.00485340324831
-0.00485465638725
-0.00485529900205
-0.00485555247194
-0.00485560119844
-0.00485558314797
-0.00485558439372
-0.00485562418454
-0.00485564402272
-0.00485563714027
-0.00485557522219
-0.0048554616406
-0.00485532260526
-0.00485518961329
-0.00485508067855
-0.00485498719306
-0.0048548080161
-0.00485470749372
-0.00485484585893
-0.00485583483358
-0.00485939978712
-0.00486781471027
-0.00487272136724
-0.00481145826725
-0.00449862985708
-0.00392727278857
-0.00402441944238
-0.00468385114956
-0.00505727346726
-0.0051456441334
-0.00515148885027
-0.00514020749107
-0.00512096819258
-0.00509830714233
-0.00507571641009
-0.00505177869769
-0.00503939484222
-0.00503861682232
-0.00504228215562
-0.00504612917857
-0.00504868939068
-0.00505016870429
-0.00505090155919
-0.00505118528592
-0.00505125125097
-0.00505125350386
-0.00505128014353
-0.00505134845377
-0.0050514340341
-0.00505147368134
-0.00505139291583
-0.00505126326024
-0.00505111342219
-0.00505097408514
-0.00505085493985
-0.00505062416083
-0.00505042766097
-0.00505034076749
-0.00505057787383
-0.00505195177877
-0.00505665110573
-0.00506726211979
-0.00507312107156
-0.00500185247708
-0.00465156892516
-0.00401106568028
-0.00405322117301
-0.00475325010247
-0.00514928430842
-0.00524617914707
-0.00524981462139
-0.00523556373029
-0.0052134632692
-0.00518689336536
-0.00516334509434
-0.00513540586968
-0.00511899122288
-0.00511705426823
-0.00512112458786
-0.00512564315899
-0.00512871198138
-0.00513045637158
-0.0051313021448
-0.00513163015617
-0.00513171880306
-0.00513174113646
-0.00513178875325
-0.00513187820521
-0.00513198181923
-0.00513205077828
-0.00513199473865
-0.00513185444735
-0.00513169739574
-0.00513155706095
-0.00513134530245
-0.005131092438
-0.00513088697246
-0.00513081554662
-0.00513115066972
-0.0051329038822
-0.00513871858391
-0.00515161119983
-0.00515951643862
-0.00508368439816
-0.00471250489625
-0.0040374311031
-0.00406030663481
-0.00477614243291
-0.00518269364553
-0.00527933870641
-0.00527899406967
-0.00526171883381
-0.00523757509663
-0.00520969020536
-0.00518486855908
-0.00515501851545
-0.00513523732252
-0.00513228001914
-0.00513678144374
-0.00514194424867
-0.0051455060753
-0.00514751567302
-0.00514848083079
-0.00514885800587
-0.00514897116078
-0.00514901409919
-0.00514908030131
-0.00514918715143
-0.00514930414662
-0.00514938245385
-0.0051493335631
-0.00514918539704
-0.00514902216094
-0.00514887784258
-0.0051486303486
-0.00514836587898
-0.00514815647405
-0.00514810233337
-0.00514852956698
-0.00515062607527
-0.00515745538624
-0.00517255035422
-0.00518328022104
-0.00510733162254
-0.00472818240309
-0.00404190633567
-0.00406084347361
-0.00478079866964
-0.0051896093599
-0.00528297942383
-0.00527837713745
-0.00525841916898
-0.00523264797602
-0.0052034846259
-0.00517391031764
-0.00514692664778
-0.0051245806833
-0.0051207688849
-0.00512564375539
-0.00513136511662
-0.00513535553416
-0.0051375938918
-0.00513866755009
-0.00513908948809
-0.00513922575255
-0.0051392864611
-0.00513936889419
-0.00513948965998
-0.00513961722865
-0.0051397011809
-0.00513963653726
-0.00513948338505
-0.00513931549194
-0.00513916890492
-0.00513892332901
-0.00513865232379
-0.00513844179287
-0.00513840449356
-0.00513890909961
-0.00514128483347
-0.00514894687009
-0.00516594210886
-0.00517962227801
-0.00510599710283
-0.00472629027809
-0.00403963489853
-0.00406037429696
-0.00478073221898
-0.00518871198775
-0.00527895629092
-0.00527125139922
-0.00524933930695
-0.00522202875659
-0.00519131501665
-0.00515948716976
-0.00513308815034
-0.00510882442235
-0.00510436550098
-0.00510950274161
-0.00511563869711
-0.00511993515686
-0.00512234104833
-0.00512349384725
-0.00512394982368
-0.0051241036536
-0.00512417755499
-0.00512427211434
-0.00512440339916
-0.00512453864084
-0.00512462563905
-0.00512454052667
-0.0051243839753
-0.00512421189153
-0.00512406431442
-0.00512383548144
-0.00512356154112
-0.00512335162424
-0.0051233274052
-0.005123886481
-0.00512645776599
-0.00513470627234
-0.00515308868796
-0.00516915782909
-0.0050982787364
-0.00472068363673
-0.00403664794902
-0.00406012723553
-0.00478033104683
-0.00518735672378
-0.00527587790934
-0.00526680107314
-0.00524386908272
-0.0052153983922
-0.00518360554199
-0.00515063992737
-0.00512416732057
-0.00509885888799
-0.00509405552316
-0.00509932868426
-0.00510568757095
-0.00511013845421
-0.00511263101418
-0.00511382429615
-0.0051142983708
-0.0051144615971
-0.00511454239798
-0.00511464357383
-0.00511478080252
-0.00511492029209
-0.005115008294
-0.00511491079728
-0.00511475269112
-0.00511457877096
-0.0051144271338
-0.00511421425252
-0.00511393861714
-0.00511372985407
-0.00511371250214
-0.00511430005961
-0.00511697129357
-0.00512552144298
-0.00514463208022
-0.00516202191398
-0.00509286883904
-0.00471701955476
-0.00403492661012
-0.00406007499257
-0.00478023916053
-0.00518726654214
-0.00527579358993
-0.00526671906663
-0.00524379956923
-0.00521535468005
-0.00518358300435
-0.00515063253071
-0.00512414685272
-0.00509886547397
-0.00509407008941
-0.00509934061608
-0.00510569544046
-0.00511014352742
-0.00511263455371
-0.00511382674414
-0.00511430009737
-0.00511446284858
-0.0051145433232
-0.00511464449536
-0.00511478182412
-0.00511492151575
-0.00511500967732
-0.00511491176737
-0.00511475375419
-0.00511457978364
-0.00511442807172
-0.00511421640145
-0.00511394087646
-0.00511373245961
-0.00511371553776
-0.00511430342845
-0.00511697488345
-0.0051255251622
-0.00514463575767
-0.00516202515641
-0.00509287133748
-0.00471702070312
-0.00403492404867
-0.00406022920742
-0.00478047048164
-0.00518845874114
-0.00527871870155
-0.00527103429547
-0.00524915347815
-0.00522189756893
-0.00519124129493
-0.00515946616524
-0.00513302736331
-0.00510884224315
-0.00510440646504
-0.00510953624999
-0.00511566082714
-0.00511994919831
-0.0051223506784
-0.00512350029567
-0.00512395423355
-0.00512410684445
-0.00512417978026
-0.00512427422095
-0.00512440582596
-0.00512454168354
-0.00512462917024
-0.00512454287703
-0.00512438641774
-0.00512421398274
-0.00512406489861
-0.00512384103289
-0.00512356759974
-0.00512335885288
-0.00512333573816
-0.00512389575809
-0.00512646792799
-0.00513471675819
-0.00515309887156
-0.00516916692788
-0.00509828580131
-0.00472068699148
-0.00403663961769
-0.00406063249116
-0.00478039205993
-0.00518922510114
-0.00528262642079
-0.00527805284676
-0.00525814103795
-0.00523244305446
-0.00520335901689
-0.00517388712782
-0.00514683985341
-0.00512461297003
-0.00512083318737
-0.00512569492611
-0.00513139683235
-0.00513537539645
-0.00513760672169
-0.00513867547084
-0.00513909417332
-0.00513922889862
-0.00513928822053
-0.00513937026485
-0.005139491348
-0.0051396198369
-0.00513970465416
-0.00513963763542
-0.0051394845134
-0.00513931639781
-0.00513916964461
-0.00513892997219
-0.00513866020464
-0.00513845106536
-0.00513841570172
-0.00513892200645
-0.00514129901949
-0.00514896152976
-0.00516595635711
-0.00517963510217
-0.00510600744987
-0.00472629475873
-0.00403961955988
-0.00406006947226
-0.00477563244286
-0.00518220542996
-0.00527890626349
-0.00527857749193
-0.00526136119444
-0.00523731215141
-0.00520949135065
-0.0051846258304
-0.00515491716498
-0.00513528630547
-0.00513236152554
-0.00513684369511
-0.00514198312048
-0.0051455272015
-0.00514752751943
-0.00514848651748
-0.00514885936364
-0.00514897086102
-0.00514901187375
-0.00514907751526
-0.00514918454498
-0.00514930254009
-0.00514938195634
-0.00514933005215
-0.00514918198632
-0.00514901910938
-0.0051488744032
-0.00514863443733
-0.00514837121431
-0.0051481635397
-0.00514811192236
-0.00514854123527
-0.00515063936122
-0.00515746935962
-0.00517256398241
-0.00518329234335
-0.00510734120714
-0.00472818583834
-0.0040418808084
-0.0040530025719
-0.00475269751088
-0.00514869000448
-0.00524566085579
-0.00524930730482
-0.00523512016596
-0.00521311975327
-0.00518665315963
-0.00516304652893
-0.00513531940526
-0.00511905728904
-0.0051171446969
-0.00512118969824
-0.00512567893128
-0.0051287275705
-0.00513046172764
-0.00513130041383
-0.00513162392154
-0.00513171038091
-0.00513173076199
-0.00513177756333
-0.00513186713815
-0.00513197170312
-0.00513204167327
-0.00513198331816
-0.00513184316928
-0.00513168647752
-0.00513154575655
-0.00513134153642
-0.0051310907083
-0.00513088741924
-0.00513081851677
-0.00513115625202
-0.00513291076311
-0.00513872616756
-0.00515161838481
-0.00515952229366
-0.00508368851839
-0.00471250346844
-0.00403739130806
-0.00402426051347
-0.00468332710325
-0.00505654199414
-0.0051450080902
-0.00515087191393
-0.00513967642162
-0.0051205208394
-0.00509808901777
-0.00507544558562
-0.00505172880327
-0.00503947518842
-0.00503870791985
-0.00504234190527
-0.00504615558202
-0.00504869476601
-0.00505016285302
-0.00505088896259
-0.00505116848506
-0.00505123197198
-0.00505123231615
-0.00505125797312
-0.00505132625957
-0.00505141251639
-0.00505145266612
-0.00505137236585
-0.00505124346693
-0.00505109398614
-0.00505095547418
-0.00505083949862
-0.00505061185682
-0.0050504174896
-0.00505033352396
-0.00505057171984
-0.00505194742136
-0.0050566470189
-0.00506725774974
-0.00507311547722
-0.00500184618393
-0.00465155963423
-0.00401100834467
-0.00393758869812
-0.00452044224945
-0.00485191639325
-0.00492804350696
-0.00493326189236
-0.00492455126812
-0.00490935311282
-0.00489046292282
-0.00487026672483
-0.00485237900851
-0.0048444838631
-0.00484491338099
-0.00484820529849
-0.00485132115594
-0.00485339925301
-0.00485463912233
-0.0048552759355
-0.00485552573643
-0.00485557201373
-0.00485555239567
-0.00485555262232
-0.00485559212835
-0.00485561212568
-0.00485560710256
-0.00485554671659
-0.00485543439151
-0.00485529602511
-0.00485516417386
-0.00485505651692
-0.00485496422797
-0.00485478717873
-0.00485468851173
-0.00485482832436
-0.00485581791701
-0.00485938294159
-0.00486779726284
-0.00487270269263
-0.00481143942013
-0.00449861083806
-0.00392719928022
-0.00370712654884
-0.00420026072732
-0.00447469203119
-0.00453251577657
-0.00453536014896
-0.00452897074749
-0.00451745653645
-0.0045030949834
-0.00448847916379
-0.00447718979475
-0.0044733298603
-0.00447479155727
-0.00447777651435
-0.00448007745854
-0.0044817862066
-0.0044828647535
-0.00448345320895
-0.00448369929373
-0.00448368055864
-0.00448357785175
-0.00448355006501
-0.00448355687724
-0.00448360624633
-0.00448361069205
-0.00448356800719
-0.00448347884255
-0.00448335845744
-0.00448323640119
-0.00448312512352
-0.00448303700639
-0.00448297481357
-0.00448285838985
-0.0044828967424
-0.0044835153078
-0.00448599812832
-0.0044923787602
-0.00449720786577
-0.00445027087055
-0.00418832201666
-0.00370100665963
-0.00312285971962
-0.00367641514196
-0.00389839586349
-0.00393735961908
-0.0039373423435
-0.00393269419971
-0.00392459627019
-0.00391459319403
-0.00390520224989
-0.00389896561111
-0.00389778917923
-0.00389950463772
-0.00390169434575
-0.00390349788633
-0.00390494245463
-0.00390593747668
-0.0039065381874
-0.00390681197993
-0.00390671538926
-0.00390663970392
-0.00390659370901
-0.00390662980519
-0.00390667195236
-0.00390668925181
-0.00390667689318
-0.0039066243781
-0.00390652815216
-0.00390641060453
-0.00390628419844
-0.00390615466889
-0.00390604402453
-0.00390593705526
-0.00390585392558
-0.00390613144907
-0.00390767604619
-0.00391228663404
-0.00391731099192
-0.00388504021215
-0.00367069179829
-0.00312282513917
-0.00259160354324
-0.00337436268351
-0.00361859708803
-0.00365719484117
-0.0036567104083
-0.00365246223253
-0.00364487092655
-0.00363496400395
-0.00362510954328
-0.003618046076
-0.00361593631917
-0.00361703212501
-0.00361813079354
-0.00362022428296
-0.00362214269733
-0.00362344744478
-0.00362426344242
-0.00362421409193
-0.00362388006588
-0.003623541244
-0.0036233985816
-0.00362339906846
-0.00362350361957
-0.0036236390526
-0.00362373097857
-0.0036237153849
-0.00362357792757
-0.00362332754125
-0.00362300636823
-0.00362264830331
-0.00362230823979
-0.00362202926177
-0.00362188077232
-0.00362202725702
-0.00362338911571
-0.00362778454391
-0.0036331632026
-0.0036011874949
-0.00336580264111
-0.00259140205986
-0.00281589289463
-0.00426530679646
-0.00474944892064
-0.00484391986453
-0.00484795418712
-0.00483979753192
-0.00482684644774
-0.00481104960479
-0.00479601997972
-0.00478532069292
-0.00478240589939
-0.00478477819274
-0.00478855836691
-0.00479133231995
-0.00479439735127
-0.00479640817924
-0.00479735433984
-0.00479753967123
-0.00479722376709
-0.0047968393332
-0.00479661792922
-0.00479664052401
-0.00479682761486
-0.0047970643881
-0.00479725693388
-0.00479729873456
-0.00479717156982