/*--------------------------------*- C++ -*----------------------------------*\
| =========                 |                                                 |
| \\      /  F ield         | OpenFOAM: The Open Source CFD Toolbox           |
|  \\    /   O peration     | Version:  3.0.1                                 |
|   \\  /    A nd           | Web:      www.OpenFOAM.org                      |
|    \\/     M anipulation  |                                                 |
\*---------------------------------------------------------------------------*/
FoamFile
{
    version     2.0;
    format      ascii;
    class       surfaceVectorField;
    location    "2.3";
    object      Uf_0;
}
// * * * * * * * * * * * * * * * * * * * * * * * * * * * * * * * * * * * * * //

dimensions      [0 1 -1 0 0 0 0];

internalField   nonuniform List<vector> 
45932
(
(0.00199560895869 0.000267409353376 -0.000782296949798)
(0.000941158662096 0.000697728052392 -0.00104634836627)
(0.00116648993015 0.000499607464352 -0.00169553389445)
(0.00373726202603 0.00046416220172 -0.000726847066138)
(0.00314114507657 0.000855885663207 -0.00126212346793)
(0.00326555202203 0.000725581440938 -0.00172671164259)
(0.00387021635761 0.000928406787399 -0.000696364518714)
(0.00443876760912 0.00175087472321 -0.00137775589773)
(0.00445517900625 0.00137557035995 -0.00181734775092)
(0.00215366340473 0.00132613727397 -0.000687652434099)
(0.00348675531356 0.00273475086296 -0.00143435780129)
(0.00347596689181 0.00205187346921 -0.00187646765259)
(-0.000516850255508 0.00147936168247 -0.000672025535414)
(0.000987277399241 0.00326672689418 -0.00147835819776)
(0.000979207284715 0.00241681853188 -0.00193146264466)
(-0.00337903625181 0.00135837607177 -0.000619689613208)
(-0.00201784621262 0.00329351989891 -0.00143245321145)
(-0.00201843174856 0.00242925537992 -0.00186242096595)
(-0.00560043186612 0.000982486664249 -0.000544503301142)
(-0.00486301378934 0.00279291974267 -0.00130369251712)
(-0.00485445706372 0.00207628996553 -0.00168221946193)
(-0.00639662241439 0.000484498448955 -0.000455468043069)
(-0.00650699593796 0.00183675665216 -0.00112339232551)
(-0.00649754553616 0.00141739598478 -0.00143866358217)
(-0.00576709262321 8.3820689793e-05 -0.000357489819106)
(-0.00642993303211 0.00082158639397 -0.000887593609101)
(-0.0064536220231 0.000704996431359 -0.00113635815674)
(-0.00447991945236 -0.000109997599002 -0.000259130824961)
(-0.00521107507587 0.000180167295643 -0.000633035317428)
(-0.005261657187 0.000233607817005 -0.000823764332932)
(-0.00319678608536 -0.000153335791074 -0.000173615785032)
(-0.00380679076335 -9.62655326964e-05 -0.000409089859439)
(-0.00386366396239 1.72548024022e-05 -0.000545313893783)
(-0.00217137486125 -0.000134985443452 -0.000109156230921)
(-0.00261116707053 -0.000171335414323 -0.00025184882484)
(-0.0026577613784 -5.69221287386e-05 -0.000341384509898)
(-0.00144894997712 -0.000102779913723 -6.32453811113e-05)
(-0.00173639244952 -0.00016025675206 -0.000147970846523)
(-0.00176900095941 -6.93068733546e-05 -0.000200971481951)
(-0.00097877695481 -7.25259209208e-05 -3.30344349028e-05)
(-0.00115637702582 -0.000124008195501 -8.12625067596e-05)
(-0.00117701209739 -5.94023334645e-05 -0.00011109555488)
(-0.000692582306481 -5.00508012125e-05 -1.33984223542e-05)
(-0.000795054758006 -8.86533032455e-05 -4.09543489561e-05)
(-0.000806865608207 -4.56874697642e-05 -5.44622234917e-05)
(-0.000530796495162 -3.50643406012e-05 -7.56597954771e-07)
(-0.000584254040161 -6.19519042181e-05 -1.65738390588e-05)
(-0.000590760154965 -3.38847340647e-05 -1.89592607336e-05)
(-0.000447982966733 -2.56561876191e-05 6.52964056389e-06)
(-0.000470585639576 -4.41478010225e-05 -2.08807172952e-06)
(-0.000474432930988 -2.56671266176e-05 2.72366425129e-06)
(-0.000409831687904 -1.96632980902e-05 9.67506923105e-06)
(-0.000415431048008 -3.30517836897e-05 5.41471796516e-06)
(-0.000418249786023 -2.01142946565e-05 1.39603211548e-05)
(-0.000393107967185 -1.57671412625e-05 1.01885871536e-05)
(-0.000391298953338 -2.59461510031e-05 8.22725402581e-06)
(-0.000393665947199 -1.64590696259e-05 1.75703198558e-05)
(-0.000384722886702 -1.32175082806e-05 9.54180790002e-06)
(-0.00038070665881 -2.14397764997e-05 8.56462387632e-06)
(-0.000382671063644 -1.40319321676e-05 1.72350870981e-05)
(-0.000379201648843 -1.14233721095e-05 8.84846747821e-06)
(-0.00037509587848 -1.83842982931e-05 8.11959900156e-06)
(-0.000376582191221 -1.24199074117e-05 1.56129914236e-05)
(-0.000376253198123 -1.0096407997e-05 8.67991441569e-06)
(-0.000371924620313 -1.61072241827e-05 7.92800440739e-06)
(-0.000372867377772 -1.11617342961e-05 1.46231374083e-05)
(-0.000377309595533 -9.08744241416e-06 9.00037822179e-06)
(-0.000371510674085 -1.44594816426e-05 8.41486524972e-06)
(-0.000372005466283 -1.01974481133e-05 1.49779678307e-05)
(-0.000383133757816 -8.53265842057e-06 9.63986812955e-06)
(-0.000375536067869 -1.31676478988e-05 9.03574197666e-06)
(-0.000375633957058 -9.50021021873e-06 1.60697496855e-05)
(-0.000393418363505 -8.17430404195e-06 1.01991493827e-05)
(-0.000384004216949 -1.26723554529e-05 1.01629309162e-05)
(-0.000383999283422 -9.23267539211e-06 1.78043815453e-05)
(-0.000406683786527 -7.77008673207e-06 1.02835638643e-05)
(-0.000396056345513 -1.20340596205e-05 1.0572319598e-05)
(-0.000396239084296 -8.817570924e-06 1.86564045255e-05)
(-0.000420497841734 -7.57618021418e-06 9.81886584208e-06)
(-0.000409684095693 -1.16954001893e-05 1.03939033297e-05)
(-0.000410066305368 -8.85388738425e-06 1.85921928074e-05)
(-0.000431229090638 -7.49792282582e-06 8.50553690116e-06)
(-0.000421812538119 -1.17963782083e-05 9.68777982673e-06)
(-0.000422596776637 -8.89877929414e-06 1.71520212984e-05)
(-0.000435844945867 -7.333984417e-06 6.52142257561e-06)
(-0.000429454124981 -1.16894987359e-05 8.11388026235e-06)
(-0.000430642108983 -8.80782715592e-06 1.39877142492e-05)
(-0.000432756109398 -7.09561325324e-06 4.14547284674e-06)
(-0.000430159132994 -1.15587496081e-05 6.01054981035e-06)
(-0.000431617875068 -8.77540655587e-06 1.00048082005e-05)
(-0.000420575888573 -6.81897939841e-06 1.54178542397e-06)
(-0.000422604114117 -1.1347456203e-05 3.56856938234e-06)
(-0.000424224546952 -8.6736428551e-06 5.2478153283e-06)
(-0.000399089622034 -6.45729883247e-06 -9.64768660651e-07)
(-0.000405899809232 -1.10384033851e-05 1.10365123871e-06)
(-0.000407528236079 -8.50225881383e-06 2.85393087333e-07)
(-0.000368438087409 -6.08334407679e-06 -3.29833354861e-06)
(-0.000380012165578 -1.05230657146e-05 -1.25353626684e-06)
(-0.000381555509383 -8.35070873293e-06 -4.81336563808e-06)
(-0.000329618973988 -5.75358957767e-06 -5.47823246486e-06)
(-0.00034577037574 -1.00678250148e-05 -3.37007305439e-06)
(-0.000347168844485 -8.09226173404e-06 -9.35356784111e-06)
(-0.000283367432839 -5.48639621601e-06 -7.36469329821e-06)
(-0.000303598438087 -9.62450722106e-06 -5.43002396695e-06)
(-0.000304779833608 -7.88459910043e-06 -1.35143877047e-05)
(-0.000230890439591 -5.26157426449e-06 -9.05688614755e-06)
(-0.000255220775243 -9.32065456873e-06 -7.00505335325e-06)
(-0.000256154414135 -7.65222738007e-06 -1.69320243853e-05)
(-0.000172533553323 -5.08284389375e-06 -1.00910933162e-05)
(-0.000199822548339 -8.90563511658e-06 -8.75656458569e-06)
(-0.000200511766785 -7.40019484025e-06 -2.02877823799e-05)
(-0.000111864452571 -5.42376724491e-06 -9.92531558947e-06)
(-0.000140369073828 -8.7934073051e-06 -8.99208158633e-06)
(-0.000140744402341 -7.3110623419e-06 -2.15573265065e-05)
(-5.16138705663e-05 -7.49081872134e-06 -6.80082539857e-06)
(-8.22524437961e-05 -9.63524664767e-06 -8.2170332171e-06)
(-8.2044240138e-05 -7.98705997346e-06 -2.05089859358e-05)
(-2.23878438199e-05 -1.38257964737e-05 -4.59651431029e-06)
(-1.94360390897e-05 -1.11093677468e-05 -1.20016640553e-05)
(0.00200109354369 0.00139339928896 -0.0015261748844)
(0.000935826814312 0.00189782814701 -0.0013185301218)
(0.00112646936007 0.00147950981444 -0.00220064900884)
(0.00402851570934 0.00231433661609 -0.00191303229952)
(0.00356470999745 0.00267436568394 -0.00194422673148)
(0.00346888890207 0.00220045068042 -0.00283219035259)
(0.00423144097466 0.00381170866568 -0.0021157491803)
(0.0050956910048 0.00478937395528 -0.00214763427385)
(0.00473753359905 0.00386386728658 -0.0031399567134)
(0.00238098632327 0.00498835410668 -0.00222506356494)
(0.00400069102258 0.00691627624367 -0.00218772352604)
(0.00370313771571 0.00552563967155 -0.00325628960163)
(-0.000490862406848 0.00541361387761 -0.00223878587379)
(0.00118039301903 0.00803233018313 -0.00223302906901)
(0.00107397121063 0.00639944471019 -0.00332966928558)
(-0.00355149843752 0.00503967952055 -0.00211645611537)
(-0.00215941640286 0.00806328932389 -0.00217353835261)
(-0.00207167754586 0.00641839577977 -0.0032394431014)
(-0.00593074396008 0.00389988104446 -0.00188258154149)
(-0.005323551509 0.00697343982705 -0.00201337531952)
(-0.00503681254542 0.00555834522878 -0.00299089275981)
(-0.00673097002273 0.00234259030899 -0.00155551789154)
(-0.00715222241629 0.004878254659 -0.00181021659599)
(-0.00675710672211 0.00392069122263 -0.00264138578989)
(-0.00596935649923 0.00100352835634 -0.00116313910742)
(-0.00695911664499 0.00258595202321 -0.00150049069239)
(-0.00664588155982 0.00212771376046 -0.0021451787736)
(-0.00453803270914 0.000230563199291 -0.000782994351905)
(-0.00549453034706 0.00101654970759 -0.00109051046448)
(-0.005344853393 0.00087606986016 -0.00155205511544)
(-0.00317851335395 -9.00446385128e-05 -0.000487322899247)
(-0.00389521722998 0.0002331510525 -0.000699836960775)
(-0.00385786468075 0.00023909214164 -0.00100918997643)
(-0.00213069370327 -0.000177248475827 -0.000290663440442)
(-0.00260752163962 -7.92658459155e-05 -0.000421567686005)
(-0.00261984058725 -2.58625587831e-05 -0.000615995048619)
(-0.00140767739491 -0.00016963162343 -0.000165987972171)
(-0.00170257039578 -0.000161689469793 -0.000244836296131)
(-0.00172835768541 -0.000105193206731 -0.000360092731408)
(-0.000944827258243 -0.000134080063942 -8.91824208128e-05)
(-0.00111903284727 -0.000156432064216 -0.00013574896256)
(-0.00114299481048 -0.000109075597899 -0.000199019919494)
(-0.00066678943683 -9.82131218129e-05 -4.41297656606e-05)
(-0.000763722347748 -0.000124602839125 -7.08944246932e-05)
(-0.000781586069807 -8.9557030869e-05 -0.000103088915176)
(-0.000511431881297 -7.1048135385e-05 -1.79053128335e-05)
(-0.000560737000439 -9.31610604313e-05 -3.36925528969e-05)
(-0.000572703575449 -6.81677490947e-05 -4.64890639239e-05)
(-0.000432545716076 -5.28003544442e-05 -3.20299432825e-06)
(-0.000453387282059 -6.96668865002e-05 -1.26066847202e-05)
(-0.000461327124266 -5.17674585266e-05 -1.39424711644e-05)
(-0.000396537631264 -4.10151250428e-05 3.96690275992e-06)
(-0.000402405441049 -5.39404532336e-05 -1.56033209696e-06)
(-0.000407980790698 -4.04882840125e-05 2.86772546458e-06)
(-0.000381211236317 -3.33448149019e-05 6.60329074853e-06)
(-0.000380762123649 -4.38416394881e-05 3.24713359364e-06)
(-0.000384916849021 -3.29709039482e-05 1.02172935995e-05)
(-0.000373543393909 -2.82035356552e-05 7.14241497785e-06)
(-0.000371614889874 -3.69344233031e-05 4.66479785887e-06)
(-0.000374649692625 -2.79331976037e-05 1.16476859029e-05)
(-0.000368486540033 -2.45427225883e-05 7.19913593074e-06)
(-0.000366807868741 -3.21785979693e-05 4.82974325298e-06)
(-0.000368807830252 -2.44758242066e-05 1.12544683374e-05)
(-0.00036595203879 -2.18568961368e-05 7.66295524142e-06)
(-0.000364176044029 -2.8553401822e-05 5.1157497296e-06)
(-0.00036516865649 -2.18029268122e-05 1.11684677238e-05)
(-0.000367171849587 -1.98855031425e-05 8.45022900459e-06)
(-0.000364237890604 -2.60306872629e-05 6.03925782487e-06)
(-0.000364453190087 -1.98644791049e-05 1.21708275697e-05)
(-0.000372825430386 -1.86468347215e-05 9.55880476332e-06)
(-0.000368764671064 -2.41437895672e-05 6.88460458459e-06)
(-0.000368372476748 -1.84168685166e-05 1.37923621889e-05)
(-0.00038394685124 -1.78598164693e-05 1.05361011314e-05)
(-0.000377642761579 -2.31055550344e-05 8.37697915365e-06)
(-0.000376978612718 -1.77172170373e-05 1.59830224622e-05)
(-0.000397661201476 -1.726144334e-05 1.06826590634e-05)
(-0.000390016870384 -2.23258246396e-05 8.97547240658e-06)
(-0.000389465862752 -1.71124536587e-05 1.71379432783e-05)
(-0.000411303435654 -1.71973072381e-05 1.02628173144e-05)
(-0.000404109592525 -2.20315906761e-05 8.71891695106e-06)
(-0.000403623135034 -1.70736599225e-05 1.71464101487e-05)
(-0.000421850024505 -1.7196728117e-05 9.29612318791e-06)
(-0.000416502205388 -2.24957085712e-05 8.25997513609e-06)
(-0.000416276210212 -1.74042215241e-05 1.59619408964e-05)
(-0.000427444525756 -1.70270732717e-05 7.60300749708e-06)
(-0.000424307723569 -2.22856893319e-05 6.88771051658e-06)
(-0.00042443784036 -1.73506863533e-05 1.33830014723e-05)
(-0.000424787556736 -1.68311603441e-05 5.43364634595e-06)
(-0.000425265223573 -2.24287276808e-05 4.8707974659e-06)
(-0.000425601309508 -1.75079835082e-05 9.53125092401e-06)
(-0.00041313377723 -1.64534144572e-05 3.13043519709e-06)
(-0.000417934947726 -2.22195783458e-05 2.6110689837e-06)
(-0.00041839696138 -1.74250856503e-05 5.03501297756e-06)
(-0.000392188361914 -1.59071458683e-05 8.14883632526e-07)
(-0.000401531015207 -2.18558961446e-05 3.55563082517e-07)
(-0.000402019429647 -1.71968755032e-05 3.34229238132e-07)
(-0.000362302934848 -1.52719038515e-05 -1.32527577261e-06)
(-0.000376071339826 -2.12727267703e-05 -1.95303060729e-06)
(-0.00037649506115 -1.68839745189e-05 -4.20444501006e-06)
(-0.000324501039268 -1.46495737349e-05 -3.32186455648e-06)
(-0.000342409600844 -2.06430422017e-05 -3.85327738747e-06)
(-0.000342692459753 -1.64244753257e-05 -8.33839689211e-06)
(-0.000279256229677 -1.41232982586e-05 -5.070384022e-06)
(-0.000300954895679 -2.00297525861e-05 -5.80767922598e-06)
(-0.000301114908406 -1.59428810418e-05 -1.22312154662e-05)
(-0.000227764873972 -1.35961255245e-05 -6.7047317914e-06)
(-0.000253327798617 -1.95147785528e-05 -7.26734567918e-06)
(-0.000253287748632 -1.55568517553e-05 -1.55667269025e-05)
(-0.000170587062819 -1.32408401219e-05 -7.65755285584e-06)
(-0.000198773867773 -1.88899140951e-05 -8.96581393275e-06)
(-0.000198659075324 -1.49682815002e-05 -1.86206527977e-05)
(-0.000111102965212 -1.37042711266e-05 -7.28379921396e-06)
(-0.000140179363205 -1.87997734255e-05 -9.04917770015e-06)
(-0.00013967210076 -1.49457100744e-05 -1.97531366771e-05)
(-5.36764593663e-05 -1.69327111708e-05 -6.01272212882e-06)
(-8.37164074768e-05 -1.98392258696e-05 -8.39673154292e-06)
(-8.20458613003e-05 -1.58998570951e-05 -1.85298624991e-05)
(-2.47995857248e-05 -2.47615782353e-05 -8.35216530146e-06)
(-2.19010180849e-05 -2.04304435172e-05 -1.5924462901e-05)
(0.00237991752912 0.00310294261694 -0.00173658196888)
(0.00119405092114 0.00305588007822 -0.00137286819624)
(0.00134420124812 0.00270787787462 -0.00234801238157)
(0.00483974884738 0.00504379045944 -0.00217882870581)
(0.00448652527418 0.00456677295647 -0.00207466203737)
(0.00413945057462 0.00406287745343 -0.00312232099073)
(0.00505972647181 0.00773250236157 -0.00221960861959)
(0.0063170503824 0.00780188921152 -0.00196469493894)
(0.00556550122704 0.00675425292175 -0.00312249710494)
(0.00285993510698 0.0097504101141 -0.0021956890301)
(0.00490753541981 0.010899531866 -0.00166948610615)
(0.00431042478465 0.00933338027888 -0.00288334888665)
(-0.000465771950294 0.010453758822 -0.00216778154783)
(0.00150144407169 0.0124906162585 -0.00157511724241)
(0.00129229665218 0.0106648364443 -0.00279541949581)
(-0.00397933173833 0.00978792060927 -0.00207045755676)
(-0.00243767162086 0.0125183602046 -0.00151060585807)
(-0.00225026661231 0.0106810214193 -0.0026982787531)
(-0.00671493945117 0.0077933321224 -0.00194101037401)
(-0.00618236838342 0.0109303216393 -0.00147626465943)
(-0.00559360339279 0.00933802396646 -0.00258906955937)
(-0.00757643843851 0.0050245769755 -0.00175518939684)
(-0.0083453616686 0.00785557281333 -0.00156573746574)
(-0.00753037897996 0.00676156311473 -0.00254656643611)
(-0.00657276151319 0.00254968681259 -0.00142786204945)
(-0.00800503633949 0.00441960691803 -0.00154349779235)
(-0.00731942433285 0.00388285212365 -0.00233549794519)
(-0.00483670014464 0.000999454021474 -0.00100735307335)
(-0.00612627645071 0.00197584818363 -0.00124279219772)
(-0.0057464369945 0.00179294392233 -0.00182733943259)
(-0.00327813848402 0.000241114801955 -0.000634081747533)
(-0.00417819611988 0.000680635976537 -0.000828854079927)
(-0.00402590697878 0.000654870660361 -0.00122677988252)
(-0.00213527680674 -6.03356056277e-05 -0.000375740541694)
(-0.00269788913673 0.000103044112532 -0.000504003944676)
(-0.00266030082794 0.000129617674322 -0.000753757378944)
(-0.00137994651131 -0.000143783216224 -0.00021459728652)
(-0.00170808534792 -9.89448029096e-05 -0.000292010884353)
(-0.00171520091931 -6.44323847082e-05 -0.000440428154844)
(-0.000912035157674 -0.000142638421945 -0.00011746096644)
(-0.00109696571488 -0.00014360629619 -0.000164201606367)
(-0.00111503689019 -0.00011290203781 -0.000246801076375)
(-0.000639382121464 -0.00011640944284 -6.04572119295e-05)
(-0.00073777761325 -0.000130608120501 -8.78233857721e-05)
(-0.000754795140351 -0.000106473947916 -0.000130341463772)
(-0.000491404287794 -8.96380770176e-05 -2.83939247836e-05)
(-0.000539457473628 -0.000104054928589 -4.41645284616e-05)
(-0.000552104592213 -8.63551140238e-05 -6.31149748832e-05)
(-0.000418624451939 -6.93531366089e-05 -1.09640224889e-05)
(-0.000438101955398 -8.06891597485e-05 -2.01942771422e-05)
(-0.000446817952444 -6.77240053898e-05 -2.53864559304e-05)
(-0.000386745000301 -5.55427082312e-05 -2.28010126325e-06)
(-0.000391860211287 -6.38745589745e-05 -7.83577809255e-06)
(-0.000397877026751 -5.40904688807e-05 -6.02274140997e-06)
(-0.000373798445245 -4.62769318361e-05 1.30864070398e-06)
(-0.000373300226884 -5.24232868064e-05 -2.21768900049e-06)
(-0.000377567298328 -4.46518300722e-05 2.09327897636e-06)
(-0.000367666642875 -3.98728435674e-05 2.352126134e-06)
(-0.0003660262851 -4.45243694384e-05 -3.08530968856e-07)
(-0.000368981922672 -3.80641467775e-05 4.51104548041e-06)
(-0.000363678811334 -3.52560916655e-05 2.74635705184e-06)
(-0.000362361835434 -3.89087595443e-05 2.44683047466e-07)
(-0.000364095928738 -3.33585599659e-05 4.72497611531e-06)
(-0.000361584449352 -3.1895166561e-05 3.49205231305e-06)
(-0.0003605154035 -3.47283902634e-05 7.86593129625e-07)
(-0.000361079266177 -2.97836108812e-05 5.11749554184e-06)
(-0.000363514785947 -2.95041923193e-05 4.47363340487e-06)
(-0.0003611997438 -3.17588707112e-05 1.97048319563e-06)
(-0.000360877826662 -2.7235447082e-05 6.68315693287e-06)
(-0.000369682968462 -2.78689802027e-05 5.70277897492e-06)
(-0.000366211233426 -2.96170143463e-05 2.94614855186e-06)
(-0.000365234896558 -2.5420158588e-05 8.54675821916e-06)
(-0.000381146294808 -2.68953445444e-05 6.81635042878e-06)
(-0.000375533220173 -2.82378303593e-05 4.49939850847e-06)
(-0.000374251338844 -2.43565946646e-05 1.08530151101e-05)
(-0.000395113846347 -2.64455932781e-05 7.01173029421e-06)
(-0.000388294353645 -2.759416496e-05 5.15221923564e-06)
(-0.000387085426025 -2.38369867262e-05 1.22410683973e-05)
(-0.000408685950039 -2.66254482939e-05 6.71607477277e-06)
(-0.000402790956429 -2.74761059623e-05 4.85581719935e-06)
(-0.000401622635237 -2.38653007733e-05 1.2219616891e-05)
(-0.000420276560021 -2.68796242123e-05 5.85156246475e-06)
(-0.00041531529653 -2.79971298581e-05 4.54124079968e-06)
(-0.000414410115945 -2.44457549235e-05 1.12859880987e-05)
(-0.000425584062216 -2.69756343664e-05 4.1555004854e-06)
(-0.000423146345358 -2.81925092929e-05 3.06110348358e-06)
(-0.000422634819125 -2.46663615588e-05 8.55008052743e-06)
(-0.000422979255551 -2.70121391897e-05 2.04822010365e-06)
(-0.000424180403769 -2.84505107452e-05 1.00462258136e-06)
(-0.000423918344202 -2.51205553248e-05 4.7091022178e-06)
(-0.000411311065984 -2.68095705132e-05 -1.6380313087e-07)
(-0.000416848724363 -2.83142669157e-05 -1.28451768701e-06)
(-0.000416728852526 -2.5202889254e-05 2.50360874105e-07)
(-0.000390651301606 -2.64086240675e-05 -2.4123511573e-06)
(-0.000400494910319 -2.81609157895e-05 -3.43665511182e-06)
(-0.000400443243205 -2.51166647903e-05 -4.03542639992e-06)
(-0.000361051285612 -2.58077824882e-05 -4.48103222215e-06)
(-0.000375126597838 -2.7587968299e-05 -5.73089997195e-06)
(-0.000375070583759 -2.47698018288e-05 -8.49619497285e-06)
(-0.000323595520043 -2.51601229095e-05 -6.33909205696e-06)
(-0.000341678785212 -2.69277152089e-05 -7.55747305922e-06)
(-0.000341519473092 -2.42668309938e-05 -1.24559675036e-05)
(-0.00027884095426 -2.45408940821e-05 -8.00464088316e-06)
(-0.000300539847997 -2.62210242991e-05 -9.38751802156e-06)
(-0.000300338334484 -2.36937411992e-05 -1.62002105169e-05)
(-0.00022785522453 -2.39070489454e-05 -9.52842782053e-06)
(-0.000253221543777 -2.55877143179e-05 -1.08248803012e-05)
(-0.000252884431541 -2.31852705775e-05 -1.94352649734e-05)
(-0.000171347616312 -2.34995686881e-05 -1.03574387771e-05)
(-0.000199122012226 -2.48409149236e-05 -1.23248787957e-05)
(-0.000198814318713 -2.25412330483e-05 -2.23190058709e-05)
(-0.000113056651029 -2.39633556188e-05 -1.01621100291e-05)
(-0.000141030501176 -2.45958465268e-05 -1.23850009111e-05)
(-0.000140318032495 -2.25228175295e-05 -2.33671620155e-05)
(-5.57488601406e-05 -2.65558499198e-05 -1.07361747156e-05)
(-8.56827734989e-05 -2.55162179421e-05 -1.20047081383e-05)
(-8.37389322363e-05 -2.36344344771e-05 -2.29981112355e-05)
(-2.60702586718e-05 -2.83267894281e-05 -1.3628411201e-05)
(-2.37122147797e-05 -2.73690160599e-05 -2.43320294732e-05)
(0.00314679666566 0.00446756504809 -0.00171094826473)
(0.00166372558204 0.00389771357042 -0.00140280749863)
(0.0018056022108 0.0037038518273 -0.00241523203363)
(0.00622823642433 0.00723294293988 -0.00186052827049)
(0.0058665371005 0.00596719872459 -0.00192165075418)
(0.00530242333953 0.00555664187181 -0.00294114166373)
(0.00639867790439 0.0108089053244 -0.0014145724255)
(0.00803346287997 0.00993806477059 -0.0012194383165)
(0.00693458850219 0.00898707398583 -0.00222138665634)
(0.00361273490289 0.0134227950234 -0.00104891431846)
(0.00615775250384 0.0135992245045 -0.000373652981769)
(0.0052911606932 0.0121755093894 -0.00130670642762)
(-0.000447617194081 0.014318143671 -0.000917941552649)
(0.00193398099009 0.0154505267039 -4.79055819378e-05)
(0.00163045230969 0.013793057209 -0.000929716631403)
(-0.00469406774296 0.0134440803539 -0.000916412960739)
(-0.00284148578792 0.0154763746689 1.72869899422e-05)
(-0.00255996055126 0.0138055157455 -0.000834771516937)
(-0.00801226614813 0.010831771075 -0.00110099175116)
(-0.00739568926165 0.0135958945613 -0.00017622973198)
(-0.00652969483765 0.0121439886191 -0.00100645991336)
(-0.00900705627386 0.00716058487789 -0.00135404586126)
(-0.0100291566684 0.00993684989651 -0.000766092148753)
(-0.00883428065723 0.00892598159828 -0.0015838753396)
(-0.00765320389919 0.00381151719295 -0.00135842794063)
(-0.00952268498506 0.0057614191382 -0.00127259734625)
(-0.00849974259645 0.0052615546237 -0.00201874010044)
(-0.00543454249692 0.00165255114177 -0.0010642932043)
(-0.00708920628483 0.00272019211774 -0.0012457768344)
(-0.00650098659324 0.00253744558416 -0.00185368359831)
(-0.00354041652959 0.000547822589209 -0.00069877627707)
(-0.00465468946712 0.00106032842474 -0.000886571386653)
(-0.00439718607277 0.00101523919515 -0.00132676941609)
(-0.00222042453887 6.99798010134e-05 -0.000420274287335)
(-0.00289024782606 0.000279766643217 -0.000552780893783)
(-0.0028052019005 0.000283664456927 -0.000836735525527)
(-0.00138919546887 -9.40282542862e-05 -0.000241615204201)
(-0.00176301147114 -2.16234264002e-05 -0.000322230041466)
(-0.00175045803 -6.98406355253e-06 -0.00049295470119)
(-0.000896417130441 -0.000127622892704 -0.000134564025699)
(-0.00109834963188 -0.000110937891937 -0.000181747198589)
(-0.00110823862644 -9.66853438781e-05 -0.00027907739173)
(-0.000619825248434 -0.000115426234484 -7.15307023041e-05)
(-0.00072303319412 -0.000118372000542 -9.94197221338e-05)
(-0.000736877886213 -0.000106367711428 -0.000150552167798)
(-0.000475400021159 -9.32120029917e-05 -3.59648808202e-05)
(-0.000523471732684 -0.000100566599576 -5.14005263515e-05)
(-0.000535167749613 -9.11447022407e-05 -7.57205395277e-05)
(-0.000407197721363 -7.39099649432e-05 -1.70660327458e-05)
(-0.000425621073042 -8.02896238543e-05 -2.55048754212e-05)
(-0.000434124875234 -7.32692483201e-05 -3.45190597253e-05)
(-0.00037891148434 -5.98696213391e-05 -7.77336582979e-06)
(-0.000383094305525 -6.4485113405e-05 -1.24133450613e-05)
(-0.000389067812332 -5.91211328296e-05 -1.35491657513e-05)
(-0.000368326892983 -5.00318331721e-05 -3.83486067333e-06)
(-0.000367200278515 -5.32269662517e-05 -6.49456522436e-06)
(-0.000371405736311 -4.89645668109e-05 -4.50307284172e-06)
(-0.000363642349176 -4.30372714229e-05 -2.41597405539e-06)
(-0.000361642448708 -4.51465837813e-05 -4.27118830545e-06)
(-0.000364452583782 -4.16115488058e-05 -1.7322932896e-06)
(-0.000360622905792 -3.79319811961e-05 -1.71508087475e-06)
(-0.000359079281096 -3.92371119513e-05 -3.42268680276e-06)
(-0.000360599246645 -3.61565991327e-05 -1.1918047915e-06)
(-0.000359271610055 -3.41817828191e-05 -7.34975987793e-07)
(-0.000357997771372 -3.48235617347e-05 -2.67892583014e-06)
(-0.000358318328522 -3.20510245285e-05 -5.89996607649e-07)
(-0.000361671014317 -3.15464337374e-05 4.42998342613e-07)
(-0.000359306071751 -3.1582010927e-05 -1.35010909669e-06)
(-0.00035870237559 -2.90652372842e-05 1.01330760823e-06)
(-0.00036843168737 -2.97678301152e-05 1.74276808541e-06)
(-0.000364794320058 -2.95185169593e-05 -1.38417783192e-07)
(-0.000363546968158 -2.70285441854e-05 3.27179976131e-06)
(-0.00038017956846 -2.87682804626e-05 2.83526731533e-06)
(-0.000374553110619 -2.80607331786e-05 1.37007527509e-06)
(-0.000373015624073 -2.5782889368e-05 5.68634765209e-06)
(-0.000394451372648 -2.84671328098e-05 2.99630614078e-06)
(-0.000387714881252 -2.75517033274e-05 2.00481280279e-06)
(-0.000386228622947 -2.53348572127e-05 7.08278552532e-06)
(-0.000408312633744 -2.87404842668e-05 2.68098322626e-06)
(-0.000402524122958 -2.7577523339e-05 1.66757171004e-06)
(-0.000401086353901 -2.54483144087e-05 7.02148656126e-06)
(-0.000419924934096 -2.91909453286e-05 1.75078181851e-06)
(-0.000415167240051 -2.81936630171e-05 1.31523541943e-06)
(-0.000414019747468 -2.61028589274e-05 5.99234419365e-06)
(-0.000425194161812 -2.95260408416e-05 -8.97744204553e-08)
(-0.000422975453622 -2.8591202633e-05 -3.88537547188e-07)
(-0.000422268645392 -2.66745967331e-05 3.02324050932e-06)
(-0.00042249989558 -2.9704187178e-05 -2.3281152093e-06)
(-0.000423960560945 -2.90080107051e-05 -2.58105455368e-06)
(-0.000423522440023 -2.72524650138e-05 -7.99444674613e-07)
(-0.000410701871981 -2.96419126544e-05 -4.55736966796e-06)
(-0.000416545639704 -2.91245800611e-05 -4.95646422121e-06)
(-0.000416240962756 -2.74656152392e-05 -5.09841684108e-06)
(-0.000390117271435 -2.93113791351e-05 -6.75520392647e-06)
(-0.000400111495372 -2.90090939507e-05 -7.0607425138e-06)
(-0.000399890522712 -2.74396283103e-05 -9.45413967239e-06)
(-0.000360592349184 -2.87207195657e-05 -8.80734080902e-06)
(-0.000374693037614 -2.85079559722e-05 -9.34621634366e-06)
(-0.000374505431813 -2.70615551091e-05 -1.38533562134e-05)
(-0.000323268953597 -2.80306478467e-05 -1.06058990238e-05)
(-0.000341299990871 -2.78708268171e-05 -1.11471546915e-05)
(-0.000341038626745 -2.6530548615e-05 -1.77308201828e-05)
(-0.000278726846294 -2.73327516763e-05 -1.22077574397e-05)
(-0.000300300474996 -2.71338515419e-05 -1.29005544385e-05)
(-0.000300044242028 -2.58849353432e-05 -2.13719138775e-05)
(-0.000227968409678 -2.66042997799e-05 -1.36213312764e-05)
(-0.00025310169025 -2.6462636588e-05 -1.43085236781e-05)
(-0.000252754445585 -2.5301293796e-05 -2.45190967143e-05)
(-0.000171824811355 -2.60610711568e-05 -1.43524409298e-05)
(-0.000199229608124 -2.56686472947e-05 -1.56550677375e-05)
(-0.000198979278694 -2.46130479512e-05 -2.72596991253e-05)
(-0.000113770356815 -2.62583126922e-05 -1.42275990203e-05)
(-0.000141427491044 -2.53375427646e-05 -1.56555683278e-05)
(-0.000140812080831 -2.44893307531e-05 -2.83027626987e-05)
(-5.67639066547e-05 -2.73263380706e-05 -1.48969446238e-05)
(-8.64725234411e-05 -2.58305674017e-05 -1.52759464746e-05)
(-8.47426273059e-05 -2.54131314929e-05 -2.82097827537e-05)
(-2.64420756972e-05 -2.64632093138e-05 -1.63903033825e-05)
(-2.45415596212e-05 -2.73204399945e-05 -3.02683165253e-05)
(0.00420161313483 0.00531023337297 -0.00161350998808)
(0.00226520144044 0.00428673457021 -0.00144823915238)
(0.00243246788849 0.00431641487663 -0.00248982593477)
(0.0080151766755 0.00853109321592 -0.00128056080019)
(0.00750786956079 0.0065972593344 -0.001657908975)
(0.00679823930376 0.00643878173306 -0.00253683602102)
(0.00807121354303 0.0125219429792 -0.000178518872766)
(0.0100044071792 0.0107803353995 -0.00024377283475)
(0.00864541130129 0.0101888281051 -0.000870276266372)
(0.00454213293389 0.0153760073515 0.00062735575475)
(0.00756994665532 0.0144910833186 0.00121757949598)
(0.00650020733332 0.0135825030295 0.000872700538507)
(-0.000436055064993 0.0163427978949 0.000887322960653)
(0.00241358230476 0.0163418403922 0.0017853349782)
(0.00204106975356 0.015278272415 0.00159780363013)
(-0.00560010275918 0.0153775760648 0.000757470218702)
(-0.00330451571205 0.0163657563915 0.00184943479321)
(-0.0029550869934 0.0152876358225 0.00169266613866)
(-0.00964627124379 0.0124971545609 0.000158669870429)
(-0.00878182365924 0.0144591283526 0.0014057223397)
(-0.00770588860572 0.0135131632937 0.00115987052851)
(-0.0108326016458 0.0084004135314 -0.000684643633744)
(-0.0119623974252 0.0107259490159 0.000248985818525)
(-0.0104769335622 0.0100545543537 -0.000195922117535)
(-0.0090732974484 0.0045951104291 -0.00115994624002)
(-0.0113041229039 0.00634781070546 -0.000881303397961)
(-0.0100195700197 0.00604185800436 -0.00146604210249)
(-0.00625816893653 0.00209452142331 -0.00106805501675)
(-0.00825228331192 0.00309517503703 -0.0012008708876)
(-0.00750649492064 0.00299723462179 -0.00178255476696)
(-0.00393150975989 0.00078031915884 -0.000740576003366)
(-0.00525792863879 0.00128338491789 -0.000923238568949)
(-0.00492152230045 0.00126379028303 -0.00138640006275)
(-0.00237304375935 0.000185683171723 -0.000454736647915)
(-0.00315470312402 0.000403438641712 -0.000592067056775)