/*--------------------------------*- C++ -*----------------------------------*\
| =========                 |                                                 |
| \\      /  F ield         | OpenFOAM: The Open Source CFD Toolbox           |
|  \\    /   O peration     | Version:  3.0.1                                 |
|   \\  /    A nd           | Web:      www.OpenFOAM.org                      |
|    \\/     M anipulation  |                                                 |
\*---------------------------------------------------------------------------*/
FoamFile
{
    version     2.0;
    format      ascii;
    class       volScalarField;
    location    "3.1";
    object      epsilon_0;
}
// * * * * * * * * * * * * * * * * * * * * * * * * * * * * * * * * * * * * * //

dimensions      [0 2 -3 0 0 0 0];

internalField   nonuniform List<scalar> 
7968
(
0.000778869227524
0.000898109419315
0.000992252454414
0.00104967507702
0.00108097382411
0.0010953862775
0.0010997584095
0.00109893254637
0.00109626905363
0.00109392126413
0.00109405286855
0.00109657149724
0.00109934537358
0.0011002611242
0.00109596086494
0.00108159729125
0.00105028888204
0.000992774316918
0.000898461010978
0.000778999478896
0.000898146609365
0.00147016280681
0.00189218430862
0.00215179994978
0.00229534299697
0.00236107832982
0.00238103564313
0.0023791372543
0.00237173107037
0.00236671498399
0.00236677425993
0.00237191591829
0.00237952070946
0.00238170524541
0.00236206672748
0.0022966314348
0.00215319525183
0.00189347597394
0.00147103858306
0.000898417746445
0.000992435751645
0.00189244509145
0.00257135909486
0.00299777664215
0.00323876742334
0.00335269356732
0.00339000990311
0.00339096456811
0.00338234086711
0.0033762823752
0.00337616615921
0.0033820746954
0.00339080218217
0.00339023222555
0.00335342600538
0.0032399182234
0.00299917046914
0.00257271458274
0.00189336342002
0.000992733237692
0.00104991683473
0.00215227504664
0.00299793843101
0.00353040349265
0.00382680550302
0.00395974908195
0.00399714788642
0.00399167827084
0.00397786677539
0.00396953208378
0.00396914450764
0.00397688406853
0.00399062370486
0.00399661588825
0.00395992419983
0.00382751591136
0.00353143224097
0.00299902869889
0.00215300367611
0.00105014829718
0.001081257699
0.00229569933325
0.00323887187876
0.00382661751038
0.00413915590775
0.00426590459796
0.00432774874021
0.00434973594432
0.00434907259782
0.00434481777877
0.00434452382766
0.0043483395923
0.00434899078436
0.00432740305749
0.00426589065539
0.00413975684559
0.00382745334328
0.00323969759241
0.00229620481464
0.00108138770406
0.00109566598135
0.00236133430265
0.00335247338682
0.00395902969621
0.00426521656168
0.00444949531938
0.00453717213796
0.004560480811
0.00455753940208
0.00455151339748
0.00455111603291
0.00455654586304
0.00455948506897
0.00453675253616
0.00444973046005
0.00426622872784
0.00396015232733
0.00335335133102
0.00236184944045
0.00109573932049
0.00109999244141
0.00238099265882
0.00338920160761
0.00399551582417
0.00432692530293
0.00453666140206
0.00462340313349
0.00463841790583
0.00462785868773
0.00461763082135
0.00461710149949
0.00462655578214
0.00463713791397
0.00462293939312
0.00453706881928
0.00432784028466
0.00399733566761
0.00339044577916
0.00238160337552
0.00110006182804
0.0010990813689
0.00237871095073
0.00338953501744
0.00398918636286
0.00434839577071
0.00455944470125
0.00463787344617
0.00464127087452
0.00462078141142
0.00460479256383
0.00460415976033
0.00461926634559
0.00463977495498
0.00463735756758
0.00456001664892
0.00434962304291
0.00399169333575
0.0033912476139
0.00237956054457
0.00109918850213
0.00109629908858
0.00237094132929
0.00338045279896
0.00397494583006
0.00434743392572
0.00455628379062
0.00462712151293
0.0046205310972
0.00459004334138
0.00456748830136
0.00456678277828
0.00458843993245
0.00461889290017
0.00462646626421
0.00455686273652
0.00434883365513
0.00397780542913
0.00338250886304
0.00237201382689
0.00109645438753
0.00109378020804
0.00236562645738
0.00337413184298
0.00396651826626
0.00434313053612
0.00455032809209
0.00461701139945
0.0046045350126
0.00456729540647
0.00453945648533
0.00453875877879
0.00456563168452
0.00460275812983
0.00461615922866
0.00455078567473
0.00434452606184
0.00396945782023
0.00337631827983
0.00236679816282
0.00109395381478
0.00109369639171
0.00236547252519
0.0033738982867
0.00396620034778
0.00434285748701
0.004550026776
0.00461665320933
0.00460408354037
0.00456671592374
0.00453875301782
0.00453803973057
0.00456501803508
0.00460227046554
0.00461576899137
0.00455045379993
0.00434421268244
0.00396905877806
0.00337599313424
0.00236656999904
0.00109383286161
0.00109612161769
0.00237050546013
0.00337977793679
0.00397402948304
0.00434665868694
0.00455543987128
0.00462614199449
0.00461933573241
0.00458859148974
0.00456583269695
0.00456507905912
0.00458689639374
0.00461761069209
0.00462540197748
0.00455592994358
0.00434793813168
0.00397664550381
0.00338158347159
0.002371380391
0.00109619504038
0.00109886988561
0.00237805720934
0.00338848547997
0.00398771824468
0.00434718882789
0.00455814334416
0.00463639245187
0.00463952497507
0.00461877654555
0.00460261703229
0.00460194452949
0.0046171883372
0.00463795013629
0.00463576905338
0.0045585786492
0.00434822515065
0.00398985327773
0.0033898301213
0.00237862355767
0.00109887490393
0.00109979219281
0.00238025015571
0.00338795061267
0.00399369027741
0.00432537260517
0.00453502648897
0.00462156260227
0.00463631831312
0.00462552927126
0.00461516995931
0.00461461395596
0.00462417358791
0.00463496264295
0.0046209656326
0.00453523737733
0.00432601511773
0.00399503840997
0.00338874473719
0.00238052053777
0.00109975263002
0.00109551516016
0.00236068322811
0.00335127158059
0.00395715704624
0.00426275814685
0.00444756181152
0.00453515087415
0.00455822445297
0.0045550845914
0.00454894146066
0.00454851692378
0.00455402353666
0.00455711676571
0.00453454851414
0.00444751099498
0.00426328043616
0.00395773221771
0.00335164307773
0.0023607998475
0.00109548344031
0.0010811821114
0.0022952137432
0.00323795202104
0.00382505241935
0.00413681929844
0.00426306699955
0.00432560624642
0.00434738297432
0.0043465155918
0.00434212949047
0.0043417977586
0.00434567460874
0.00434645571861
0.00432498275331
0.00426250818486
0.00413684588916
0.00382530859126
0.00323827213245
0.00229538209475
0.00108122046787
0.00104992894158
0.00215207708565
0.00299746973844
0.00352941831371
0.00382511115976
0.00395737111041
0.00399417161957
0.00398822303028
0.00397410546888
0.00396555258028
0.0039650928525
0.00397290131491
0.00398680560092
0.00399315451125
0.00395699158228
0.00382525095125
0.00352988843163
0.00299808311076
0.00215249163277
0.00105007463791
0.000992497310443
0.00189252918477
0.00257134186485
0.00299742318819
0.00323790087071
0.00335127996017
0.00338809533143
0.00338865294579
0.00337974346335
0.003373499692
0.00337330639644
0.00337925339924
0.00338813068625
0.00338786047374
0.00335149923845
0.00323852895376
0.00299832641093
0.00257230577708
0.00189317985653
0.000992730279863
0.000898242064102
0.00147039063517
0.00189242800976
0.00215187705292
0.00229511663246
0.00236050888345
0.00238015167115
0.00237798639106
0.0023703742324
0.00236521951604
0.00236522150532
0.00237039611676
0.00237811330552
0.00238050177018
0.00236114685382
0.00229602437592
0.00215295251667
0.00189345037672
0.00147106823461
0.00089846486539
0.000778906245499
0.000898210179063
0.000992381579255
0.00104978561153
0.00108102079274
0.00109534817644
0.00109963384992
0.00109872458865
0.00109598665047
0.00109357235869
0.00109367338507
0.00109621855682
0.00109904278959
0.00110002945611
0.00109581599722
0.00108154318517
0.0010503131451
0.000992835438801
0.000898510111955
0.000779011762587
0.000886447545998
0.0013996348964
0.00179337459259
0.00204499458494
0.00219238851329
0.00226859260623
0.00230009898105
0.00230752384233
0.00230554272768
0.00230268677284
0.00230276016355
0.00230574798323
0.00230786180414
0.00230056596744
0.00226915881897
0.00219299426211
0.00204554417268
0.00179376944965
0.00139984668723
0.000886654965259
0.00139963747531
0.001686125873
0.00202949409928
0.0022677231021
0.00241373845505
0.00249288007724
0.00252889692336
0.00254091129373
0.00254258494304
0.00254176932159
0.00254179674034
0.0025426679833
0.00254106514415
0.00252912870287
0.00249317062933
0.0024140497898
0.00226800278188
0.00202970654479
0.00168626312343
0.00139973377827
0.00179357036115
0.00202956713458
0.00240655820667
0.00268070238145
0.00285350106599
0.00294903833075
0.00299335307143
0.00300867907784
0.00301126268066
0.00301052625407
0.00301049116188
0.00301117902997
0.00300860309908
0.00299333513689
0.00294907673552
0.00285355317369
0.00268073430202
0.00240657234356
0.00202958956535
0.00179355929424
0.00204536786339
0.00226786883328
0.00268076320611
0.00298853347405
0.00318591019243
0.00329690594699
0.0033502402071
0.00337001884507
0.0033744641273
0.00337429363594
0.00337421163684
0.00337425846156
0.00336978047655
0.00335005853609
0.00329678926418
0.00318580288348
0.002988402157
0.00268063315172
0.00226778537091
0.00204520115067
0.00219286899662
0.00241389911095
0.0028535607495
0.00318589495918
0.00340151063073
0.00352669865864
0.00359614954919
0.0036279874042
0.00363862429341
0.00364074522313
0.00364070297763
0.00363852804956
0.00362788844119
0.00359607500647
0.00352661543036
0.00340141394327
0.00318574855687
0.0028533896622
0.00241375826976
0.00219254514965
0.00226905388956
0.00249297984641
0.00294900569249
0.00329677252189
0.00352660630218
0.00367507701064
0.00375945676318
0.00379883377826
0.00381267912948
0.00381579932651
0.00381577455598
0.00381264268334
0.00379882115677
0.00375946215904
0.00367508807484
0.00352664022913
0.0032967707582
0.00294892968654
0.00249288257644
0.00226867529047
0.0023004163514
0.00252885486619
0.0029931399399
0.00334990210989
0.00359600449473
0.00375940683763
0.00385209049915
0.0038947681816
0.00390926626274
0.00391219887007
0.00391218117124
0.00390927106439
0.00389482619789
0.00385214721235
0.00375947516582
0.00359611389782
0.00335013053957
0.00299325824818
0.00252889198188
0.00230011699572
0.00230761458897
0.00254068170318
0.00300825990037
0.0033694727332
0.00362773349217
0.00379872030812
0.00389472372212
0.00393758873624
0.00395086215569
0.00395264221615
0.00395261751275
0.00395085719479
0.00393766937517
0.0038948105764
0.00379883084192
0.00362794454969
0.00336991173633
0.00300858494829
0.00254089396658
0.00230747576086
0.00230536713994
0.00254216745582
0.00301067407543
0.00337377999606
0.00363827250566
0.00381248553547
0.00390913398827
0.00395076426772
0.00396183171665
0.00396185322284
0.0039618203489
0.00396176651913
0.00395080118071
0.003909204847
0.00381260582553
0.00363854101186
0.00337433911842
0.00301114427946
0.00254252698697
0.00230538959505
0.00230224729831
0.00254119320082
0.0030098213079
0.00337353780224
0.00364032162371
0.00381553202057
0.00391198290381
0.00395245617675
0.00396178531312
0.00396039186953
0.00396031989114
0.00396166934795
0.00395243444848
0.00391201586823
0.00381563921902
0.00364060229618
0.00337413297721
0.0030103507073
0.00254162012346
0.00230235014835
0.00230211477519
0.00254111119386
0.00300972008953
0.00337342404024
0.0036402251051
0.00381544431116
0.00391189779944
0.00395237028608
0.00396169401631
0.00396029830241
0.00396021697083
0.00396156970534
0.00395234612619
0.00391192785194
0.00381554488828
0.00364049366638
0.00337399466662
0.00301021876931
0.00254150210864
0.00230216833334
0.00230500138975
0.00254193236798
0.00301038142536
0.00337344798415
0.00363799733426
0.00381224137975
0.00390890376262
0.00395053316731
0.00396158249966
0.00396158950515
0.00396155491953
0.00396151858089
0.00395056281094
0.00390895864882
0.00381233787666
0.00363822809192
0.00337393791165
0.00301076589331
0.00254219548454
0.00230489653458
0.0023070853973
0.00254032474848
0.00300780358654
0.00336894675081
0.00362730479625
0.00379834885683
0.00389437801151
0.00393724762519
0.00395050857875
0.00395226420017
0.00395223931303
0.00395049778043
0.00393730972323
0.0038944354853
0.00379841503559
0.00362745017752
0.00336927342273
0.00300799810046
0.00254039783057
0.00230677132253
0.00229982761698
0.00252843535039
0.00299257776294
0.00334923078097
0.00359544146496
0.00375892631581
0.00385165679096
0.00389434492177
0.00390883379649
0.00391174807621
0.00391172807353
0.00390882598041
0.00389437511681
0.00385166957309
0.00375892651997
0.00359545192743
0.00334930754741
0.00299252900137
0.00252830313361
0.00229932599896
0.00226851343993
0.00249257045896
0.00294841569386
0.00329602848324
0.00352585394579
0.0036744572191
0.00375890785939
0.00379829956032
0.0038121360016
0.00381524235252
0.00381521268343
0.00381208189737
0.00379825007504
0.00375884905613
0.00367436695298
0.00352573764857
0.00329583804409
0.002948142685
0.00249228319213
0.00226792278593
0.00219246850327
0.00241355942221
0.00285301956534
0.00318516531697
0.0034006520626
0.0035258575407
0.00359541986569
0.00362725565399
0.00363787173124
0.00363997132139
0.00363991854707
0.00363774238861
0.00362709688635
0.00359524828488
0.00352562137311
0.00340035997585
0.00318480231453
0.00285263371041
0.00241322208815
0.0021919333319
0.00204515607271
0.00226764329644
0.00268033684393
0.00298791360469
0.00318511716417
0.0032959808354
0.00334921069262
0.00336890808988
0.00337329641541
0.00337309003012
0.00337299450178
0.00337302824588
0.00336856600844
0.00334887740717
0.00329567396044
0.00318479248599
0.00298755253683
0.0026799846283
0.0022673609086
0.00204478276022
0.00179352426835
0.0020294558852
0.00240627465615
0.00268024882545
0.00285287880708
0.00294825988345
0.00299243703268
0.00300765158903
0.00301015220144
0.0030093573358
0.00300929604733
0.00300999091033
0.00300744911748
0.00299225004396
0.00294809805564
0.00285271146488
0.00268005638074
0.00240607510012
0.00202928730254
0.00179333053576
0.00139970573509
0.0016860917473
0.00202933715213
0.00226743850254
0.00241330838065
0.00249229909487
0.00252817636814
0.00254007159894
0.00254165031731
0.00254076889372
0.00254076756987
0.00254165063902
0.00254009336196
0.00252824020466
0.00249239948575
0.00241341777264
0.00226751796922
0.00202935880287
0.00168605626154
0.00139966087151
0.000886501926825
0.00139960351385
0.00179329164338
0.00204482570694
0.00219207036652
0.00226808596805
0.00229940113525
0.00230665096995
0.0023045220748
0.00230155985647
0.00230159336609
0.00230461681903
0.00230681997666
0.0022996639502
0.00226843387696
0.0021924575031
0.0020451687593
0.00179350180784
0.00139967439526
0.000886686107955
0.000969511114177
0.00175950751248
0.00238396262421
0.00279572232097
0.00304648533098
0.00318400660955
0.00324801866719
0.00327045710643
0.00327445155763
0.00327354272978
0.00327351562322
0.00327438408574
0.00327040321144
0.00324801262156
0.003184035947
0.00304650165478
0.00279565677084
0.0023837763852
0.00175932240808
0.000969785690024
0.00175950543884
0.00200710233432
0.00239180521103
0.00267579830223
0.00286067474944
0.00296921477565
0.00302547143378
0.00305014516895
0.00305876342603
0.0030609066115
0.00306092244586
0.0030588099267
0.0030502231732
0.00302556153985
0.00296927786344
0.00286066897195
0.002675700107
0.00239163173915
0.00200689939912
0.00175915017435
0.002384188916
0.00239182714691
0.00272539644057
0.00299411909818
0.00317632920561
0.00328624498658
0.00334462948551
0.00337106715079
0.00338079870081
0.00338337635164
0.00338334638352
0.00338071887094
0.00337095493625
0.00334448646845
0.00328604550359
0.00317603552758
0.00299373353579
0.00272498893471
0.00239147691962
0.00238341289766
0.00279621284073
0.00267586941173
0.0029941449922
0.00326558668139
0.00345516537605
0.00357251660723
0.00363666653246
0.00366696494207
0.00367939807366
0.00368308697491
0.00368304855046
0.00367929616595
0.00366680760766
0.00363643131075
0.00357221855761
0.00345475276375
0.00326506181077
0.00299360314671
0.00267541222922
0.00279508044081
0.00304714273539
0.00286077042235
0.00317635308894
0.00345515378323
0.00365445677945
0.00378202426291
0.00385495816424
0.00389100091175
0.00390565783216
0.00391005943197
0.0039100075528
0.00390552781264
0.0038907886397
0.0038547279136
0.00378181195346
0.00365411573882
0.00345466445245
0.00317580945754
0.00286027598816
0.00304572534797
0.00318464662345
0.00296926204066
0.00328620324438
0.0035724254303
0.00378195386048
0.00391984710302
0.00400057318468
0.00404110669331
0.00405760212787
0.00406251084761
0.0040624444723
0.0040574283374
0.00404072658395
0.00400007111782
0.00391955563638
0.00378179530774
0.00357211147578
0.00328578501212
0.00296883456344
0.00318313281
0.00324844684759
0.00302538510279
0.00334445503052
0.0036364435866
0.00385481227575
0.0040006519932
0.00408674317967
0.00412963531433
0.00414659638644
0.0041513511394
0.00415125742633
0.00414632915522
0.00412897186471
0.00408569223809
0.0039999626761
0.00385471434814
0.00363634912634
0.0033442402575
0.00302512677234
0.00324706800063
0.00327055458032
0.00304987295282
0.00337074262644
0.00366667406192
0.00389086693329
0.00404146980855
0.00413006321793
0.00417317289165
0.00418919098667
0.00419304701007
0.00419292092831
0.0041887921064
0.00417224001437
0.00412859559438
0.00404034003541
0.00389069945335
0.00366670984831
0.00337072069322
0.00304982496525
0.00326945159274
0.00327419046558
0.00305829735879
0.00338034349117
0.0036790443269
0.00390555341395
0.00405815292466
0.00414732222227
0.00418954416319
0.00420397531702
0.00420663336316
0.00420649638227
0.00420347964565
0.0041884510548
0.00414564493873
0.00405681365002
0.00390532210202
0.00367914136061
0.00338045015286
0.00305842522575
0.00327336452754
0.00327297638215
0.00306027623677
0.00338282417495
0.00368267656155
0.00390994624048
0.00406310872361
0.00415218298698
0.00419355677721
0.00420682934833
0.00420859694803
0.00420842102395
0.00420627979792
0.00419237980723
0.00415041295046
0.00406169971527
0.00390969039608
0.00368279440597
0.00338298289453
0.00306048643926
0.00327229418741
0.0032727710123
0.00306019125587
0.00338274120688
0.00368260250872
0.00390988466302
0.00406306473814
0.00415216140691
0.0041935542054
0.00420683994436
0.00420861979777
0.0042084350775
0.00420628348422
0.00419237819171
0.00415039506097
0.00406165609022
0.00390962062398
0.00368270684942
0.00338287435084
0.00306036310453
0.00327202458214
0.00327359322117
0.00305804651433
0.00338009782935
0.00367882675618
0.00390537180097
0.00405803167802
0.00414726890885
0.00418954117992
0.00420399874805
0.00420667216077
0.0042065340295
0.00420350707511
0.00418844961787
0.00414558758415
0.00405668036472
0.00390511222257
0.0036788796738
0.00338013363812
0.00305807355443
0.00327260218702
0.00326963917004
0.00304948287249
0.00337034812589
0.00366631177845
0.00389056808388
0.00404128129712
0.00412998720178
0.00417318494109
0.00418924499199
0.00419311037082
0.00419298578297
0.00418884682985
0.00417224824853
0.00412850494518
0.00404011808132
0.00389034709533
0.00366627041055
0.00337021795589
0.00304929130346
0.00326830730945
0.00324735757015
0.00302490973999
0.00334394076339
0.00363591354123
0.00385437710396
0.00400035982399
0.00408660625027
0.00412960803005
0.00414662334616
0.00415138605687
0.00415129405363
0.00414634961709
0.00412892852856
0.00408552536411
0.00399961437042
0.00385419715448
0.00363570575919
0.0033435855493
0.00302447708344
0.0032457069274
0.00318355941329
0.00296876889335
0.0032856186874
0.00357177887113
0.00378135732377
0.00391936570717
0.00400022882859
0.00404087002326
0.0040574130037
0.00406233030727
0.00406226204469
0.004057226063
0.00404045923548
0.0039996727215
0.00391899155995
0.00378108480961
0.00357131891249
0.0032850303611
0.00296814379179
0.00318174400749
0.00304621635479
0.00286031928921
0.00317575090257
0.00345443511496
0.00365369983266
0.00378132267969
0.00385431987585
0.003890417248
0.00390509975264
0.00390950049614
0.00390944082581
0.00390494463895
0.00389015882986
0.00385400955147
0.00378099434808
0.00365320839876
0.00345376851997
0.00317501250653
0.00285961191577
0.00304448141587
0.00279554967458
0.00267550043465
0.00299357905955
0.00326486172576
0.00345434074847
0.0035716408247
0.00363576901465
0.00366613447603
0.00367858174057
0.00368224787963
0.00368219099255
0.00367844199461
0.003665915878
0.00363541924263
0.00357119067644
0.00345374627553
0.00326413421204
0.00299282464281
0.00267482262994
0.00279409739927
0.00238381053496
0.0023915469654
0.00272490685398
0.00299345460233
0.00317552901454
0.0032853392297
0.00334363989418
0.00337001796832
0.00337969902107
0.0033822343011
0.00338218178231
0.00337955325367
0.00336979750351
0.00334334631247
0.00328495732849
0.00317503069258
0.00299285232128
0.00272428115728
0.00239098052906
0.00238274175017
0.0017593906902
0.0020068821629
0.00239139667955
0.00267522672343
0.00285994802541
0.00296833826935
0.00302445819272
0.00304901570765
0.00305753744962
0.00305961187754
0.00305959664682
0.00305749400293
0.00304894791458
0.0030243624587
0.00296819060503
0.00285971910481
0.00267490344761
0.00239100620824
0.00200647563537
0.00175881098855
0.000969575880915
0.00175923035429
0.00238345536189
0.00279500003949
0.00304549251683
0.0031827057187
0.00324641898774
0.00326860074589
0.00327238891182
0.00327133966035
0.0032712585698
0.00327216872098
0.00326830481771
0.0032461147011
0.00318240782583
0.00304517300682
0.00279460878324
0.00238297507378
0.00175882143332
0.000969836129857
0.00102177882182
0.00199915852616
0.00278599010134
0.00331574399551
0.0036473238514
0.00383678180076
0.00393182284296
0.00397137727721
0.00398395789034
0.00398653229037
0.00398638390783
0.00398354661729
0.00397081090589
0.00393115973472
0.00383602516015
0.00364647828426
0.00331483004616
0.00278508188793
0.00199852874493
0.00102214657564
0.00199918161733
0.0022387264994
0.00266893613859
0.00299660728112
0.0032170783482
0.00335212801002
0.00342655531343
0.00346253506151
0.00347731434595
0.00348207353825
0.00348209221397
0.00347737012644
0.00346262339828
0.00342661928237
0.00335208027036
0.003216846183
0.00299617411451
0.00266837358127
0.00223814262006
0.00199829652536
0.00278628122471
0.00266893739847
0.00299929270643
0.00328102102007
0.00347993171177
0.00360567163543
0.00367694657125
0.00371261789698
0.00372775643038
0.00373274086402
0.00373271539616
0.00372769407848
0.00371253571884
0.00367680652915
0.0036053944521
0.00347944378967
0.00328032343393
0.00299850387716
0.00266817872068
0.0027845585108
0.00331636237137
0.00299664747438
0.00328103033678
0.00354602131345
0.00374020520858
0.00386643821822
0.00393974735459
0.00397789293358
0.00399416820517
0.00399954486149
0.00399948048455
0.00399400357259
0.00397758489453
0.00393930112124
0.00386601464495
0.00373967366822
0.00354525047361
0.00328015731797
0.0029958050755
0.00331396174948
0.00364815990821
0.00321714230619
0.00347993323492
0.00374018229862
0.00393632782096
0.00406725178443
0.00414405912751
0.00418346435329
0.0042003340624
0.00420580664672
0.00420567778147
0.00419995270663
0.00418263074893
0.00414283383457
0.00406619224355
0.00393569751188
0.0037395605368
0.00347914935849
0.00321632930086
0.00364524850181
0.00383759719765
0.00335213558279
0.00360560213335
0.00386633035654
0.0040673431706
0.00420218026377
0.00428179072893
0.00432219262947
0.00433904666957
0.00434421273425
0.00434398451317
0.00433829652749
0.00432049193754
0.00427914516863
0.00419965601134
0.00406602420815
0.00386586630418
0.00360504304075
0.00335147390103
0.00383449449393
0.00393233317797
0.00342639763143
0.00367672693249
0.00393964090912
0.00414471523813
0.00428269702877
0.00436376526074
0.00440400581582
0.00441989468615
0.00442426616825
0.00442395088188
0.00441877930916
0.00440137791171
0.0043595016885
0.00427838103514
0.00414214734119
0.0039390611135
0.00367646107502
0.00342599646385
0.00392942956675
0.00397140525966
0.00346214025295
0.0037122161914
0.00397795160878
0.00418486059603
0.00432433039802
0.0044054623246
0.00444420155399
0.0044583538773
0.0044615595743
0.00446121811701
0.00445706464004
0.00444103680695
0.00440019709345
0.00431870616863
0.0041812869608
0.00397711359407
0.00371220952405
0.00346203632123
0.00396894725122
0.00398347768207
0.00347666712607
0.00372718547667
0.00399427619454
0.00420213674083
0.0043419374488
0.00442233664645
0.00445943293478
0.00447175756761
0.00447367673532
0.00447335330735
0.00447049710281
0.00445617680597
0.00441676520959
0.00433584559223
0.00419819838343
0.0039933629199
0.00372734818888
0.00347680777791
0.00398148025926
0.00398566438574
0.0034812199535
0.00373205523578
0.00399962675715
0.00420773475822
0.00434741360564
0.00442715822664
0.00446312534329
0.00447412977293
0.00447513308746
0.00447482515335
0.0044728934862
0.00445986675902
0.00442151593569
0.00434122083464
0.00420372997485
0.00399871968193
0.00373228281519
0.00348147529209
0.00398391105445
0.00398536030604
0.00348112583636
0.00373197686655
0.0039995650219
0.00420769984737
0.00434741157101
0.00442719213822
0.00446317876039
0.00447418903461
0.00447519405992
0.00447488076704
0.00447294539001
0.00445991669947
0.00442155211164
0.0043412241329
0.00420369065039
0.00399864431508
0.00373217814594
0.00348133730987
0.00398352014636
0.00398256788992
0.0034763809176
0.00372694816533
0.00399409057233
0.00420203554833
0.0043419505069
0.00442245942275
0.00445961815957
0.00447196698902
0.00447389327097
0.00447355735331
0.00447068929274
0.00445635531455
0.00441688587525
0.00433585650213
0.00419808075766
0.00399313805993
0.00372704054285
0.00347640956068
0.00398035406593
0.00396997408745
0.00346168594811
0.00371182685266
0.00397764745428
0.00418470837641
0.00432439182437
0.00440572428513
0.00444458591336
0.00445879051134
0.00446201365393
0.00446166346588
0.00445749210886
0.00444142241471
0.00440045288184
0.00431874631352
0.00418109902812
0.00397674467304
0.00371171633427
0.00346142480711
0.00396722035213
0.00393057463835
0.00342582531271
0.00367619804237
0.00393918931017
0.00414447019989
0.00428275110467
0.00436411263822
0.00440453597747
0.00442049842398
0.00442488171866
0.00442456286792
0.00441937113067
0.00440189571208
0.00435982155415
0.00427838706016
0.00414183289106
0.00393850911744
0.00367579472481
0.00342523140785
0.00392731337973
0.00383577176911
0.00335150836217
0.00360495654301
0.00386569681898
0.00406688804495
0.00420202762683
0.00428195400977
0.00432257068191
0.00433949969349
0.00434467267819
0.0043444387738
0.00433872316921
0.00432082247539
0.00427924366386
0.00419942092358
0.00406546271388
0.00386509516641
0.00360422449037
0.00335062290007
0.00383225724955
0.00364651422563
0.00321651631317
0.0034792066025
0.0037393900219
0.00393558436885
0.00406670156303
0.00414374541423
0.00418331503176
0.00420022890576
0.0042056955919
0.00420555516204
0.0041998076736
0.00418241266576
0.00414242813148
0.0040655271291
0.00393481131307
0.00373859311139
0.00347821641337
0.00321545568251
0.00364315611275
0.00331506846881
0.002996063833
0.00328027132363
0.00354513353295
0.0037392675307
0.00386551462306
0.00393889499118
0.00397711353741
0.00399337401786
0.00399872268632
0.00399864289626
0.00399315893002
0.00397671392893
0.00393832958913
0.00386493919698
0.0037385512986
0.00354414946934
0.00327916282704
0.00299495829799
0.00331221394809
0.0027854113183
0.00266841700423
0.00299855452311
0.00328011338697
0.0034789164848
0.00360458665963
0.00367580836373
0.00371142627658
0.00372649848194
0.00373143352243
0.00373138443833
0.00372636468856
0.00371122148352
0.00367550474171
0.00360411056932
0.00347820258078
0.00327917175532
0.00299751404246
0.00266739874234
0.00278328429846
0.00199876442576
0.00223825694102
0.00266823480012
0.00299571908153
0.00321602965424
0.0033509275947
0.00342521188379
0.00346106241978
0.00347572417914
0.00348040213816
0.00348038460767
0.00347567533992
0.00346097612729
0.00342505326955
0.00335062642077
0.00321552755824
0.00299501116794
0.00266740940559
0.00223743149851
0.00199760755595
0.00102186070378
0.00199854292785
0.00278491403325
0.00331424966038
0.00364535507109
0.00383430404665
0.00392887081116
0.00396803705005
0.00398031131687
0.00398268605126
0.00398245959024
0.00397967985882
0.00396711507945
0.00392776926926
0.0038330647183
0.00364401467685
0.00331286018989
0.0027835962426
0.00199764003992
0.00102222585349
0.00105609789347
0.0021741219365
0.00308233932801
0.00370230350249
0.004098717936
0.00433252487234
0.00445616418097
0.00451278113359
0.00453462828549
0.00454120218658
0.00454097936682
0.00453401737241
0.00451196617324
0.00445516536005
0.00433123866243
0.00409718849825
0.00370068929552
0.0030808718724
0.00217321047217
0.00105661398455
0.00217420749573
0.0024048436911
0.00287226003475
0.00323513124456
0.00348397715487
0.0036400631328
0.00372887252038
0.00377369558777
0.00379323646934
0.00379999763512
0.00380006605201
0.00379345180689
0.00377406262596
0.00372928447289
0.00364031839972
0.00348388761046
0.0032346296011
0.00287146240497
0.00240395637264
0.00217289010639
0.00308275785187
0.00287226726411
0.00320890962269
0.00350610197341
0.00372051745874
0.0038594021198
0.00394070422048
0.00398292191544
0.00400175661913
0.00400835667266
0.00400836313447
0.00400179311143
0.00398292591119
0.00394062945459
0.00385930465911
0.00372019645177
0.00350538099892
0.00320793189766
0.00287121965252
0.00308012383904
0.00370312568068
0.00323518006546
0.00350611467731
0.00377381116892
0.00397518797097
0.00410924039841
0.00418915901687
0.00423122944952
0.00424976201292
0.00425610564752
0.00425599887519
0.00424943634672
0.00423045545244
0.00418796999499
0.00410806952369
0.00397440237541
0.00377314393159
0.00350518491855
0.00323417758471
0.00369941342709
0.00409980476382
0.00348404058131
0.0037205211473
0.00397519762625
0.00417261213155
0.00430618976503
0.00438505826378
0.00442563802766
0.00444315770141
0.00444881347502
0.00444853915118
0.00444219964478
0.00442343692667
0.00438150871512
0.00430249070806
0.00417029351787
0.0039742600346
0.00371986119209
0.00348327147361
0.00409532346595
0.00433356734255
0.00364003072137
0.00385933203768
0.00410959486099
0.00430705976033
0.00443976338477
0.00451717708483
0.00455562206319
0.00457143129152
0.00457600424055
0.0045755882844
0.00456982200763
0.00455182328858
0.00451069886164
0.00443229077441
0.00430171117033
0.00410755904482
0.00385891890241
0.00363961737257
0.00432881579355
0.00445671206012
0.00372858542648
0.00394058512972