/*--------------------------------*- C++ -*----------------------------------*\
| =========                 |                                                 |
| \\      /  F ield         | OpenFOAM: The Open Source CFD Toolbox           |
|  \\    /   O peration     | Version:  3.0.1                                 |
|   \\  /    A nd           | Web:      www.OpenFOAM.org                      |
|    \\/     M anipulation  |                                                 |
\*---------------------------------------------------------------------------*/
FoamFile
{
    version     2.0;
    format      ascii;
    class       volScalarField;
    location    "3.1";
    object      k_0;
}
// * * * * * * * * * * * * * * * * * * * * * * * * * * * * * * * * * * * * * //

dimensions      [0 2 -2 0 0 0 0];

internalField   nonuniform List<scalar> 
7968
(
0.00131675653384
0.00144866958407
0.00154879913115
0.00160838690671
0.0016404515707
0.00165513099131
0.00165957533344
0.00165873119227
0.00165601366217
0.00165361420731
0.00165374654505
0.0016563174678
0.00165914596618
0.00166008120504
0.00165571118277
0.00164108543023
0.00160901852008
0.00154934755538
0.0014490522003
0.00131690560815
0.0014487102183
0.00201410570237
0.00238414097203
0.00259810226261
0.00271272487823
0.00276440075668
0.00277995104745
0.00277839162749
0.00277253137852
0.0027685630998
0.00276860668292
0.00277266821716
0.00277868050923
0.00278046271555
0.00276516494573
0.00271373657091
0.00259922614979
0.00238523036831
0.00201491110176
0.00144900511728
0.00154899213575
0.00238436177219
0.00292603482381
0.00324171146204
0.00341346125284
0.00349311846441
0.00351893519448
0.00351947941085
0.00351339857876
0.00350913512467
0.00350904944786
0.00351320053637
0.00351934890598
0.00351907105926
0.00349361217835
0.00341425952785
0.00324271105844
0.00292706264911
0.00238513579431
0.00154930433188
0.00160863675042
0.00259848763387
0.00324182942278
0.00361552589601
0.00381528780819
0.00390309539107
0.00392748278691
0.00392371747026
0.00391451457058
0.0039089609046
0.0039086979219
0.00391384838027
0.00392299928273
0.00392710850647
0.00390318931479
0.00381574352606
0.0036162159511
0.00324260798516
0.00259907134092
0.00160887349412
0.00164074206439
0.00271300826141
0.00341353554604
0.00381516223288
0.00402012112227
0.00410157136885
0.00414107072277
0.0041550183554
0.00415451773021
0.00415175290105
0.00415155787258
0.0041540310019
0.00415451869757
0.00414082610746
0.00410153932759
0.00402049100089
0.00381570081114
0.00341410209881
0.00271339812238
0.00164087097027
0.00165541613625
0.00276460224868
0.00349296444244
0.00390261806722
0.00410112523394
0.00421843243274
0.00427367065685
0.00428824117208
0.0042863157137
0.00428247565668
0.00428221685906
0.00428566854925
0.0042875872157
0.0042733805979
0.00421855997516
0.00410175777912
0.00390333881558
0.00349355779705
0.00276499247674
0.0016554850733
0.00165981374426
0.00277991753901
0.00351837113407
0.00392640261427
0.00414053853095
0.00427334626059
0.00432765033479
0.00433693362006
0.00433023450438
0.00432376871139
0.00432342634745
0.00432939144501
0.00433609874867
0.00432732940254
0.00427358029818
0.00414110704085
0.00392758130463
0.0035192162223
0.0027803798176
0.00165987742176
0.00165888312535
0.00277805775838
0.00351848263604
0.00392206893078
0.00415415558846
0.00428758628492
0.00433659318009
0.00433857870698
0.00432563369883
0.00431553188981
0.0043151221054
0.00432465120717
0.00433760110344
0.00433623367379
0.00428791998909
0.0041549221089
0.00392370104547
0.00351965327234
0.00277870676723
0.00165898455892
0.00165604520806
0.00277191289053
0.00351208290032
0.00391258233183
0.00415346592545
0.00428552573464
0.00432977798978
0.00432548319293
0.00430620801831
0.0042919259733
0.00429146787623
0.00430516310311
0.0043244088988
0.00432932557003
0.00428586016618
0.00415434088832
0.00391444850045
0.00351349333616
0.0027727372446
0.00165619537726
0.00165347240312
0.00276771111861
0.00350763851169
0.00390697056185
0.004150673909
0.00428173567448
0.00432339394104
0.00431538732308
0.00429181676054
0.00427415713142
0.00427370141072
0.00429072983148
0.00431422180742
0.00432281493892
0.00428199169545
0.0041515452536
0.00390888961583
0.00350914014236
0.00276861368352
0.00165364095381
0.00165338626998
0.00276758888016
0.00350747409506
0.00390675926784
0.00415049725865
0.00428154398111
0.00432316741155
0.00431510174946
0.00429144929055
0.00427371007718
0.0042732444554
0.00429034063828
0.00431391331541
0.0043225681456
0.00428178053948
0.00415134252407
0.00390862399243
0.00350891152226
0.00276843283102
0.00165351683657
0.00165586301408
0.00277156709239
0.0035116081048
0.00391197287539
0.00415296452884
0.00428498900256
0.00432915892025
0.00432472806099
0.00430528902392
0.00429087613088
0.00429038761647
0.00430418611228
0.00432359894019
0.00432865300962
0.00428526698232
0.00415376187695
0.00391367753823
0.00351284317313
0.00277223567776
0.00165592957245
0.00165866608784
0.00277753956351
0.00351774474183
0.0039210935323
0.00415337483751
0.00428675838571
0.00433565725375
0.00433747668771
0.00432436688501
0.00431415555393
0.00431372070204
0.00432333812947
0.00433644915556
0.0043352298851
0.00428700537211
0.00415401825286
0.00392247953472
0.00351865818398
0.00277796565937
0.00165866336035
0.00165960806811
0.00277932873269
0.00351749094822
0.00392518947578
0.00413953215148
0.00427230371938
0.0043264850921
0.00433560681641
0.0043287618322
0.00432221171531
0.00432185246615
0.00432788519855
0.00433472382166
0.00432607995474
0.00427241308894
0.00413992503025
0.00392605638998
0.00351802159088
0.00277952336746
0.00165956067763
0.00165526075099
0.00276408325042
0.00349211468777
0.00390136867206
0.00409952822671
0.00421719127661
0.00427238191287
0.00428680569843
0.00428475406489
0.00428083887043
0.00428056274048
0.00428406375446
0.00428608035146
0.00427197561885
0.00421713626875
0.0040998443029
0.00390172660498
0.00349235302781
0.00276415947566
0.00165522245396
0.00164066347843
0.00271261680864
0.00341287597762
0.00381410426098
0.00401858570831
0.00409972693998
0.00413968173359
0.00415349598568
0.00415286359512
0.00415001338605
0.00414979395894
0.00415230702837
0.00415287880227
0.00413925786135
0.00409934306647
0.00401858059315
0.00381425409213
0.00341308385008
0.00271273798101
0.00164069844462
0.00160864854787
0.00259832264385
0.00324148214776
0.00361483926584
0.00381414230079
0.00390150827371
0.00392550384806
0.00392142060286
0.0039120113201
0.00390631264141
0.00390600305272
0.00391119804397
0.00392046191184
0.00392480860593
0.00390123427338
0.00381421493604
0.00361514426271
0.00324191344431
0.0025986507686
0.00160879665636
0.00154905683813
0.00238443048545
0.00292601723526
0.00324144803931
0.00341283877032
0.00349211805062
0.00351758751621
0.00351785400325
0.00351157160615
0.00350717729986
0.00350703762688
0.0035112165826
0.00351747160326
0.00351740353669
0.0034922516697
0.00341326588693
0.00324209031941
0.00292674481987
0.00238497724617
0.00154930114989
0.00144881423521
0.00201431479305
0.00238434560148
0.00259816144622
0.00271253975789
0.00276394557638
0.002779249006
0.00277747896716
0.0027714552109
0.00276737667362
0.00276737496905
0.00277146331609
0.00277756550184
0.00277950894617
0.00276443300405
0.00271324806427
0.0025990249649
0.00238520627141
0.00201493748971
0.00144905674361
0.00131679900203
0.00144877934932
0.00154893501268
0.00160850067489
0.00164049863575
0.0016550905226
0.00165944642245
0.00165851694494
0.00165572307157
0.00165325536331
0.00165335641379
0.00165595478889
0.00165883509431
0.00165984300683
0.00165556164915
0.00164102883468
0.00160904302922
0.00154941180799
0.00144910592173
0.00131692000826
0.00143595833434
0.00194846622702
0.0022995495195
0.00251057616067
0.00263026865351
0.00269115173655
0.00271614401595
0.00272201460222
0.00272043496946
0.00271816230028
0.00271821807194
0.00272059101109
0.0027222729078
0.00271650374126
0.0026915925217
0.00263074812617
0.00251102334186
0.00229988663117
0.00194866388346
0.00143618570114
0.00194846959137
0.00386410038869
0.00480768197369
0.0053556781823
0.00566307080215
0.00581700231296
0.00587851195142
0.00589154346757
0.00588640539546
0.00588015501173
0.00587999464494
0.00588597853693
0.00589099945797
0.00587800521209
0.00581659850689
0.00566275961667
0.00535536681776
0.004807239256
0.0038634109113
0.00194855671026
0.00229971920842
0.00480813054659
0.00604900604432
0.00678877840881
0.00721934130668
0.00744746957674
0.00754943882549
0.00758228476098
0.00758583553424
0.00758263910628
0.00758233374029
0.00758502605043
0.00758123454979
0.00754842725669
0.0074466101167
0.00721857736725
0.00678799970241
0.00604809946187
0.00480701862856
0.0022997042005
0.00251088489248
0.00535641912003
0.00678910101245
0.0076549872891
0.00816606610066
0.00844136529404
0.00856783536875
0.00861136175538
0.00861959704618
0.00861806899431
0.00861757838314
0.00861831246709
0.00860971863554
0.00856630054716
0.00844011290935
0.00816491272816
0.00765376717367
0.00678772356123
0.00535489279665
0.00251073939338
0.00263065656155
0.00566388998942
0.00721973231037
0.00816610474804
0.00872552796084
0.00902634678586
0.00916550819412
0.00920983485008
0.00921641472575
0.00921388275388
0.00921316550504
0.00921452499878
0.00920753418074
0.00916360734885
0.00902508523603
0.00872432132197
0.00816473586729
0.00721810433998
0.00566210825007
0.00263038503269
0.00269151980508
0.00581765100296
0.00744763279342
0.00844108503589
0.00902607497653
0.00933280675077
0.00946079334396
0.00949592062105
0.00949580833151
0.00948997151427
0.00948899029244
0.00949322287711
0.00949285981293
0.00945852186849
0.00933160108001
0.00902513342738
0.00843997924186
0.00744611370222
0.0058158958899
0.00269120556282
0.00271639610437
0.00587881733487
0.00754913354442
0.0085669112852
0.00916430780319
0.00945996768938
0.00957425663943
0.00959638021852
0.00958702573321
0.00957661391044
0.00957535726389
0.00958372981429
0.00959249173293
0.00957154394417
0.00945894012786
0.00916407080504
0.00856636935046
0.00754801091925
0.00587733435906
0.00271614491432
0.00272208690926
0.00589145433053
0.00758149646585
0.00860989907722
0.00920799599206
0.00949448568064
0.00959581581279
0.00960461322983
0.00958604651717
0.00957087926196
0.00956939345014
0.00958218072558
0.00959995141469
0.00959255236007
0.00949338104987
0.00920809988898
0.00860980146472
0.00758080250375
0.0058903239329
0.00272196264271
0.00272029676377
0.00588599230382
0.00758472575507
0.00861789903403
0.00921445224821
0.00949446409209
0.00958672615576
0.00958631376447
0.00955983671222
0.00954009558426
0.00953846027009
0.0095556387756
0.00958111309202
0.00958285762324
0.00949303616273
0.00921457986748
0.00861800135219
0.00758431501408
0.00588514208982
0.00272030005854
0.00271781580592
0.0058795319087
0.00758138524523
0.00861640864824
0.00921219327518
0.0094892019071
0.00957708411156
0.00957185572779
0.00954064301673
0.00951827567649
0.00951662407811
0.00953626889738
0.00956629695411
0.00957273224678
0.00948742182424
0.00921218948943
0.00861651539785
0.00758107762556
0.00587880227865
0.00271788263433
0.00271770948888
0.00587926895392
0.00758106216664
0.0086160556581
0.00921180192096
0.00948877683695
0.00957660834891
0.00957130188477
0.00953998743884
0.00951754103954
0.00951587207558
0.00953557288442
0.00956570074473
0.00957222000359
0.0094869602684
0.00921175238581
0.00861609574427
0.00758068591571
0.00587847314375
0.00271773695552
0.00272000349841
0.00588522823574
0.0075837853214
0.00861684785498
0.00921330867448
0.00949323432828
0.00958538179353
0.00958479009055
0.00955810374705
0.00953820967262
0.00953651540175
0.00955378519584
0.00957947968537
0.0095814095983
0.00949169747585
0.00921329813095
0.00861677893708
0.00758318164
0.00588419926872
0.00271990523926
0.00272166263536
0.00589025766354
0.00758001461258
0.00860822215975
0.00920616166844
0.00949250784548
0.00959367923125
0.00960223909911
0.00958348012217
0.00956817875931
0.00956664359419
0.00957952237158
0.00959748758539
0.00959028924413
0.00949123448848
0.00920603837742
0.00860784571195
0.0075790235048
0.00588886452252
0.00272139868139
0.00271592327455
0.00587733238951
0.00754727640678
0.00856476347321
0.00916196791701
0.0094573653995
0.0095714052607
0.00959327630101
0.00958371820285
0.00957319723777
0.00957191132805
0.00958036497525
0.00958930861947
0.00956853767158
0.00945609612423
0.00916141862567
0.00856384763633
0.00754576812244
0.0058755188979
0.00271551078202
0.0026910832535
0.00581607362575
0.00744564496539
0.00843876890165
0.00902373905909
0.00932989229766
0.00945745498527
0.00949228993054
0.00949198392749
0.009486041769
0.00948502943388
0.0094893211646
0.0094890977946
0.00945496071993
0.00932837894486
0.00902244506346
0.00843720916758
0.00744366285071
0.00581392979743
0.00269059914757
0.00263032859505
0.00566241401552
0.00721785207054
0.00816382229844
0.00872290803686
0.00902369205849
0.00916206139045
0.00920602201169
0.00921239500906
0.00920974156383
0.00920898570685
0.00921038433418
0.00920351369314
0.00915985117131
0.00902207574184
0.00872122930687
0.00816192486899
0.0072157038271
0.00566019656114
0.00262988593434
0.00251070626841
0.00535521849647
0.00678754641289
0.00765301396616
0.00816363964262
0.00843852523178
0.00856453050106
0.00860777495751
0.0086158299016
0.00861424731768
0.00861375251304
0.00861438728444
0.00860587489493
0.00856261545434
0.00843680713836
0.00816194923123
0.00765122405797
0.00678561821753
0.00535322708524
0.00251038975509
0.00229967712758
0.00480728747097
0.00604790222504
0.00678730001376
0.00721741628894
0.00744509904842
0.00754666307793
0.00757920394465
0.00758254329043
0.0075792036904
0.0075788373231
0.00758154879041
0.00757785326952
0.00754524457678
0.00744375419539
0.0072161131875
0.00678596319317
0.00604645830147
0.00480571108194
0.00229950437058
0.00194853261376
0.0038636473314
0.00480706936691
0.00535478624254
0.00566181915001
0.00581538067666
0.00587656427268
0.00588933429598
0.00588400053272
0.00587761850403
0.00587740222785
0.00588341019769
0.00588852484043
0.00587571042043
0.00581456958093
0.00566105793963
0.00535400592459
0.00480616331017
0.00386253304874
0.00194848765775
0.00143601804927
0.00194843545316
0.00229947545313
0.00251043303572
0.00263000705691
0.00269074148222
0.00271558279014
0.00272131432745
0.00271961655036
0.00271725866647
0.00271728254627
0.00271968429341
0.00272143775308
0.00271577946369
0.00269100721925
0.00263030936257
0.00251070912149
0.00229965295756
0.00194850119999
0.00143622011609
0.00152478848437
0.00227023829632
0.00278078097677
0.00309313453227
0.00327595628504
0.00337415775913
0.00341942124996
0.00343523009022
0.00343804357726
0.00343740326284
0.00343738073099
0.00343798642468
0.00343517790652
0.0034194002218
0.00337416134867
0.00327595220451
0.00309307297204
0.00278062640779
0.00227007408204
0.00152508063134
0.00227023804971
0.00473001863073
0.00594964405972
0.00667657300687
0.00710030032011
0.00732649098393
0.00742971175503
0.00746477908693
0.0074698922363
0.00746735123905
0.00746698730542
0.00746888170422
0.00746333060096
0.00742803248907
0.00732468504885
0.00709839452471
0.0066745546509
0.00594748815562
0.00472775028565
0.00226992198879
0.00278095992052
0.00595021973866
0.00751267310989
0.00846462320237
0.00903988840916
0.00936351484471
0.00952473338021
0.00959159848138
0.00961254120986
0.00961613116659
0.0096156402783
0.00961119842464
0.00958970749494
0.00952259254552
0.00936125999733
0.00903746240523
0.00846194091968
0.00750971875863
0.00594712024574
0.00278033891323
0.00309350041618
0.00667756217892
0.00846507678448
0.00956725151038
0.0102448132867
0.0106347647661
0.0108347871367
0.0109229891183
0.0109569505596
0.0109658623635
0.0109652654675
0.0109553364399
0.0109207519571
0.0108322268457
0.0106322126321
0.0102420717463
0.00956409979084
0.0084614784846
0.00667376863887
0.00309264230012
0.00327643220373
0.00710146431971
0.00904052613563
0.0102449746935
0.0109910492475
0.011424801726
0.0116447239263
0.0117390952107
0.0117710647029
0.0117780528051
0.0117771002422
0.0117685162213
0.011735600758
0.0116413531761
0.011422135764
0.0109883088709
0.0102416998275
0.00903660528503
0.00709724853722
0.00327538885179
0.00337461421122
0.0073275301102
0.00936399653206
0.0106346936929
0.0114245130579
0.0118719293806
0.0120939247033
0.0121835022012
0.0122090591405
0.0122120573072
0.0122106911249
0.0122053521511
0.012178021019
0.0120882739511
0.0118681676522
0.0114220379321
0.0106316820281
0.0093601682714
0.0073232907294
0.00337351492212
0.00341972478483
0.00743039174625
0.00952478758449
0.0108342233629
0.0116439270335
0.0120940488704
0.0123088144956
0.0123864787812
0.0124013376873
0.0123983383647
0.0123965393125
0.012396357585
0.0123785936989
0.0122998008136
0.0120877688143
0.0116412278165
0.0108316258777
0.00952135009005
0.00742646500584
0.003418726932
0.00343529982062
0.00746503320741
0.00959122142358
0.0109222724553
0.0117383655754
0.0121848288663
0.012388283403
0.0124513334581
0.0124537314899
0.0124438022816
0.0124416398925
0.0124476325602
0.0124413965767
0.012376531701
0.0121759477588
0.0117348360699
0.0109197651653
0.00958817332528
0.00746152480343
0.00343449854755
0.00343786121301
0.00746980895942
0.00961188906808
0.0109562032594
0.0117708057038
0.0122117120309
0.0124051338729
0.0124559676679
0.0124478262899
0.012431985072
0.0124296033714
0.0124410159326
0.0124447695182
0.0123917371066
0.0122013546462
0.0117665772403
0.0109536437035
0.00960908310601
0.00746663439999
0.00343725579654
0.00343700701501
0.00746708509054
0.00961539436886
0.0109652108393
0.0117783455916
0.0122157907883
0.0124036556542
0.0124477420927
0.0124336977355
0.0124144745714
0.01241197954
0.0124265401006
0.0124359216853
0.0123894690016
0.0122047827475
0.0117737717448
0.0109626016887
0.00961266899119
0.00746405516863
0.00343650297571
0.00343686057125
0.00746669480338
0.00961496996618
0.0109648132604
0.0117779458035
0.0122153931755
0.0124032464159
0.0124472855589
0.0124331726546
0.0124138987196
0.0124113841006
0.0124259780485
0.0124354339629
0.0123890397634
0.0122043629916
0.0117733334994
0.0109621644531
0.00961217589337
0.0074635885971
0.00343631088298
0.00343743540622
0.00746865681311
0.00961064049455
0.0109550497617
0.0117696270597
0.0122105620049
0.0124039856843
0.0124547251596
0.0124464461855
0.0124304959907
0.0124280700569
0.0124395452472
0.0124434465147
0.0123905194946
0.0122001250465
0.011765277157
0.0109523479505
0.00960764045413
0.00746528022669
0.00343671276137
0.00343464683107
0.00746319727465
0.00958922326682
0.0109203895443
0.0117364573546
0.0121830246441
0.0123865659088
0.0124495785643
0.0124518568964
0.0124418272649
0.01243962388
0.012445674422
0.0124395642865
0.0123747133031
0.0121739957306
0.0117327136155
0.0109176335606
0.00958587171319
0.0074593951514
0.00343368306327
0.00341894564175
0.00742805218652
0.0095221986828
0.010831593662
0.0116413418933
0.0120916020387
0.012306550736
0.0123842631778
0.0123990521474
0.0123959625631
0.0123941362341
0.0123939966856
0.0123762767985
0.0122973841977
0.0120850896575
0.0116383292555
0.0108286232322
0.00951835455847
0.00742374988349
0.0034177544792
0.00337383075085
0.00732494753434
0.00936109430597
0.0106316530033
0.0114214247338
0.0118688056713
0.0120908705199
0.0121805053557
0.0122060050341
0.0122089195144
0.0122075194195
0.0122022007103
0.0121748653587
0.0120849814034
0.0118647197953
0.0114185412623
0.0106281617845
0.00935675555149
0.00732024715866
0.003372515602
0.00327575391767
0.00709892045534
0.00903760463874
0.0102417935175
0.0109876451877
0.0114212245163
0.0116409232172
0.0117352038674
0.0117670838743
0.011773975074
0.0117729775982
0.0117644114584
0.0117315028734
0.0116372314808
0.0114181354758
0.01098439243
0.0102379363057
0.00903307930056
0.00709416093579
0.00327448001123
0.0030929997807
0.00667531164356
0.00846240893337
0.00956420777888
0.0102413934715
0.0106309903322
0.0108307203023
0.0109190467065
0.0109529479719
0.0109616814384
0.0109609973912
0.0109511919615
0.010916586937
0.0108277624302
0.0106279234755
0.0102380474108
0.00956039350398
0.0084581388601
0.00667091520683
0.0030919029097
0.0027806577914
0.0059484192622
0.00751046329998
0.00846196681494
0.00903675029251
0.00935991034369
0.00952072672042
0.00958731756239
0.00960804883293
0.00961147888907
0.00961091518881
0.00960649969676
0.0095850929301
0.00951811758949
0.00935708334977
0.00903367625417
0.00845859546449
0.00750682399817
0.00594470684626
0.00277980671135
0.00227013566449
0.00472878216193
0.00594806296503
0.0066745654326
0.00709780655251
0.0073235211981
0.00742633393318
0.00746108173661
0.00746595016093
0.00746324178048
0.00746280706623
0.00746473298916
0.00745929600922
0.00742421107834
0.00732118909179
0.00709531294268
0.00667192553078
0.00594529021918
0.00472595012104
0.00226962494379
0.00152485745463
0.00226999412712
0.0027803771393
0.00309258943187
0.00327522907137
0.00337322008183
0.00341827710924
0.0034339064323
0.00343657409908
0.00343583397839
0.00343577302477
0.00343640831905
0.00343368214904
0.00341804367702
0.00337298921224
0.00327498097988
0.003092284613
0.00277999136918
0.00226963565854
0.00152513438731
0.00157948921224
0.00247268437578
0.00308603397731
0.00346651536694
0.00369447079159
0.00382170532834
0.0038848012034
0.00391094678237
0.00391926710649
0.00392097952778
0.00392087729707
0.00391898336501
0.00391055391652
0.00388433860681
0.00382117457766
0.00369387153971
0.00346585273035
0.00308534275501
0.00247215313882
0.00157987391358
0.00247270588841
0.00528079632903
0.00668562122479
0.00753907450111
0.00805010849747
0.00833487642042
0.0084757768502
0.00853382081738
0.00855153473223
0.00855440277106
0.00855380324346
0.00854984546764
0.00853132834131
0.00847271976259
0.00833138238738
0.00804627598701
0.00753503599267
0.00668151741415
0.00527677308542
0.00247195594596
0.00308625317137
0.00668631657044
0.00846406922137
0.00956305790624
0.0102433307275
0.0106404601755
0.0108509287962
0.0109486402658
0.0109858148949
0.0109960543892
0.0109953154486
0.0109837945671
0.0109457943298
0.010847616003
0.0106367790431
0.0102391903781
0.00955837552994
0.00845890623744
0.00668096260932
0.00308494873815
0.00346695205146
0.00754030659478
0.00956363842339
0.010824648264
0.0116174643366
0.0120901452044
0.0123468666703
0.0124718526791
0.0125207367321
0.0125350459217
0.0125340534783
0.0125180500758
0.0124677785072
0.0123420720237
0.0120858305502
0.0116132075202
0.0108195767182
0.00955766664041
0.00753382416686
0.00346523820187
0.00369504211823
0.00805162899745
0.0102442118241
0.0116177307254
0.0124875534136
0.0130098397139
0.0132889005049
0.013418231385
0.013466866082
0.0134797898134
0.0134782491708
0.0134625112945
0.0134110197556
0.0132798537294
0.0130018737836
0.012482073712
0.0116126006486
0.0102378179821
0.00804441422757
0.00369302897223
0.00382225361309
0.00833633415335
0.0106412514392
0.0120903317018
0.0130106365444
0.0135521923066
0.0138343680573
0.0139568955347
0.0139969614767
0.0140042689628
0.0140019935476
0.0139901871035
0.0139449784947
0.0138182515107
0.0135366735993
0.0130007467674
0.0120847747123
0.0106349064708
0.00832895881026
0.00382014266679
0.00388514285878
0.00847683695907
0.0108512780711
0.0123474606745
0.0132926441669
0.0138385858196
0.014111709477
0.0142188987129
0.0142444503067
0.0142432876573
0.0142403838359
0.0142354161091
0.0142022834566
0.0140880983568
0.0138143075831
0.0132757463768
0.0123400155389
0.0108453274753
0.00846980128327
0.00388317974834
0.00391096864457
0.00853435537919
0.0109484725373
0.0124736629288
0.0134256952666
0.0139665976069
0.0142251573651
0.0143128212833
0.0143216307808
0.0143111462092
0.0143078865862
0.0143112036108
0.0142931030715
0.0141963636111
0.0139357847732
0.0134031072673
0.0124638496952
0.010942933247
0.0085278484084
0.00390930712595
0.00391895402432
0.00855162488627
0.0109852961333
0.0125232835037
0.0134767103839
0.0140105344534
0.0142555403706
0.0143267818807
0.0143214322741
0.014302934105
0.0142994631641
0.0143103519786
0.0143056193682
0.0142243130571
0.0139767413886
0.0134516302614
0.0125124105008
0.0109800211952
0.00854557768843
0.00391759972497
0.00392041199381
0.00855427783707
0.010995493194
0.0125380241605
0.0134909740972
0.0140202188781
0.014257483912
0.0143196226384
0.0143062108523
0.0142831445586
0.0142796429098
0.0142948329064
0.0142978888529
0.0142253403146
0.0139854319616
0.0134651744277
0.0125268918842
0.010990295601
0.00854843791186
0.00391921999007
0.00392020922923
0.00855372501612
0.0109949562912
0.0125375705321
0.0134906133221
0.0140199392705
0.0142572416934
0.0143193368824
0.0143058472414
0.0142827150231
0.0142792104585
0.0142944503819
0.0142975810504
0.0142250901181
0.0139851570163
0.0134647987555
0.0125263940872
0.010989681993
0.00854778541818
0.00391895940833
0.00391834719888
0.00854996909117
0.0109837023486
0.0125219400505
0.0134756526242
0.0140097738327
0.0142549494247
0.0143261492001
0.0143206717682
0.0143020575309
0.0142985384927
0.0143094969374
0.0143049296858
0.0142236955648
0.0139759659441
0.0134505212254
0.0125109363759
0.010978217733
0.00854366838675
0.00391684890313
0.00391001286452
0.0085316884004
0.0109459026241
0.0124715155135
0.0134240637857
0.0139655660244
0.014224563144
0.0143123212104
0.014321036996
0.0143104586383
0.0143071496486
0.0143105279497
0.0142925549721
0.0141957180045
0.0139346831249
0.0134013560797
0.0124614774096
0.0109400458093
0.00852482738965
0.00390815448082
0.00388396412341
0.00847339662311
0.0108479134066
0.0123445659738
0.0132904524128
0.0138372903446
0.0141111846521
0.0142187198651
0.0142442693439
0.0142430116661
0.0142400671608
0.0142351385407
0.0142019974876
0.014087429578
0.0138128309875
0.0132733061688
0.0123367654635
0.0108415241752
0.00846590662835
0.00388176225306
0.0038210192795
0.00833247663597
0.0106373776287
0.0120867372885
0.0130076625431
0.0135501437967
0.0138332380513
0.0139562941309
0.013996426572
0.0140036391757
0.014001312106
0.0139894952705
0.0139441401055
0.0138168360778
0.0135343017697
0.0129973722564
0.0120806799996
0.010630452307
0.00832452677704
0.00381863124415
0.00369390945278
0.0080477562104
0.0102401714911
0.011613704236
0.0124836811801
0.0130064628743
0.0132861976572
0.0134159593568
0.0134646079356
0.0134774099892
0.0134758034926
0.0134600530455
0.0134084283684
0.013276758575
0.0129980419746
0.0124776623289
0.0116079302844
0.0102330583391
0.00803984393973
0.00369159067878
0.00346603179764
0.00753677728422
0.00955975186903
0.0108205050143
0.0116130613491
0.0120855485274
0.0123422917451
0.0124673380501
0.012516045546
0.0125301671882
0.0125290985588
0.0125131295572
0.0124628814418
0.0123370248822
0.012080656022
0.011608117087
0.0108146540071
0.00955294706833
0.00752949878337
0.00346399749091
0.00308559680127
0.00668336031334
0.00846059418602
0.00955906695639
0.0102387968829
0.0106353977502
0.010845401516
0.0109427167683
0.0109795387138
0.0109895410704
0.0109887100961
0.0109772461996
0.0109394229056
0.0108415037789
0.0106310094358
0.0102338516631
0.00955351761524
0.00845455245722
0.00667719870324
0.00308399015863
0.00247235383628
0.00527857707856
0.0066828283574
0.00753561766798
0.00804592992286
0.00833000334442
0.00847030919968
0.00852787897807
0.00854520830986
0.00854782072723
0.00854711911385
0.00854322454431
0.0085249047839
0.00846663762391
0.00832579004208
0.00804129994134
0.00753073716723
0.00667790486726
0.00527382856202
0.00247137743283
0.00157957498959
0.00247216599907
0.00308522276937
0.00346545280466
0.00369311587848
0.00382003043898
0.00388282373349
0.00390871816887
0.00391683769524
0.0039184182242
0.00391826395049
0.00391640723551
0.00390808826551
0.00388206818102
0.00381917472969
0.00369217796135
0.0034644543309
0.00308422529382
0.00247140708885
0.00157995672884
0.00161501572062
0.00261582127836
0.00330226336412
0.00373214397782
0.00399458091196
0.00414551859371
0.00422432995
0.00426024315907
0.0042741084138
0.00427829791951
0.00427815281334
0.00427370959466
0.00425970725171
0.00422366878425
0.00414466275388
0.0039935497272
0.00373102430218
0.00330118580267
0.00261507163316
0.001615549705
0.00261589403609
0.00568095962438
0.00721980062479
0.00816905864771
0.00874989383852
0.0090845533862
0.00926000522155
0.00934044044742
0.00937125924905
0.00938005865086
0.00937927706606
0.00936904167506
0.00933715451699
0.00925586074613
0.00907958474765
0.00874425147968
0.00816310021708
0.00721390662053
0.00567524395206
0.00261480623948
0.00330256884615
0.00722064763405
0.00915406347974
0.0103612833425
0.0111205240068
0.0115745388187
0.0118242387201
0.0119457915474
0.0119958302272
0.0120114685001
0.0120104988371
0.0119931875603
0.0119416650732
0.0118191287146
0.0115695864469
0.0111153760899
0.0103552351662
0.00914715252118
0.00721309025947
0.00330063998041
0.00373270507646
0.00817062826546
0.0103620323754
0.011735117284
0.0126094491694
0.0131400026799
0.0134347122319
0.0135787960046
0.013636616751
0.0136538782828
0.0136523051851
0.0136321453742
0.01357117283
0.013424777837
0.0131303303709
0.0126021070739
0.0117289030342
0.0103542061105
0.00816126762662
0.0037301519381
0.00399529773734
0.00875191703643
0.0111217303404
0.0126102119724
0.0135619745772
0.0141377126971
0.0144476988909
0.0145906634504
0.014643054245
0.014655643191
0.0146529602071
0.0146348150225
0.0145756544648
0.0144262573834
0.0141152975199
0.0135457965221
0.0126009554932
0.0111133523792
0.00874135459613
0.00399231786621
0.00414619514098
0.0090865962861
0.0115760167347
0.0131439048715
0.0141436641057
0.0147332227842
0.015037124134
0.0151634496012
0.0151996841897
0.0152025167861
0.0151987672814
0.0151874431747
0.0151398330008
0.0150007029821
0.0146910764096
0.0141098878726
0.0131259892417
0.011566543089
0.00907567023024
0.00414309129183
0.00422468634519
0.00926154910514
0.011826677209
0.0134450414726
0.0144650531385
0.0150505262063
0.0153329202968
0.0154328274991
0.0154461913943
0.0154362313488
0.0154319870542
0.0154316690922
0.0154029144398
0.0152840529934
0.0149892238203
0.0144109338845
0.0134144338244
0.0118142477151
0.00925103319491
0.00422185758442
0.00426007795935
0.00934120979657
0.0119496548622
0.0135952227574
0.0146188350035
0.015189625086
0.0154461393567
0.0155167733804
0.0155054341462
0.0154820295784
0.0154778636014
0.0154906731001
0.0154845164314
0.0153905278122
0.0151167530308
0.0145506393209