/*--------------------------------*- C++ -*----------------------------------*\
| =========                 |                                                 |
| \\      /  F ield         | OpenFOAM: The Open Source CFD Toolbox           |
|  \\    /   O peration     | Version:  3.0.1                                 |
|   \\  /    A nd           | Web:      www.OpenFOAM.org                      |
|    \\/     M anipulation  |                                                 |
\*---------------------------------------------------------------------------*/
FoamFile
{
    version     2.0;
    format      ascii;
    class       surfaceScalarField;
    location    "3.1";
    object      phi;
}
// * * * * * * * * * * * * * * * * * * * * * * * * * * * * * * * * * * * * * //

dimensions      [0 3 -1 0 0 0 0];

internalField   nonuniform List<scalar> 
22672
(
2.83821550324e-06
2.84218436554e-06
-5.68038099847e-06
6.83832995871e-06
2.08502576526e-06
-6.08511902102e-06
1.08251870434e-05
2.11062379183e-06
-6.09745480064e-06
1.38211563766e-05
2.85881380089e-06
-5.85475179859e-06
1.52167246449e-05
4.19909956928e-06
-5.59463213792e-06
1.47702745074e-05
5.83653829733e-06
-5.3900494574e-06
1.26480913538e-05
7.38049616049e-06
-5.25827308456e-06
9.15025123292e-06
8.69865785592e-06
-5.20077904485e-06
4.75601446761e-06
9.60950924167e-06
-5.215238183e-06
-6.57598165779e-08
1.00678311157e-05
-5.24603048557e-06
-4.89308793238e-06
1.00736452612e-05
-5.24630208563e-06
-9.30150798709e-06
9.62491831091e-06
-5.21649685729e-06
-1.28157196725e-05
8.7188902648e-06
-5.20469166014e-06
-1.49477839561e-05
7.40038159088e-06
-5.26834405723e-06
-1.53927211024e-05
5.85534675898e-06
-5.41044810594e-06
-1.39767662303e-05
4.21562707796e-06
-5.63163013442e-06
-1.094379667e-05
2.87814367609e-06
-5.91117012279e-06
-6.90938966078e-06
2.13661233849e-06
-6.17108660177e-06
-2.86334016709e-06
2.12255077023e-06
-6.16868407922e-06
2.89933497045e-06
-5.76274384415e-06
2.07206248725e-06
6.86576851448e-06
-6.09562588895e-06
6.64783955098e-06
6.69121687906e-06
-9.18194351071e-06
1.14247109235e-05
7.66535577084e-06
-1.03315729306e-05
1.49557849051e-05
9.87793820396e-06
-1.05501621903e-05
1.65920623085e-05
1.30255978832e-05
-1.04627347749e-05
1.61391176747e-05
1.65527594206e-05
-1.02632322926e-05
1.37581313444e-05
1.98513818492e-05
-1.0089853931e-05
9.91109288223e-06
2.25568023851e-05
-1.00110621841e-05
5.13541231216e-06
2.44186753029e-05
-1.00334467273e-05
-7.03591847124e-08
2.53564950496e-05
-1.00828628308e-05
-5.28328512154e-06
2.53705499144e-05
-1.00839620597e-05
-1.00778400327e-05
2.44565369265e-05
-1.00370626509e-05
-1.39472698363e-05
2.26083085311e-05
-1.00200038354e-05
-1.63434484858e-05
1.9905527516e-05
-1.01089979663e-05
-1.67948120364e-05
1.66053445332e-05
-1.02986778966e-05
-1.51352760771e-05
1.30775875309e-05
-1.05215508468e-05
-1.15602064485e-05
9.93477585518e-06
-1.06317661628e-05
-6.72306255971e-06
7.73286785295e-06
-1.04334756085e-05
-2.09034022513e-06
6.77434229919e-06
-9.28460667665e-06
6.96821010979e-06
-6.15928925663e-06
2.09785364301e-06
1.08959038544e-05
-6.1279647605e-06
7.61649526573e-06
1.15104204475e-05
-1.03378164572e-05
1.34178175838e-05
1.35128874421e-05
-1.16488193358e-05
1.76377669802e-05
1.71192700208e-05
-1.14612407306e-05
1.9514049498e-05
2.1854660363e-05
-1.07052995862e-05
1.88688095174e-05
2.69847962884e-05
-9.7867478115e-06
1.59737578251e-05
3.17279521856e-05
-8.9814676708e-06
1.14271769628e-05
3.5564685318e-05
-8.46125182294e-06
5.899301223e-06
3.81883176469e-05
-8.24172074702e-06
-5.79324084892e-08
3.95067012565e-05
-8.19293559709e-06
-6.02609421216e-06
3.95275261592e-05
-8.18879085368e-06
-1.1582711015e-05
3.82444594349e-05
-8.23129891182e-06
-1.61629475687e-05
3.56405847235e-05
-8.452050928e-06
-1.90799230238e-05
3.18061954801e-05
-8.98372075891e-06
-1.97247744251e-05
2.70593288061e-05
-9.80917536611e-06
-1.78242439896e-05
2.19293144146e-05
-1.07523114509e-05
-1.35568490432e-05
1.72021568523e-05
-1.15348408035e-05
-7.69035725016e-06
1.36094794634e-05
-1.17431811027e-05
-2.11101914892e-06
1.16237932696e-05
-1.04288844754e-05
1.10254733888e-05
-6.16835838391e-06
2.84485314105e-06
1.39308782118e-05
-5.87980007574e-06
9.82725486916e-06
1.50865164184e-05
-1.05584655908e-05
1.70198261685e-05
1.77784248007e-05
-1.14580706361e-05
2.21372200948e-05
2.22868922105e-05
-1.02849721494e-05
2.42599537622e-05
2.80136845518e-05
-8.28170841793e-06
2.32277918424e-05
3.41049304467e-05
-6.08791793481e-06
1.94790669151e-05
3.96712990884e-05
-4.19456381705e-06
1.38179286208e-05
4.41388367629e-05
-2.91295316933e-06
7.10247107663e-06
4.71801985342e-05
-2.27636514326e-06
-3.59528410148e-08
4.87024547662e-05
-2.05727834556e-06
-7.19121054369e-06
4.87264028574e-05
-2.04358057875e-06
-1.39505503124e-05
4.7245446272e-05
-2.2416265102e-06
-1.9662479625e-05
4.42251900486e-05
-2.87267589292e-06
-2.34419336146e-05
3.97545872196e-05
-4.16895748341e-06
-2.44737693568e-05
3.41783701049e-05
-6.08724221939e-06
-2.2323084064e-05
2.8085401186e-05
-8.30682250033e-06
-1.71550103558e-05
2.23698648135e-05
-1.03358445127e-05
-9.89416964495e-06
1.78790772095e-05
-1.15305156101e-05
-2.85043315779e-06
1.52050205828e-05
-1.06250598643e-05
1.40644707386e-05
-5.8895071257e-06
4.18930038891e-06
1.53606655803e-05
-5.61905825566e-06
1.29776227124e-05
1.67556008338e-05
-1.04573724409e-05
2.1757665345e-05
1.96925905383e-05
-1.06941680616e-05
2.78615305276e-05
2.44516691194e-05
-8.26859536096e-06
3.0197558392e-05
3.03987870374e-05
-4.72107680662e-06
2.86436998562e-05
3.66341498718e-05
-9.75299879784e-07
2.38254369626e-05
4.22570507695e-05
2.23258010231e-06
1.67907813312e-05
4.6754202372e-05
4.41936587266e-06
8.60430680729e-06
4.98057816754e-05
5.56097075222e-06
-1.00311630987e-08
5.13264557764e-05
5.99041350834e-06
-8.64774038586e-06
5.13508163622e-05
6.01336116425e-06
-1.68983036276e-05
4.9871616857e-05
5.62443900269e-06
-2.40064647203e-05
4.68399973405e-05
4.49337591496e-06
-2.88651165062e-05
4.23326210644e-05
2.28061502773e-06
-3.04142535563e-05
3.66914893227e-05
-9.64007265121e-07
-2.80415980257e-05
3.04503609534e-05
-4.73765867592e-06
-2.1882285568e-05
2.45154155975e-05
-8.30492254487e-06
-1.30339241743e-05
1.9776112336e-05
-1.07454727629e-05
-4.18691124514e-06
1.68574905275e-05
-1.04995796299e-05
1.54783756449e-05
-5.60089311289e-06
5.83265965306e-06
1.49379807372e-05
-5.40994414583e-06
1.65151333617e-05
1.63286026076e-05
-1.02554398572e-05
2.68987190023e-05
1.90726237103e-05
-9.76357682591e-06
3.39613083312e-05
2.34454333829e-05
-6.05630408375e-06
3.64350210954e-05
2.88731578744e-05
-9.48024742112e-07
3.42530932901e-05
3.44836571372e-05
4.33249143734e-06
2.82844311349e-05
3.94861662963e-05
8.73963224957e-06
1.98141381748e-05
4.35056281526e-05
1.17189682511e-05
1.01180399887e-05
4.62405450262e-05
1.32614480743e-05
1.49270730935e-08
4.75961164222e-05
1.38335694294e-05
-1.01187395318e-05
4.76184582496e-05
1.38661337328e-05
-1.99003228526e-05
4.62993165038e-05
1.33539719121e-05
-2.84700512649e-05
4.35833124342e-05
1.18264716048e-05
-3.44883194146e-05
3.95513949557e-05
8.79951947965e-06
-3.66556964097e-05
3.45265039354e-05
4.33235702108e-06
-3.41326542485e-05
2.8904150701e-05
-9.76862893944e-07
-2.70085455395e-05
2.34866438325e-05
-6.09538960572e-06
-1.65582526758e-05
1.9132389689e-05
-9.80664394972e-06
-5.82109365583e-06
1.64076087747e-05
-1.02873738022e-05
1.50320510513e-05
-5.37484558007e-06
7.38150855912e-06
1.28295274205e-05
-5.27302392615e-06
1.98244834894e-05
1.39586040263e-05
-1.00729398545e-05
3.16554058027e-05
1.61838547143e-05
-8.94210978207e-06
3.95400200319e-05
1.96967827005e-05
-4.13591064741e-06
4.20637724038e-05
2.40486564735e-05
2.3008151886e-06
3.92568526982e-05
2.85047472882e-05
8.78591451558e-06
3.22194810172e-05
3.24372059998e-05
1.40864414068e-05
2.24578286689e-05
3.56270976285e-05
1.76403195745e-05
1.14291912713e-05
3.78008539379e-05
1.94684891386e-05
3.74673747295e-08
3.88548202353e-05
2.01331936436e-05
-1.13926192822e-05
3.88735641898e-05
2.0175149868e-05
-2.25268071142e-05
3.78456794281e-05
1.95879707888e-05
-3.24147912957e-05
3.56901311972e-05
1.77812735863e-05
-3.95121179644e-05
3.24937157613e-05
1.41550702465e-05
-4.22942782922e-05
2.85426057829e-05
8.76608117703e-06
-3.97040279054e-05
2.40724012288e-05
2.24148641364e-06
-3.17504614438e-05
1.97251797707e-05
-4.19214436676e-06
-1.98538228976e-05
1.6224915547e-05
-8.98923287811e-06
-7.36298226008e-06
1.4014787367e-05
-1.00981134956e-05
1.29005102139e-05
-5.23151614624e-06
8.70374606499e-06
9.334999674e-06
-5.20918670636e-06
2.25363407128e-05
1.01105911675e-05
-9.98454472988e-06
3.55000642169e-05
1.1628752244e-05
-8.40857597447e-06
4.40149633222e-05
1.40165632135e-05
-2.83462274152e-06
4.65652348935e-05
1.69840811684e-05
4.51437886793e-06
4.3277534653e-05
1.99949297246e-05
1.17976200918e-05
3.54103861106e-05
2.26297256242e-05
1.76747674119e-05
2.45982439133e-05
2.47684212223e-05
2.167099825e-05
1.25109793036e-05
2.62591566681e-05
2.36291790142e-05
5.3952116797e-08
2.69919662761e-05
2.43201209839e-05
-1.24453407426e-05
2.70045308353e-05
2.43685651677e-05
-2.46485036544e-05
2.62862359096e-05
2.37628185949e-05
-3.56090581194e-05
2.48103225915e-05
2.18405282879e-05
-4.35471602656e-05
2.26764507715e-05
1.77554765104e-05
-4.68051366673e-05
2.00306805498e-05
1.17699571325e-05
-4.41774945803e-05
1.7007360247e-05
4.43740846683e-06
-3.55874210675e-05
1.40411708291e-05
-2.90609258574e-06
-2.25577840569e-05
1.16596154096e-05
-8.4643973602e-06
-8.68079877554e-06
1.01513662709e-05
-1.00136537338e-05
9.38785049706e-06
-5.16821047902e-06
9.61522394366e-06
4.93745375155e-06
-5.21764651909e-06
2.43978545482e-05
5.32740994917e-06
-9.99941218346e-06
3.81217640721e-05
6.08729521047e-06
-8.18240627193e-06
4.70524538072e-05
7.28011526453e-06
-2.19418113796e-06
4.96101337259e-05
8.76942821717e-06
5.65705715585e-06
4.60061398854e-05
1.02676973189e-05
1.33313460525e-05
3.75827512491e-05
1.1568911925e-05
1.94843700329e-05
2.60886587257e-05
1.26509985513e-05
2.36117375416e-05
1.32672603527e-05
1.34106975557e-05
2.56701297244e-05
6.4911905748e-08
1.37802061643e-05
2.64144117855e-05
-1.31830921139e-05
1.37840621688e-05
2.64687772564e-05
-2.61226669291e-05
1.34258080636e-05
2.58002763409e-05
-3.77739222524e-05
1.26750524774e-05
2.37867432553e-05
-4.6280483554e-05
1.16008075258e-05
1.95823554795e-05
-4.98561512421e-05
1.02963112445e-05
1.33101234259e-05
-4.72161372704e-05
8.79166199896e-06
5.57571572299e-06
-3.82071245202e-05
7.30335842025e-06
-2.27121365857e-06
-2.44162778153e-05
6.11351378563e-06
-8.24479607947e-06
-9.59031522367e-06
5.35949993942e-06
-1.00341791295e-05
4.97760204985e-06
-5.18013367773e-06
1.00713949696e-05
1.09321463003e-07
-5.24323181004e-06
2.53300854792e-05
1.12623426141e-07
-1.00438673334e-05
3.94312469724e-05
1.19180957138e-07
-8.13300082923e-06
4.85641624682e-05
1.30064933613e-07
-1.98280225626e-06
5.1120950599e-05
1.44245226974e-07
6.06848542595e-06
4.73577273929e-05
1.58935839288e-07
1.38721176794e-05
3.86423747422e-05
1.72696224474e-07
2.01117582061e-05
2.68325743024e-05
1.85867899038e-07
2.42751853869e-05
1.36406874992e-05
1.96508539574e-07
2.64063882838e-05
7.01764424287e-08
2.03515269458e-07
2.71475502524e-05
-1.35429801353e-05
2.05381006234e-07
2.71921876476e-05
-2.68523672075e-05
2.02007981162e-07
2.65335022889e-05
-3.8823987169e-05
1.93710688468e-07
2.44532146881e-05
-4.76309950437e-05
1.82859551967e-07
2.02251348646e-05
-5.13697343929e-05
1.71448747022e-07
1.38637100566e-05
-4.87296485015e-05
1.59754642558e-07
5.99186944392e-06
-3.95174088877e-05
1.49057498763e-07
-2.05793972963e-06
-2.53481108432e-05
1.41479190418e-07
-8.19730535573e-06
-1.00461443798e-05
1.38662814234e-07
-1.00812047451e-05
1.39368713882e-07
-5.2079728496e-06
1.00748802945e-05
-4.72423905991e-06
-5.24129012815e-06
2.53382764068e-05
-5.10780436847e-06
-1.00429330773e-05
3.94436229484e-05
-5.85477788475e-06
-8.1313425721e-06
4.85792466968e-05
-7.02602856652e-06
-1.97946779893e-06
5.11370260064e-05
-8.48751886299e-06
6.07407679451e-06
4.73738314067e-05
-9.95711634593e-06
1.38793843164e-05
3.86575300243e-05
-1.12319577565e-05
2.01211535794e-05
2.684580093e-05
-1.22902278141e-05
2.42880910237e-05
1.36492232299e-05
-1.30314425969e-05
2.64248554353e-05
7.15078900965e-08
-1.33896335432e-05
2.71712268034e-05
-1.35484433675e-05
-1.33893632799e-05
2.72150582923e-05
-2.6862546798e-05
-1.30360250859e-05
2.6552462225e-05
-3.88366443676e-05
-1.22996665888e-05
2.44677364867e-05
-4.7644977971e-05
-1.12442817855e-05
2.02356617494e-05
-5.13836054809e-05
-9.96144605347e-06
1.38716381625e-05
-4.87425212679e-05
-8.47970299719e-06
5.99842905701e-06
-3.95282219579e-05
-7.01279409695e-06
-2.05244134264e-06
-2.5355446262e-05
-5.8381289915e-06
-8.19320237911e-06
-1.00494575175e-05
-5.08963936668e-06
-1.00777548747e-05
-4.70576125942e-06
-5.20438429567e-06
9.62553615679e-06
-9.13821980796e-06
-5.21152744664e-06
2.44221499304e-05
-9.90829689123e-06
-9.99608816326e-06
3.8158501642e-05
-1.1414154686e-05
-8.17693258487e-06
4.70970148078e-05
-1.3781039822e-05
-2.18344308846e-06
4.96572180348e-05
-1.67221246368e-05
5.67448985569e-06
4.60523722484e-05
-1.97057809943e-05
1.33536417017e-05
3.76248160869e-05
-2.23160253179e-05
1.95118132387e-05
2.61223700843e-05
-2.44335284615e-05
2.36460005992e-05
1.32888515632e-05
-2.59114041342e-05
2.57137901563e-05
7.11458548357e-08
-2.66366534326e-05
2.64650676897e-05
-1.31942619168e-05
-2.66465202126e-05
2.6522904519e-05
-2.61496771446e-05
-2.59317687244e-05
2.58514621384e-05
-3.78101276309e-05
-2.44643171947e-05
2.38253437662e-05
-4.63206448126e-05
-2.23458566354e-05
1.96122655726e-05
-4.98968329052e-05
-1.97194130291e-05
1.33342637819e-05
-4.72546951521e-05
-1.67179487212e-05
5.59616168668e-06
-3.82395334883e-05
-1.37727165692e-05
-2.25523097287e-06
-2.44383471636e-05
-1.14065131891e-05
-8.23283264413e-06
-9.60031235133e-06
-9.90348075189e-06
-1.00242555917e-05
-9.13639281085e-06
-5.16973284636e-06
8.72073928362e-06
-1.2659452454e-05
-5.19948041298e-06
2.2576279009e-05
-1.3784720764e-05
-9.97908516842e-06
3.55603628158e-05
-1.59991585356e-05
-8.39904135899e-06
4.40876293285e-05
-1.94930762234e-05
-2.81517736264e-06
4.66409043869e-05
-2.38211089376e-05
4.54578659781e-06
4.3349869224e-05
-2.82523410942e-05
1.18377107102e-05
3.54745132179e-05
-3.21615462768e-05
1.77210426702e-05
2.4647107315e-05
-3.53341434605e-05
2.17282414367e-05
1.25411049999e-05
-3.74959885395e-05
2.36908540253e-05
6.17259343461e-08
-3.8542060788e-05
2.43850789446e-05
-1.24615767676e-05
-3.85591449657e-05
2.44362155345e-05
-2.46857744536e-05
-3.75352490195e-05
2.38279329307e-05
-3.56616745492e-05
-3.53864385081e-05
2.18982240851e-05
-4.36082839267e-05
-3.2202222722e-05
1.78031199241e-05
-4.68700215641e-05
-2.82695406815e-05
1.181195569e-05
-4.42408955294e-05
-2.38204745468e-05
4.47344423461e-06
-3.56414035356e-05
-1.94931817193e-05
-2.87902117002e-06
-2.25946988942e-05
-1.60075060567e-05
-8.44574013658e-06
-8.69758751924e-06
-1.38015756038e-05
-9.99907339758e-06
-1.26814161864e-05
-5.15261183159e-06
7.40445708656e-06
-1.48018051083e-05
-5.26207950664e-06
1.98784968151e-05
-1.61909901757e-05
-1.00677416088e-05
3.17371840837e-05
-1.89273241587e-05
-8.93048664586e-06
3.96385070117e-05
-2.32851802359e-05
-4.10917298963e-06
4.21660648154e-05
-2.86942865407e-05
2.3456846918e-06
3.9352690971e-05
-3.428404695e-05
8.84517408192e-06
3.23013773889e-05
-3.92666623592e-05
1.41565628958e-05
2.25191294551e-05
-4.32722038232e-05
1.7720483482e-05
1.1464906179e-05
-4.59978877426e-05
1.95563325026e-05
4.68790400256e-08
-4.73469041105e-05
2.02230979491e-05
-1.14105308467e-05
-4.73672928631e-05
2.02657795498e-05
-2.25715689125e-05
-4.60499968058e-05
1.96759801804e-05
-3.24799956816e-05
-4.33379069129e-05
1.78600482729e-05
-3.95921322829e-05
-3.93161512139e-05
1.42261732708e-05
-4.23827602983e-05
-3.43079458005e-05
8.82910010805e-06
-3.97915669785e-05
-2.87044520967e-05
2.29281593032e-06
-3.18251829437e-05
-2.33035337248e-05
-4.1560309969e-06
-1.9904699573e-05
-1.89610931661e-05
-8.96692348045e-06
-7.38615601418e-06
-1.62377711238e-05
-1.00824000031e-05
-1.48537004193e-05
-5.21391542509e-06
5.85982359574e-06
-1.52602889508e-05
-5.40131532838e-06
1.65812827516e-05
-1.66565748553e-05
-1.02558468194e-05
2.69987601036e-05
-1.95901938516e-05
-9.75457517042e-06
3.40816417342e-05
-2.4339858285e-05
-6.02816337439e-06
3.65605127071e-05
-3.02742752044e-05
-8.98829062659e-07
3.43691964743e-05
-3.64970456438e-05
4.40438845756e-06
2.83814577023e-05
-4.21051457023e-05
8.82632240961e-06
1.9885446475e-05
-4.65919519656e-05
1.18158883109e-05
1.01600445793e-05
-4.96365489461e-05
1.33642151903e-05
2.71037153316e-08
-5.1152311579e-05
1.3938510817e-05
-1.01375666275e-05
-5.11743602003e-05
1.39718940195e-05
-1.99499333859e-05
-4.96954307121e-05
1.34579358618e-05
-2.854653732e-05
-4.66659371205e-05
1.1924739199e-05
-3.45860377407e-05
-4.2165989874e-05
8.88941222326e-06
-3.67660482204e-05
-3.65378309375e-05
4.40993985764e-06
-3.42420054287e-05
-3.03095591064e-05
-9.18916561032e-07
-2.71021190303e-05
-2.4386896761e-05
-6.05652696013e-06
-1.66219756424e-05
-1.96553911879e-05
-9.78587153069e-06
-5.84933499011e-06
-1.67360224729e-05
-1.02744366332e-05
-1.53433475951e-05
-5.35972805313e-06
4.2210934616e-06
-1.38647871884e-05
-5.61657062798e-06
1.30520616212e-05
-1.50230982876e-05
-1.04644173396e-05
2.1869930465e-05
-1.77147622108e-05
-1.06932692219e-05
2.79968281062e-05
-2.2219419186e-05
-8.2473002074e-06
3.03380071242e-05
-2.79403596076e-05
-4.67504998699e-06
2.87764886363e-05
-3.40244662152e-05
-9.11003972176e-07
2.39368979323e-05
-3.9583967953e-05
2.31848614015e-06
1.68738757491e-05
-4.4045884711e-05
4.51704526842e-06
8.65416424779e-06
-4.70827350352e-05
5.66600118576e-06
4.51697822829e-09
-4.86015852875e-05
6.09902925136e-06
-8.66854263406e-06
-4.86238932703e-05
6.12269481373e-06
-1.69540096846e-05
-4.71418439931e-05
5.73196687154e-06
-2.40931986309e-05
-4.41223696071e-05
4.59568717165e-06
-2.89770361203e-05
-3.96555576274e-05
2.37344974315e-06
-3.05397553772e-05
-3.40862964386e-05
-8.88789636971e-07
-2.81672250514e-05
-2.80009993335e-05
-4.68108120642e-06
-2.19902045727e-05
-2.22920367011e-05
-8.27188803183e-06
-1.31082682139e-05
-1.78044033497e-05
-1.07329495561e-05
-4.22058384913e-06
-1.51268730307e-05
-1.04968776086e-05
-1.39715385313e-05
-5.59243123236e-06
2.87826630784e-06
-1.08562023384e-05
-5.8868265616e-06
9.90526175001e-06
-1.14734448686e-05
-1.05766218598e-05
1.71376057133e-05
-1.34770830081e-05
-1.14699927208e-05
2.22793896143e-05
-1.70835559003e-05
-1.02776128662e-05
2.44075751709e-05
-2.18183945277e-05
-8.25011154554e-06
2.33657059729e-05
-2.69465739045e-05
-6.03597742271e-06
1.95953940642e-05
-3.16869557247e-05
-4.12664624553e-06
1.39050705274e-05
-3.55212148682e-05
-2.83428371232e-06
7.15578278688e-06
-3.81422692368e-05
-2.19110963812e-06
-1.79768452458e-08
-3.94580181881e-05
-1.96973863249e-06
-7.20863141813e-06
-3.94771575057e-05
-1.95601850359e-06
-1.40046052334e-05
-3.81938956556e-05
-2.15192340586e-06
-1.97502720667e-05
-3.55903195319e-05
-2.78634625893e-06
-2.35572671254e-05
-3.17574846415e-05
-4.09105467451e-06
-2.46055420279e-05
-2.70138481515e-05
-6.02416206838e-06
-2.24561020991e-05
-2.18868779832e-05
-8.26356089265e-06
-1.72697343589e-05
-1.71618183105e-05
-1.03165976315e-05
-9.97347066256e-06
-1.35694804996e-05
-1.15312126894e-05
-2.8862046487e-06
-1.15796707411e-05
-1.06345114282e-05
-1.09678148812e-05
-5.88996737247e-06
2.13170299462e-06
-6.84652188457e-06
-6.14135961022e-06
7.69554890457e-06
-6.66957079558e-06
-1.03676944805e-05
1.35368431564e-05
-7.64458421106e-06
-1.1673764196e-05
1.77813992679e-05
-9.85861035215e-06
-1.14694694581e-05
1.96639706166e-05
-1.30079897218e-05
-1.06929409551e-05
1.90094514776e-05
-1.65359831103e-05
-9.7560333495e-06
1.60932414573e-05
-1.98341836348e-05
-8.9365204387e-06
1.15179793892e-05
-2.25392578409e-05
-8.40665054312e-06
5.95661662774e-06
-2.44003048862e-05
-8.18055637864e-06
-3.63660667524e-08
-2.53369786904e-05
-8.1280141761e-06
-6.04119926747e-06
-2.53501805202e-05
-8.1221075526e-06
-1.16346514799e-05
-2.44358816501e-05
-8.16453481911e-06
-1.62491721082e-05
-2.25874596565e-05
-8.38832245916e-06
-1.91943622638e-05
-1.9884835366e-05
-8.92745162979e-06
-1.98564650788e-05
-1.65857895488e-05
-9.76595617297e-06
-1.79579097643e-05
-1.30582953243e-05
-1.07271459699e-05
-1.36731797017e-05
-9.91560928312e-06
-1.1530956509e-05
-7.77122836504e-06
-7.71256344736e-06
-1.17588989322e-05
-2.14783939408e-06
-6.75161052807e-06
-1.0451496635e-05
-6.93891573711e-06
-6.17678320367e-06
2.10756301871e-06
-2.83260678222e-06
-6.121456066e-06
6.72735906671e-06
-2.07192881617e-06
-9.21741558192e-06
1.15430468346e-05
-2.09761772769e-06
-1.03626286815e-05
1.50984736078e-05
-2.8470071547e-06
-1.05670011504e-05
1.67414195327e-05
-4.18896893895e-06
-1.04619356051e-05
1.62797645916e-05
-5.82774491329e-06
-1.02465507918e-05
1.38787283457e-05
-7.37192858803e-06
-1.00611857414e-05
1.00041144217e-05
-8.69077307252e-06
-9.97383822016e-06
5.19590951256e-06
-9.60174903505e-06
-9.99032045707e-06
-4.51593631218e-08
-1.00598483242e-05
-1.00360354769e-05
-5.29453607325e-06
-1.00654173057e-05
-1.00353673166e-05
-1.01251637454e-05
-9.61656677305e-06
-9.9886763439e-06
-1.4028116244e-05
-8.71024035674e-06
-9.97426434729e-06
-1.64517107462e-05
-7.39129094691e-06
-1.00699547774e-05
-1.69200350577e-05
-5.84650657344e-06
-1.02709697385e-05
-1.52640165539e-05
-4.20669316526e-06
-1.05076383185e-05
-1.16723581109e-05
-2.86798651229e-06
-1.06393080252e-05
-6.80253569408e-06
-2.12562206345e-06
-1.04568041854e-05
-2.12854596984e-06
-2.11120940287e-06
-9.31445096665e-06
-2.88568185082e-06
-6.18183322861e-06
2.87462025127e-06
-5.70721623263e-06
6.91747353977e-06
-6.11477152199e-06
1.09404706148e-05
-6.12060236929e-06
1.39592157484e-05
-5.86573782343e-06
1.53614478207e-05
-5.59118519843e-06
1.49071633751e-05
-5.37344408453e-06
1.27671664278e-05
-5.23191540017e-06
9.24354436887e-06
-5.16713578737e-06
4.81863812916e-06
-5.1768297612e-06
-3.6603370965e-08
-5.20459735121e-06
-4.89826465311e-06
-5.20375132241e-06
-9.34023429355e-06
-5.17459780249e-06
-1.2885161704e-05
-5.16531877234e-06
-1.50416997454e-05
-5.23476324021e-06
-1.55019815093e-05
-5.38623939618e-06
-1.40881841465e-05
-5.62051031983e-06
-1.10410948822e-05
-5.91510310128e-06
-6.97864711981e-06
-6.18810879571e-06
-2.89618889521e-06
-6.19371953501e-06
-5.78190531033e-06
4.20671849726e-06
4.21093220056e-06
-1.40980257659e-05
8.72129659665e-06
4.8728677006e-06
-1.54725622199e-05
1.28106739348e-05
5.93106994152e-06
-1.61178954376e-05
1.5726604919e-05
7.59940107188e-06
-1.63700711535e-05
1.69479728162e-05
9.65373160259e-06
-1.64697135104e-05
1.62624121691e-05
1.1810215318e-05
-1.65146820897e-05
1.38128956408e-05
1.37552648783e-05
-1.65639976172e-05
9.94635201368e-06
1.53462369772e-05
-1.6680449662e-05
5.15654036714e-06
1.64391624339e-05
-1.68645708687e-05
-6.97702283549e-08
1.69919005611e-05
-1.70116108269e-05
-5.30247326727e-06
1.70018616198e-05
-1.70154630167e-05
-1.0109624575e-05
1.64666806367e-05
-1.68760428928e-05
-1.39974902144e-05
1.53851692257e-05
-1.67020270864e-05
-1.64633278898e-05
1.37990113561e-05
-1.6601563925e-05
-1.7152582866e-05
1.18567199098e-05
-1.65779719654e-05
-1.59158293156e-05
9.70184524655e-06
-1.65702993159e-05
-1.29636679107e-05
7.65083757024e-06
-1.65142509815e-05
-8.81986444494e-06
5.9877475102e-06
-1.63027333805e-05
-4.24763311326e-06
4.93817627932e-06
-1.56792072592e-05
4.29141627857e-06
-1.43018877311e-05
4.84515785061e-06
8.75590971605e-06
-1.54857593536e-05
9.54023942916e-06
9.60060107038e-06
-1.86047572868e-05
1.35175078049e-05
1.13316756937e-05
-1.97094405837e-05
1.62747810659e-05
1.40880510539e-05
-1.97960722723e-05
1.73534229315e-05
1.74944877241e-05
-1.93821137411e-05
1.65725114196e-05
2.10792091231e-05
-1.87512913169e-05
1.40243215852e-05
2.4366965938e-05
-1.81533398932e-05
1.00845734104e-05
2.70346457671e-05
-1.77596985847e-05
5.23022340646e-06
2.88745608832e-05
-1.76144758401e-05
-6.48072346079e-08
2.98108107267e-05
-1.76067321638e-05
-5.36805096105e-06
2.98297936017e-05
-1.7608653179e-05
-1.02445436605e-05
2.89267699262e-05
-1.7620677853e-05
-1.42122618756e-05
2.71081046213e-05
-1.77752562129e-05
-1.67835789582e-05
2.44486021097e-05
-1.81873224752e-05
-1.75730369193e-05
2.11634280525e-05
-1.88159927602e-05
-1.6485086397e-05
1.75818411598e-05
-1.94895746229e-05
-1.36962836429e-05
1.41819668473e-05
-1.99517886904e-05
-9.66776863593e-06
1.14342842145e-05
-1.99086337202e-05
-4.90860700388e-06
9.71525921127e-06
-1.88209782932e-05
8.88793068819e-06
-1.56645117824e-05
5.89363016105e-06
1.28820638071e-05
-1.61477444801e-05
1.12589663114e-05
1.36141810418e-05
-1.97167275681e-05
1.56068284717e-05
1.57155479094e-05
-2.03805429957e-05
1.84990367392e-05
1.91359882791e-05
-1.94013687074e-05
1.94997456318e-05
2.3366819621e-05
-1.75783167679e-05
1.84441228083e-05
2.78081618567e-05
-1.5460049333e-05
1.54910929207e-05
3.18825731074e-05
-1.35440136652e-05
1.10765316991e-05
3.5172526712e-05
-1.21845401218e-05
5.73438855735e-06
3.74379815189e-05
-1.14629705653e-05
-4.62617771872e-08
3.85946884358e-05
-1.11961436815e-05
-5.83936488625e-06
3.86204642934e-05
-1.11863522271e-05
-1.12138473933e-05
3.75069915292e-05
-1.143704831e-05
-1.5668447699e-05
3.52676609112e-05
-1.21570350196e-05
-1.86532573294e-05
3.19844118992e-05
-1.35347658976e-05
-1.97225396354e-05
2.79088279036e-05
-1.54853527138e-05
-1.87151860396e-05
2.34703525763e-05
-1.7648249785e-05
-1.5795134558e-05
1.92489836008e-05
-1.9521996624e-05
-1.13974960033e-05
1.58412263812e-05
-2.05478669544e-05
-5.96485991906e-06
1.37538036584e-05
-1.99001926222e-05
1.30375760592e-05
-1.62829654717e-05
7.5607938185e-06
1.5841068568e-05
-1.63995898707e-05
1.40107472512e-05
1.64075373307e-05
-1.98017654437e-05
1.90212765692e-05
1.86444103986e-05
-1.93974467497e-05
2.2198153153e-05
2.23506924175e-05
-1.66765302088e-05
2.31026251772e-05
2.69310142196e-05
-1.27503456196e-05
2.16084462522e-05
3.17216216752e-05
-8.50716315134e-06
1.79772843497e-05
3.60875555461e-05
-4.76834338061e-06
1.27614325586e-05
3.95905055839e-05
-2.1150360583e-06
6.5914412328e-06
4.19844100652e-05
-6.52758750599e-07
-1.95047688217e-08
4.31938793161e-05
-4.54856512264e-08
-6.65085311537e-06
4.3220385108e-05
-1.21276359655e-08
-1.28679764722e-05
4.20604037427e-05
-5.77907245582e-07
-1.81408859067e-05
3.96945961023e-05
-2.02671337178e-06
-2.18142642074e-05
3.61924346005e-05
-4.70363301208e-06
-2.33244396018e-05
3.18175164443e-05
-8.48580371004e-06
-2.24130908593e-05
2.70264260872e-05
-1.2774308722e-05
-1.92095871461e-05
2.24571944657e-05
-1.67476393699e-05
-1.4150939674e-05
1.87662793307e-05
-1.95143159811e-05
-7.63288766359e-06
1.65448000314e-05
-1.99342326221e-05
1.59930973481e-05
-1.64780155743e-05
9.61496531115e-06
1.7101930916e-05
-1.64948734225e-05
1.74190723783e-05
1.75224136351e-05
-1.93763417598e-05
2.32520259533e-05
1.96781438839e-05
-1.75608350234e-05
2.67762254244e-05
2.32901952814e-05
-1.2732270019e-05
2.75545598305e-05
2.77479742446e-05
-6.31633516869e-06
2.55006556488e-05
3.23840479252e-05
4.16223496174e-07
2.10326709691e-05
3.66185245238e-05
6.16965127318e-06
1.48302587049e-05
4.00066056107e-05
1.0205742687e-05
7.63457111605e-06
4.23258818785e-05
1.24152564562e-05
7.27631220399e-09
4.35022643029e-05
1.33093917263e-05
-7.64463541374e-06
4.35296961587e-05
1.33560199347e-05
-1.49066246529e-05
4.24027876274e-05
1.25440839594e-05
-2.11884687165e-05
4.01105238507e-05
1.03593083212e-05
-2.57097438006e-05
3.67151472649e-05
6.27916925939e-06
-2.77770495242e-05
3.24628764327e-05
4.57908133161e-07
-2.69858903941e-05
2.7820631834e-05
-6.32307393452e-06
-2.34335782472e-05
2.33727660343e-05
-1.27728768276e-05
-1.75538378969e-05
1.97771835956e-05
-1.76362108922e-05
-9.68365009968e-06
1.76376356124e-05
-1.94627231369e-05
1.72295173798e-05
-1.65210594306e-05
1.17773181532e-05
1.64444696501e-05
-1.65297855828e-05
2.10104600893e-05
1.67653152522e-05
-1.87314658839e-05
2.77015722519e-05
1.86437367303e-05
-1.54202577545e-05
3.15727812484e-05
2.18157040583e-05
-8.45298885394e-06
3.21920807061e-05
2.57145932861e-05
4.66101167217e-07
2.95832056831e-05
2.97994426913e-05
9.52603081215e-06
2.42406914665e-05
3.35120541767e-05
1.71886936831e-05
1.70135639872e-05
3.64934473503e-05
2.24593492769e-05
8.74257384612e-06
3.85372526966e-05
2.53211771697e-05
3.27029830227e-08
3.95733110772e-05
2.64725085583e-05
-8.70899338683e-06
3.95977674754e-05
2.65398661897e-05
-1.70674535057e-05
3.86040423615e-05
2.55112641693e-05
-2.43995097155e-05
3.65862029161e-05
2.26829062947e-05
-2.98051313818e-05
3.35952570491e-05
1.73250568866e-05
-3.24204872751e-05
2.986017129e-05
9.55041355307e-06
-3.1776222449e-05
2.57658799717e-05
4.33592507071e-07
-2.78715884761e-05
2.1872213114e-05
-8.4995283963e-06
-2.11345687737e-05
1.87134715102e-05
-1.54800369108e-05
-1.1839622792e-05
1.68477261034e-05
-1.87925249918e-05
1.65388226448e-05
-1.65238655875e-05
1.37264922347e-05
1.40091179228e-05
-1.65641465817e-05
2.43064125776e-05
1.42266222776e-05
-1.81141467508e-05
3.17875282996e-05
1.56947806555e-05
-1.34742415223e-05
3.59497765655e-05
1.81819226372e-05
-4.66433847911e-06
3.64341745727e-05
2.12373800461e-05
6.29368535532e-06
3.32988122505e-05
2.44447167037e-05
1.72760800365e-05
2.71667643724e-05
2.73662506091e-05
2.63643984299e-05
1.90183316856e-05
2.97218554608e-05
3.25604805181e-05
9.76484814283e-06
3.13590495346e-05
3.59003385643e-05
5.51622231123e-08
3.21907333561e-05
3.72256337123e-05
-9.69372934813e-06
3.22101718929e-05
3.73118086933e-05
-1.90541984246e-05
3.14096466898e-05
3.61429834555e-05
-2.73341873537e-05
2.9796032954e-05
3.28515430856e-05
-3.35392703894e-05
2.74345407811e-05
2.65209379136e-05
-3.6671353322e-05
2.44928124969e-05
1.72655509293e-05
-3.61498154458e-05
2.12757448424e-05
6.21007552345e-06
-3.19468816146e-05
1.82206247074e-05
-4.74353151498e-06
-2.44207610923e-05
1.57412173011e-05
-1.3543174261e-05
-1.37821467579e-05
1.42820595055e-05
-1.81711689225e-05
1.407379009e-05
-1.65487170599e-05
1.5319269869e-05
1.01449785823e-05
-1.66642975352e-05
2.69784823206e-05
1.0284644054e-05
-1.77017560902e-05
3.50841746644e-05
1.12709707548e-05
-1.20904269469e-05