/*--------------------------------*- C++ -*----------------------------------*\
| =========                 |                                                 |
| \\      /  F ield         | OpenFOAM: The Open Source CFD Toolbox           |
|  \\    /   O peration     | Version:  3.0.1                                 |
|   \\  /    A nd           | Web:      www.OpenFOAM.org                      |
|    \\/     M anipulation  |                                                 |
\*---------------------------------------------------------------------------*/
FoamFile
{
    version     2.0;
    format      ascii;
    class       surfaceVectorField;
    location    "3.1";
    object      Uf;
}
// * * * * * * * * * * * * * * * * * * * * * * * * * * * * * * * * * * * * * //

dimensions      [0 1 -1 0 0 0 0];

internalField   nonuniform List<vector> 
22672
(
(0.0011352862013 0.00038107480145 -0.00106198318672)
(0.000380193896146 0.00113687374621 -0.00106354057395)
(0.000716361175262 0.000715837364425 -0.00227215239939)
(0.00273533198348 0.000173672849905 -0.00104714845708)
(0.00168330502803 0.000834010306103 -0.00162379769929)
(0.00218231929085 0.000683951220983 -0.00243404760841)
(0.00433007481737 0.000160867931782 -0.00095097685535)
(0.00363342063337 0.000844249516733 -0.0018089085932)
(0.00397251843658 0.000783374096396 -0.00243898192026)
(0.00552846255063 0.000319652401596 -0.000828473951557)
(0.00521204891654 0.00114352552035 -0.00180251674517)
(0.00542026900066 0.00105229206352 -0.00234190071944)
(0.00608668985796 0.000608333455611 -0.00072353368828)
(0.00621010947873 0.00167963982771 -0.00175723872313)
(0.00631718712366 0.0014517977413 -0.00223785285517)
(0.00590810980294 0.000933622972922 -0.000647987989502)
(0.00641943562712 0.00233461531893 -0.0017088414274)
(0.00645916167458 0.00191464857756 -0.00215601978296)
(0.00505923654153 0.00123598268761 -0.000600171342734)
(0.00586774539576 0.00295219846419 -0.00167845387007)
(0.00588339542468 0.00232768545082 -0.00210330923382)
(0.00366010049317 0.00148423578912 -0.000575426724256)
(0.00464476966369 0.00347946314237 -0.00166755404172)
(0.00465334422297 0.00268842111564 -0.00208031161794)
(0.00190240578704 0.00163776250403 -0.000567811204529)
(0.00294970088278 0.00384380369667 -0.0016764252869)
(0.00295565135082 0.00293734523311 -0.0020860952732)
(-2.63039266312e-05 0.00168968029083 -0.000566668984093)
(0.00099289391618 0.00402713244629 -0.00168831792282)
(0.000995320093637 0.00306257648272 -0.00209841219423)
(-0.00195723517295 0.00163932563276 -0.00056764451545)
(-0.00104796953409 0.00402945810447 -0.00168849898715)
(-0.00105011569531 0.003064152892 -0.00209852083425)
(-0.00372060319483 0.00148662692215 -0.000575360943492)
(-0.0030096314956 0.00384996732437 -0.00167706530349)
(-0.00301503691295 0.00294155240923 -0.00208659874292)
(-0.005126287869 0.00123816444741 -0.000600821132102)
(-0.00471260878184 0.00348755610592 -0.0016691503442)
(-0.00472035296124 0.00269402131631 -0.00208187666406)
(-0.00597911358246 0.000935433432503 -0.000650118922732)
(-0.00594254241787 0.00296015263635 -0.00168198379015)
(-0.00595735490398 0.00233336958161 -0.00210733762289)
(-0.00615708844096 0.000609583066654 -0.000728371352757)
(-0.00649677479351 0.00234213870359 -0.00171535751124)
(-0.00653618829867 0.0019208171909 -0.00216417924238)
(-0.00559070649211 0.000320841187547 -0.000837082383941)
(-0.00628307389659 0.00168625083119 -0.00176866090722)
(-0.00639132424938 0.00145740646473 -0.00225265205377)
(-0.00437751866799 0.000163502848696 -0.000963197434964)
(-0.00527213228263 0.00115125747044 -0.00181849423295)
(-0.00548308860041 0.00105879315031 -0.00236446804912)
(-0.00276375586431 0.000178890842875 -0.00106222717646)
(-0.00367401596611 0.000854644935397 -0.00182887212812)
(-0.00401715932554 0.000791489473788 -0.00246843464071)
(-0.00114533606684 0.000390992955773 -0.00107822104859)
(-0.00170006361257 0.000849020308093 -0.0016442170826)
(-0.00220450513832 0.00069491249003 -0.00246747363169)
(-0.000381886922987 0.00115973398818 -0.00107695150056)
(-0.000721496866365 0.000731931543905 -0.00230509753766)
(0.000828824994901 0.00168976879599 -0.00162535508652)
(0.00017219721902 0.00274630740579 -0.0010538317785)
(0.000679608205481 0.00218699038729 -0.00243825035558)
(0.00265913582039 0.00162639534184 -0.00238555783541)
(0.00161683884404 0.00267648675162 -0.00238653723692)
(0.00220976033525 0.00222259253385 -0.00367277740428)
(0.00456988436942 0.00197721641108 -0.00266044848302)
(0.00399673967157 0.00306614230834 -0.00289194908794)
(0.00418289518775 0.00258564412207 -0.00413262917224)
(0.00598231396205 0.00269754024923 -0.00273128151674)
(0.00588796431906 0.00395117528158 -0.00297124610885)
(0.00574613390649 0.00332559333271 -0.00422006487611)
(0.0066368249234 0.00365101894638 -0.00274254646226)
(0.00705158326193 0.00521023915329 -0.00292093147338)
(0.00668375121357 0.00433658084491 -0.00418509390997)
(0.00645564706988 0.00464631460874 -0.00273930730797)
(0.00729379205055 0.00662110376823 -0.00283249833836)
(0.00683526395324 0.00544665504209 -0.00410529291704)
(0.00550325253774 0.00552937373005 -0.00274583656906)
(0.00662815272761 0.00794055273968 -0.00275944645751)
(0.00619751909484 0.00647692617904 -0.0040359415724)
(0.00396443715289 0.00620443022298 -0.00276855260436)
(0.0052142272627 0.00902272095403 -0.00272861793818)
(0.0048854125424 0.00732062917722 -0.00400442487364)
(0.00205416492486 0.00661814337623 -0.00279693200518)
(0.00329360899288 0.00976747012116 -0.00273918612659)
(0.00309594699557 0.00790180434377 -0.00401337869093)
(-2.81436738849e-05 0.00675855053798 -0.00281014792587)
(0.0011078210065 0.0101425980198 -0.00275933932915)
(0.00104208302827 0.00819559263731 -0.00403314513234)
(-0.00211331404862 0.00662540786949 -0.00279791977518)
(-0.00115981739149 0.0101482199657 -0.0027592207359)
(-0.00109657891494 0.00820055753717 -0.00403358482389)
(-0.00403113601308 0.00621688772402 -0.00277085470419)
(-0.00335271798277 0.0097826147706 -0.00273906211931)
(-0.00315652162087 0.00791537032161 -0.00401482506034)
(-0.00557890793454 0.00554397401962 -0.00275031300224)
(-0.00528472307561 0.00904332341245 -0.00272968883689)
(-0.00495603585295 0.0073395291288 -0.00400800153418)
(-0.0065373793943 0.00466082837004 -0.00274722237866)
(-0.00670877679901 0.0079622110064 -0.0027635191152)
(-0.00627778259766 0.0064976106145 -0.00404359918654)
(-0.00671792481455 0.00366483248493 -0.0027556470657)
(-0.00737839830262 0.00664213781327 -0.00284147768805)
(-0.00692063475965 0.00546761699261 -0.00411947115864)
(-0.00605411043083 0.00271169148739 -0.00275007275623)
(-0.00713133121939 0.00523103501236 -0.00293625994016)
(-0.00676683815893 0.00435778322546 -0.00420862033871)
(-0.00462408257941 0.00199385378763 -0.00268416892611)
(-0.00595364068354 0.00397391034207 -0.00299263981008)
(-0.00581826339872 0.00334843042643 -0.0042527064651)
(-0.00268922502389 0.00164788180452 -0.00241086203426)
(-0.00404013275623 0.00309314714118 -0.00291815266628)
(-0.00423570753782 0.0026117213175 -0.0041733902434)
(-0.000836136090051 0.00171876312785 -0.00164294753456)
(-0.00163172147862 0.00270973691968 -0.00241033701052)
(-0.00223668292193 0.00225396419086 -0.00371384267066)
(-0.000171159534255 0.00278728404392 -0.00106160800484)
(-0.000686977571332 0.00222634698755 -0.00246371570265)
(0.000839141457206 0.00365552437611 -0.0018150139289)
(0.000159641142011 0.00435836154174 -0.000959942364299)
(0.000777818406124 0.00399248958275 -0.0024511859042)
(0.00304659810629 0.00402368623471 -0.00289292848945)
(0.0019669400668 0.004604168179 -0.0026630591628)
(0.00257002056365 0.00421108138104 -0.00413512658287)
(0.00536712703353 0.00493147388661 -0.00320274671377)
(0.0049023582748 0.00540515497685 -0.00320208925082)
(0.00488347767068 0.00491584356076 -0.00465952773431)
(0.00705510679207 0.00633158107207 -0.00316089606549)
(0.00720816480013 0.00684770800831 -0.00310776186343)
(0.00667637511604 0.00614405270858 -0.00458449629222)
(0.00780561979919 0.00801510883553 -0.00301088334948)
(0.00858076815544 0.0087418641452 -0.00279911930471)
(0.00771083738401 0.0077274486327 -0.00428211983449)
(0.00754752380696 0.0097129009505 -0.00285263748789)
(0.00881002085031 0.0107939185153 -0.00244143933804)
(0.00782966115635 0.00942729414772 -0.0039146991246)
(0.00638950313003 0.0111948483744 -0.00274222782664)
(0.00793600813003 0.0126911808742 -0.00213910077055)
(0.00704313488399 0.0109979349072 -0.00359258706832)
(0.00457087078514 0.0123148129225 -0.00269925146042)
(0.00618729482828 0.0142258741272 -0.00195374344887)
(0.00551030156545 0.0122717589004 -0.00338450072918)
(0.0023597204892 0.0130000825324 -0.00270159345056)
(0.00388046606765 0.0152753270588 -0.00188605803392)
(0.00347339361748 0.0131478180751 -0.00329668829881)
(-2.31729633957e-05 0.0132331989517 -0.00270841213919)
(0.00130649591075 0.0158026805026 -0.00187723256603)
(0.00117133657908 0.0135918260274 -0.00327717423883)
(-0.00241043768486 0.0130132428425 -0.00270036308002)
(-0.00134482441614 0.0158110104637 -0.001875202164)
(-0.0012135101316 0.0135999815911 -0.00327551634147)
(-0.00463308440598 0.012337516539 -0.002697896252)
(-0.00392983992704 0.015297783774 -0.00188096135042)
(-0.00352476880453 0.0131698493809 -0.00329251956473)
(-0.00646517902749 0.0112218036054 -0.00274289494985)
(-0.00625404133258 0.0142562338894 -0.00194851998369)
(-0.00557653219866 0.0123022517737 -0.0033808203712)
(-0.00763196920952 0.0097402529677 -0.00285777442459)
(-0.00801770649493 0.012722478192 -0.00213761705513)
(-0.00712327155564 0.011030915898 -0.00359348830356)
(-0.00788990977005 0.00804215983945 -0.0030220905625)
(-0.0088971204531 0.0108237315224 -0.00244622790004)
(-0.00791694430025 0.00946029189945 -0.00392367014645)
(-0.00712969759585 0.00635992213071 -0.00317882699401)
(-0.00866237792568 0.00877172576585 -0.00281067748197)
(-0.00779642332805 0.00776120419955 -0.00430092458037)
(-0.00542273961727 0.00496344624312 -0.00322662355024)
(-0.00727464837665 0.00688086274093 -0.00312646878117)
(-0.00675138045307 0.00618062851526 -0.00461393632141)
(-0.00307614290006 0.00406122732988 -0.00291762764254)
(-0.00494511105248 0.00544379178536 -0.00322614058582)
(-0.00493892996793 0.00495684736886 -0.00469727244107)
(-0.000844407659569 0.00369964262817 -0.0018289974808)
(-0.00197912725642 0.00464951730785 -0.00268336051735)
(-0.00259806001797 0.0042577657217 -0.00417155379016)
(-0.000156173883175 0.00441018935554 -0.000961128964529)
(-0.000785407381657 0.00404575263393 -0.00246734335356)
(0.00113794125642 0.00525211006083 -0.00180798759819)
(0.000319044899531 0.00557235128473 -0.000836235271252)
(0.00104660154463 0.00545699760425 -0.00235192003029)
(0.00393090194767 0.005933532414 -0.00297221992416)
(0.00268779477133 0.00603460656735 -0.00273167876171)
(0.0033089901724 0.00579097831578 -0.00422338623632)
(0.0068079304674 0.00725691478986 -0.00310710440048)
(0.00630247858674 0.0071113699203 -0.00315846246419)
(0.00611013129636 0.00672557154011 -0.00458322825443)
(0.00885488803792 0.00916539168227 -0.00274598510265)
(0.00911554863318 0.00891475688418 -0.00274373195713)
(0.00824007395976 0.00829187331738 -0.00411398885978)
(0.00970398150487 0.0113878384671 -0.00222967529326)
(0.0107297033108 0.0112054738207 -0.00202097047144)
(0.00941056451999 0.0102680155866 -0.00331268336717)
(0.00929111673698 0.0135943328674 -0.00172790262069)
(0.0109092111012 0.0136419721787 -0.00123699260108)
(0.00945647403195 0.0123636688188 -0.00243516717392)
(0.00779162676602 0.0155027312455 -0.00135061639278)
(0.0097359510392 0.0158685196354 -0.000575553889547)
(0.00842067490327 0.0142857375823 -0.00167782552682)
(0.00552717144832 0.0169339728611 -0.00114055002238)
(0.00752490375608 0.0176555347052 -0.000138061622231)
(0.00652640657139 0.0158324176828 -0.00116518126773)
(0.00284098843065 0.0178045039552 -0.00106169714939)
(0.00468772333985 0.0188720794137 6.6922769108e-05)
(0.00408569552993 0.0168891530424 -0.000910546057303)
(-1.43811364059e-05 0.0180996841021 -0.00104402259085)
(0.00158015047157 0.0194809819065 0.000130467878169)
(0.00138064341843 0.0174218890339 -0.000822911338225)
(-0.00287648421748 0.0178216286871 -0.0010558004344)
(-0.00159921542236 0.019490561143 0.000135038116749)
(-0.00140358130439 0.0174318403552 -0.000817432231502)
(-0.00558022012496 0.0169632898203 -0.00113158508212)
(-0.00472330689911 0.0188981785088 7.93624918951e-05)
(-0.00412273341844 0.0169164890198 -0.000896650604081)
(-0.00786499185 0.0155364684519 -0.00134324208897)
(-0.0075865741217 0.0176900760194 -0.000123832287243)
(-0.00658562056838 0.0158695935056 -0.00114907035717)
(-0.00937677344582 0.0136269966627 -0.00172607053057)
(-0.00981902564059 0.0159018348878 -0.000567143521916)
(-0.00849970257669 0.0143240305927 -0.00166758299336)
(-0.00978950774274 0.0114192073673 -0.00223481481951)
(-0.0109985831749 0.013671348042 -0.00123736730967)
(-0.00954445354862 0.0123999343147 -0.00243489688776)
(-0.00892923362558 0.00919859234816 -0.00275831926913)
(-0.0108112102263 0.0112341604744 -0.00202851305467)
(-0.00949619173991 0.0103046040075 -0.00332272900013)
(-0.00686200414231 0.00729511369171 -0.00312598581675)
(-0.00917979750193 0.00894794592541 -0.00275792636921)
(-0.00831451865036 0.00833250722451 -0.0041343378051)
(-0.00395766785798 0.0059782394159 -0.00299187346064)
(-0.00634205103488 0.00715163088381 -0.00317754179322)
(-0.00616488135511 0.00677209258909 -0.00461220624404)
(-0.00114017326311 0.00530317488783 -0.00181549200108)
(-0.00269620327472 0.0060820082331 -0.0027461315736)
(-0.00333564696195 0.00584378359741 -0.00425002394571)
(-0.000313063036978 0.00562578829545 -0.000830346096159)
(-0.0010529546736 0.00551554682572 -0.00235580285028)
(0.00167572015556 0.00626549065439 -0.00175992643477)
(0.000609281853644 0.0061442662321 -0.000730792840163)
(0.00144668604488 0.00636991310886 -0.00224762330227)
(0.00519104908497 0.00711363946866 -0.00291792130174)
(0.00364379099335 0.00670224033352 -0.00274047757415)
(0.00432106972822 0.00674404091506 -0.00418294897638)
(0.008703066138 0.00864757333215 -0.00279509002084)
(0.00798874879748 0.00787703621532 -0.00300581717638)
(0.00769426031069 0.00777583890273 -0.00427766722463)
(0.011144612211 0.0107999592724 -0.00201871732592)
(0.0113404255045 0.00978066764775 -0.00222291180115)
(0.0102163455203 0.00947947831582 -0.00330743814438)
(0.0120790233568 0.0132698383444 -0.00102828777926)
(0.0131995094366 0.012159514815 -0.00102431836405)
(0.0115352167113 0.0116061477752 -0.00188843072265)
(0.0114574799425 0.0156970805777 -8.46438699341e-05)
(0.0132891015833 0.0146536599487 0.000237677315155)
(0.0114751574385 0.0138431580415 -0.000390119951914)
(0.00953017478506 0.0177799128589 0.000637000881005)
(0.0117624545529 0.0169028203078 0.00129474098386)
(0.0101251244232 0.0158817282576 0.000893032040926)
(0.00671631253248 0.0193365848621 0.00106941116926)
(0.00902534919663 0.0187016809488 0.00200324359062)
(0.00778500861025 0.0175148281736 0.00176774634906)
(0.00344172272291 0.0202825331474 0.00125908779667)
(0.00558944462917 0.0199223126702 0.00234884587322)
(0.00484498298992 0.0186284812189 0.00222438830089)
(-4.01246523947e-06 0.0206029752337 0.00130952858577)
(0.00188441885927 0.0205305823106 0.00246230783078)
(0.00163924296285 0.0191886059666 0.00239616540334)
(-0.00345909615434 0.0203008747513 0.00127020104305)
(-0.001882866613 0.0205403265449 0.00246920843017)
(-0.00164065103862 0.019199061122 0.0024053444657)
(-0.00675932145106 0.0193675474116 0.00108711528677)
(-0.00561060793114 0.0199486467428 0.00236888173622)
(-0.00486612932237 0.0186575131115 0.00224977560107)
(-0.00960258588811 0.0178136414944 0.000652266279814)
(-0.00908343173073 0.0187359989362 0.00202624468063)
(-0.00783830006742 0.0175535032952 0.00179735036598)
(-0.0115460466025 0.0157266511249 -7.84403010143e-05)
(-0.0118496278473 0.0169330484258 0.00130723060701)
(-0.0102057006362 0.0159183646615 0.000912246011092)
(-0.0121657014225 0.0132959607194 -0.00103106554483)
(-0.0133821287087 0.0146765957291 0.000236856749346)
(-0.0115653994614 0.0138743548749 -0.000385602906048)
(-0.0112166392103 0.0108278589202 -0.00202812015475)
(-0.0132799272504 0.0121801443814 -0.00103286240914)
(-0.0116198800113 0.0116360532033 -0.00189506347037)
(-0.00875291422719 0.00868171954586 -0.00280948234569)
(-0.0114000776349 0.00980616623899 -0.00223562384756)
(-0.0102875176318 0.00951406099704 -0.00332196901795)
(-0.00521356966972 0.00715519367117 -0.00293179990618)
(-0.00802327654141 0.0079104449344 -0.00302116732897)
(-0.00774564381196 0.00781754670205 -0.00429818910515)
(-0.00167476449806 0.0063137080631 -0.00176098566867)
(-0.00364780655144 0.00674299621102 -0.00275107358186)
(-0.0043448072352 0.00679252580248 -0.00419983185196)
(-0.000600794595869 0.00619135025798 -0.000719591627296)
(-0.00145144208431 0.00642408978817 -0.00224035724515)
(0.00233306386123 0.00648673554471 -0.00171134397954)
(0.000935572383771 0.00597519229488 -0.000654322059982)
(0.00191144999191 0.00652488183915 -0.00216397765833)
(0.00660605334469 0.00736842323513 -0.0028283734488)
(0.0046424699364 0.00653144104302 -0.00273662996704)
(0.00543401187137 0.00690780204398 -0.00410217594288)
(0.0107594876009 0.00889070794281 -0.0024336389567)
(0.00969128665033 0.00762904948411 -0.00284394226362)
(0.00939787274471 0.00790707377854 -0.00390543073036)
(0.0135845233325 0.0109953007743 -0.00122851283929)
(0.013552078386 0.00937817335317 -0.00171520464077)
(0.0123158461465 0.00953873340541 -0.0024225216335)
(0.0145740084382 0.0133777711799 0.000241646730359)
(0.0156297968015 0.0115492631498 -7.11020584567e-05)
(0.0137742116181 0.011561435682 -0.000379209896845)
(0.0137012373161 0.015679769729 0.00161706216895)
(0.0155916426885 0.0137934628549 0.00162352631927)
(0.0135828248173 0.0136695336849 0.00173299657493)
(0.011313772454 0.0176343097712 0.00266098369348)
(0.0137061703661 0.0157944665185 0.00301604941529)
(0.0118968338258 0.0155702295977 0.00349585289983)
(0.00792565526992 0.0190886360909 0.00328267829459)
(0.0104512983498 0.017402251261 0.00394497849635)
(0.00908830814307 0.017088626986 0.00468758730045)
(0.00404721599547 0.019966385463 0.00355206590733)
(0.00643628961084 0.0184962180105 0.00439209587609)
(0.00562728597172 0.0181216067946 0.00530457922973)
(5.97082923739e-06 0.020262099109 0.00362198767518)
(0.00216741198854 0.0190384465689 0.00453345030622)
(0.00190402575321 0.0186387935135 0.00553342777175)
(-0.00404749581272 0.0199840066057 0.00356788912334)
(-0.00214683857987 0.0190473832998 0.00454253744767)
(-0.00188516070394 0.0186489659781 0.00554645349313)
(-0.00796012914105 0.0191182099698 0.00330801113007)
(-0.00644444840962 0.0185197266015 0.00441863281756)
(-0.0056341384172 0.018149541691 0.00534158876483)
(-0.011388020506 0.0176650908099 0.00268120900783)
(-0.0105078822026 0.0174333249737 0.00397500272547)
(-0.00913879902059 0.0171257700515 0.00473058864193)
(-0.0137953277658 0.0157034001395 0.00162252765737)
(-0.0138003284645 0.0158205579823 0.0030290261208)
(-0.0119830362714 0.0156024774336 0.00351980779186)
(-0.0146622785639 0.0133951075525 0.000235059885039)
(-0.0156904436767 0.0138106015742 0.00161753716022)
(-0.0136777945131 0.0136927973561 0.00173294280843)
(-0.0136530616994 0.0110132736955 -0.00124036610195)
(-0.0157095637729 0.0115616602804 -8.58342711722e-05)
(-0.0138579501166 0.0115811885405 -0.000390745157578)
(-0.0108034182158 0.00891513936044 -0.00244730883084)
(-0.0136061295694 0.00939465753299 -0.00173061586606)
(-0.0123819973637 0.00956257325958 -0.00243815584229)
(-0.00662330107033 0.00740069060158 -0.00284044100464)
(-0.00971987382105 0.00765295587562 -0.00285868159781)
(-0.00944403059037 0.00793809483583 -0.00392265757989)
(-0.00232843746233 0.00652586512931 -0.00170967954048)
(-0.00464194435721 0.00656304350988 -0.0027450892795)
(-0.00545368305954 0.00694561243529 -0.00411494952087)
(-0.000925122659226 0.00601282042052 -0.000640373486663)
(-0.00191395938798 0.00656805741441 -0.00214993823203)
(0.00295260342365 0.00594257705906 -0.00167960804748)
(0.00123877348525 0.00513181096819 -0.000605578698039)
(0.00232508934478 0.0059570438616 -0.00210920957046)
(0.00792979339577 0.0067098009066 -0.00275219878187)
(0.00552826121933 0.00558344161052 -0.00274094811423)
(0.00646725695169 0.00627722986574 -0.0040291759418)
(0.0126621623211 0.00802271622943 -0.0021255079477)
(0.0111772328682 0.0064735418857 -0.00272964612)
(0.010973093719 0.00712641342143 -0.00357684391283)
(0.0158160080128 0.00982720967515 -0.000557793859946)
(0.0154651672281 0.0078787130802 -0.00133138030599)
(0.0142433337945 0.0085075250396 -0.00165436425896)
(0.0168255089615 0.0118560502712 0.00131077753045)
(0.0177157348537 0.0096194625894 0.000660110662754)
(0.0158167276631 0.0102150946546 0.000920326075442)
(0.0157027410793 0.0137999742553 0.0030225135656)
(0.0175474482056 0.0114018989153 0.00267886636067)
(0.0154851352909 0.011987646735 0.00351436580623)
(0.0128877924069 0.0154545309537 0.00430004421816)
(0.0153609295912 0.0129748823999 0.00430588945154)
(0.0134879671449 0.01357840128 0.00563457656273)
(0.00898313146755 0.0166957109643 0.00505439607785)
(0.0116597716643 0.0142508390514 0.00540157287961)
(0.0102539378859 0.014863436966 0.00705612782979)
(0.00457167650852 0.0174434509987 0.00537348027497)
(0.00715670440263 0.0151203415752 0.00585926574414)
(0.00632377863163 0.0157416010633 0.00778739565544)
(1.49869498918e-05 0.0176941540163 0.0054540000787)
(0.00240803300784 0.0155419280941 0.00598165488887)
(0.00213874499831 0.0161795339314 0.00805327745743)
(-0.00455704771286 0.0174583239843 0.00539328114189)
(-0.0023719735641 0.0155494256759 0.00599215513123)
(-0.00210205974564 0.0161882143771 0.00807005994721)
(-0.0090107228457 0.016720862784 0.00508562441295)
(-0.00715388986225 0.0151382717712 0.00588845328367)
(-0.00631819011067 0.0157646382437 0.00783518831552)
(-0.0129659165183 0.0154810139204 0.00432281983844)
(-0.0117145746614 0.0142760524789 0.00543678190909)
(-0.0103034560097 0.0148953376914 0.00711250943453)
(-0.0158048471858 0.0138196158563 0.00302403562365)
(-0.0154618071095 0.0129974863045 0.00431806920376)
(-0.0135823887614 0.0136059596333 0.00566202809862)
(-0.0169177113169 0.0118685128231 0.00129664300401)
(-0.0176525492373 0.0114170423132 0.00266731008021)
(-0.0155870693212 0.0120059745428 0.00350643247081)
(-0.0158816111621 0.00983846300213 -0.000576084035287)
(-0.017796359037 0.00962896049153 0.000638372710559)
(-0.0159007594444 0.0102284821907 0.000896594565457)
(-0.0127001845775 0.00803880275665 -0.00214198863303)
(-0.0155150233282 0.00789007190826 -0.0013515299)
(-0.0143047929247 0.00852293158108 -0.00167685774671)
(-0.00794152915903 0.00673280322451 -0.00276332987266)
(-0.0112010169096 0.00648996621878 -0.00274594953823)
(-0.0110139114196 0.00714726117105 -0.00359569315125)
(-0.00294519290403 0.00597228499941 -0.00167578322568)
(-0.00552427369074 0.00560591494681 -0.00274841291273)
(-0.00648304472538 0.00630395248047 -0.00403924539824)
(-0.00122719707031 0.00516020408556 -0.00059073779646)
(-0.00232606371924 0.00598908227948 -0.0020926064585)
(0.00348149842599 0.00472227899474 -0.00166691876479)
(0.00148791734624 0.0037339998696 -0.000579712725221)
(0.00268669386648 0.00473037361617 -0.00208367468255)
(0.00901453628513 0.00529640049445 -0.00271839545236)
(0.00620430707732 0.00404423646701 -0.00276144194807)
(0.00731251248008 0.0049666523973 -0.00399381789195)
(0.0142000256868 0.0062712302981 -0.0019355184783)
(0.012298493502 0.0046515008976 -0.00268390868737)
(0.0122495923875 0.00559230947654 -0.00336343038979)
(0.0176059853289 0.00760955907362 -0.000113475783293)
(0.0168977181967 0.0056066252854 -0.0011173580239)
(0.015793187796 0.00660827332286 -0.00113384909661)
(0.0186260939574 0.00910873188441 0.00202819949297)
(0.0192724578813 0.00679363246736 0.00109701604883)
(0.0174523344505 0.00786597723529 0.00180575154717)
(0.0173110138612 0.0105322313035 0.0039622422466)
(0.0190008536693 0.00799797188984 0.00330448945262)
(0.0170049873478 0.00916685663851 0.00471904803671)
(0.0141641544442 0.0117393238199 0.00540741811299)
(0.0166014866359 0.00905189024968 0.00506424944769)
(0.0147736564189 0.0103300011919 0.00706990696474)
(0.00983929756534 0.0126618254557 0.0062064425459)
(0.0125831674518 0.00990736848892 0.00620506864787)
(0.0112025044836 0.0112770430703 0.00866839930001)
(0.00500439172143 0.0132312125726 0.00646744035803)
(0.00770976025783 0.0105036626672 0.00661992480566)
(0.00689775104402 0.0119344800363 0.00945167160569)
(2.15808467188e-05 0.0134224462976 0.00651980994139)
(0.00259227724513 0.0107967865104 0.00672520251842)
(0.00233293603692 0.0122594726347 0.00972804839355)
(-0.00497813629706 0.0132416184299 0.00648732727301)
(-0.00254528079133 0.0108018123341 0.006737064252)
(-0.00228204922576 0.0122659513557 0.00974742606707)
(-0.00985940146174 0.0126790394665 0.0062396107798)
(-0.00769881072408 0.0105144943639 0.00664791628071)
(-0.00688073929106 0.0119489443039 0.00950512743795)
(-0.0142436232478 0.0117596288102 0.0054320312744)
(-0.0126336639093 0.00992412903661 0.00624137227594)
(-0.0112479107583 0.0112990153326 0.00873621131518)
(-0.0174188641062 0.0105494807219 0.00396134366032)
(-0.0167049412424 0.00907058030861 0.00507787511439)
(-0.0148727062456 0.0103518898494 0.00710219060417)
(-0.0187220546669 0.00912020476473 0.00200903978676)
(-0.0191102420915 0.00801227221992 0.00329138642765)
(-0.0171122098858 0.00918252485669 0.00470798285301)
(-0.0176709978321 0.00761878852022 -0.000137073154158)
(-0.0193547584773 0.00680294409879 0.0010711333603)
(-0.017537849354 0.00787699476495 0.00177496338673)
(-0.014234968427 0.00628290900994 -0.0019554908052)
(-0.0169458717306 0.00561646833162 -0.00114138786458)
(-0.0158525043412 0.0066194871829 -0.0011624370343)
(-0.00902311362276 0.00531248949027 -0.0027310325783)
(-0.0123199251445 0.00466384616383 -0.00270226267489)
(-0.0122874144511 0.00560646279632 -0.00338575894408)
(-0.00347231951022 0.00474365902644 -0.00166336748351)
(-0.00619852328845 0.00406054650836 -0.00276994327668)
(-0.00732622196438 0.0049847176042 -0.00400546149354)
(-0.00147560315911 0.00375514019882 -0.000565000102771)
(-0.00268677728085 0.00475283673901 -0.00206728419161)
(0.00384608957746 0.00302597938679 -0.0016742359085)
(0.00164164941124 0.00197498150062 -0.000571047806909)
(0.00293561378114 0.00303201630821 -0.00208705860763)
(0.00975914181927 0.00337216501143 -0.00272695518308)
(0.00661715975948 0.00213096397967 -0.0027880515458)
(0.00789312182143 0.00317477459329 -0.00399976487339)
(0.0152487056288 0.00395721815129 -0.00186574823297)
(0.0129821778308 0.00243491808419 -0.00268499769273)
(0.0131250434794 0.00355011437589 -0.00327296250877)
(0.0188209815229 0.00476089781765 9.31338082295e-05)
(0.0177658279493 0.00291204610581 -0.00103791940643)
(0.0168487211591 0.00415825501076 -0.000877672455182)
(0.0198440534904 0.00565731257532 0.00237330600848)
(0.0202149996173 0.00350777128687 0.00128494571097)
(0.0185636033938 0.00491246819788 0.00226282286234)
(0.0184024559542 0.00649883021774 0.00440649665371)
(0.01987537681 0.00410707892757 0.0035684399926)
(0.018034914685 0.00568867679651 0.00533253842099)
(0.0150331004996 0.00721740322464 0.00586189998257)
(0.0173484825212 0.00462756477001 0.00537656289832)
(0.0156503249666 0.00638064519907 0.00779374801316)
(0.0104354634903 0.00777148594463 0.00661855090763)
(0.0131555586312 0.0050603994205 0.00646227030023)
(0.0118613315954 0.00695357334952 0.00944469501665)
(0.00530690414109 0.00810715593298 0.00687768696605)
(0.00804681097775 0.00536427902227 0.0068787898714)
(0.00728927824671 0.0073452814072 0.0102680518898)
(2.59647622992e-05 0.00821738038863 0.00694245682903)
(0.00270261913124 0.00551208246574 0.00699581630646)
(0.00246387297585 0.00753497633434 0.0105657647142)
(-0.00527323684555 0.00811240188309 0.0068976532597)
(-0.0026492216628 0.0055136248675 0.00700693727144)
(-0.00240312535887 0.00753782637213 0.0105875109026)
(-0.0104490667716 0.00778150609472 0.00664967777684)
(-0.00802939066822 0.00537032322543 0.00690547463369)
(-0.00726411812623 0.00735268397217 0.0103201105364)
(-0.015109568901 0.00723179062518 0.00588721611592)
(-0.0132006421059 0.00507002099097 0.00649817452522)
(-0.0118993709057 0.00696601695723 0.0095146973021)
(-0.0185121934216 0.00651369233354 0.00440791788172)
(-0.0174508823043 0.00464032301033 0.00539471333199)
(-0.0157481612105 0.0063963543377 0.0078329421918)
(-0.0199424604969 0.0056686966679 0.00235348000118)
(-0.0199867418969 0.00411852449779 0.00355806052676)
(-0.0181443237207 0.00570178245456 0.00532404937037)
(-0.0188864549082 0.00477021592975 6.68186498795e-05)
(-0.0202988109751 0.00351666479959 0.00125836750098)
(-0.0186504369125 0.00492239236175 0.0022302862892)
(-0.0152828498081 0.00396739161628 -0.00188815973427)
(-0.017813849059 0.0029213433681 -0.00106392699407)
(-0.0169075738707 0.00416791911957 -0.000908485463427)
(-0.00976651112613 0.00338465412701 -0.00274117337327)
(-0.0130029481269 0.00244540551425 -0.00270459207433)
(-0.0131618002376 0.0035609554511 -0.00329791843179)
(-0.00383612608947 0.00304206594389 -0.00167157589594)
(-0.00661078972848 0.00214379997577 -0.00279755137374)
(-0.00790616437645 0.00318795293282 -0.00401367165182)
(-0.00162902889266 0.00199104081994 -0.000556771491416)
(-0.00293540342151 0.00304842171128 -0.00207205347109)
(0.00402855798786 0.00106629037511 -0.0016848634442)
(0.00169342706251 4.3728585201e-05 -0.000569197926259)
(0.00306018364873 0.00106905929705 -0.00209729272402)
(0.0101320341917 0.00118186476543 -0.00274609405545)
(0.00675585580522 4.50493704564e-05 -0.00280017396084)
(0.00818470663623 0.00111702908988 -0.00401754693336)
(0.015772498789 0.00137693365643 -0.00185716886619)
(0.0132124326331 4.7672382855e-05 -0.0026917768671)
(0.0135658282809 0.00124257049066 -0.00325320033169)
(0.0194256649873 0.00164525767124 0.000153892496315)
(0.0180572289257 5.20259734454e-05 -0.00102203599125)
(0.0173772543184 0.0014458117517 -0.000793120902505)
(0.0204483802396 0.00194363455281 0.0024800796951)
(0.0205314470797 5.76980907896e-05 0.00133090663869)