/*--------------------------------*- C++ -*----------------------------------*\
| =========                 |                                                 |
| \\      /  F ield         | OpenFOAM: The Open Source CFD Toolbox           |
|  \\    /   O peration     | Version:  3.0.1                                 |
|   \\  /    A nd           | Web:      www.OpenFOAM.org                      |
|    \\/     M anipulation  |                                                 |
\*---------------------------------------------------------------------------*/
FoamFile
{
    version     2.0;
    format      ascii;
    class       volVectorField;
    location    "1.4";
    object      U_0;
}
// * * * * * * * * * * * * * * * * * * * * * * * * * * * * * * * * * * * * * //

dimensions      [0 1 -1 0 0 0 0];

internalField   nonuniform List<vector> 
15984
(
(0.000656804913069 0.000241736057232 -0.000592525864313)
(0.00193048323731 0.000262314295821 -0.000567567718879)
(0.00263738023339 0.000540115063445 -0.000552149227877)
(0.0020209291128 0.000870968405001 -0.000551413546495)
(0.000492068481814 0.00104599415291 -0.000560725491676)
(-0.00131836264828 0.00105319325492 -0.000541323224195)
(-0.00300785599381 0.000885611624005 -0.000495188054107)
(-0.00395776108428 0.000561348373991 -0.000436523959789)
(-0.00385262052135 0.000230596066248 -0.000366340428804)
(-0.00307885359862 3.80002981471e-05 -0.000284855111826)
(-0.00219795634913 -3.8862060305e-05 -0.000203702896022)
(-0.00144182021015 -5.28985363979e-05 -0.000136868772983)
(-0.000880856092434 -4.84235515828e-05 -8.40343737309e-05)
(-0.000505089365929 -3.82522370467e-05 -4.77715789441e-05)
(-0.000266302055183 -2.9925393354e-05 -2.46456331771e-05)
(-0.000118100962313 -2.3879699913e-05 -1.11601670354e-05)
(-2.27413828748e-05 -1.97093515502e-05 -4.57195173418e-06)
(4.65130357818e-05 -1.68480857952e-05 -2.43705726626e-06)
(0.000106255299329 -1.47560579073e-05 -2.79461193149e-06)
(0.000164066222351 -1.31467079312e-05 -3.85571458126e-06)
(0.000221728491985 -1.1901923019e-05 -4.61740041795e-06)
(0.000277704996159 -1.08940761125e-05 -4.59852192653e-06)
(0.00032906168035 -1.01524589124e-05 -3.56539843726e-06)
(0.000372805430497 -9.60966086082e-06 -1.7259312286e-06)
(0.000406640284031 -9.19042608877e-06 8.08273567474e-07)
(0.000429501821956 -8.87107311224e-06 3.90509296947e-06)
(0.000441286611849 -8.72347861124e-06 6.81558049949e-06)
(0.000442392334909 -8.68048346531e-06 9.51497630985e-06)
(0.000433794370366 -8.71816099841e-06 1.194930963e-05)
(0.000416678010576 -8.81801719483e-06 1.40761458448e-05)
(0.000392373720453 -8.96440323143e-06 1.58617390281e-05)
(0.000362273034331 -9.14252515255e-06 1.72943621852e-05)
(0.000327807184548 -9.3551406637e-06 1.83739749756e-05)
(0.000290180489408 -9.57154195525e-06 1.9166175665e-05)
(0.000250924945201 -9.85607780032e-06 1.95753792022e-05)
(0.000210194843457 -1.00355815919e-05 2.00144142976e-05)
(0.00017037051366 -1.02909548308e-05 1.97504376942e-05)
(0.000128769853441 -1.02129847917e-05 2.05783068602e-05)
(8.64712358419e-05 -1.06155190441e-05 2.1633166941e-05)
(3.85442499757e-05 -1.21580863709e-05 2.79496005916e-05)
(0.000589411627338 0.000861527667298 -0.000837055757426)
(0.00207588167093 0.00112383782267 -0.0010998185901)
(0.0029135037885 0.00204529949352 -0.00124162193744)
(0.00224914286861 0.00303837355624 -0.00133382424999)
(0.000579350677859 0.00355042295766 -0.00139570435301)
(-0.00137641894542 0.00356157835963 -0.00136726194965)
(-0.00320558844986 0.00305559782425 -0.00125022897145)
(-0.00422751799243 0.00206920308751 -0.00107372793979)
(-0.00405559529427 0.00103812946014 -0.000847902866796)
(-0.00316697538398 0.000386772315579 -0.000604891725739)
(-0.00220651995415 8.49814801624e-05 -0.000396364360585)
(-0.0014181631766 -2.85930275251e-05 -0.000250707196519)
(-0.000850611169516 -5.985674706e-05 -0.000153495035545)
(-0.000476518221702 -6.07862594373e-05 -8.84788590872e-05)
(-0.000241976026637 -5.26079115734e-05 -4.87629810726e-05)
(-9.72575585229e-05 -4.42541317977e-05 -2.63858645441e-05)
(-4.2880212788e-06 -3.75611290436e-05 -1.47535234092e-05)
(6.34780499317e-05 -3.26983644536e-05 -9.86065511845e-06)
(0.000122300179593 -2.8919370514e-05 -8.44038336584e-06)
(0.00017939131912 -2.59021853937e-05 -8.24262504871e-06)
(0.000236359301313 -2.3486638768e-05 -7.92838018897e-06)
(0.000291552143767 -2.15140400167e-05 -6.95058810495e-06)
(0.000342004517992 -2.00167997615e-05 -5.05944487811e-06)
(0.000384790560561 -1.89197741475e-05 -2.49391243872e-06)
(0.000417627743062 -1.81410036736e-05 3.96228196879e-07)
(0.000439412192419 -1.74303858419e-05 3.84307091378e-06)
(0.000450091313917 -1.71175235669e-05 7.04477476693e-06)
(0.000450137046466 -1.70053784302e-05 9.92414569482e-06)
(0.000440516697264 -1.70416860996e-05 1.24431449084e-05)
(0.000422422793959 -1.71885717658e-05 1.45723591961e-05)
(0.000397190213618 -1.7415293803e-05 1.62909336527e-05)
(0.000366204108868 -1.7694354926e-05 1.7600443231e-05)
(0.000330903100706 -1.8024235487e-05 1.85021164733e-05)
(0.000292448765085 -1.83604622409e-05 1.90784093017e-05)
(0.000252449941215 -1.87455389351e-05 1.91839209594e-05)
(0.00021093672505 -1.90463099565e-05 1.9357433995e-05)
(0.000170523821434 -1.9227098863e-05 1.86703344408e-05)
(0.000128326559227 -1.92601251651e-05 1.94306904273e-05)
(8.53016934627e-05 -1.96498088472e-05 2.03161486789e-05)
(3.61815668955e-05 -2.19896499249e-05 2.43592778483e-05)
(0.000689490341903 0.00168268869961 -0.000880095751545)
(0.00250509260247 0.00240775697812 -0.0012872739957)
(0.00354289925266 0.00414370120468 -0.00136182167519)
(0.00273113822887 0.00589653107105 -0.00134053557802)
(0.000748107371541 0.00678201224301 -0.00136042296915)
(-0.00152593689376 0.00678974377707 -0.00132791999523)
(-0.00366798932148 0.00589335440223 -0.00124512694965)
(-0.00485856096863 0.0041386319022 -0.00116134991766)
(-0.00457991377943 0.00225700669868 -0.00100570989033)
(-0.00345836687932 0.00100744543761 -0.000748826173801)
(-0.00232732883787 0.000379398099073 -0.000491775161303)
(-0.00145486767625 9.78056398556e-05 -0.000306480600396)
(-0.000852924099686 -9.99774226311e-06 -0.000185560978401)
(-0.000468148862377 -4.63764114462e-05 -0.000109406387317)
(-0.000231879533112 -5.32330666738e-05 -6.21792494195e-05)
(-8.89538254265e-05 -5.06578710611e-05 -3.60496495618e-05)
(1.96698725793e-06 -4.60378644844e-05 -2.25419819265e-05)
(6.81602247541e-05 -4.18284832205e-05 -1.67058658476e-05)
(0.000125967080916 -3.81173210126e-05 -1.46267754468e-05)
(0.000182336254772 -3.49535706931e-05 -1.39590167959e-05)
(0.000238750912531 -3.23392769548e-05 -1.32262498432e-05)
(0.000293466045961 -3.02260032719e-05 -1.1873244843e-05)
(0.000343473465584 -2.86154813892e-05 -9.71312831458e-06)
(0.000385850671126 -2.7454796938e-05 -6.91589126983e-06)
(0.000418410685438 -2.67235910823e-05 -3.77887572023e-06)
(0.00043991920542 -2.61248694235e-05 -5.4158574272e-07)
(0.000450281176702 -2.57752730808e-05 2.73305666795e-06)
(0.000450108193551 -2.57178962051e-05 5.66945396584e-06)
(0.000440308731894 -2.58137843104e-05 8.20609223048e-06)
(0.000422062163834 -2.59936881891e-05 1.03174350247e-05)
(0.000396692244877 -2.62288566138e-05 1.19970636712e-05)
(0.0003655662529 -2.64923415359e-05 1.32583596623e-05)
(0.000330114634744 -2.67753253744e-05 1.40947536027e-05)
(0.000291468973445 -2.70392491876e-05 1.46071928416e-05)
(0.000251247888121 -2.72871632806e-05 1.46294314159e-05)
(0.000209468644065 -2.74586834107e-05 1.47174872563e-05)
(0.000168768566605 -2.74211287432e-05 1.39739882059e-05)
(0.000126245124969 -2.73215347722e-05 1.46397477666e-05)
(8.26058184002e-05 -2.75441034525e-05 1.52043546404e-05)
(3.5075531632e-05 -2.85008749518e-05 1.73136698636e-05)
(0.000928056150646 0.00232368066708 -0.000893143602619)
(0.00326522850721 0.0034739410953 -0.00126112130569)
(0.00456009527367 0.00587034868772 -0.00104465361558)
(0.00348625406904 0.00819777740759 -0.000719529398258)
(0.00100276330799 0.00934861675283 -0.000614543589532)
(-0.00177416207283 0.0093526177036 -0.000580616404224)
(-0.0044160312448 0.00817189738721 -0.000617664256042)
(-0.00588873345012 0.00583434885501 -0.000813871035033)
(-0.00546735028519 0.00327475087524 -0.000930972940903)
(-0.00398693349215 0.00153418220793 -0.000784083549493)
(-0.00257837585004 0.000637977248618 -0.000531755618666)
(-0.00155895991587 0.000219183408221 -0.00033345330478)
(-0.000889190466017 4.66543949166e-05 -0.000200954577602)
(-0.000477629988634 -1.9760284994e-05 -0.000119684723006)
(-0.000231698230954 -4.19664339936e-05 -7.01342532029e-05)
(-8.61255286552e-05 -4.62549754595e-05 -4.20941111264e-05)
(4.83316393346e-06 -4.46998219607e-05 -2.77777241896e-05)
(7.05342099893e-05 -4.17681095488e-05 -2.16526812609e-05)
(0.000127912416879 -3.85708686222e-05 -1.93179896328e-05)
(0.000183896972838 -3.55434473748e-05 -1.84285265936e-05)
(0.000239958114319 -3.29342046619e-05 -1.75445320878e-05)
(0.000294345384412 -3.08187315047e-05 -1.60225372228e-05)
(0.00034405363927 -2.9216413224e-05 -1.37543080378e-05)
(0.000386155252751 -2.80748862464e-05 -1.08869959762e-05)
(0.000418486554856 -2.73569709645e-05 -7.68446268236e-06)
(0.000439877358049 -2.69455957673e-05 -4.45168112238e-06)
(0.000450106809088 -2.66384768729e-05 -1.3762153954e-06)
(0.000449773333964 -2.65422410787e-05 1.62659444374e-06)
(0.0004398951647 -2.66994965781e-05 4.20977335452e-06)
(0.000421601853291 -2.68965630538e-05 6.33150180819e-06)
(0.000396195093229 -2.7123783721e-05 8.01490807226e-06)
(0.000365033793192 -2.735744183e-05 9.27919648384e-06)
(0.000329543474743 -2.75798325125e-05 1.01197580534e-05)
(0.000290845155703 -2.77667655529e-05 1.064158305e-05)
(0.000250546931062 -2.78938300272e-05 1.06881904513e-05)
(0.000208706690232 -2.79680230476e-05 1.07828658478e-05)
(0.000167917515918 -2.77933515894e-05 1.01243187439e-05)
(0.000125315657548 -2.75707673251e-05 1.07848515614e-05)
(8.17063067073e-05 -2.74733001805e-05 1.14068669744e-05)
(3.49415922634e-05 -2.65615717794e-05 1.40960564528e-05)
(0.00127323274619 0.00271276132843 -0.000918062747728)
(0.00427478838545 0.00413968944579 -0.00113595379569)
(0.00584783097734 0.00690104097136 -0.000485894447356)
(0.00442163697676 0.00949633858359 0.00025153671784)
(0.00131177681468 0.0107507441415 0.000516117649714)
(-0.00208747136067 0.0107515102482 0.000551050408837)
(-0.00535430966036 0.00944775440711 0.000351289919139)
(-0.00719436696937 0.00683168028745 -0.000225764917126)
(-0.00661712900828 0.00390521441101 -0.000742221941629)
(-0.00469201301554 0.00187685806189 -0.000779440922554)
(-0.00292823755741 0.000819156481035 -0.000554412318599)
(-0.00171532384436 0.000312305526296 -0.000351264752526)
(-0.000951764776393 9.56489967456e-05 -0.000211224092425)
(-0.000500720209779 7.12504595849e-06 -0.000124750009826)
(-0.000238706831164 -2.6179788266e-05 -7.44167029555e-05)
(-8.69562673765e-05 -3.69069404872e-05 -4.52723303951e-05)
(5.88995102995e-06 -3.83432863181e-05 -3.03730477335e-05)
(7.2008685985e-05 -3.68516922632e-05 -2.40932568083e-05)
(0.000129400932997 -3.4437519168e-05 -2.16723759832e-05)
(0.000185235562317 -3.18249106995e-05 -2.06208797095e-05)
(0.000241056447689 -2.94261346535e-05 -1.96537688848e-05)
(0.000295173237901 -2.74520939466e-05 -1.80656151431e-05)
(0.000344616711672 -2.59614285822e-05 -1.57355023448e-05)
(0.000386483140218 -2.49132618041e-05 -1.28274516621e-05)
(0.000418617084367 -2.42531567862e-05 -9.62678079475e-06)
(0.000439868165811 -2.39073396588e-05 -6.39329286131e-06)
(0.000450029766197 -2.37346116594e-05 -3.33316545205e-06)
(0.000449590006297 -2.3608440253e-05 -4.7720907431e-07)
(0.000439615400781 -2.3750899036e-05 2.18132028207e-06)
(0.000421307874736 -2.39304841243e-05 4.32464727918e-06)
(0.000395890377175 -2.41238774844e-05 6.01911251253e-06)
(0.000364726177702 -2.43093825607e-05 7.29676454741e-06)
(0.000329236218961 -2.44629764205e-05 8.15747154246e-06)
(0.000290540179372 -2.45752508354e-05 8.70442514552e-06)
(0.000250229339915 -2.46137384649e-05 8.8005718229e-06)
(0.000208410946385 -2.4622843943e-05 8.91308343033e-06)
(0.000167649072993 -2.44168782493e-05 8.33038556706e-06)
(0.000125109787763 -2.41485146523e-05 9.02374489752e-06)
(8.19177594408e-05 -2.39486392919e-05 9.83548913702e-06)
(3.52698318388e-05 -2.2380327616e-05 1.35618671781e-05)
(0.00166834515444 0.0027869299319 -0.00095047183714)
(0.00538446515188 0.00427127182762 -0.000967935557635)
(0.00722074320183 0.00701896432938 0.000164904257421)
(0.00539603375284 0.00951093587903 0.00133305860933)
(0.00162525320588 0.0106784944078 0.00174724988808)
(-0.00241228880898 0.0106786644278 0.00178251563311)
(-0.00633994207907 0.00944903374312 0.00142669725499)
(-0.00858746290119 0.00692594850038 0.000445058493625)
(-0.00787003212024 0.00402253916331 -0.000508618366666)
(-0.00547620315985 0.00196932889292 -0.000762691025415)
(-0.00332643774282 0.000885537288196 -0.000572116952149)
(-0.00189964969103 0.00035665202777 -0.000366348043671)
(-0.00102969703734 0.000124763433691 -0.000219285318907)
(-0.000531852996365 2.67617535975e-05 -0.000128380233623)
(-0.00025017665815 -1.18445959891e-05 -7.58676329974e-05)
(-9.04343928936e-05 -2.62751269809e-05 -4.68921082748e-05)
(5.68625174124e-06 -2.99882816085e-05 -3.13325376557e-05)
(7.28289283496e-05 -2.9676528955e-05 -2.48554392112e-05)
(0.000130530413937 -2.79986674829e-05 -2.24543115146e-05)
(0.000186391904433 -2.59377722934e-05 -2.13244922801e-05)
(0.000242073005115 -2.38659053723e-05 -2.02611378522e-05)
(0.000295966359487 -2.21199185947e-05 -1.86266621443e-05)
(0.000345178644671 -2.080198026e-05 -1.62717852225e-05)
(0.000386834647414 -1.98829887558e-05 -1.33641688046e-05)
(0.000418787200427 -1.93048839986e-05 -1.01484410854e-05)
(0.000439910285193 -1.89931739018e-05 -6.88892248015e-06)
(0.000450010447381 -1.88688774078e-05 -3.82032105894e-06)
(0.000449504215809 -1.88178245513e-05 -1.05269468651e-06)
(0.000439461210839 -1.89076566867e-05 1.62334975841e-06)
(0.000421132540236 -1.90527748066e-05 3.78159581906e-06)
(0.000395712564562 -1.92068108682e-05 5.49010795741e-06)
(0.000364556981937 -1.93458111083e-05 6.77810336148e-06)
(0.000329080852859 -1.94468032927e-05 7.66384207497e-06)
(0.00029040342555 -1.95070973607e-05 8.23129220922e-06)
(0.000250099388204 -1.95031545069e-05 8.36976855259e-06)
(0.000208317421074 -1.94899936773e-05 8.49488564758e-06)
(0.000167615643291 -1.93235154863e-05 7.95041295341e-06)
(0.000125163685055 -1.9100706412e-05 8.65158260733e-06)
(8.2402616155e-05 -1.89459194438e-05 9.54563900905e-06)
(3.56562576481e-05 -1.74854278464e-05 1.37770415334e-05)
(0.00204854319481 0.00253396871473 -0.0009833329389)
(0.00642387294787 0.00385061619464 -0.000809788613409)
(0.00847221294282 0.00622453446367 0.000749438784756)
(0.00626470416898 0.00830477863953 0.00225831165456)
(0.0018947559825 0.00925741092785 0.00276737419202)
(-0.00269581233354 0.00925861948192 0.00280550204221)
(-0.00722394290654 0.00824198032085 0.00234476529552)
(-0.00986166057016 0.00612779434485 0.00104349169115)
(-0.00904750426898 0.00361732258974 -0.000295068625203)
(-0.006228529142 0.00180327468302 -0.000748347195472)
(-0.00371641773851 0.000829128052561 -0.000588930564778)
(-0.00208438842167 0.000345781096751 -0.00037995534024)
(-0.00111022512411 0.000129549170046 -0.000226405321077)
(-0.00056544784083 3.61193522382e-05 -0.000131359496039)
(-0.000263353156038 -1.81464894374e-06 -7.66534016692e-05)
(-9.50970964566e-05 -1.65665933554e-05 -4.73320805456e-05)
(4.6216858105e-06 -2.15693854283e-05 -3.1573921355e-05)
(7.31872329247e-05 -2.20199851814e-05 -2.48621171788e-05)
(0.00013133569914 -2.09516342611e-05 -2.2318420069e-05)
(0.000187311635842 -1.94143477253e-05 -2.12830644468e-05)
(0.000242946615142 -1.77628361418e-05 -2.0123296473e-05)
(0.000296667866867 -1.63072466152e-05 -1.84479246106e-05)
(0.000345681698952 -1.52114030581e-05 -1.60750151912e-05)
(0.000387162497075 -1.44551821102e-05 -1.31461394433e-05)
(0.000418977951767 -1.39818768316e-05 -9.93746372728e-06)
(0.00043998887177 -1.36955717191e-05 -6.69886041125e-06)
(0.00045000907657 -1.35779576771e-05 -3.61723049791e-06)
(0.000449453417613 -1.3596486208e-05 -8.47703869664e-07)
(0.000439373672518 -1.36647544774e-05 1.82507797586e-06)
(0.000421028414675 -1.37749769938e-05 3.98934528755e-06)
(0.000395608863144 -1.38928593921e-05 5.70345909785e-06)
(0.000364465043983 -1.39930488593e-05 7.00362487444e-06)
(0.000329005420896 -1.40596553223e-05 7.9033071286e-06)
(0.000290347724798 -1.40914427907e-05 8.49328186463e-06)
(0.000250051613882 -1.40758606081e-05 8.65149918736e-06)
(0.000208297527084 -1.40652797892e-05 8.77614663137e-06)
(0.000167648332398 -1.39623718005e-05 8.24649425609e-06)
(0.000125255890147 -1.38200693596e-05 8.92903690568e-06)
(8.27928814259e-05 -1.37376649655e-05 9.78757157106e-06)
(3.59284076704e-05 -1.25727186009e-05 1.40834703826e-05)
(0.00236201625539 0.00199762639854 -0.00101584239097)
(0.00725654131493 0.00298506827224 -0.000711936491146)
(0.00944966070638 0.00473838422073 0.00113382823456)
(0.00694414056701 0.00621280192476 0.00282786494907)
(0.00210075680287 0.00687434036924 0.0033444639139)
(-0.0029147145176 0.00687620877977 0.00338659887494)
(-0.00791580694859 0.0061617100622 0.00291078489292)
(-0.010859452988 0.0046579262742 0.00143503003891)
(-0.00999834698968 0.00279740453641 -0.000153889435884)
(-0.00685153595885 0.00142173789908 -0.000745374126099)
(-0.00404704315306 0.000665945899497 -0.000605301130111)
(-0.00224413663908 0.000284681468453 -0.000391934295493)
(-0.00118143759423 0.000111105705792 -0.000232501800661)
(-0.000595804810606 3.49554576032e-05 -0.000133790459357)
(-0.000275611297307 3.31597445934e-06 -7.74392267945e-05)
(-9.9856877113e-05 -9.12014489092e-06 -4.70085682251e-05)
(3.17415509093e-06 -1.38080978593e-05 -3.18787187458e-05)
(7.32336446682e-05 -1.4663505299e-05 -2.4653505358e-05)
(0.000131874348582 -1.40721944031e-05 -2.20464139066e-05)
(0.000188002029086 -1.29887805836e-05 -2.09546397654e-05)
(0.000243629495477 -1.18018142485e-05 -1.98078963973e-05)
(0.000297236631821 -1.07068599248e-05 -1.8062271106e-05)
(0.000346091596224 -9.88006258486e-06 -1.5673374522e-05)
(0.000387428575009 -9.30810793008e-06 -1.27433096745e-05)
(0.000419138557161 -8.95456830809e-06 -9.48794853737e-06)
(0.00044007673262 -8.75576798098e-06 -6.26494643234e-06)
(0.000450018391065 -8.64183956622e-06 -3.23320707493e-06)
(0.00044941423462 -8.67011704054e-06 -4.16766268673e-07)
(0.0004393212896 -8.73611437192e-06 2.27133214594e-06)
(0.000420964525214 -8.81740377631e-06 4.43096668812e-06)
(0.000395546763678 -8.90459799895e-06 6.14784666361e-06)
(0.000364413874249 -8.97760259178e-06 7.45743580427e-06)
(0.000328968094244 -9.02362751227e-06 8.36686658856e-06)
(0.00029032625079 -9.04616802765e-06 8.97022351751e-06)
(0.000250035394653 -9.03542438966e-06 9.140792241e-06)
(0.000208295379309 -9.03738695927e-06 9.26125598768e-06)
(0.000167679375828 -8.99278553842e-06 8.72167485993e-06)
(0.000125313959334 -8.92140037884e-06 9.38008420038e-06)
(8.30120830741e-05 -8.86047916022e-06 1.01625134289e-05)
(3.60623655042e-05 -7.86664968321e-06 1.43315801299e-05)
(0.00257659322009 0.00126330971892 -0.00104505185095)
(0.00781216832485 0.00185453841886 -0.000683051291784)
(0.01009655373 0.00289079466321 0.00128771762004)
(0.00737903083959 0.00374086407688 0.00302394611062)
(0.00222624032156 0.0041042570184 0.00351950426351)
(-0.00304984783902 0.00410636583596 0.00356551344435)
(-0.00836857971718 0.00370638921912 0.00309910058628)
(-0.0115090429312 0.00284449202426 0.00160118625308)
(-0.0106394855059 0.00173490322738 -9.50870713916e-05)
(-0.00728336823865 0.000897336065349 -0.000752474519774)
(-0.00428207209785 0.000426505445255 -0.000619332785748)
(-0.00235972536438 0.000185519866644 -0.000401072780529)
(-0.00123381851031 7.43680691133e-05 -0.000237053886225)
(-0.000618600571811 2.51174297991e-05 -0.000135591244372)
(-0.000284994811493 4.28512404451e-06 -7.79151568899e-05)
(-0.000103458371383 -3.91722746172e-06 -4.68949175131e-05)
(1.94673739067e-06 -7.0017696898e-06 -3.18287273581e-05)
(7.3100287799e-05 -7.81326669981e-06 -2.44773945336e-05)
(0.000132195121933 -7.53762195365e-06 -2.17853967578e-05)
(0.0001884582436 -6.90117599566e-06 -2.06359787899e-05)
(0.000244093708452 -6.18453389333e-06 -1.95022381513e-05)
(0.00029763136313 -5.50894772078e-06 -1.7710157242e-05)
(0.000346380384324 -4.99854995861e-06 -1.52997799531e-05)
(0.00038762105503 -4.64051828466e-06 -1.23715262741e-05)
(0.000419246399345 -4.41598456141e-06 -9.14773945201e-06)
(0.000440134157953 -4.31085605119e-06 -5.85863212411e-06)
(0.000450037859288 -4.25220281899e-06 -2.85044611435e-06)
(0.000449389743165 -4.25465674186e-06 -2.62284308748e-08)
(0.000439281368076 -4.31623020315e-06 2.66339688022e-06)
(0.000420923811551 -4.37549677143e-06 4.82708889636e-06)
(0.000395506975952 -4.43779715605e-06 6.54433718818e-06)
(0.000364382367146 -4.49273816084e-06 7.85706226312e-06)
(0.000328946356652 -4.52946145978e-06 8.77335061353e-06)
(0.000290314953463 -4.55305651764e-06 9.38221884317e-06)
(0.000250026418758 -4.55782227249e-06 9.56100910811e-06)
(0.000208290501262 -4.57666785886e-06 9.67801268644e-06)
(0.000167689842512 -4.57460838991e-06 9.12370924812e-06)
(0.00012532999948 -4.55126580964e-06 9.76861122448e-06)
(8.30970347217e-05 -4.44541292565e-06 1.04888983231e-05)
(3.61000232778e-05 -3.41989845542e-06 1.44981978167e-05)
(0.00268293630211 0.000422443617488 -0.00106302683164)
(0.00808331057257 0.00061406371399 -0.000686459388475)
(0.0104090874357 0.000948335457612 0.00131659702375)
(0.00758241696499 0.00121838088822 0.0030497266662)
(0.00228342996257 0.00132967021661 0.00351320526435)
(-0.00311081259282 0.00133156857904 0.00356260343415)
(-0.00858062076814 0.00120742831296 0.00312065360526)
(-0.011823606664 0.000934600427534 0.00163827827064)
(-0.0109544914922 0.000574948394665 -8.29653744169e-05)
(-0.00750017677084 0.000300356246131 -0.000760401547834)
(-0.00440226399424 0.000144031366786 -0.000627568911563)
(-0.00241955819322 6.35004413815e-05 -0.000406068214788)
(-0.00126120800634 2.62096944176e-05 -0.000239502199264)
(-0.000630573779367 9.66869641616e-06 -0.000136466072969)
(-0.000289978528907 2.74440988523e-06 -7.8260925765e-05)
(-0.000105422840262 -6.74180899267e-08 -4.69204507996e-05)
(1.26404449518e-06 -1.10050163331e-06 -3.16277133288e-05)
(7.29840829684e-05 -1.39809529519e-06 -2.43540902392e-05)
(0.000132340126749 -1.31822065235e-06 -2.16404123243e-05)
(0.000188684395282 -1.11130951438e-06 -2.04654286103e-05)
(0.000244329471102 -8.74078367963e-07 -1.93213777471e-05)
(0.000297832183578 -6.41881751079e-07 -1.74901702202e-05)
(0.00034652708999 -4.73097980192e-07 -1.50665247675e-05)
(0.000387719761563 -3.55328891241e-07 -1.21561636942e-05)
(0.000419301870893 -2.84984778454e-07 -8.93797266195e-06)
(0.00044015571277 -2.55927255218e-07 -5.64602788916e-06)
(0.00045004233719 -2.58000049426e-07 -2.61286081846e-06)
(0.000449377013669 -2.68044244204e-07 1.98029657199e-07)
(0.000439254730048 -3.08351713609e-07 2.88828466462e-06)
(0.000420896857284 -3.49314238396e-07 5.05005513681e-06)
(0.000395480640719 -3.91485387496e-07 6.77040252158e-06)
(0.000364359970842 -4.32462325428e-07 8.08269718972e-06)
(0.000328929242262 -4.66537348962e-07 9.00217586063e-06)
(0.000290302617895 -4.96672118552e-07 9.61187943833e-06)
(0.00025001307561 -5.21633647531e-07 9.79599276613e-06)
(0.00020827594605 -5.59514894095e-07 9.91048137021e-06)
(0.00016767688265 -5.89276803284e-07 9.35193748403e-06)
(0.000125312123742 -5.95720944908e-07 9.99220365931e-06)
(8.30967857232e-05 -3.95604156041e-07 1.06827197363e-05)
(3.6080691779e-05 8.29801065609e-07 1.45921380343e-05)
(0.00268189037712 -0.000450150979224 -0.00106320869606)
(0.00808049110146 -0.000651137346118 -0.000687105418629)
(0.0104056061165 -0.00100028190557 0.00131528048801)
(0.00757973787704 -0.00128284010625 0.0030478185808)
(0.00228273107019 -0.00140088197034 0.00351049048794)
(-0.00310963570424 -0.00140151913676 0.00356060204598)
(-0.00857767684074 -0.00126948200193 0.00311792401007)
(-0.0118195358377 -0.000981959188351 0.00163657580824)
(-0.0109505746553 -0.000605943486153 -8.37744443967e-05)
(-0.00749718018552 -0.000317120977009 -0.000760587290957)
(-0.00440042090715 -0.000151735328546 -0.000627556152187)
(-0.00241851028541 -6.59325572448e-05 -0.000406007660332)
(-0.00126064084416 -2.57507486267e-05 -0.000239451778097)
(-0.000630268806621 -7.66168208232e-06 -0.000136431854769)
(-0.00028982633173 9.70855518035e-08 -7.82325592224e-05)
(-0.000105361891824 3.29264607809e-06 -4.68961668579e-05)
(1.29071913377e-06 4.47347784115e-06 -3.16277012181e-05)
(7.29960396062e-05 4.84330789261e-06 -2.43526789146e-05)
(0.000132341033842 4.77182344293e-06 -2.16285273417e-05)
(0.000188681923136 4.55762339672e-06 -2.04547157259e-05)
(0.00024432956978 4.31022750356e-06 -1.9317873889e-05)
(0.000297832692475 4.08790626113e-06 -1.74736714645e-05)
(0.000346524189578 3.90970355996e-06 -1.50517443949e-05)
(0.000387715298905 3.77657218497e-06 -1.21412686991e-05)
(0.000419295928837 3.68375611055e-06 -8.92156116805e-06)
(0.000440147116356 3.6273360483e-06 -5.63146887337e-06)
(0.000450030940577 3.58980568653e-06 -2.59463321879e-06)
(0.000449363428753 3.55035965101e-06 2.16015053641e-07)
(0.000439239351247 3.52920772234e-06 2.90507453561e-06)
(0.000420880664529 3.50676154336e-06 5.06716754808e-06)
(0.000395463662433 3.48207933214e-06 6.78716509766e-06)
(0.000364342960654 3.45435346654e-06 8.09786368023e-06)
(0.00032891222115 3.42209479965e-06 9.0172544083e-06)
(0.000290285131737 3.38365378591e-06 9.62686002866e-06)
(0.000249991892647 3.33760470756e-06 9.81198674724e-06)
(0.000208249588168 3.27999561851e-06 9.92680642733e-06)
(0.000167641506407 3.22041682886e-06 9.37094209918e-06)
(0.000125268189937 3.18871960046e-06 1.0014530147e-05)
(8.3044603357e-05 3.49719076631e-06 1.07097219332e-05)
(3.60365141187e-05 5.00032254756e-06 1.45919215029e-05)
(0.00257350687013 -0.00128846456275 -0.00104545849355)
(0.00780383291251 -0.0018881500956 -0.000684715515247)
(0.0100864117807 -0.00293846938746 0.00128362258861)
(0.00737170691977 -0.00380021961833 0.0030184317716)
(0.00222414979613 -0.00416884200313 0.00351233662274)
(-0.00304638906636 -0.00417009963382 0.00355795687925)
(-0.00835964231997 -0.003762069214 0.00309271888768)
(-0.0114975893923 -0.00288686852703 0.00159663609701)
(-0.0106281916753 -0.00176254592428 -9.75286250472e-05)
(-0.0072747382266 -0.00091227341354 -0.00075301678601)
(-0.00427674617368 -0.000433296217855 -0.000619287481822)
(-0.00235669461597 -0.000187513103063 -0.000400900051694)
(-0.00123216886623 -7.37312407385e-05 -0.000236891125575)
(-0.000617716421771 -2.30787793908e-05 -0.000135472631465)
(-0.000284539622261 -1.57459181982e-06 -7.78024586093e-05)
(-0.000103254930603 7.10918028919e-06 -4.68062401509e-05)
(2.02919617819e-06 1.0355600872e-05 -3.17797909185e-05)
(7.31281110537e-05 1.1238178656e-05 -2.4453774114e-05)
(0.000132194413205 1.095566653e-05 -2.17505442197e-05)
(0.000188451742751 1.03101075197e-05 -2.06024250597e-05)
(0.000244093290071 9.59221407965e-06 -1.94825383901e-05)
(0.000297630953697 8.91148958012e-06 -1.76629420134e-05)
(0.000346370811443 8.38781846816e-06 -1.5250498156e-05)
(0.000387606543656 8.01068824615e-06 -1.23248803172e-05)
(0.000419227391972 7.76189299106e-06 -9.10255707847e-06)
(0.000440109256619 7.62648373354e-06 -5.80855819751e-06)
(0.000450004703966 7.52800534673e-06 -2.79768532557e-06)
(0.000449347863758 7.47839504527e-06 2.9099644369e-08)
(0.00043923434572 7.47727179643e-06 2.71815173875e-06)
(0.000420874927759 7.47388351607e-06 4.88102179236e-06)
(0.000395456258786 7.46934120892e-06 6.5974943182e-06)
(0.00036433198295 7.45803997609e-06 7.90511599312e-06)
(0.000328896092175 7.43068694538e-06 8.82059955247e-06)
(0.000290262667845 7.38726349956e-06 9.42837908955e-06)
(0.000249962620463 7.32179257087e-06 9.61080361159e-06)
(0.000208210892799 7.24444248974e-06 9.72959733758e-06)
(0.000167581670599 7.14840925326e-06 9.18611040774e-06)
(0.000125193201396 7.07821729742e-06 9.84029051276e-06)
(8.29362632577e-05 7.46385402432e-06 1.05747327529e-05)
(3.59625559978e-05 9.19733273194e-06 1.45115063236e-05)
(0.00235733545634 -0.00201817128102 -0.00101630719936)
(0.00724333673909 -0.00301231876932 -0.000714374173277)
(0.00943356223144 -0.00477740095323 0.00112722139265)
(0.00693256258608 -0.00626225950696 0.00281854353449)
(0.00209783325829 -0.00692781407321 0.00333379804144)
(-0.00290900738983 -0.00692821051166 0.00337579948627)
(-0.00790181937553 -0.0062067624517 0.00290106198104)
(-0.0108413738088 -0.0046917042404 0.00142855868946)
(-0.00998073714752 -0.00281912769865 -0.000157450061449)
(-0.00683812890842 -0.00143340693989 -0.000746057863285)
(-0.00403872865169 -0.000671090115776 -0.000605182770329)
(-0.00223937857097 -0.00028592383519 -0.000391634679255)
(-0.00117885726884 -0.000110161298185 -0.000232220558965)
(-0.00059446497088 -3.28083381857e-05 -0.000133582856122)
(-0.00027488408332 -4.84979495577e-07 -7.72547980715e-05)
(-9.94755986895e-05 1.22380485426e-05 -4.68078812714e-05)
(3.3164888754e-06 1.70710490454e-05 -3.17478758885e-05)
(7.32772358002e-05 1.80124514168e-05 -2.45658262318e-05)
(0.000131867004956 1.74087512917e-05 -2.19808569237e-05)
(0.000187994198503 1.63168393491e-05 -2.08994204761e-05)
(0.000243626294973 1.51261958851e-05 -1.97446036873e-05)
(0.000297227880954 1.40097404144e-05 -1.79796330094e-05)
(0.000346072485343 1.31628830168e-05 -1.55894441715e-05)
(0.000387402437396 1.25650629886e-05 -1.26639830104e-05)
(0.000419105374961 1.21839804708e-05 -9.40021748482e-06)
(0.00044003313209 1.19545058689e-05 -6.17630804852e-06)
(0.000449961105468 1.17871193366e-05 -3.13557217304e-06)
(0.000449343345266 1.17490403838e-05 -3.2401084397e-07)
(0.000439243344241 1.17683215601e-05 2.36816606281e-06)
(0.000420883728853 1.17884794669e-05 4.52833896544e-06)
(0.000395463443688 1.1810400885e-05 6.24074711537e-06)
(0.000364331997255 1.18220239918e-05 7.54530693974e-06)
(0.00032888595544 1.18081202817e-05 8.45184370331e-06)
(0.000290240576271 1.17665110503e-05 9.05403947812e-06)
(0.000249929913221 1.16875473827e-05 9.23129056882e-06)
(0.00020816122301 1.15917089845e-05 9.35422945057e-06)