/*--------------------------------*- C++ -*----------------------------------*\
| =========                 |                                                 |
| \\      /  F ield         | OpenFOAM: The Open Source CFD Toolbox           |
|  \\    /   O peration     | Version:  3.0.1                                 |
|   \\  /    A nd           | Web:      www.OpenFOAM.org                      |
|    \\/     M anipulation  |                                                 |
\*---------------------------------------------------------------------------*/
FoamFile
{
    version     2.0;
    format      ascii;
    class       volScalarField;
    location    "4.2";
    object      ddt0(k);
}
// * * * * * * * * * * * * * * * * * * * * * * * * * * * * * * * * * * * * * //

dimensions      [0 2 -3 0 0 0 0];

internalField   nonuniform List<scalar> 
7968
(
-0.000321794237135
-0.000345070599099
-0.000362175589858
-0.000371836995841
-0.000377304919897
-0.000380405839937
-0.000382241884958
-0.000383712921141
-0.000384936625547
-0.000385844294903
-0.000385852337886
-0.000384950955451
-0.00038373059483
-0.00038226193678
-0.000380424670563
-0.000377322307484
-0.000371848947564
-0.000362182021527
-0.000345075787463
-0.000321795585957
-0.000345069142194
-0.000463312776993
-0.000540768875692
-0.000585664634011
-0.000611492611538
-0.00062567007277
-0.000633142889965
-0.000637824819335
-0.000641272053107
-0.000643395280786
-0.000643403438815
-0.000641293472199
-0.000637856317319
-0.000633179610784
-0.000625708620139
-0.000611536976345
-0.000585708019492
-0.000540803253748
-0.000463337119394
-0.000345075865641
-0.000362168346915
-0.0005407592747
-0.000658378563325
-0.000728003890625
-0.000768804285594
-0.000791600636679
-0.000803773874074
-0.000811073678512
-0.000816037846404
-0.000819053229763
-0.000819059976172
-0.000816054403641
-0.00081109236027
-0.000803798097878
-0.000791630462817
-0.000768843125514
-0.000728047373543
-0.000658419569996
-0.000540790114954
-0.000362177814538
-0.000371815696008
-0.000585630830915
-0.000727985445379
-0.000812147620802
-0.000860258403295
-0.000885490241249
-0.000897949251833
-0.000904893658734
-0.000908270921793
-0.000911067541327
-0.00091107458747
-0.000908277471511
-0.000904846599861
-0.000897949416267
-0.000885493123286
-0.000860274158475
-0.000812176712123
-0.000728020157038
-0.000585659949412
-0.000371827051917
-0.000377264139048
-0.000611436292595
-0.000768784359309
-0.000860273563987
-0.000909218758346
-0.000931368980618
-0.000940962941145
-0.000948522899318
-0.000952575252804
-0.000954889415913
-0.000954898343596
-0.000952593321801
-0.000948546082832
-0.000940985151056
-0.000931370450254
-0.000909219413317
-0.000860282517392
-0.000768803731269
-0.000611457252279
-0.000377274922556
-0.000380342372481
-0.000625609398989
-0.000791618545916
-0.000885595572154
-0.000931488147154
-0.000955916095326
-0.000969326517158
-0.000975030695489
-0.00097766159812
-0.000979209052314
-0.000979220354433
-0.000977684311323
-0.000975055308021
-0.000969347602819
-0.000955934159674
-0.00093149079028
-0.000885590878313
-0.00079162140509
-0.000625615288358
-0.000380348111354
-0.000382160799543
-0.000633097689477
-0.000803862095297
-0.000898205449086
-0.00094108809962
-0.000969389968362
-0.000980919601294
-0.000983806108147
-0.000984525690108
-0.000985262052989
-0.000985275932279
-0.000984553909727
-0.000983835341056
-0.00098094138353
-0.00096940453118
-0.00094109784091
-0.000898207181386
-0.000803859984454
-0.000633094938327
-0.000382162963625
-0.000383614837078
-0.00063779025755
-0.000811219334302
-0.000905288996138
-0.000948707235885
-0.000975132269358
-0.000983812537353
-0.000984008349676
-0.000982737516365
-0.000982636496231
-0.000982650219828
-0.000982765441285
-0.000984037857224
-0.000983837227094
-0.000975150649417
-0.000948723102968
-0.000905342626204
-0.000811224958909
-0.000637782439125
-0.000383612953472
-0.000384826397758
-0.000641228018859
-0.000816185239495
-0.000908663357425
-0.000952795698011
-0.000977770113305
-0.000984485793514
-0.00098265765798
-0.000980137436619
-0.000979831252906
-0.000979843756045
-0.000980165739339
-0.000982689143269
-0.000984512054814
-0.000977790544841
-0.000952814935411
-0.000908715838269
-0.000816196328351
-0.000641215333591
-0.000384818481095
-0.000385732080585
-0.000643335512574
-0.000819158397264
-0.000911359511081
-0.000955094150687
-0.000979317580986
-0.000985208605769
-0.000982515138625
-0.000979767100302
-0.000979804918667
-0.000979822967467
-0.000979804853526
-0.000982552829081
-0.00098523576763
-0.00097933510227
-0.000955107836353
-0.000911406750207
-0.000819171447542
-0.000643315008255
-0.000385715776941
-0.000385752180499
-0.000643355691568
-0.000819156654796
-0.000911355458301
-0.000955125327204
-0.000979363038715
-0.000985259771741
-0.000982559315926
-0.000979792293987
-0.000979816358582
-0.000979837925194
-0.000979837865816
-0.000982600125259
-0.000985286398707
-0.000979379390079
-0.000955138834325
-0.000911409441411
-0.000819171672053
-0.000643324996918
-0.000385724419961
-0.00038487158917
-0.000641272167655
-0.000816169130557
-0.000908606290515
-0.000952862223058
-0.000977883948115
-0.000984624127713
-0.000982789436593
-0.000980242492201
-0.000979917907976
-0.000979934594925
-0.000980282293399
-0.000982829775991
-0.000984659308829
-0.000977918613303
-0.000952903851445
-0.00090872128196
-0.000816203688342
-0.000641247239935
-0.000384841174337
-0.0003836706391
-0.000637851310028
-0.000811197311754
-0.000905172201366
-0.000948814347104
-0.000975307052681
-0.000984030377405
-0.000984226340202
-0.000982930067682
-0.000982811320438
-0.000982821881803
-0.000982957328561
-0.000984259609987
-0.000984072196363
-0.000975358129053
-0.000948873930813
-0.000905374903366
-0.000811249541749
-0.00063783525953
-0.00038364253973
-0.000382220102538
-0.000633178155537
-0.000803859723884
-0.000898124277029
-0.000941213045822
-0.000969606147445
-0.00098119749484
-0.000984100007978
-0.000984798550881
-0.000985511829024
-0.000985516950196
-0.000984814754151
-0.000984127394809
-0.000981243638198
-0.000969672737754
-0.000941297766968
-0.000898278814694
-0.00080390817677
-0.000633165828458
-0.000382196400222
-0.000380403011154
-0.000625715017598
-0.000791661111142
-0.000885567501959
-0.000931521404747
-0.000956148661564
-0.000969635203809
-0.000975372530687
-0.000977998240903
-0.000979521358911
-0.000979522349769
-0.000978006217697
-0.000975394707131
-0.000969684234479
-0.000956236835574
-0.00093170140313
-0.000885678249366
-0.000791688172859
-0.000625698936642
-0.00038038414216
-0.000377322499738
-0.000611563285686
-0.000768871707737
-0.000860304811963
-0.000909267950227
-0.000931547260975
-0.000941258267325
-0.000948866976613
-0.000952924804367
-0.000955207324609
-0.000955204946008
-0.00095292576207
-0.000948883909715
-0.000941310619535
-0.000931683034632
-0.000909384530811
-0.000860354470417
-0.000768869093439
-0.000611538674573
-0.000377307986676
-0.000371865040998
-0.000585758651932
-0.000728101163237
-0.000812227188496
-0.00086032858811
-0.000885617670697
-0.000898185048682
-0.000905236974744
-0.000908603212726
-0.000911335003216
-0.000911328878285
-0.000908599871782
-0.000905262494041
-0.000898240117869
-0.000885687505289
-0.000860373743289
-0.000812232418688
-0.000728078328995
-0.000585731433773
-0.000371855284011
-0.000362205088688
-0.000540871083241
-0.000658498127358
-0.000728110478056
-0.000768902028922
-0.000791714000654
-0.000803923674422
-0.000811255707114
-0.000816207523173
-0.000819184803288
-0.000819185637564
-0.000816210200209
-0.000811272473437
-0.000803956828924
-0.000791749740299
-0.000768919781954
-0.000728102391698
-0.000658473772824
-0.00054084809364
-0.000362197955748
-0.000345092181118
-0.000463390602768
-0.000540861047158
-0.000585760075708
-0.000611584397129
-0.000625760702303
-0.000633244021227
-0.000637931989776
-0.000641363335617
-0.000643462568795
-0.000643465931832
-0.000641377120877
-0.000637957534539
-0.000633279279806
-0.000625793970032
-0.000611602654024
-0.000585759042729
-0.000540846020063
-0.000463374307647
-0.000345086943227
-0.000321799775866
-0.000345087811416
-0.000362197453465
-0.000371859836308
-0.00037732559253
-0.000380418429139
-0.000382247951408
-0.000383711197075
-0.000384925219693
-0.000385825024792
-0.000385830498087
-0.000384937530982
-0.000383728542148
-0.000382266857305
-0.000380433641488
-0.000377333651991
-0.000371859647148
-0.000362190959771
-0.000345081985012
-0.000321798366701
-0.000340288782269
-0.000451812629418
-0.000526176037353
-0.000569628696975
-0.000594453253411
-0.000607775941546
-0.000614239720372
-0.000617166385546
-0.00061849112752
-0.000619096846173
-0.000619104846465
-0.00061851024811
-0.000617192468932
-0.00061426867324
-0.000607802897548
-0.000594476303994
-0.000569643193188
-0.000526180337803
-0.000451812546761
-0.000340288027089
-0.000451796236716
-0.000892292754747
-0.00110367613412
-0.00122835372817
-0.0013022559786
-0.00134328495288
-0.00136389436352
-0.00137325143903
-0.00137751888208
-0.00137947145599
-0.00137947743789
-0.00137753589969
-0.00137328072288
-0.00136392944049
-0.00134332998277
-0.00130231455975
-0.00122841604554
-0.00110372694956
-0.000892320376515
-0.000451795285384
-0.000526147032303
-0.00110364450547
-0.00138155747216
-0.00155062860765
-0.00165456996512
-0.00171525077485
-0.00174808078025
-0.00176468501865
-0.00177250362765
-0.0017764385991
-0.00177644245755
-0.00177251485434
-0.00176469504178
-0.00174809689883
-0.00171527482169
-0.00165461217225
-0.00155068420169
-0.00138161233868
-0.00110368259753
-0.000526148676826
-0.000569580008619
-0.00122827604372
-0.00155058894823
-0.00174857903099
-0.00187028497936
-0.00194022869232
-0.00197762078916
-0.00199397834761
-0.00199553039774
-0.00199810435491
-0.00199810250415
-0.0019955208616
-0.00199365888007
-0.00197760555562
-0.00194021607343
-0.00187029261255
-0.00174860921903
-0.00155063029473
-0.00122830782085
-0.000569584105488
-0.000594382470988
-0.00130214961544
-0.00165451978667
-0.00187029018383
-0.00199929333415
-0.00206726132552
-0.00210469295675
-0.00212009819579
-0.00212581037515
-0.00212881442523
-0.00212881745392
-0.00212581512219
-0.0021200853996
-0.00210466591078
-0.00206723450197
-0.00199927068448
-0.00187028775479
-0.00165453575431
-0.00130216264792
-0.000594384591216
-0.000607687445316
-0.00134319319339
-0.0017152513544
-0.00194032669277
-0.00206734469045
-0.00213596685286
-0.00216553047265
-0.00217656160561
-0.00218107989126
-0.00218338184181
-0.00218339096606
-0.00218109751851
-0.00217656850266
-0.00216551500485
-0.00213593241613
-0.00206730736982
-0.00194029711586
-0.0017152398778
-0.0013431835297
-0.000607683594808
-0.000614142901354
-0.00136385074702
-0.00174817804948
-0.00197789024726
-0.00210502244867
-0.00216572755763
-0.00218851090501
-0.002194922812
-0.00219717692454
-0.00219865780894
-0.00219866983384
-0.00219720290453
-0.00219494680366
-0.00218851226672
-0.00216570705903
-0.00210499137159
-0.00197784918415
-0.00174815096883
-0.00136382550559
-0.000614133618595
-0.000617062084931
-0.00137324529162
-0.00176484919577
-0.00199550700824
-0.00212058418636
-0.00217686114406
-0.00219495319528
-0.00219806026124
-0.00219736701383
-0.00219747497519
-0.00219748024306
-0.00219738185208
-0.00219808265815
-0.00219496903393
-0.00217686847556
-0.00212058021455
-0.00199523571714
-0.00176482889967
-0.00137321482986
-0.000617047454391
-0.000618377090914
-0.0013775135294
-0.00177265498861
-0.0019958079555
-0.00212630123674
-0.00218135176815
-0.00219707763247
-0.00219721118125
-0.00219517877533
-0.00219547239195
-0.00219547532302
-0.00219519193045
-0.00219723224906
-0.00219709486633
-0.00218137340775
-0.00212632588378
-0.00199578874622
-0.00177264671573
-0.00137748628172
-0.000618354306462
-0.00061898214372
-0.00137944802865
-0.00177656006571
-0.00199834155442
-0.00212926574216
-0.00218360687035
-0.00219848173164
-0.00219718209929
-0.00219530748592
-0.00219653829395
-0.00219654740078
-0.00219533085244
-0.00219720828365
-0.00219850587026
-0.00218363760897
-0.00212931157156
-0.0019983354996
-0.00177656451263
-0.00137942418175
-0.000618946351328
-0.0006190170625
-0.0013794753393
-0.00177657072316
-0.00199836072994
-0.00212928634207
-0.00218366592044
-0.0021985656076
-0.00219725402446
-0.00219534736036
-0.00219655652351
-0.00219657161756
-0.00219538728102
-0.0021972949468
-0.00219860801593
-0.00218372196113
-0.00212936438952
-0.00199837529584
-0.00177658940657
-0.00137945538053
-0.000618966019999
-0.000618461147808
-0.00137758137583
-0.00177267871761
-0.00199583903669
-0.00212635226199
-0.00218151926501
-0.0021973304691
-0.00219745619901
-0.00219537373124
-0.00219563097859
-0.0021956461045
-0.00219541988751
-0.00219751212634
-0.00219740328793
-0.00218163043893
-0.00212648947501
-0.00199590922004
-0.0017727273612
-0.00137758208431
-0.000618410086845
-0.000617177604512
-0.00137335968489
-0.00176488682009
-0.00199423140608
-0.00212064860028
-0.00217712118983
-0.00219536920899
-0.00219850218916
-0.00219775834764
-0.00219782318822
-0.00219783466807
-0.00219779867931
-0.00219856344494
-0.00219547823547
-0.00217729337637
-0.00212085858023
-0.0019950172079
-0.00176497119123
-0.00137337611149
-0.000617133180999
-0.000614278943876
-0.0013640247337
-0.00174827134843
-0.00197791509994
-0.00210513629143
-0.00216604942683
-0.00218904580755
-0.00219553522738
-0.00219775406528
-0.00219918625676
-0.00219919376405
-0.00219778629325
-0.00219560422929
-0.00218918131455
-0.00216625666913
-0.00210536236548
-0.00197809126889
-0.00174836027186
-0.00136405159803
-0.000614242289489
-0.000607839645271
-0.00134344903539
-0.00171544265701
-0.00194045486543
-0.00206758751237
-0.00213634204606
-0.00216612171425
-0.00217728002364
-0.0021818111217
-0.00218407660972
-0.00218407863887
-0.00218183254237
-0.00217734390185
-0.00216625722713
-0.00213652426336
-0.00206772607397
-0.00194059154436
-0.00171551247921
-0.00134346904231
-0.000607809767955
-0.000594543577102
-0.00130248046702
-0.00165481186435
-0.00187052105885
-0.00199954542799
-0.00206766367243
-0.00210526846146
-0.00212081155622
-0.00212656424965
-0.00212954742971
-0.00212954454812
-0.00212657197744
-0.00212085819682
-0.00210537201907
-0.00206777330103
-0.00199967661885
-0.00187060704477
-0.00165484884911
-0.0013024866005
-0.000594519581491
-0.000569734947068
-0.00122864991224
-0.00155095462393
-0.00174890039874
-0.00187059251655
-0.00194059943949
-0.00197810681894
-0.00199474360394
-0.00199612594859
-0.00199867996413
-0.00199867951731
-0.00199613722996
-0.00199487319199
-0.00197818561082
-0.00194069835433
-0.00187067805774
-0.00174894913022
-0.00155097201477
-0.00122865024818
-0.000569717689638
-0.000526280896183
-0.00110401560001
-0.00138194871167
-0.00155100285452
-0.00165492935327
-0.0017156291709
-0.00174850687016
-0.0017651533486
-0.00177296717016
-0.00177687877508
-0.00177688322797
-0.00177298669247
-0.00176519872741
-0.00174858059455
-0.00171571544652
-0.00165500163672
-0.00155104661983
-0.00138196843293
-0.0011040219321
-0.000526269915891
-0.000451891216308
-0.000892595636419
-0.0011040148478
-0.00122869706771
-0.00130259480417
-0.00134363202414
-0.0013642667464
-0.00137364854168
-0.00137791351629
-0.00137984760749
-0.0013798584319
-0.00137794769559
-0.0013737096116
-0.00136435434893
-0.00134372948401
-0.00130268112163
-0.00122875673245
-0.00110404779462
-0.0008926106556
-0.000451885400648
-0.000340318143677
-0.000451910453537
-0.000526296621163
-0.000569755747596
-0.000594581995014
-0.000607905668608
-0.00061437370417
-0.000617300398001
-0.000618613976049
-0.000619204593103
-0.000619208230193
-0.000618627609284
-0.00061732419427
-0.000614404027666
-0.000607935550232
-0.00059460427794
-0.00056976582482
-0.000526297593677
-0.000451909281743
-0.000340316943471
-0.000345357108639
-0.000498565620254
-0.000604758464602
-0.000670612878306
-0.00071110078045
-0.000734956089622
-0.000747409553032
-0.000752118651029
-0.000752218198065
-0.000750912184213
-0.000750923933331
-0.000752250295385
-0.000752165980562
-0.000747463818959
-0.000735008351144
-0.000711145540507
-0.000670644187482
-0.000604774914849
-0.000498573054089
-0.000345357090197
-0.000498533146815
-0.00104532732812
-0.00131741970905
-0.00148739750308
-0.00159572481359
-0.0016622541994
-0.00170026673144
-0.00172005783989
-0.00172954641337
-0.00173323777977
-0.00173324864023
-0.00172957885929
-0.00172010454548
-0.00170032899584
-0.00166233024502
-0.00159581599478
-0.00148749417018
-0.00131750560879
-0.00104538260827
-0.000498534617154
-0.000604704342955
-0.00131736367064
-0.00166720641707
-0.00189049397635
-0.00203648761843
-0.0021286307874
-0.00218313734745
-0.0022132930505
-0.00223045121242
-0.00223808363744
-0.0022380914498
-0.00223047398021
-0.00221332348035
-0.0021831586237
-0.00212866593065
-0.00203654597446
-0.00189057181954
-0.00166728686796
-0.00131742467719
-0.000604708345648
-0.0006705346125
-0.00148728449823
-0.00189044027547
-0.00214788606627
-0.0023151837985
-0.00241863751528
-0.00247727139328
-0.00250495557784
-0.00252514446091
-0.00253354686581
-0.00253355591213
-0.00252517565998
-0.00250510350395
-0.00247725127534
-0.00241861402091
-0.00231518731511
-0.00214792532662
-0.00189049778623
-0.00148733120483
-0.000670540700441
-0.000711001221887
-0.00159558203084
-0.00203641471302
-0.00231517323375
-0.00249166341476
-0.00259496761092
-0.00265073466342
-0.00267771492784
-0.00269284865839
-0.00269984552025
-0.00269984389766
-0.00269283903643
-0.00267772551625
-0.00265070129886
-0.0025949088697
-0.00249161682276
-0.00231516597918
-0.00203643940167
-0.0015956036608
-0.000711006285443
-0.000734840339503
-0.00166213209683
-0.00212860246877
-0.00241870371016
-0.00259505977368
-0.00269242560265
-0.00273661504243
-0.0027543902245
-0.00276474342523
-0.00277052493641
-0.00277051053185
-0.00276469988597
-0.00275435707658
-0.00273658417544
-0.0026923661906
-0.00259498505469
-0.00241865731199
-0.00212859534389
-0.00166212987564
-0.000734842405347
-0.000747286075319
-0.00170020104984
-0.00218319367897
-0.0024774446979
-0.00265099668896
-0.0027366941685
-0.00276406752838
-0.0027713569313
-0.00277795034606
-0.00278287005032
-0.00278284891861
-0.00277789505576
-0.0027713379791
-0.00276408454314
-0.00273668479461
-0.00265091452695
-0.00247738756555
-0.00218317298642
-0.0017001876165
-0.000747287457432
-0.000751985624037
-0.00172002539521
-0.00221335005768
-0.0025040165153
-0.0026779672227
-0.00275438696966
-0.00277127055878
-0.00277338176132
-0.00277819345887
-0.00278293284066
-0.00278290806861
-0.00277814323318
-0.00277340894846
-0.00277134796997
-0.00275444933956
-0.0026779288494
-0.00250428880801
-0.00221334622015
-0.00172001808411
-0.000751985699814
-0.000752072607479
-0.00172949432867
-0.00223049963029
-0.00252531142697
-0.00269307264849
-0.00276465319148
-0.00277781588311
-0.00277821942229
-0.00278314253407
-0.00278885107201
-0.00278883152816
-0.00278309884618
-0.00277822951188
-0.00277787711058
-0.00276472271704
-0.00269306988345
-0.00252529730844
-0.00223051150805
-0.00172949501926
-0.000752064454451
-0.000750771345471
-0.00173315519776
-0.00223810163821
-0.00253370860563
-0.00270002713129
-0.00277047368622
-0.00278288042902
-0.00278312152648
-0.00278904042567
-0.0027957792382
-0.00279575460928
-0.00278898015294
-0.00278307709588
-0.00278288116473
-0.00277049574494
-0.00270002658896
-0.00253372250481
-0.0022381342533
-0.00173316621341
-0.000750746189871
-0.000750822144236
-0.00173318442341
-0.00223811307425
-0.00253372383701
-0.00270007963029
-0.00277067020736
-0.00278325105492
-0.00278356994294
-0.00278947902928
-0.0027961938983
-0.0027961681351
-0.00278940849888
-0.00278349161217
-0.00278320926006
-0.00277066184881
-0.00270008684274
-0.00253375348585
-0.00223816133963
-0.00173320446274
-0.00075077883079
-0.000752201510287
-0.00172957276837
-0.00223052759303
-0.0025253675308
-0.00269320219115
-0.0027652129998
-0.00277890368164
-0.00277955934579
-0.00278447039008
-0.00279010836721
-0.00279008620005
-0.0027844135331
-0.00277949209381
-0.00277885637142
-0.00276522105767
-0.00269325340765
-0.00252540419457
-0.00223060380669
-0.00172961459941
-0.000752156152683
-0.000752164955778
-0.00172015462044
-0.00221341872381
-0.0025052449107
-0.00267811751511
-0.00275499776297
-0.00277260579064
-0.00277512516796
-0.0027799181116
-0.00278455585677
-0.00278454409908
-0.00277990118525
-0.00277511932325
-0.00277262569957
-0.00275507944976
-0.00267821548292
-0.00250487839944
-0.00221351554554
-0.00172022078332
-0.000752127693068
-0.000747497932812
-0.00170041132308
-0.00218329932969
-0.00247749152666
-0.00265107026171
-0.00273704868916
-0.00276496745709
-0.00277264951179
-0.00277926313799
-0.00278410493734
-0.0027841040239
-0.00277928423601
-0.00277270602611
-0.00276507351471
-0.00273721575497
-0.00265126322418
-0.00247766193394
-0.00218342967573
-0.00170048447928
-0.000747472462198
-0.000735082554945
-0.00166246717166
-0.00212884883797
-0.00241885084312
-0.00259524675496
-0.00269273136612
-0.00273708905911
-0.00275500649505
-0.0027653805381
-0.00277111928409
-0.00277112119086
-0.00276541277451
-0.00275508347074
-0.0027372153406
-0.00269289942448
-0.00259542734434
-0.00241901316645
-0.00212895906914
-0.00166253221082
-0.00073506891231
-0.000711269604264
-0.00159604615471
-0.00203682177839
-0.00231548036755
-0.00249194501463
-0.0025953634945
-0.0026512866527
-0.00267834305117
-0.00269348839354
-0.00270044786017
-0.00270044084155
-0.00269349742992
-0.00267838083885
-0.00265137703348
-0.00259549888528
-0.0024920930479
-0.00231558834839
-0.00203689623289
-0.00159609384563
-0.000711266204671
-0.000670813612216
-0.00148784545959
-0.0018909846982
-0.00214835608707
-0.00231559591413
-0.00241907981852
-0.00247779925995
-0.00250542610393
-0.00252573007389
-0.00253410896871
-0.0025341056179
-0.0025257371098
-0.0025054116391
-0.00247788866321
-0.00241919836414
-0.00231570259322
-0.00214843674269
-0.00189104343514
-0.00148788759146
-0.000670820594867
-0.000604971467532
-0.00131796038563
-0.00166782503444
-0.00189107969607
-0.00203702904564
-0.00212915862704
-0.0021836824167
-0.00221383735766
-0.0022309687881
-0.00223857445526
-0.00223858528856
-0.00223100600808
-0.00221391186729
-0.0021837918773
-0.00212928658123
-0.00203714643747
-0.00189117312993
-0.00166789683088
-0.00131801528245
-0.000604988181166
-0.000498749100209
-0.001045864689
-0.00131800154742
-0.00148797772081
-0.00159628858399
-0.00166281397087
-0.00170084142273
-0.00172065074883
-0.00173012270677
-0.00173378795464
-0.00173380859504
-0.00173018270175
-0.00172075580669
-0.00170098587203
-0.00166297986244
-0.00159644707511
-0.00148810815295
-0.00131810122926
-0.00104593681689
-0.000498769473633
-0.000345445399784
-0.000498787387265
-0.00060501692371
-0.000670877752821
-0.000711368543588
-0.00073523145163
-0.000747699193331
-0.000752418006222
-0.000752510350592
-0.000751191484752
-0.000751199638823
-0.000752537302609
-0.000752466711885
-0.000747766065042
-0.000735306871626
-0.000711438754453
-0.000670933372016
-0.000605058461861
-0.000498817257195
-0.000345455401009
-0.000327906031259
-0.000484733579535
-0.000600508320014
-0.000676382726883
-0.00072476243462
-0.000753539351255
-0.00076615651412
-0.000764832589451
-0.000754985467831
-0.000745831672807
-0.000745847236145
-0.000755033305096
-0.000764908224884
-0.000766247065948
-0.000753626103889
-0.000724834447692
-0.000676436263373
-0.000600547421549
-0.000484762974831
-0.000327909489716
-0.000484680217046
-0.00106676608166
-0.00137283765853
-0.00157612694578
-0.00171479810291
-0.00180756345842
-0.00186537032704
-0.00189706320568
-0.00191073920007
-0.00191458089417
-0.00191460205506
-0.00191080603491
-0.00189716422658
-0.00186548364666
-0.00180767658699
-0.00171491278031
-0.00157624101737
-0.00137293976397
-0.00106684486468
-0.000484689057503
-0.000600422064604
-0.00137276735719
-0.00176832717793
-0.00203632231724
-0.00222261616483
-0.00234862813199
-0.0024287591251
-0.00247789942478
-0.00250466882406
-0.00251611162625
-0.00251613281509
-0.00250472843548
-0.00247798830119
-0.00242882702121
-0.0023486887724
-0.00222268559258
-0.00203640502686
-0.00176840688586
-0.00137281860503
-0.000600425076574
-0.000676268094475
-0.00157599745691
-0.00203626195442
-0.00234546490228
-0.00255673733791
-0.00269283710756
-0.00276673415883
-0.0028142932613
-0.00284080828179
-0.00285307639542
-0.00285306987505
-0.00284077858755
-0.00281426603536
-0.00276674061377
-0.00269282037913
-0.00255672488502
-0.00234549175143
-0.00203630403573
-0.00157601499071
-0.000676262462453
-0.000724637945231
-0.00171464487153
-0.00222252745561
-0.00255670692155
-0.00277302636075
-0.0028915100835
-0.00294382802953
-0.00297106373124
-0.00299081384598
-0.00300186022531
-0.00300181422089
-0.00299067818899
-0.00297092315161
-0.00294376694547
-0.00289145959817
-0.00277295830762
-0.00255667292183
-0.002222532183
-0.00171463222591
-0.000724627740024
-0.000753410016279
-0.00180743570591
-0.00234856571243
-0.00269288202658
-0.00289152552336
-0.00297488541016
-0.00300019556425
-0.00301423871442
-0.00302924737611
-0.00303877211814
-0.00303870768931
-0.00302905797914
-0.0030140907289
-0.00300019510948
-0.0029749348601
-0.00289151179652
-0.00269280685947
-0.00234854795493
-0.00180741154712
-0.000753402210029
-0.000766021835172
-0.00186529326484
-0.00242874233444
-0.00276681410136
-0.00294386769397
-0.00300016466774
-0.00301161434093
-0.00301983543276
-0.00303191381285
-0.00303995702166
-0.00303989785032
-0.00303174225927
-0.00301975425275
-0.00301175907225
-0.00300039535967
-0.00294399083091
-0.00276676213231
-0.00242872747678
-0.00186528382546
-0.000766025729442
-0.000764693015051
-0.00189699374717
-0.00247783727781
-0.00281428114783
-0.00297100166446
-0.00301397648287
-0.00301946844591
-0.00302365634529
-0.00303470210334
-0.00304347082088
-0.00304341609401
-0.00303454672881
-0.00302364205501
-0.00301976718078
-0.00301440954258
-0.00297130699914
-0.00281435859031
-0.0024778510546
-0.00189701325521
-0.000764704181302
-0.000754850767411
-0.00191061262242
-0.00250451959425
-0.00284071418305
-0.00299075723647
-0.00302909839387
-0.00303163762532
-0.00303473530867
-0.00304847032408
-0.00306020991272
-0.00306014829667
-0.00304828637408
-0.00303467473351
-0.00303187177923
-0.00302950154058
-0.0029910770597
-0.00284083570763
-0.00250456521708
-0.00191065705324
-0.000754854602398
-0.00074572147276
-0.00191440019118
-0.00251592015707
-0.00285300929872
-0.00300210375581
-0.00303927414517
-0.00304048187664
-0.00304434104755
-0.00306106155219
-0.00307428600348
-0.00307420707483
-0.0030608632066
-0.00304415840319
-0.00304047286844
-0.003039449666
-0.00300229621591
-0.00285312125219
-0.00251598887854
-0.00191446566005
-0.000745706826768
-0.000745785112245
-0.00191442951932
-0.00251593288613
-0.00285310588993
-0.00300254895376
-0.00304017390917
-0.00304170076827
-0.00304565281063
-0.00306234876805
-0.00307557043881
-0.00307550481662
-0.00306214863867
-0.00304538805296
-0.00304150685085
-0.00304015748801
-0.00300263154447
-0.00285319681071
-0.00251601079466
-0.00191450677886
-0.000745754258673
-0.000755025742675
-0.00191069947832
-0.00250455200709
-0.00284097407834
-0.0029920300965
-0.00303172417573
-0.00303520620442
-0.00303859063396
-0.00305223846993
-0.00306390908989
-0.00306385179486
-0.00305205802058
-0.00303833737792
-0.00303496998406
-0.0030316298452
-0.00299207169099
-0.00284106362685
-0.00250464420476
-0.00191078987936
-0.000754990963334
-0.000764940619119
-0.00189713872826
-0.00247790898607
-0.0028145378081
-0.00297245874934
-0.00301726398358
-0.00302407752178
-0.00302868161378
-0.0030396121203
-0.00304826121457
-0.00304823517114
-0.00303953712351
-0.00302857117917
-0.00302398436132
-0.00301728282436
-0.0029726167068
-0.00281469478476
-0.00247800660983
-0.00189723670802
-0.000764912267463
-0.000766307565007
-0.00186552174092
-0.0024288705344
-0.00276690581214
-0.00294480046037
-0.00300278017995
-0.00301556794112
-0.00302423519474
-0.00303621825745
-0.00304415372433
-0.00304417109044
-0.00303628625369
-0.00302433399714
-0.003015703546
-0.00300300415894
-0.00294506881912
-0.00276708750675
-0.00242899874951
-0.00186562042324
-0.00076629138522
-0.000753728451484
-0.00180781168244
-0.00234885217488
-0.00269300990447
-0.00289192023885
-0.00297638549432
-0.00300289418045
-0.00301739608826
-0.00303241270606
-0.0030419092621
-0.00304194769514
-0.00303255452739
-0.00301761603863
-0.00300314802398
-0.00297666452585
-0.00289217103055
-0.00269318907631
-0.00234896753832
-0.00180789677136
-0.000753728132588
-0.000724992936365
-0.0017151942941
-0.00222301706623
-0.00255704725528
-0.00277328087362
-0.0028920571615
-0.00294504761629
-0.00297274092655
-0.00299256492582
-0.0030036081383
-0.00300363790695
-0.00299269703113
-0.002972947148
-0.00294526986739
-0.00289226611638
-0.00277343840677
-0.00255713650466
-0.00222308842237
-0.00171525099412
-0.00072500624962
-0.000676649604933
-0.00157669809906
-0.00203695532352
-0.00234604218188
-0.00255719857398
-0.00269334216809
-0.00276733585731
-0.0028149261073
-0.00284140868091
-0.00285363936024
-0.00285365493876
-0.00284148037369
-0.00281503611826
-0.00276743870713
-0.00269346101651
-0.00255728806103
-0.00234611405163
-0.00203701256142
-0.0015767466883
-0.000676678283551
-0.000600809346306
-0.00137355211332
-0.00176915152038
-0.0020370977907
-0.00222330202189
-0.00234925485014
-0.00242934207421
-0.00247838934835
-0.0025050672958
-0.00251647147355
-0.00251649417266
-0.00250512888663
-0.00247849141188
-0.00242946840055
-0.00234939728634
-0.0022234289203
-0.00203720007872
-0.00176923515272
-0.00137362485656
-0.000600854994774
-0.000485027834812
-0.00106750318864
-0.00137364377527
-0.00157692735364
-0.00171556844716
-0.00180830988892
-0.0018661089273
-0.00189779374369
-0.00191142833452
-0.00191522654638
-0.00191526175703
-0.0019115182282
-0.00189793986494
-0.00186629995432
-0.0018085257289
-0.00171577088245
-0.00157709637068
-0.00137378084991
-0.00106761390902
-0.000485078934124
-0.000328080544977
-0.00048507788269
-0.000600891315929
-0.000676774683906
-0.000725170322448
-0.000753977981211
-0.000766638788378
-0.00076535840212
-0.000755533230255
-0.000746384582495
-0.000746403389208
-0.00075558652149
-0.00076544800878