/*--------------------------------*- C++ -*----------------------------------*\
| =========                 |                                                 |
| \\      /  F ield         | OpenFOAM: The Open Source CFD Toolbox           |
|  \\    /   O peration     | Version:  3.0.1                                 |
|   \\  /    A nd           | Web:      www.OpenFOAM.org                      |
|    \\/     M anipulation  |                                                 |
\*---------------------------------------------------------------------------*/
FoamFile
{
    version     2.0;
    format      ascii;
    class       volVectorField;
    location    "4.2";
    object      ddt0(rho,U);
}
// * * * * * * * * * * * * * * * * * * * * * * * * * * * * * * * * * * * * * //

dimensions      [1 -2 -2 0 0 0 0];

internalField   nonuniform List<vector> 
7968
(
(0.280091268678 0.280174071354 -0.355512521951)
(0.877177884818 0.154952489715 -0.359780377569)
(1.53897451881 0.0517170554486 -0.283104556329)
(2.01027291608 -0.0331684133625 -0.124400305411)
(2.26118190595 -0.0620070082611 0.078316180026)
(2.09877410302 -0.0718456608039 0.20138491671)
(1.85027112273 -0.0515130081679 0.269750063649)
(1.42791627668 -0.000242372035267 0.308856296387)
(0.882327331671 0.0670796507391 0.308601612138)
(0.299785656374 0.109259321827 0.295008245336)
(-0.291539397943 0.109406236833 0.295097986948)
(-0.874586359978 0.0675536551695 0.308817734058)
(-1.4210172007 0.000461465162036 0.309133349517)
(-1.84450454853 -0.0507663710293 0.270130814117)
(-2.09417496511 -0.0712925808644 0.201566127355)
(-2.25770574366 -0.0610132611602 0.078892247848)
(-2.00815079032 -0.032233150951 -0.124323413921)
(-1.53775079422 0.0527468044403 -0.283256459712)
(-0.876528956582 0.155965518578 -0.360032325199)
(-0.280081041464 0.281029381935 -0.355715133943)
(0.154969082029 0.877713565835 -0.359670020875)
(0.848146634852 0.848738452796 -0.863897863822)
(1.61238014716 0.800324985131 -0.968520150592)
(2.1589492005 0.749522653987 -0.842833185339)
(2.4224945207 0.739235285095 -0.604588583165)
(2.28152970269 0.736957368743 -0.380587395429)
(2.00301673261 0.702070584928 -0.215969135122)
(1.53857661323 0.709472455498 -0.0756409293839)
(0.95103075946 0.742537794237 0.00709807458488)
(0.323117164391 0.766604980249 0.0383135594037)
(-0.313115209711 0.766712378464 0.038478198128)
(-0.941488079038 0.742954519377 0.00763006536275)
(-1.53010052202 0.710359437598 -0.0747961794371)
(-1.99602072698 0.703161778985 -0.215022608775)
(-2.27583661721 0.738235223284 -0.379701506562)
(-2.41833117426 0.741205823895 -0.603630200257)
(-2.15637093771 0.751841154645 -0.842082046076)
(-1.61120506856 0.802922040147 -0.968101499676)
(-0.847917285148 0.851274581778 -0.863826994804)
(-0.155173073781 0.879748366846 -0.35981693235)
(0.0516950929188 1.53923253591 -0.283160328719)
(0.799417641585 1.61323243703 -0.968396150109)
(1.59360652532 1.59547172513 -1.06659757467)
(2.15059901478 1.5340438147 -0.902903574202)
(2.40233417284 1.48399292814 -0.637951596482)
(2.28657899202 1.42021530639 -0.39155707598)
(2.00472896405 1.31273127189 -0.211578970247)
(1.55823470822 1.26167686362 -0.0689048570613)
(0.979827115634 1.26341017825 0.0217349470315)
(0.335989829776 1.27171750291 0.0596975631424)
(-0.324586761045 1.27186626469 0.0598095017843)
(-0.968880604706 1.26396320573 0.0221564510301)
(-1.54872080714 1.26298323939 -0.06823380903)
(-1.99713076956 1.31415438002 -0.21066035966)
(-2.28023176438 1.42194268757 -0.390438996344)
(-2.39762358939 1.48656908017 -0.636706644557)
(-2.14752228121 1.53706532514 -0.901821398451)
(-1.59205379818 1.5988919977 -1.06576989484)
(-0.799063917463 1.61665835123 -0.968052805712)
(-0.0518468316201 1.54210481344 -0.283264427993)
(-0.0331724164827 2.01091678238 -0.124891737262)
(0.748651432202 2.16054431735 -0.842924581115)
(1.53177897374 2.15415050862 -0.903054792883)
(2.07011014274 2.07509345968 -0.720185466554)
(2.30118567564 1.97701529426 -0.460700163914)
(2.19142371346 1.84683605664 -0.241067834274)
(1.9184462567 1.66667279886 -0.0966992624602)
(1.50710387382 1.56344778503 -0.00316324345535)
(0.961599798393 1.52375149943 0.0790369481182)
(0.330667326846 1.51122840485 0.110012422126)
(-0.317926217034 1.51147153378 0.11009183616)
(-0.94913337181 1.5243804009 0.0791196729783)
(-1.49644366501 1.56455483286 -0.00285353061944)
(-1.91017787836 1.66822737962 -0.0961167903429)
(-2.18425349906 1.84905685961 -0.240177379879)
(-2.29564746545 1.98027104202 -0.459614042332)
(-2.06627868137 2.07888213735 -0.719064999437)
(-1.52957079664 2.15833157005 -0.902053433959)
(-0.747931340059 2.16471998487 -0.842317284751)
(0.0331463998618 2.01466894388 -0.125010356742)
(-0.0614326568902 2.2615006228 0.0775066999121)
(0.739340113039 2.42478615777 -0.605328879014)
(1.48282109087 2.40809548552 -0.638676885991)
(1.97233547309 2.31036653778 -0.46116822321)
(2.17374342477 2.18315490934 -0.233803599464)
(2.06705429898 2.02994021268 -0.059582802138)
(1.8212848701 1.83722119984 0.05527839035)
(1.44344823096 1.72026711629 0.162982893298)
(0.924939421183 1.65263147975 0.252590817563)
(0.32093068006 1.62641958894 0.300049768386)
(-0.306941769136 1.62660687458 0.300211757212)
(-0.911532941062 1.65331236542 0.253133624875)
(-1.4316883396 1.72096499982 0.163639719553)
(-1.81171704174 1.83902283036 0.0563521242762)
(-2.05901650206 2.03293666133 -0.0585297305911)
(-2.16742694546 2.18724722938 -0.232502786137)
(-1.96787292767 2.31503117969 -0.460193838575)
(-1.4801420572 2.41298267251 -0.63767616345)
(-0.738260710232 2.42941338037 -0.604486338719)
(0.0613737194488 2.26568493544 0.0777034125034)
(-0.0707100420216 2.09942278848 0.198925525239)
(0.739385805817 2.28474423468 -0.382568011548)
(1.4223649569 2.2954691189 -0.39325618531)
(1.8436837584 2.20766893553 -0.241802628676)
(2.0202509208 2.08071291124 -0.0595705315805)
(1.91321107496 1.92505142601 0.0957806999131)
(1.70236736406 1.72716437052 0.192335286111)
(1.35996247294 1.58698475033 0.303196565242)
(0.872532715766 1.50820148268 0.403148831173)
(0.302537832107 1.47569896101 0.450259608191)
(-0.2874622293 1.47603078542 0.450573016012)
(-0.858154024805 1.50902196457 0.40392939363)
(-1.34701535301 1.58817122926 0.304359587121)
(-1.69121592691 1.72923861248 0.193734044815)
(-1.90377183134 1.92842987037 0.0971706712676)
(-2.01291688166 2.08564393435 -0.0582909095361)
(-1.83855287047 2.21363483129 -0.240893916224)
(-1.41922748564 2.30089948888 -0.392407118491)
(-0.737898207914 2.28970390885 -0.381898852745)
(0.0709395265186 2.10412166152 0.198840388825)
(-0.0489041694069 1.84966485517 0.266593287513)
(0.709170420412 2.00509524174 -0.218910706146)
(1.32292253559 2.01476374099 -0.213517534482)
(1.66567234317 1.94436926266 -0.0919727318335)
(1.82318188839 1.83515677871 0.0568756414286)
(1.71357597566 1.7105016866 0.192905067398)
(1.53391645123 1.54031300848 0.273827038407)
(1.23847800707 1.40410270336 0.381731493307)
(0.797077136939 1.31488087534 0.517020949528)
(0.275537044264 1.27365915345 0.585830040696)
(-0.259443640802 1.27384010562 0.58619914658)
(-0.781693500568 1.31561829479 0.518131953876)
(-1.22452435792 1.40542593386 0.383140183038)
(-1.5215808614 1.54259231886 0.275377748551)
(-1.70260418055 1.71399310005 0.194499165206)
(-1.81437087403 1.84086395556 0.0585426091012)
(-1.66019022821 1.95237488398 -0.0899303308715)
(-1.32051796379 2.02073635383 -0.212540107607)
(-0.707971954307 2.01004046314 -0.218120277062)
(0.0489351756741 1.8544420311 0.266752536387)
(0.0035920262508 1.42464423214 0.304991443343)
(0.722014494224 1.53537611922 -0.0792266173712)
(1.28655761993 1.55562706992 -0.0664164889264)
(1.5639182658 1.50589025929 0.0558716456466)
(1.69325265228 1.44307301463 0.169967128059)
(1.56792241054 1.35908139195 0.303365600882)
(1.39581785907 1.23563919593 0.378391334028)
(1.1311276572 1.12747531093 0.452046349773)
(0.733723279734 1.07260490928 0.43725158492)
(0.256221245784 1.05200078549 0.424417353772)
(-0.239762267502 1.05209970181 0.424544661134)
(-0.718034340761 1.07299518636 0.437394894005)
(-1.116719921 1.12877982699 0.451399161222)
(-1.38228343468 1.23741025171 0.379938114188)
(-1.55567352134 1.36180461415 0.30519061643)
(-1.6817395813 1.44670134793 0.173390926248)
(-1.55859622671 1.50982800819 0.0681607643514)
(-1.2864845649 1.5596117117 -0.0645291357706)
(-0.721512134585 1.53933900462 -0.0784080964703)
(-0.00375279472143 1.42873247937 0.305301502436)
(0.0698073413617 0.876679038683 0.304631496177)
(0.750361359932 0.942693247668 0.00281765779438)
(1.27500526622 0.964885359825 0.0188298623363)
(1.52464139473 0.932904547162 0.0841125408103)
(1.6398415994 0.910747216803 0.255215348843)
(1.49222134048 0.864403944404 0.402224067209)
(1.30613671905 0.790393445921 0.509848826353)
(1.07614238372 0.726316964816 0.433319387677)
(0.714467279079 0.706030297717 0.394837125936)
(0.248585388101 0.704967239639 0.390084858604)
(-0.232491995688 0.705151883973 0.389861703484)
(-0.698472258446 0.706627215818 0.394680764702)
(-1.06130545534 0.727626577487 0.433326581668)
(-1.29225449358 0.791775593798 0.511042108618)
(-1.48021394305 0.866072393502 0.403683763824)
(-1.63050795654 0.912255373588 0.257306774545)
(-1.51957404902 0.932529859108 0.0864315839445)
(-1.2732239697 0.966830219166 0.019530847432)
(-0.749458275027 0.945522506673 0.00336209276431)
(-0.0698226432033 0.879835566433 0.304996723937)
(0.110805162847 0.293223962173 0.291373940454)
(0.7704338049 0.313923450348 0.0342975985594)
(1.27610353656 0.32221352501 0.0562361317053)
(1.51195697931 0.311341801602 0.110337713036)
(1.61993206462 0.30677297171 0.301695621139)
(1.46399054546 0.292681171148 0.449266750118)
(1.26588654525 0.268087407212 0.578623102053)
(1.0556831256 0.249365871896 0.420146042653)
(0.713077532171 0.240687168912 0.388537286496)
(0.246853501991 0.238490331467 0.396082183545)
(-0.230186062663 0.239000948015 0.396279396655)
(-0.696937226294 0.241948213818 0.388988541988)
(-1.0410909164 0.250882315815 0.420812838537)
(-1.25252954291 0.269809751358 0.579590152216)
(-1.45202115319 0.294762842575 0.449999110898)
(-1.6113140132 0.309216191266 0.302966867214)
(-1.50724984654 0.313714023191 0.111165177228)
(-1.27408352063 0.324841332586 0.0563627217223)
(-0.76975013502 0.316479570808 0.0343683674107)
(-0.110724795905 0.295759426957 0.291592202644)
(0.110476548875 -0.297659037154 0.291103107724)
(0.768133143546 -0.321475363402 0.0348827414383)
(1.27336496265 -0.335720379118 0.0566970944631)
(1.5111500622 -0.331072133044 0.110062209933)
(1.62225347371 -0.318854173087 0.302447800085)
(1.4649328182 -0.297245440231 0.449589687407)
(1.26657484035 -0.267822345001 0.57876874505)
(1.05503757191 -0.247255367568 0.419277693061)
(0.712674065108 -0.239842313902 0.387005762786)
(0.247105652693 -0.23822671401 0.394468888798)
(-0.229547248051 -0.23804792998 0.394844603438)
(-0.695973006507 -0.239114692375 0.38821528914)
(-1.04029559584 -0.246309961722 0.420507472115)
(-1.25278131429 -0.266125135982 0.579781258423)
(-1.45246651504 -0.294266430504 0.450258085977)
(-1.61270479 -0.313928630045 0.303224057222)
(-1.50683018497 -0.323431004637 0.110702846351)
(-1.27289754926 -0.331102213123 0.0561779149917)
(-0.768463890347 -0.318812037596 0.034308601462)
(-0.110575806589 -0.295727724827 0.291359600932)
(0.0684059560793 -0.878976045858 0.304687631726)
(0.742857597014 -0.948151735712 0.00436067739797)
(1.26366109301 -0.978139169957 0.0194108181619)
(1.52378884575 -0.960724595456 0.0793719618683)
(1.64811977737 -0.922572101429 0.256586961028)
(1.49808721543 -0.866985775649 0.404117958153)
(1.30765926946 -0.787611894475 0.510774319135)
(1.07574441225 -0.721934095798 0.432394026157)
(0.713613082423 -0.701405390932 0.392917241125)
(0.249000943152 -0.70070043408 0.388404413058)
(-0.231329571285 -0.700647951464 0.388631133406)
(-0.696572136551 -0.701477567015 0.393983556896)
(-1.06012809734 -0.721958851399 0.43339395719)
(-1.29272353655 -0.786668665526 0.511833543351)
(-1.48327782181 -0.864229110673 0.40486522719)
(-1.63486039929 -0.916019087881 0.257697017123)
(-1.51963135173 -0.945116733709 0.0830058192076)
(-1.26767268133 -0.971947421182 0.0187726919782)
(-0.745759024045 -0.946025842049 0.00317771852729)
(-0.0691421680137 -0.877955562367 0.304419634956)
(0.00102664451908 -1.42291013742 0.305083630434)
(0.708950660553 -1.53443000472 -0.0776966101878)
(1.26084557555 -1.55618481039 -0.0706796736944)
(1.56211405126 -1.50671819163 -0.00379630923976)
(1.71629365034 -1.44314981397 0.166969201608)
(1.57872020612 -1.35654147157 0.306002436533)
(1.39902476921 -1.23067695851 0.380870809108)
(1.13060879401 -1.1216551815 0.450683259064)
(0.733054533294 -1.06683365689 0.436028403132)
(0.256499101255 -1.04684255644 0.423745379919)
(-0.239117491301 -1.04698948766 0.42396553675)
(-0.716188469847 -1.06735818152 0.436525517581)
(-1.11455094135 -1.12267739018 0.450739883215)
(-1.38258280046 -1.23100789345 0.381895951266)
(-1.56078066122 -1.35678681792 0.307287970318)
(-1.69411752494 -1.44380591079 0.171958730483)
(-1.55834473906 -1.50752532065 0.0380040905155)
(-1.27415186144 -1.55705782296 -0.0679817113626)
(-0.714869061229 -1.53515893512 -0.078823263454)
(-0.00248654329248 -1.42353140717 0.304556638066)
(-0.0506388268934 -1.84322210493 0.26670098061)
(0.701058617084 -1.99769054711 -0.217305048565)
(1.31066380473 -2.00223437048 -0.212666127633)
(1.66393073827 -1.91864919596 -0.0969503895402)
(1.83246051924 -1.82319370631 0.0581123798826)
(1.72050610082 -1.70354827205 0.195671381815)
(1.5360888849 -1.53376799268 0.277101297977)
(1.23715724177 -1.39711424792 0.383002013044)
(0.795481483661 -1.30788852889 0.515848302476)
(0.27535522572 -1.26776409196 0.58396376583)
(-0.258635476742 -1.26787606505 0.584211912282)
(-0.779104909158 -1.30881626547 0.516396491439)
(-1.2209080058 -1.39843659887 0.383626960432)
(-1.52053297041 -1.53584316202 0.278426068713)
(-1.70566092395 -1.70718861787 0.197401824817)
(-1.81963260045 -1.83156587867 0.0600261404127)
(-1.66049640878 -1.93635632103 -0.0928568318135)
(-1.3148522579 -2.01049157904 -0.213379337747)
(-0.703703787353 -2.00142421616 -0.218477864849)
(0.0498584497585 -1.84540272435 0.266204760787)
(-0.0714875931589 -2.09006537463 0.199309950125)
(0.735216794697 -2.27488228149 -0.38132681198)
(1.41688174865 -2.28319082001 -0.392021739618)
(1.84184375354 -2.19098988891 -0.241413533574)
(2.02332726357 -2.0695506859 -0.0582960750463)
(1.91647737423 -1.91714725561 0.0980935603979)
(1.70383993896 -1.7207401315 0.195594825024)
(1.35877907399 -1.58019231638 0.30590201262)
(0.870662321812 -1.50176258604 0.404630426534)
(0.301730549203 -1.46980536661 0.450509368046)
(-0.286289760359 -1.47027115377 0.450620717318)
(-0.855206551878 -1.50273799915 0.404734144354)
(-1.34359302978 -1.58218757648 0.306396061474)
(-1.68961243398 -1.72362770937 0.197089818077)
(-1.90470444256 -1.9221244167 0.100047572499)
(-2.01486490686 -2.07748124704 -0.05676951437)
(-1.83840618827 -2.20215997608 -0.241150666224)
(-1.41654969604 -2.29035909981 -0.392856185204)
(-0.735248746652 -2.27905712301 -0.382039512735)
(0.0714403949681 -2.09285297354 0.19906759728)
(-0.0619140517195 -2.25128868103 0.0776881199078)
(0.73726640457 -2.41485704056 -0.604111424222)
(1.47992667161 -2.39777362926 -0.63747065464)
(1.97057818292 -2.29935905244 -0.460471910693)
(2.17397846509 -2.1745171882 -0.232678218817)
(2.06838674058 -2.02380511552 -0.0580874931749)
(1.82199881191 -1.8326214141 0.058182760897)
(1.44251543448 -1.71652477409 0.166571199556)
(0.922818526671 -1.64994523058 0.255499751126)
(0.3197785152 -1.6249248264 0.301859820653)
(-0.305897896774 -1.62518937807 0.301768009414)
(-0.908808022716 -1.65109094055 0.255205925946)
(-1.42862494899 -1.71783441011 0.166975503443)
(-1.80976120939 -1.83606350505 0.0593235675107)
(-2.05846976984 -2.02869946298 -0.0564621757)
(-2.16722982277 -2.18097269174 -0.231485089455)
(-1.96662747888 -2.30619635221 -0.460329596877)
(-1.47776562276 -2.40295027124 -0.637894696983)
(-0.735845451385 -2.41826439393 -0.604467501825)
(0.0624187337236 -2.25381194218 0.0775998274028)
(-0.0335174722967 -2.00060611232 -0.123889535757)
(0.747133287277 -2.15136435985 -0.841491841845)
(1.52945804659 -2.14554424083 -0.901560762427)
(2.06749643487 -2.06679434396 -0.719065206958)
(2.29917016162 -1.97030530636 -0.460274207433)
(2.19013018227 -1.84174320649 -0.240916865138)
(1.91768557532 -1.66386418351 -0.0959595053919)
(1.50473153025 -1.56222865481 0.000499929879368)
(0.958163070419 -1.52398484302 0.0793982757015)
(0.32903176501 -1.51175476141 0.109759741754)
(-0.316143313771 -1.51217510987 0.109581343155)
(-0.944726439381 -1.52485112007 0.0794009398189)
(-1.49247778633 -1.564283844 0.00326861226767)
(-1.90738333428 -1.66694742056 -0.0952284844614)
(-2.18156075335 -1.84587851633 -0.240237797627)
(-2.29277370824 -1.97491988302 -0.459756089294)
(-2.06315789349 -2.07120415833 -0.719125994341)
(-1.526307159 -2.14893852223 -0.90183232076)
(-0.744971630033 -2.15379883321 -0.841464484972)
(0.0342408208837 -2.00254507847 -0.123626984007)
(0.0512098856214 -1.53057757031 -0.281355512023)
(0.797931615841 -1.60588453607 -0.966442346753)
(1.59120184416 -1.58888675614 -1.06449193421)
(2.14732636377 -1.52795785667 -0.901143736155)
(2.39870362789 -1.47867884473 -0.636929192286)
(2.28329809674 -1.41589201744 -0.39126041074)
(2.00162268153 -1.31004821123 -0.21183714515)
(1.55487031918 -1.26076363864 -0.0696375320551)
(0.97688158746 -1.26275111951 0.0198325876187)
(0.335128336428 -1.27112509946 0.0569211324913)
(-0.322611933776 -1.2713302919 0.0568981919642)
(-0.964508499259 -1.26380425352 0.0195882558308)
(-1.54329104174 -1.26280152074 -0.0695146888088)
(-1.99167266314 -1.31218124282 -0.211752670201)
(-2.27501255206 -1.41814646309 -0.391039458963)
(-2.39246034841 -1.48113365167 -0.636755453558)
(-2.14272631177 -1.53004111522 -0.901208471554)
(-1.5878138926 -1.59053427915 -1.06465305511)
(-0.795594955894 -1.60711179461 -0.966257045387)
(-0.0504328794534 -1.53185565767 -0.280995602391)
(0.154207950394 -0.871675508172 -0.357104964857)
(0.84608625909 -0.843640635341 -0.861395780987)
(1.60940175743 -0.795896031753 -0.966128056155)
(2.1548671997 -0.745443374199 -0.840587101344)
(2.41766208667 -0.735433100526 -0.602924153601)
(2.27694509277 -0.733330469524 -0.379865219681)
(1.99890416197 -0.699205351005 -0.215772709782)
(1.53502122698 -0.707212249183 -0.0761217711684)
(0.948860985099 -0.740409468446 0.00579106948414)
(0.32311838242 -0.764422352238 0.0364509439045)
(-0.310635248762 -0.764580986469 0.0363445477823)
(-0.93670044808 -0.740752397085 0.00571525048037)
(-1.52374531934 -0.707868887431 -0.0760780591992)
(-1.98909240222 -0.699820193521 -0.215434830333)
(-2.26893990054 -0.73395714262 -0.379428265433)
(-2.41159240067 -0.736071556676 -0.602502322586)
(-2.15046371265 -0.745864756263 -0.840295050213)
(-1.60623626883 -0.796234495315 -0.965937912692)
(-0.844035267218 -0.84404819089 -0.861218753343)
(-0.15352925129 -0.87251489553 -0.356722132404)
(0.279344798101 -0.278026366499 -0.352468083334)
(0.874660302974 -0.153151036256 -0.356876961239)
(1.53507663507 -0.0501328627917 -0.280438251257)
(2.00524663181 0.034610947494 -0.122202070366)
(2.25531446847 0.063270025191 0.0800732029145)
(2.09345056438 0.0731188868909 0.202342513318)
(1.84567165596 0.052498492209 0.270268468861)
(1.42446780493 0.00100602004352 0.308857586957)
(0.880714662587 -0.0661002764598 0.308450144762)
(0.300421584251 -0.107944787307 0.294929607155)
(-0.2885038211 -0.10794477088 0.294941612485)
(-0.869221277593 -0.0660955504704 0.308782583666)
(-1.41397537275 0.000994273155213 0.309530767095)
(-1.83674374585 0.0524233050582 0.271126795074)
(-2.08632392149 0.0732150908326 0.203161575335)
(-2.25006176823 0.0633224473787 0.0808603689895)
(-2.00154389093 0.0347589749666 -0.121493399341)
(-1.53256679511 -0.0499602254028 -0.280017556061)
(-0.87311036763 -0.15303302444 -0.356469992378)
(-0.278871110556 -0.278221423566 -0.352250748821)
(0.495828987585 0.49605193793 -1.81495851074)
(1.42430388885 0.696519113058 -1.86620529105)
(2.08575907534 0.809786168394 -1.61412101927)
(2.45518004001 0.875697575177 -1.20030501794)
(2.53566603306 0.912709706896 -0.721052036351)
(2.31692100653 0.899346045786 -0.359030439213)
(1.96752918887 0.87878742303 -0.127980405897)
(1.4829532587 0.86956336165 0.0215923706538)
(0.901750796166 0.883314786561 0.0701786629984)
(0.303258701643 0.897963477883 0.0639023180048)
(-0.293825773411 0.898029457725 0.0641664014323)
(-0.892756314215 0.883433834679 0.0709181266183)
(-1.47490979216 0.869774136779 0.0226635306822)
(-1.96082120154 0.879065992697 -0.126704745058)
(-2.31164871448 0.899713267798 -0.357935301853)
(-2.53177164427 0.913453914984 -0.720214423474)
(-2.45287653887 0.876690859664 -1.20029721054)
(-2.08458482657 0.81091590676 -1.61480447749)
(-1.42397459214 0.697541941326 -1.86749519498)
(-0.495933988778 0.496855842651 -1.81640004246)
(0.696739753854 1.42462644836 -1.86586405514)
(1.68751082783 1.68745054208 -2.21913457538)
(2.22279942612 1.82449306265 -2.01406650784)
(2.48265107803 1.92520682776 -1.60163688021)
(2.48356073627 1.99123406141 -1.12707903168)
(2.2675710055 2.00730860675 -0.720074232691)
(1.91723253461 1.99936588931 -0.409527424008)
(1.44719783096 2.00687471017 -0.179425340406)
(0.894587602957 2.04191821761 -0.0469614530265)
(0.304953038823 2.06794628535 0.00556193834527)
(-0.295794361323 2.06796791969 0.00585669678946)
(-0.885950464899 2.0422544367 -0.046091242787)
(-1.43956936261 2.00741889877 -0.17814806372)
(-1.91095021003 2.00009646597 -0.407963131592)
(-2.26279560824 2.00860839783 -0.718530768941)
(-2.48033719737 1.99344426068 -1.12579128528)
(-2.48087072527 1.92812527697 -1.60072107076)
(-2.22227417496 1.82777048538 -2.01383204131)
(-1.68774146714 1.69044432969 -2.21974323106)
(-0.697071148218 1.42673202629 -1.86708356994)
(0.809865273717 2.0858040646 -1.61398457131)
(1.8242673531 2.2229872919 -2.01413189823)
(2.33247949618 2.33324388582 -1.74146679856)
(2.53396649566 2.41688136272 -1.27334017769)
(2.48716972901 2.46542423011 -0.768423977299)
(2.25917926167 2.46672558847 -0.329475706429)
(1.90280071955 2.44131922466 0.0158668371395)
(1.44907134507 2.40063789751 0.283122950243)
(0.912946961854 2.44707176918 0.45608270113)
(0.314094875591 2.46664323914 0.540196483515)
(-0.304478247947 2.46701613299 0.540380362987)
(-0.903774749998 2.44762185231 0.456853071074)
(-1.44125797847 2.40367819724 0.284267659922)
(-1.89660467572 2.44315371133 0.0172331606799)
(-2.25436785669 2.46945973158 -0.328099611539)
(-2.48376577447 2.46921864844 -0.766890982572)
(-2.53196764219 2.42151829848 -1.27190182326)
(-2.3316570883 2.33817779692 -1.74053398626)
(-1.82436402704 2.22757782278 -2.01410869087)
(-0.810118754756 2.08906359807 -1.61479977411)
(0.875672020856 2.45540098335 -1.20083948983)
(1.92490543583 2.48341199953 -1.60242578328)
(2.41577350349 2.53579092974 -1.27389395104)
(2.55954443895 2.56249012658 -0.78503262949)
(2.45911050088 2.54167455318 -0.296051302922)
(2.20405877155 2.47411027017 0.101880059594)
(1.81480014969 2.39378380464 0.411872257222)
(1.40815714789 2.33170694072 0.686410475222)
(0.924378011012 2.30141712745 0.832239308603)
(0.311951541809 2.29242515666 0.922527523537)
(-0.301611046785 2.29254290825 0.922603013427)
(-0.912503055005 2.30256954029 0.83282282303)
(-1.39915313091 2.33345773624 0.686071837865)
(-1.80963951536 2.39667891492 0.412944519817)
(-2.19825801431 2.47820882912 0.102892897066)
(-2.45478453053 2.5470234897 -0.294740203608)
(-2.55667362975 2.56877228804 -0.783666899116)
(-2.41424924187 2.54235499044 -1.27276458331)
(-1.92436487203 2.48927408587 -1.60178891274)
(-0.875603146837 2.45962390331 -1.20115783541)
(0.912934630102 2.53550051129 -0.723287528469)
(1.99166198636 2.48484414889 -1.12951615691)
(2.46515850234 2.49078805559 -0.770772718324)
(2.53893250869 2.46596829511 -0.297820066221)
(2.37142511287 2.37822681181 0.114812009215)
(2.09124816331 2.26069168154 0.419499329382)
(1.74104079635 2.13803037548 0.635119054837)
(1.33406208805 2.07252009566 0.809190902719)
(0.854151780581 1.97998102746 0.957117183129)
(0.298205732315 1.95040283083 1.04475854568)
(-0.286291463219 1.95113924168 1.04494312645)
(-0.842888516164 1.98172619365 0.957954598859)
(-1.32405882355 2.07302712636 0.810569613439)
(-1.73239254628 2.14199972162 0.63615145863)
(-2.08433371109 2.2664805787 0.420571302246)
(-2.36588481994 2.38527061808 0.115808266819)
(-2.53505318738 2.4740917118 -0.296908220032)
(-2.4627634116 2.49870090886 -0.769667337079)
(-1.99043156172 2.49168301746 -1.12860142917)
(-0.912574398973 2.54027356705 -0.723089579022)
(0.900447218597 2.31628065594 -0.3640185556)
(2.01000519098 2.26913585045 -0.725182148119)
(2.47010695054 2.26617967699 -0.335462712508)
(2.47292245631 2.22304519112 0.0954677678348)
(2.25329776656 2.10276024583 0.417929049782)
(1.96060597433 1.96987196971 0.606357326207)
(1.63446093255 1.83681997591 0.730461023417)
(1.25723534206 1.72794387785 0.84824209791)
(0.805561411871 1.6563935959 0.966543354199)
(0.282320300243 1.62325356532 1.03469446011)
(-0.26870097659 1.62368970932 1.03497581401)
(-0.792665269217 1.65833615477 0.967501187671)
(-1.2453422598 1.73105656272 0.849204160865)
(-1.6240599746 1.84178598284 0.732037318511)
(-1.95175637242 1.97665683799 0.607872708085)
(-2.24639296798 2.11170283888 0.418801419312)
(-2.46802677528 2.23413355906 0.0955814503821)
(-2.46732922398 2.27549310782 -0.334835776313)
(-2.00825005165 2.27650305292 -0.724198196089)
(-0.899877561355 2.32137819052 -0.363371517552)
(0.881336215316 1.96543183058 -0.135998398024)
(2.00739975629 1.91800558077 -0.418651544198)
(2.45806531331 1.9161696324 0.00182932317279)
(2.39488307486 1.89761910988 0.387479113237)
(2.12084599207 1.75824257064 0.628674878537)
(1.82530696327 1.64100635675 0.729613832724)
(1.51286139248 1.51726134392 0.764252634464)
(1.16862426462 1.41661982149 0.808300770797)
(0.755335294559 1.36770758846 0.889924045415)
(0.266213343123 1.35222668023 0.940593045446)
(-0.250851115319 1.35315321109 0.94130892515)
(-0.74080312581 1.36978793526 0.891339121015)
(-1.15499221723 1.41985463571 0.80950262453)
(-1.50048281916 1.52264130798 0.766025042078)
(-1.81437524908 1.64867803927 0.731397068023)
(-2.11077268947 1.76935654197 0.628954868963)
(-2.38952323785 1.92008484534 0.384722196569)
(-2.45679139331 1.92704493316 0.0014723110679)
(-2.00604928604 1.92552749575 -0.417814761823)
(-0.880710160564 1.97027523638 -0.134862162359)
(0.873959909573 1.47835722469 0.0106556008812)
(2.02559953349 1.44263812768 -0.193181901326)
(2.48636323455 1.44481259294 0.252988161698)
(2.33409011159 1.40508534452 0.578036489347)
(1.98923332511 1.3319570453 0.788933581622)
(1.7059752093 1.25495091662 0.843943752237)
(1.41031796661 1.16445752403 0.802289964528)
(1.09987043644 1.09464506281 0.846368780266)
(0.731825653576 1.08636183847 0.950569802388)
(0.262414772021 1.09419205653 1.02798014827)
(-0.245636944468 1.09464212305 1.02847193901)
(-0.716061209292 1.08823102385 0.952211042612)
(-1.08461832177 1.09799163323 0.847500843302)
(-1.39567607254 1.16965533615 0.804114489301)
(-1.6917391881 1.26220259183 0.846287849407)
(-1.96737615882 1.34042135547 0.788069439246)
(-2.32869205435 1.4138864913 0.562029806809)
(-2.49638479567 1.45276180604 0.250288426248)
(-2.02605141255 1.44894081557 -0.192695601214)
(-0.873630143287 1.48231079923 0.0121027428681)
(0.88643001512 0.895371330457 0.0586315640931)
(2.0511251599 0.885006678766 -0.059412192148)
(2.4655033089 0.891185540563 0.439436041209)
(2.30491806496 0.835600229516 0.807604679956)
(1.96422958237 0.832527575383 0.951691521496)
(1.64359785243 0.79565686856 0.964008083784)
(1.36065718925 0.746357142534 0.878856070729)
(1.09085876759 0.72216260157 0.940083251483)
(0.741310793442 0.731270949117 1.09370153958)
(0.267496951931 0.741824243682 1.20886360452)
(-0.249862879764 0.742490957386 1.20915005519)
(-0.724315170616 0.733243642132 1.09453537908)
(-1.07452044467 0.72582720816 0.941250693375)
(-1.34520523818 0.751320461441 0.880901941916)
(-1.62998925664 0.801826152297 0.967090261618)
(-1.95302121918 0.837861323672 0.953727855565)
(-2.29957310317 0.830206831641 0.805550661438)
(-2.46504171086 0.895878498731 0.438937259685)
(-2.05040461839 0.889831235714 -0.058782075453)
(-0.886117255653 0.898057218159 0.060152245536)
(0.899874330173 0.296406099475 0.0527857942638)
(2.07220900323 0.294816516495 -0.00493262073291)
(2.4736009919 0.298569454172 0.529738176074)
(2.29483418432 0.285961519773 0.915403798325)
(1.94596210957 0.281471946822 1.04374210487)
(1.6138540226 0.269933222141 1.03226990016)
(1.34626717037 0.255455278477 0.9279256537)
(1.09833467095 0.252101502056 1.01410739633)
(0.751680426281 0.256848744594 1.20376722998)
(0.270819268776 0.259985367151 1.34005576264)
(-0.251901185494 0.26070482497 1.34067592028)
(-0.73343555663 0.259015522464 1.20524717033)
(-1.0812142633 0.255674069452 1.01618980376)
(-1.33013925779 0.260090589918 0.929876106766)
(-1.60004774261 0.275847765115 1.03514826054)
(-1.93618946486 0.288117652432 1.04650406972)
(-2.28987477817 0.291904578824 0.915506832792)
(-2.47201048723 0.304336587685 0.529476685494)
(-2.07188711248 0.299072875779 -0.00491723009757)
(-0.899921133759 0.298660138872 0.0538761120912)
(0.899278255525 -0.299738879442 0.053541725254)
(2.07025035519 -0.305170675028 -0.00365272822101)
(2.46991992302 -0.317436549178 0.532445007529)
(2.29440286115 -0.317978690131 0.919411124779)
(1.94768211312 -0.300849222052 1.04588550827)
(1.61588163012 -0.281633315947 1.03293348453)
(1.34676511954 -0.262060590773 0.927370585898)
(1.09882616794 -0.256138051943 1.01334848035)
(0.751652778079 -0.259953263612 1.20050851353)
(0.271343650216 -0.262354760098 1.33689126655)
(-0.251111222307 -0.261836576433 1.33797732263)
(-0.732278132963 -0.258329254195 1.2033543375)
(-1.08065128779 -0.253277797616 1.01614184237)
(-1.329605968 -0.257839047018 0.929554191168)
(-1.60085329519 -0.275819177222 1.03562588695)
(-1.93658517929 -0.292354925029 1.04713623995)
(-2.28973397759 -0.303419671449 0.916729213992)
(-2.46994103258 -0.309951404946 0.52999712644)
(-2.07078536182 -0.301334630548 -0.00507015567468)
(-0.899481438743 -0.298109575258 0.0536534065985)