/*--------------------------------*- C++ -*----------------------------------*\
| =========                 |                                                 |
| \\      /  F ield         | OpenFOAM: The Open Source CFD Toolbox           |
|  \\    /   O peration     | Version:  3.0.1                                 |
|   \\  /    A nd           | Web:      www.OpenFOAM.org                      |
|    \\/     M anipulation  |                                                 |
\*---------------------------------------------------------------------------*/
FoamFile
{
    version     2.0;
    format      ascii;
    class       volScalarField;
    location    "4.2";
    object      p_rgh;
}
// * * * * * * * * * * * * * * * * * * * * * * * * * * * * * * * * * * * * * //

dimensions      [1 -1 -2 0 0 0 0];

internalField   nonuniform List<scalar> 
7968
(
5361.71469273
5361.70321643
5361.61667884
5361.49360474
5361.36041998
5361.23937518
5361.1479666
5361.09005717
5361.0576194
5361.04335091
5361.04323442
5361.05727813
5361.08951111
5361.14723283
5361.23847292
5361.35937448
5361.49249783
5361.61555851
5361.70211881
5361.7135685
5361.70336377
5361.74428221
5361.68577811
5361.57624242
5361.44543542
5361.32187053
5361.22549986
5361.1640424
5361.12976721
5361.11461002
5361.1144801
5361.12936211
5361.16337377
5361.22464057
5361.32084818
5361.44429623
5361.5750362
5361.68457977
5361.74311083
5361.70216793
5361.6170985
5361.68607936
5361.63925845
5361.52767968
5361.38258958
5361.23973465
5361.12401699
5361.04620313
5361.00010163
5360.97876411
5360.97859289
5360.99956426
5361.0452889
5361.12294934
5361.23850829
5361.38125641
5361.52629634
5361.63788547
5361.68474781
5361.61576898
5361.49449882
5361.57703083
5361.52817505
5361.40115969
5361.23285931
5361.0673034
5360.93460858
5360.8461256
5360.79376284
5360.76967327
5360.7694798
5360.7931274
5360.84487109
5360.93338885
5361.06599106
5361.23142009
5361.3996273
5361.52662871
5361.57553052
5361.49302192
5361.36191882
5361.44684647
5361.38367433
5361.23342795
5361.0437819
5360.86629131
5360.73269875
5360.64978995
5360.60528168
5360.58574322
5360.58557175
5360.60473522
5360.64884256
5360.73156175
5360.86497015
5361.04229735
5361.23184944
5361.38204368
5361.44522656
5361.36027683
5361.24160874
5361.32394377
5361.24140562
5361.06836431
5360.86677334
5360.69261512
5360.5743841
5360.51320818
5360.48880022
5360.48043254
5360.48026481
5360.48830206
5360.51238437
5360.57329243
5360.69130454
5360.86533164
5361.06684809
5361.23975268
5361.32223039
5361.23985288
5361.15088187
5361.22820692
5361.12618273
5360.93586677
5360.73344432
5360.57469769
5360.48371656
5360.45657276
5360.46161737
5360.46908579
5360.46889542
5360.46107791
5360.45570868
5360.48254928
5360.57335319
5360.73210181
5360.93465726
5361.1246282
5361.22643737
5361.14899698
5361.09361554
5361.16733013
5361.04875236
5360.84716731
5360.65069828
5360.51374004
5360.45680474
5360.47332623
5360.52283987
5360.55478538
5360.55455738
5360.52217352
5360.47226579
5360.4554186
5360.51222098
5360.64942048
5360.84661657
5361.0473273
5361.16548596
5361.09158193
5361.06179256
5361.13370444
5361.00345497
5360.79602952
5360.60684133
5360.48977971
5360.46224532
5360.52329537
5360.61040281
5360.6601648
5360.65988648
5360.60957161
5360.52193402
5360.46046763
5360.48780389
5360.60497066
5360.79440898
5361.00156415
5361.1315966
5361.05954647
5361.04802805
5361.11909544
5360.98281964
5360.77288027
5360.58807062
5360.48206189
5360.47035431
5360.55590862
5360.66084577
5360.71874352
5360.71838483
5360.6597902
5360.55419622
5360.46815775
5360.47961696
5360.58564721
5360.77061732
5360.98053378
5361.11672415
5361.04556333
5361.04822948
5361.1193263
5360.98310385
5360.77331628
5360.58856873
5360.48258857
5360.47083621
5360.55626484
5360.66106367
5360.71884606
5360.71840575
5360.65978063
5360.55423481
5360.46829429
5360.47978504
5360.58580956
5360.77075114
5360.98060159
5361.11677289
5361.04560386
5361.06234927
5361.13432929
5361.00428814
5360.79736243
5360.60824651
5360.49118439
5360.46353618
5360.52422908
5360.610945
5360.66037619
5360.65990677
5360.60956175
5360.52205327
5360.4608338
5360.48824708
5360.60541672
5360.79479541
5361.00175382
5361.1317089
5361.05964434
5361.09438044
5361.16818922
5361.04998481
5360.84941939
5360.65269227
5360.51570185
5360.45857616
5360.47466116
5360.52360899
5360.55513136
5360.55466494
5360.52226687
5360.47254152
5360.45594382
5360.51284883
5360.65003342
5360.847197
5361.04755703
5361.16558408
5361.09166161
5361.15167156
5361.22901531
5361.12720883
5360.9374652
5360.73528765
5360.57668652
5360.48563598
5360.4581435
5360.46269895
5360.46977098
5360.46936031
5360.46150114
5360.45624894
5360.48322748
5360.57404644
5360.73268762
5360.93503979
5361.12472008
5361.22640959
5361.14896648
5361.24231594
5361.3246117
5361.24216423
5361.06947666
5360.8682625
5360.69441321
5360.57627358
5360.51489274
5360.4901141
5360.48142669
5360.48106895
5360.48907225
5360.51323954
5360.57413439
5360.69202186
5360.86579661
5361.06700939
5361.23963616
5361.32199752
5361.23962087
5361.36251555
5361.44734209
5361.38421703
5361.23425247
5361.04496644
5360.86785688
5360.73447917
5360.65159176
5360.60683609
5360.58707655
5360.58676561
5360.60594519
5360.65016916
5360.73261175
5360.86566881
5361.04259881
5361.23177849
5361.38165933
5361.44470081
5361.35981345
5361.49492955
5361.57737734
5361.52857523
5361.40182373
5361.23389142
5361.06871297
5360.93633991
5360.84807177
5360.79556721
5360.77134423
5360.7710761
5360.79477312
5360.84688158
5360.93464779
5361.06666326
5361.23158684
5361.39934812
5361.5259932
5361.5746987
5361.49219858
5361.61737303
5361.68631738
5361.63960443
5361.52831621
5361.38357364
5361.24108608
5361.12569977
5361.04809332
5361.00199238
5360.9806104
5360.98033248
5361.0012406
5361.0468803
5361.12405076
5361.23906658
5361.38127818
5361.5258351
5361.63701562
5361.68360063
5361.61460953
5361.70347576
5361.74443013
5361.68612558
5361.57690291
5361.4464638
5361.32325582
5361.22717205
5361.16587959
5361.1316262
5361.1163953
5361.11614246
5361.13086104
5361.16466203
5361.22553612
5361.32127285
5361.44420224
5361.57444633
5361.68352962
5361.74172753
5361.70069988
5361.71464952
5361.7032544
5361.61694139
5361.49418725
5361.36137223
5361.2407097
5361.14957825
5361.09182309
5361.05941795
5361.04507688
5361.04481944
5361.05866867
5361.09061137
5361.14796633
5361.23875933
5361.35917326
5361.49177034
5361.61434664
5361.7005394
5361.7118717
5361.67815751
5361.63918191
5361.52926168
5361.3890147
5361.25087445
5361.13264913
5361.04618254
5360.99485714
5360.96864631
5360.95783175
5360.95774385
5360.96835995
5360.9943744
5361.04550234
5361.13178033
5361.24986139
5361.38791197
5361.52812444
5361.63804369
5361.67700599
5361.63932546
5361.64079382
5361.54899797
5361.42037261
5361.2957768
5361.19071812
5361.11466509
5361.07100148
5361.04919264
5361.04009353
5361.04000441
5361.04890778
5361.07049831
5361.113975
5361.18983157
5361.29471898
5361.41919753
5361.54777062
5361.63957441
5361.63810732
5361.52972331
5361.54934777
5361.45406683
5361.31729364
5361.18451168
5361.07244004
5360.9897561
5360.93923505
5360.91141453
5360.89867516
5360.89856334
5360.91104483
5360.93849385
5360.98897682
5361.07150032
5361.18338817
5361.31598037
5361.45268343
5361.547989
5361.52835662
5361.38999813
5361.42128987
5361.31779492
5361.16764081
5361.02404772
5360.9064544
5360.82275377
5360.77328787
5360.74607696
5360.73338071
5360.73326076
5360.74557512
5360.77135305
5360.82182991
5360.90548448
5361.02284831
5361.16626912
5361.31632269
5361.41977957
5361.38846379
5361.25252884
5361.29735407
5361.18565303
5361.02455564
5360.87963775
5360.77391909
5360.71252785
5360.68628955
5360.67756566
5360.6742115
5360.67410637
5360.67723307
5360.68560562
5360.7117794
5360.77298624
5360.87845707
5361.02314122
5361.18407824
5361.29571226
5361.25082781
5361.13503341
5361.19294212
5361.07409174
5360.90728249
5360.77416776
5360.69993652
5360.67768804
5360.69227
5360.71520105
5360.72797406
5360.72784886
5360.71486963
5360.69172239
5360.67691862
5360.69891438
5360.77294876
5360.90590034
5361.07245797
5361.19118093
5361.13315851
5361.04930221
5361.11748713
5360.99170721
5360.82321072
5360.71265228
5360.6776157
5360.70553017
5360.77100015
5360.83150743
5360.86302085
5360.86285768
5360.83105098
5360.77027594
5360.70454093
5360.67642977
5360.71143818
5360.82231901
5360.99013673
5361.11562501
5361.04726721
5360.99865381
5361.07435207
5360.94113468
5360.77018977
5360.68592029
5360.6920584
5360.77093548
5360.88138973
5360.96311751
5361.00481636
5361.00460341
5360.96249694
5360.88036646
5360.76957559
5360.69051729
5360.68487824
5360.77283793
5360.93988218
5361.07237149
5360.99642995
5360.97307067
5361.0531837
5360.91440239
5360.74725269
5360.67807302
5360.71534216
5360.83187986
5360.96372638
5361.06668622
5361.12000298
5361.11971202
5361.06584952
5360.96234068
5360.82994615
5360.71310867
5360.67593103
5360.74564768
5360.91229133
5361.05086618
5360.97060492
5360.96276021
5361.04467198
5360.90245202
5360.73590123
5360.67564359
5360.7289322
5360.86421346
5361.00630282
5361.12092619
5361.18044442
5361.18006407
5361.11981218
5361.00447629
5360.86170588
5360.72599126
5360.67268234
5360.73318769
5360.89980799
5361.04202498
5360.96007359
5360.96301983
5361.04498282
5360.90291289
5360.7366037
5360.67644883
5360.72969473
5360.86489986
5361.00681287
5361.12130227
5361.18070354
5361.18023639
5361.1199283
5361.00460067
5360.86188343
5360.72623901
5360.67296817
5360.73343031
5360.89996844
5361.04212269
5360.96014238
5360.97370637
5361.05407111
5360.91573608
5360.74959767
5360.68031007
5360.71746698
5360.83366972
5360.96509979
5361.06762368
5361.12062659
5361.12011406
5361.06613597
5360.96268536
5360.83039996
5360.71375608
5360.67667314
5360.74644312
5360.9127175
5361.05113522
5360.97077185
5360.99953679
5361.07558302
5360.94335469
5360.7766412
5360.68938955
5360.69498203
5360.77342135
5360.88323254
5360.96440106
5361.00559184
5361.00511609
5360.96292187
5360.88085561
5360.77016749
5360.6913724
5360.68597188
5360.77456143
5360.94052019
5361.07267338
5360.99660399
5361.05022667
5361.11867676
5360.99345641
5360.82615117
5360.71569795
5360.68066179
5360.70811397
5360.77290744
5360.83267074
5360.86367944
5360.86319374
5360.8313046
5360.77065496
5360.7051745
5360.67734142
5360.71244
5360.82323727
5360.99059467
5361.11582396
5361.04734596
5361.13587582
5361.19392009
5361.07544866
5360.90931569
5360.77674464
5360.70263727
5360.68016924
5360.69413325
5360.7164
5360.72866734
5360.72826487
5360.7152084
5360.69222084
5360.67763928
5360.69979257
5360.77383238
5360.90651806
5361.07268775
5361.19115055
5361.13305329
5361.25318755
5361.29806545
5361.18665223
5361.02607607
5360.88165966
5360.77623217
5360.71475694
5360.68821679
5360.67894712
5360.6751843
5360.67484326
5360.67795858
5360.6866595
5360.71265714
5360.77380438
5360.87909815
5361.0234691
5361.18400541
5361.29535212
5361.25039917
5361.3904525
5361.42174316
5361.31850215
5361.16875312
5361.02560933
5360.9084007
5360.82486683
5360.77563123
5360.74774866
5360.73473916
5360.73444181
5360.74691676
5360.77455662
5360.82307269
5360.90622909
5361.02325575
5361.1662738
5361.31590517
5361.41904676
5361.38766813
5361.52996174
5361.54960731
5361.45452532
5361.31813517
5361.18582718
5361.07415285
5360.99170021
5360.94126232
5360.91328637
5360.90035721
5360.90008261
5360.91244115
5360.93998221
5360.98996462
5361.07210843
5361.18351282
5361.31566583
5361.4519087
5361.54688215
5361.52715277
5361.63934191
5361.64088708
5361.54934297
5361.42109224
5361.29688771
5361.19221343
5361.11647731
5361.07291644
5361.0510393
5361.04178025
5361.04149259
5361.05020717
5361.07159127
5361.11472046
5361.19013181
5361.29457455
5361.41859123
5361.54669713
5361.63813473
5361.63652717
5361.6779485
5361.63910521
5361.52947293
5361.38959986
5361.25183353
5361.13394987
5361.04774788
5360.99657952
5360.97041106
5360.95948392
5360.9592308
5360.96956611
5360.99529839
5361.04607491
5361.13195354
5361.24956665
5361.38713243
5361.52685103
5361.63636148
5361.67513755
5361.67029364
5361.61172753
5361.48292418
5361.3288556
5361.18764391
5361.0725841
5360.99248134
5360.94740718
5360.92578974
5360.91705281
5360.91699294
5360.92558443
5360.94704694
5360.99190935
5361.07182433
5361.18667803
5361.3277741
5361.48179087
5361.61057768
5361.6691319
5361.61189063
5361.61343899
5361.51639048
5361.38448809
5361.26948837
5361.18026992
5361.12063063
5361.08882143
5361.07417177
5361.06817304
5361.0681167
5361.07402741
5361.08856833
5361.12015967
5361.17953899
5361.26852673
5361.38334351
5361.51516609
5361.61221318
5361.61066145
5361.48342735
5361.51679503
5361.40886649
5361.25406604
5361.11872343
5361.01531495
5360.94447548
5360.90263819
5360.87980208
5360.86898252
5360.86895406
5360.87972578
5360.90259539
5360.94405592
5361.01459198
5361.11771871
5361.25284639
5361.40752457
5361.5154142
5361.48204556
5361.32992827
5361.38548582
5361.25466156
5361.06756946
5360.9077409
5360.79142354
5360.71585095
5360.67488441
5360.65274159
5360.64233664
5360.64233366
5360.65285272
5360.6760809
5360.71559064
5360.79072423
5360.90672204
5361.06627423
5361.25319542
5361.38394618
5361.32835355
5361.18941047
5361.27118063
5361.11995162
5360.90832772
5360.73615812
5360.62171852
5360.5578199
5360.53213083
5360.52543979
5360.523732
5360.52373604
5360.52535974
5360.53209114
5360.55737309
5360.6209175
5360.73503541
5360.90691858
5361.11833265
5361.26947873
5361.18762508
5361.0751072
5361.18261159
5361.01713663
5360.79251525
5360.62210562
5360.52465672
5360.49293227
5360.5031104
5360.52541455
5360.53880386
5360.53869132
5360.52514694
5360.50267632
5360.49221902
5360.52362349
5360.62069846
5360.79077807
5361.01529526
5361.18069726
5361.07309706
5360.9957753
5361.12359966
5360.94695346
5360.71787344
5360.55843803
5360.49294887
5360.50458739
5360.5613262
5360.62139885
5360.65454303
5360.65434757
5360.6208538
5360.56042065
5360.50342678
5360.49147997
5360.55651302
5360.71519751
5360.94464936
5361.12142035
5360.99348704
5360.95143612
5361.09245376
5360.90609152
5360.68103811
5360.5334202
5360.50312092
5360.56119598
5360.6681593
5360.76966019
5360.82402443
5360.82369809
5360.76877173
5360.6668143
5360.55936778
5360.50096843
5360.53043658
5360.6741218
5360.90292191
5361.08987313
5360.94885735
5360.93040861
5361.07831831
5360.88321486
5360.65539628
5360.52652463
5360.52563572
5360.62155681
5360.77003147
5360.90193123
5360.97167769
5360.97125747
5360.90069978
5360.76810623
5360.61905893
5360.52278273
5360.5234174
5360.65178678
5360.88019305
5361.07547177
5360.92757913
5360.92219974
5361.07279552
5360.87283444
5360.64493583
5360.52532288
5360.53965247
5360.65552199
5360.82536148
5360.97271546
5361.04970955
5361.04917762
5360.97116501
5360.822894
5360.65231743
5360.53609838
5360.5218344
5360.6415222
5360.86962025
5361.06964712
5360.91910896
5360.92250817
5361.0732095
5360.87330272
5360.64550345
5360.5261228
5360.54058707
5360.6563636
5360.8260556
5360.97321408
5361.05012108
5361.04949495
5360.97142479
5360.82313367
5360.65258972
5360.53644725
5360.52210261
5360.64180364
5360.86983857
5361.0698331
5360.91924959
5360.93126523
5361.07936283
5360.88438815
5360.65637636
5360.52829258
5360.52798388
5360.62389405
5360.7718809
5360.90333913
5360.97276352
5360.97211915
5360.90140925
5360.76879861
5360.61984104
5360.52356849
5360.52403997
5360.6524547
5360.8807872
5361.07590944
5360.92795494
5360.95258189
5361.093857
5360.90725895
5360.67907814
5360.53555008
5360.50643499
5360.56436489
5360.67076995
5360.77157402
5360.82547838
5360.82483687
5360.76972065
5360.66777195
5360.56048584
5360.50211111
5360.53120681
5360.67422039
5360.90357733
5361.09045862
5360.94931239
5360.99703601
5361.12517159
5360.94873054
5360.71972722
5360.56144689
5360.49652982
5360.50814284
5360.56414374
5360.62352087
5360.65615316
5360.6556383
5360.62188581
5360.56148167
5360.50462477
5360.49271209
5360.55763125
5360.71607447
5360.94537578
5361.12194289
5360.99388456
5361.07628395
5361.18402142
5361.01887736
5360.7948367
5360.62497363
5360.5279875
5360.49616626
5360.50580642
5360.52744827
5360.5403526
5360.53985943
5360.5260858
5360.50356211
5360.49327477
5360.52474446
5360.62170528
5360.79162659
5361.01583069
5361.18099413
5361.07327103
5361.19034583
5361.27222345
5361.12135076
5360.91030012
5360.73864992
5360.6244996
5360.56058007
5360.5343293
5360.52723197
5360.52535423
5360.52494209
5360.52611226
5360.53251955
5360.55815692
5360.62176004
5360.73572151
5360.90743288
5361.11853472
5361.26937489
5361.18743677
5361.33055128
5361.38614165
5361.25563475
5361.06908207
5360.90975928
5360.79376351
5360.71820688
5360.67667193
5360.65460127
5360.6439744
5360.64363701
5360.65361041
5360.67485958
5360.71614954
5360.79138997
5360.90718948
5361.06646205
5361.2529559
5361.38337332
5361.32769333
5361.48371662
5361.51709732
5361.40948492
5361.25514882
5361.12027934
5361.01722429
5360.94655404
5360.90465668
5360.88173171
5360.87072483
5360.87041333
5360.88081822
5360.903192
5360.94468875
5361.01503873
5361.1178696
5361.25260131
5361.40681969
5361.51432348
5361.48085323
5361.61183895
5361.61343914
5361.51672453
5361.385248
5361.27068834
5361.18182523
5361.1223855
5361.09060662
5361.07586392
5361.06963039
5361.06931996
5361.07497565
5361.08919413
5361.12055272
5361.17965642
5361.26827803
5361.38266953
5361.51401763
5361.61064192
5361.60895185
5361.66988713
5361.61154088
5361.48307768
5361.32943811
5361.18862407
5361.07393301
5360.99408878
5360.94913056
5360.92747931
5360.91857734
5360.9182911
5360.9266304
5360.94777875
5360.99230975
5361.0718388
5361.18627142
5361.32688631
5361.48038367
5361.60871444
5361.66700559
5361.63055324
5361.54695209
5361.40309881
5361.24204989
5361.10248581
5360.99427404
5360.9238599
5360.88641106
5360.86863404
5360.86087115
5360.86084535
5360.86855511
5360.88624921
5360.92352534
5360.99371148
5361.10172884
5361.24110042
5361.40206672
5361.54588563
5361.62947806
5361.54710971
5361.55933675
5361.4647494
5361.34357088
5361.24579059
5361.1759584
5361.13274204
5361.10918632
5361.09500898
5361.08631645
5361.08630815
5361.0949845
5361.10911225
5361.13248774
5361.1754303
5361.24498427
5361.34255613
5361.46360697
5361.55821191
5361.54597184
5361.40359149
5361.46518373
5361.34117003
5361.17221209
5361.02298807
5360.90705332
5360.82440731
5360.76862849
5360.73327076
5360.71478523
5360.71480283
5360.7333395
5360.76869239
5360.82422244
5360.90653555
5361.02215325
5361.17111546
5361.33992061
5361.46386327
5361.40229292
5361.24310669
5361.3446317
5361.17281032
5360.94370017
5360.74009884
5360.58457174
5360.4787743
5360.40671906
5360.36874727
5360.35207265
5360.35211614
5360.36882917
5360.40710749
5360.47868663
5360.58401843
5360.73921317
5360.94248697
5361.17140419
5361.34313517
5361.24158864
5361.10422651
5361.24750756
5361.02420704
5360.74064169
5360.49035829
5360.30195009
5360.18284897
5360.10914484
5360.08198412
5360.07723046
5360.07910646
5360.08186351
5360.10892698
5360.18246764
5360.30125819
5360.48930814
5360.73926286
5361.02260772
5361.24580836
5361.10245024
5360.9967466
5361.17824295
5360.90877047
5360.58549305
5360.3025035
5360.10013136
5359.98236039
5359.93991696
5359.94144159
5359.94778921
5359.94768409
5359.94112672
5359.93957345
5359.98143045
5360.09886805
5360.30084612
5360.58372197
5360.90686759
5361.17627589
5360.99468132
5360.92707317
5361.13552629
5360.82662785
5360.47999569
5360.18175286
5359.9825451
5359.88582342
5359.88661191
5359.93027208
5359.9590355
5359.95875071
5359.92952291
5359.88534432
5359.88417839
5359.98058347
5360.18069602
5360.47755247
5360.82426543
5361.13319636
5360.92467085
5360.89043031
5361.11249496
5360.77140749
5360.40839792
5360.11307585
5359.94018851
5359.88590915
5359.93828521
5360.02847224
5360.0837281
5360.08321063
5360.02701324
5359.93603575
5359.88330006
5359.93740067
5360.11032303
5360.40422759
5360.76841372
5361.10970941
5360.88755529
5360.87333877
5361.09883576
5360.73637562
5360.36890726
5360.08594666
5359.94152928
5359.92925476
5360.02805186
5360.16107774
5360.24071482
5360.23996392
5360.15892013
5360.0248102
5359.92548441
5359.9377309
5360.08266281
5360.36440243
5360.73311717
5361.09563705
5360.87006715
5360.86611796
5361.09090688
5360.71835638
5360.35399807
5360.08135672
5359.94826276
5359.95869772
5360.08419567
5360.24179282
5360.33339534
5360.33251793
5360.23932807
5360.08025951
5359.95382903
5359.94344369
5360.08117914
5360.3505037
5360.714829
5361.08729731
5360.86253365
5360.86658927
5361.09154378
5360.71901158
5360.35471453
5360.08532024
5359.94943757
5359.95997736
5360.08521621
5360.2425601
5360.33441262
5360.33340033
5360.23981523
5360.08088504
5359.95428104
5359.94381988
5360.08158074
5360.35086291
5360.71519423
5361.08761138
5360.86282556
5360.8746076
5361.10054281
5360.73806478
5360.36938514
5360.0780155
5359.94469138
5359.93272268
5360.03110585
5360.16360744
5360.24306405
5360.2421376
5360.16083079
5360.02659835
5359.92698667
5359.93900407
5360.07289817
5360.36970184
5360.73407072
5361.09644887
5360.87079276
5360.89226127
5361.11477839
5360.77368195
5360.40996112
5360.10592534
5359.94426096
5359.89096747
5359.94280636
5360.03233189
5360.08718313
5360.08631874
5360.02971833
5359.93861913
5359.88568073
5359.93918415
5360.10097115
5360.40701767
5360.76972139
5361.11083423
5360.88858278
5360.9291486
5361.13798035
5360.82926211
5360.48296954
5360.18587463
5359.98716302
5359.89124435
5359.89143038
5359.93431239
5359.96245724
5359.96172521
5359.93208809
5359.88789908
5359.88678607
5359.98263039
5360.18181412
5360.47892171
5360.82561845
5361.13432688
5360.92568215
5360.99867204
5361.1804068
5360.91125332
5360.58836761
5360.30550903
5360.10405466
5359.98715628
5359.94393081
5359.9447248
5359.95112332
5359.9505039
5359.94294318
5359.94147764
5359.9836175
5360.10040488
5360.30197042
5360.58487817
5360.90797247
5361.17714161
5360.99544326
5361.10576667
5361.2491387
5361.0261823
5360.74315395
5360.49317904
5360.30525107
5360.18418793
5360.10180818
5360.07450917
5360.07701363
5360.07440021
5360.07442254
5360.1009106
5360.1804272
5360.30208212
5360.48976285
5360.73996066
5361.02321555
5361.24616509
5361.10277071
5361.24416486
5361.34567671
5361.17423804
5360.94565061
5360.74258565
5360.58743011
5360.48188611
5360.40980194
5360.36874482
5360.35451103
5360.35416635
5360.36817822
5360.40948383
5360.47967142
5360.58482219
5360.73972884
5360.94286538
5361.17148323
5361.34286714
5361.24125369
5361.40413703
5361.46572004
5361.34207426
5361.17362321
5361.0249381
5360.90945548
5360.82712321
5360.77139612
5360.73598626
5360.7172439
5360.71692283
5360.73505073
5360.76990354
5360.82520352
5360.90717791
5361.02242858
5361.1710138
5361.33937448
5361.46292038
5361.40122815
5361.54711539
5361.55936641
5361.4652273
5361.3445161
5361.24722685
5361.17775758
5361.13474893
5361.11119339
5361.09685642
5361.08802198
5361.08770154
5361.09587967
5361.10969054
5361.13280283
5361.17551105
5361.24473424
5361.34187634
5361.46247412
5361.55654793
5361.54421171
5361.63012753
5361.54674491
5361.40330776
5361.24270617
5361.10362891
5360.99583961
5360.92572539
5360.88841857
5360.87059313
5360.86256477
5360.86225829
5360.86972071
5360.88703408
5360.92393971
5360.99372173
5361.10125818
5361.24015151
5361.40058352
5361.54390525
5361.62716046
5361.56985589
5361.46245892
5361.32366953
5361.16796834
5361.0331858
5360.92827072
5360.85860137
5360.81604197
5360.78806887
5360.77131488
5360.7712981
5360.78804191
5360.81601979
5360.85846351
5360.92793377
5361.0326335
5361.16724461
5361.32284714
5361.46160075
5361.56901867
5361.46254661
5361.46409801
5361.37186805
5361.25299923
5361.15398449
5361.07563425
5361.01287347
5360.95650928
5360.90423174
5360.86984979
5360.86989264
5360.90433028
5360.95662864
5361.01288885
5361.0753861
5361.15341869
5361.25219597
5361.3709588
5361.46313351
5361.46163094
5361.32405024
5361.37232039
5361.23366883
5361.03347594
5360.84681319
5360.68823073
5360.56062799
5360.46109504
5360.3893164
5360.34923601
5360.34929064
5360.38948266
5360.46125159
5360.56059775
5360.68786942
5360.8461534
5361.03254006
5361.23257782
5361.37117004
5361.32293072
5361.16892386
5361.25398646
5361.03403071
5360.72887815
5360.44243002
5360.20530207
5360.02254192
5359.75265357
5359.67473653
5359.63713454
5359.63720353
5359.67503437
5359.75289719
5360.02223767
5360.2045878
5360.44160384
5360.72776082
5361.03271976
5361.25258702
5361.16747692
5361.03478037
5361.15553468
5360.84792035
5360.44285521
5360.0554056
5359.42699093
5359.17582411
5359.31399303
5359.24157832
5359.21546355
5359.2152992
5359.24160387
5359.31427184
5359.18174522
5359.43277154
5360.05441287
5360.44149672
5360.84635176
5361.15386549
5361.03304523
5360.93062608
5361.07766177
5360.68975682
5360.20593623
5359.44040809
5359.16240136
5358.95180866
5358.79658906
5358.776578
5358.77128157
5358.7712423
5358.77681584
5358.79665361
5358.95055923
5359.16166145
5359.42836196
5360.20406028
5360.68785744
5361.07570546
5360.92849893
5360.86175837
5361.01531078
5360.56262747
5360.02395567
5359.14419699
5358.95274668
5358.60292623
5358.53523362
5358.58096995
5358.59619496
5358.59602618
5358.58074631
5358.53390222
5358.60069399
5358.94976165
5359.15239914
5360.0213829
5360.56029035
5361.01297956
5360.85918149
5360.82011963
5360.9594713
5360.46364272
5359.73351113
5359.3158983
5358.79737841
5358.53048275
5358.51672921
5358.62148246
5358.69507432
5358.69455113
5358.61957256
5358.51205562
5358.52701818
5358.79476129
5359.31211803
5359.72479581
5360.46084488
5360.95666413
5360.81695135
5360.79298454
5360.90806192
5360.39229127
5359.65556552
5359.24346795
5358.77669642
5358.57448065
5358.61594935
5358.82820399
5358.97295951
5358.97131908
5358.82329552
5358.60989412
5358.56896112
5358.77226781
5359.23950016
5359.64653422
5360.38910168
5360.90472167
5360.78946334
5360.77709497
5360.87451015
5360.35265661
5359.62821965
5359.21763543
5358.76913169
5358.58893652
5358.69166126
5358.97401226
5359.13023393
5359.12884273
5358.96938778
5358.68506769
5358.58068099
5358.7625517
5359.21309177
5359.64024604
5360.34907746
5360.87076898
5360.77318272
5360.77783617
5360.87535318
5360.35354663
5359.6261564
5359.21860555
5358.77109764
5358.59121311
5358.69326858
5358.97392628
5359.13098275
5359.12958927
5358.96962232
5358.68628026
5358.58098371
5358.76255762
5359.21358923
5359.63807641
5360.34966443
5360.87127671
5360.77367688
5360.79491681
5360.91043568
5360.39468372
5359.64684176
5359.24635728
5358.78099334
5358.57996176
5358.62144365
5358.83178185
5358.97695721
5358.97537276
5358.82756216
5358.61455718
5358.57070951
5358.77270275
5359.24110827
5359.64983167
5360.39072192
5360.90622816
5360.79062869
5360.82279273
5360.96291266
5360.46692359
5359.72552944
5359.32004515
5358.80386231
5358.53982044
5358.5241798
5358.62893427
5358.70298121
5358.70179195
5358.625163
5358.51773565
5358.53213988
5358.79714337
5359.31411943
5359.72877241
5360.46307541
5360.95877866
5360.81885022
5360.86482646
5361.01893513
5360.56612573
5360.02721589
5359.14515161
5358.95848596
5358.61305859
5358.54350182
5358.5873889
5358.60174673
5358.60100246
5358.58450676
5358.53840075
5358.60690969
5358.9539519
5359.1126528
5360.02353701
5360.5625513
5361.01521447
5360.86119062
5360.93346035
5361.08084229
5360.69302293
5360.20926671
5359.42326852
5359.16457559
5358.95976299
5358.80321756
5358.78174067
5358.7749618
5358.77444823
5358.77994416
5358.80000213
5358.95550596
5359.15605919
5359.43202568
5360.2056051
5360.6897467
5361.07748044
5360.93016668
5361.0370023
5361.15790586
5360.85053188
5360.44579207
5360.05833304
5359.42235522
5359.13377149
5359.32353484
5359.24902913
5359.22330983
5359.22305884
5359.24806028
5359.32192347
5359.12295458
5359.41900278
5360.05369635
5360.44231405
5360.84752529
5361.15493541
5361.03395897
5361.17036696
5361.25550221
5361.03585503
5360.73123435
5360.44525974
5360.20868662
5360.02726775
5359.73150147
5359.65355015
5359.61529209
5359.6149191
5359.65243226
5359.73181803
5360.02514238
5360.20586381
5360.44210105
5360.7282899
5361.03310999
5361.25269158
5361.16747166
5361.32479209
5361.37304768
5361.23476293
5361.03512857
5360.84913367
5360.69122388
5360.5643625
5360.46545641
5360.39381954
5360.35351648
5360.35322443
5360.39296901
5360.46411341
5360.56258167
5360.68901956
5360.84662162
5361.03251224
5361.23206291
5361.37028787
5361.32187996
5361.4625932
5361.46425463
5361.37236798
5361.25402925
5361.15562199
5361.07788437
5361.01559335
5360.95949695
5360.90743403
5360.87297313
5360.87267978
5360.90657063
5360.95815852
5361.01383334
5361.07573641
5361.15322011
5361.25142098
5361.36965577
5361.46143213
5361.45967854
5361.56927856
5361.46216022
5361.32373269
5361.1685297
5361.0343457
5360.93000562
5360.86086215
5360.81857232
5360.79061216
5360.77396875
5360.77369275
5360.78977678
5360.81729403
5360.85916466
5360.92799802
5361.03203151
5361.16602247
5361.32104104
5361.45933389
5361.56632628
5361.56374367
5361.45781576
5361.33042999
5361.15883475
5360.99722048
5360.85421468
5360.73703744
5360.63735348
5360.55395662
5360.50221009
5360.50218035
5360.55383306
5360.63726709
5360.73693163
5360.85399602
5360.996865
5361.15840357
5361.32992173
5361.45731249
5361.56328345
5361.45777316
5361.40499085
5361.29796284
5361.13389677
5360.96868691
5360.80212923
5360.63187946
5360.4580892
5360.30390517
5360.2096005
5360.20957064
5360.30386906
5360.45813511
5360.63191011
5360.80200865
5360.96833676
5361.13336992
5361.29735919
5361.40433162
5361.45724887
5361.33061518
5361.29825142
5361.12139497
5360.84469721
5360.56529228
5360.30145739
5360.06436618
5359.86504037
5359.71838346
5359.63763865
5359.63771012
5359.71856876
5359.86513986
5360.06424484
5360.30101951
5360.56465356
5360.84389202
5361.12050108
5361.29734307
5361.32980008
5361.15947266
5361.13462846
5360.84518286
5360.4097539
5359.97760293
5359.5834329
5359.27077186
5359.03025268
5358.88760978
5358.8200137
5358.82003132
5358.887625
5359.02995653
5359.2699413
5359.57537867
5359.9766037
5360.40859575
5360.84391529
5361.13333071
5361.1582773
5360.99855391
5360.96998886
5360.56632079
5359.97795958
5358.86445572
5358.71274146
5358.10221783
5356.89611885
5356.74733779
5356.78020767
5356.77944128
5356.77603663
5356.93070297
5358.08351711
5358.69611189
5358.89211816
5359.97640956