/*--------------------------------*- C++ -*----------------------------------*\
| =========                 |                                                 |
| \\      /  F ield         | OpenFOAM: The Open Source CFD Toolbox           |
|  \\    /   O peration     | Version:  3.0.1                                 |
|   \\  /    A nd           | Web:      www.OpenFOAM.org                      |
|    \\/     M anipulation  |                                                 |
\*---------------------------------------------------------------------------*/
FoamFile
{
    version     2.0;
    format      ascii;
    class       volScalarField;
    location    "0.3";
    object      alpha.water;
}
// * * * * * * * * * * * * * * * * * * * * * * * * * * * * * * * * * * * * * //

dimensions      [0 0 0 0 0 0 0];

internalField   nonuniform List<scalar> 
7968
(
1.00000161991
1.00000042254
1.00000086814
1.00000001797
1.00000016224
1.00000004121
1.00000022073
1
1.00000002625
1.00000000095
1.00000000272
1.00000003086
1.00000000954
1.00000029473
1.00000004448
1.00000020464
1.0000000326
1.00000087478
1.00000043337
1.00000163442
1.00000036352
1.00000102378
1.0000001473
1.0000000842
1.00000043378
1.00000024783
1.00000000001
1.00000007006
1.00000000027
1.00000003921
1.00000004633
1.00000000543
1.00000005813
1.0000000011
1.00000032289
1.00000003608
1.00000026311
1.00000016408
1.00000098954
1.00000031848
1.00000158828
1.00000033115
1.00000005367
1.00000067294
1.00000032544
1.00000000238
1.00000011888
1.0000000091
1.00000008802
1.00000000172
1.00000001208
1.00000008266
1.00000000943
1.00000010406
1.00000000341
1.00000040632
1.00000040592
1.0000000899
1.00000034742
1.00000126009
0.99999996928
1.00000170102
1.00000008547
1.00000052685
1.00000000569
1.0000001621
1.00000001591
1.00000011419
1.00000000408
1.0000000605
1.00000007988
1.00000000705
1.00000010705
1.00000001414
1.0000001606
1.00000000677
1.00000057262
1.00000013803
1.00000169461
0.999999935672
1.00000049191
1.00000019077
1.00000101631
1.00000000994
1.00000024747
1.00000001996
1.00000012932
1.00000000991
1.00000009476
1.00000000319
1.00000002652
1.00000011175
1.00000000828
1.00000012613
1.00000001518
1.00000021966
1.00000001048
1.00000119362
1.00000026854
1.00000037884
0.999999881135
1.00000144838
1.0000000441
1.00000034272
1.0000000239
1.00000014846
1.00000001261
1.00000010227
1.00000000467
1.0000001188
1.00000011164
1.00000001653
1.00000011715
1.00000000909
1.0000001379
1.00000001606
1.00000029171
1.00000007583
1.00000142181
0.999999915782
1.00000038681
1.00000001507
1.00000083165
1.00000002678
1.00000017566
1.00000001739
1.00000010828
1.00000000813
1.00000016208
1.00000000144
1.00000003081
1.0000001782
1.00000001342
1.00000012214
1.00000001349
1.00000016346
1.000000013
1.00000089638
1.0000000116
1.00000045956
0.999999915422
1.00000095692
1.00000003208
1.00000019153
1.00000001272
1.00000011769
1.00000000989
1.00000014242
1.00000000243
1.00000010788
1.00000012063
1.00000000532
1.00000017797
1.00000001151
1.00000013615
1.00000002025
1.00000016431
1.00000002771
1.00000109038
0.999999908044
1.0000002843
1.00000000228
1.00000027022
1.00000000039
1.0000001023
1.00000000056
1.00000014786
1.00000000102
1.00000010537
0.99999998821
1.00000000317
1.00000014055
1.00000000326
1.00000016577
1.00000000288
1.00000010123
1.00000000063
1.00000032152
0.999999995877
1.00000030589
1.00000000813
1.0000001771
1.00000000175
1.00000000728
1.00000000516
1.00000004238
1.00000001001
1.00000006786
0.999999999809
1.00000000006
1.00000000041
1.00000000921
1.00000007123
1.00000001868
1.00000003978
1.00000000147
1.00000000282
1.0000000014
1.00000018224
1.00000000498
1.00000005175
1.00000004836
1.00000002571
1.00000001946
1.00000001006
1.00000010712
1.00000000332
1.00000012091
1.00000000115
1.00000000007
1.00000000351
1.00000000762
1.00000008849
1.00000001516
1.00000006288
1.0000000082
1.00000000025
1.00000001075
1.00000009607
1.00000002612
1.00000026719
1.00000000581
1.00000014936
1.00000000213
1.00000011299
1.00000000422
1.00000019564
1.00000000342
1.0000001391
0.999999996853
1.00000000283
1.00000014975
1.00000000437
1.00000017818
1.00000000213
1.00000010156
1.00000000058
1.00000019735
0.999999998887
1.00000028013
0.99999996592
1.00000075746
1.00000003036
1.00000016272
1.00000001466
1.0000001341
1.00000001571
1.0000001959
1.000000007
1.00000012236
1.00000012475
1.00000000472
1.00000019686
1.00000000952
1.00000013886
1.00000001327
1.00000013489
1.00000002166
1.00000090301
0.999999949171
1.00000036023
1.0000000051
1.00000065197
1.00000001934
1.00000016555
1.00000001479
1.0000001296
1.00000001906
1.00000018264
1.0000000026
1.00000003334
1.00000017667
1.00000001254
1.00000013202
1.00000001057
1.00000014608
1.00000001092
1.0000007385
0.99999998429
1.00000043958
0.999999941974
1.00000115368
1.00000005373
1.00000028823
1.0000000212
1.00000015565
1.00000001014
1.00000012155
1.00000001566
1.0000001534
1.00000012177
1.00000001717
1.00000011783
1.00000000735
1.0000001423
1.00000001356
1.00000025994
1.00000006676
1.00000122011
0.999999932431
1.00000025468
1.00000019979
1.00000118073
1.00000001194
1.00000022116
1.00000002312
1.00000013928
1.00000000916
1.00000011113
1.00000000332
1.0000000279
1.00000010942
1.00000000822
1.00000013431
1.0000000151
1.00000020424
1.00000000965
1.00000120097
1.00000021055
1.00000026429
0.999999815077
1.00000155962
1.00000012831
1.00000065209
1.00000000762
1.00000016316
1.00000002465
1.00000012247
1.00000000548
1.00000007908
1.00000008313
1.00000000858
1.00000011881
1.00000001682
1.00000016401
1.00000000687
1.00000060989
1.00000013483
1.00000162715
0.999999874454
1.00000118522
1.00000028882
1.00000005209
1.00000062216
1.00000041113
1.00000000381
1.00000012225
1.00000002295
1.00000009992
1.00000000115
1.00000001319
1.00000008965
1.00000001347
1.00000011592
1.00000000372
1.00000042982
1.00000048045
1.00000003331
1.00000022181
1.00000127584
1.00000034895
1.00000069768
1.00000014044
1.00000037352
1.00000035739
1.00000033966
1.00000000035
1.00000007886
1.00000001745
1.00000006039
1.00000005352
1.00000000935
1.00000008001
1.00000000081
1.00000036089
1.00000004323
1.000000324
1.00000038688
1.0000005557
1.00000017051
1.00000121069
1.00000061146
1.00000092824
1.00000001799
1.0000001984
1.0000000573
1.00000032263
1
1.00000003256
1.00000000012
1.00000000385
1.00000005257
1.00000000562
1.00000032536
1.00000006371
1.00000024499
1.00000002839
1.00000083105
1.00000031511
1.00000126613
1.0000001893
1.00000002442
1.00000026901
1.00000058876
1.00000001917
1.00000025783
1.00000006077
1.000000194
1.00000000723
1.00000004149
1.00000003459
1.00000003273
1.00000025934
1.00000004715
1.00000024621
1.00000003352
1.00000059901
1.00000027198
0.9999999675
1.0000001979
1.00000072575
0.999999982536
0.999999955173
0.999999968052
1.00000031934
1.00000004219
1.00000025419
1.00000000719
1.00000007161
1.00000000935
1.00000001053
1.000000054
1.0000000053
1.00000017634
1.00000003649
1.00000028985
0.999999948658
0.999999948121
0.999999950168
1.00000065416
1.00000006506
1.00000003526
0.999999944328
1.00000023852
1.00000003404
1.0000002098
0.999999963739
1.00000003671
1.00000001104
1.00000003179
1.00000003201
1.00000000777
1.00000003949
0.999999970904
1.00000017118
1.00000002719
1.00000020743
0.999999939167
1.00000005294
1.00000003785
0.999999859598
1.0000000527
1.00000035954
1.00000004636
1.00000025172
0.999999953601
1.00000001534
0.999999990096
1.00000003925
1.00000001671
1.00000002601
1.00000003837
0.99999999079
1.00000002621
0.999999972207
1.00000025927
1.00000004124
1.00000034266
1.00000004562
0.999999847081
0.999999865467
1.00000035551
1.00000006362
1.00000030906
0.999999999777
0.999999960452
0.999999971637
1.00000001225
1.00000000161
1.0000000163
1.00000001063
1.00000000045
0.9999999866
0.99999996523
0.999999971081
1.00000002513
1.00000029786
1.00000008824
1.00000031336
0.999999924932
1.00000025269
0.999999932912
1.00000042873
1.00000002257
1.00000007947
0.999999938688
1.00000000566
1.00000000043
1.0000000066
1.00000000793
1.00000000681
1.00000000596
1
1.00000000356
0.999999900806
1.00000006398
1.00000002191
1.00000043979
0.999999943761
1.00000026074
1.00000000419
1.00000025491
1.00000000359
1.00000031105
0.999999956732
1.00000007029
1
1.00000000055
1
1.0000000169
1.00000000874
1
1.00000000056
1
1.00000006461
0.999999989586
1.0000003495
1.00000000776
1.00000029047
1.00000000141
1.00000002179
0.999999927755
1.00000044934
1.0000000102
1.00000026746
0.999999995593
1.00000002032
1
1.00000005963
1.00000000008
1.00000007301
1.00000002419
1
1.00000000028
0.999999983425
1.00000032943
1.00000000775
1.00000050983
0.99999993133
1.00000003778
0.999999966324
1.00000025637
1.00000000913
1.00000044557
1.00000000497
1.00000016532
1.00000000371
1.0000000629
1.00000000016
1.00000073199
1.00000061196
1.00000001
1.00000003576
1.00000000705
1.00000017953
1.00000000979
1.00000051491
1.00000000333
1.00000028109
0.999999964284
1.00000018824
1.00000000844
1.00000027473
1.00000002519
1.00000034183
1.00000005089
1.00000022963
1.00000007072
1.00000049714
1
0.999999996646
1.00000049757
1.00000005506
1.00000030255
1.00000003399
1.00000042761
1.00000001438
1.00000031604
1.00000000546
1.00000024663
1.00000018834
1.00000004095
1.00000021293
1.00000003704
1.00000027492
1.00000003813
1.00000017737
1.00000003951
1.00000066377
0.999999998032
0.999999996272
1.00000054063
1.00000004853
1.00000025585
1.00000003604
1.00000033769
1.00000002545
1.00000024058
1.00000002277
1.00000020858
0.999999976404
1.00000022591
1.0000000103
1.00000028921
1.00000000914
1.00000010393
1.00000000608
1.00000002173
1.00000001025
1.00000068254
1.0000005601
1.00000000466
1.00000004139
1.00000000273
1.00000015238
1.00000000497
1.00000039089
1.00000000312
1.00000024615
0.999999966939
1.0000000652
0.99999992782
1.00000034671
1.00000001235
1.00000006885
1
1
1
1.00000002282
1.00000000373
1.00000007441
1.00000002044
1
1
0.999999999519
1.00000013467
1.00000000399
1.00000041088
0.999999942279
1.00000007698
1.000000006
1.00000023157
0.999999989169
1.00000028133
0.999999963047
1.00000006079
1
1
1
1.00000001352
1.00000000825
1
1
1
1.00000003691
0.999999998926
1.00000030892
0.9999999781
1.00000027576
1.00000000565
1.00000023431
0.999999939553
1.00000037212
1.00000001383
1.00000004015
0.999999916857
1.00000000107
1
1.00000000699
1.00000001032
1.00000000846
1.00000000471
1
1.00000000092
0.999999920603
1.00000005636
1.00000001577
1.00000041405
0.999999951712
1.00000022686
0.999999901225
1.00000019401
1.00000008086
1.00000024485
0.99999999641
0.999999938833
0.999999968798
0.999999981435
1.00000000245
1.00000002038
1.0000000119
1.00000000034
0.999999972691
0.999999981143
0.999999944563
0.999999996079
1.00000025121
1.00000006935
1.00000024181
0.999999920523
0.999999853961
1.00000003973
1.00000035003
1.00000004637
1.0000002548
0.999999937856
0.999999968128
0.999999994604
1.00000003888
1.00000002148
1.00000002337
1.00000003488
0.99999999517
0.999999970618
0.999999933522
1.00000018887
1.00000002864
1.00000035923
1.00000001894
0.999999848709
1.00000005336
1.00000002667
0.999999965616
1.00000018603
1.00000004111
1.00000020369
0.999999979291
1.0000000427
1.00000001651
1.00000003693
1.00000004384
1.00000000914
1.00000003449
0.999999966548
1.00000012416
1.00000002364
1.00000019712
0.999999962219
1.00000004444
1.00000004161
1.00000063577
0.99999995062
0.999999890482
0.999999964464
1.00000026635
1.00000007451
1.00000034168
1.00000003619
1.00000012635
1.00000001165
1.00000001348
1.00000007579
1.00000001201
1.00000023611
1.00000003274
1.00000029413
0.99999995367
1.00000000263
0.999999985471
1.00000063214
1.00000018234
0.99999993314
1.00000030278
1.00000062087
1.00000002151
1.0000003095
1.00000008446
1.00000029295
1.00000001769
1.00000005771
1.00000006575
1.000000026
1.00000030047
1.00000008362
1.00000028948
1.00000002707
1.00000056431
1.00000021263
1.00000004181
1.0000001787
1.00000010236
1.00000311046
0.999999848672
1.00000009617
1.00000038526
1.00000001381
1.00000005023
1.00000009392
1.00000021429
1.00000001209
1.0000000756
1.00000012837
1.00000005915
1.00000000341
1.00000003134
1.00000035551
1.00000010266
0.999999864565
1.00000324583
1.00000008312
1.00000191266
1.00000015506
0.999999775922
0.999999757633
0.999999916036
1.00000009964
0.999999962708
0.999999979414
1.00000000391
1.00000003689
1.00000002602
1.0000000027
0.999999986416
0.999999976768
1.00000008197
0.999999903265
0.999999769094
0.999999806925
1.00000008461
1.00000224551
1.00000069317
0.999999858268
0.99999997166
0.999999841896
1.00000006752
0.999999989852
0.99999998163
0.999999999637
1.00000001439
1.00000000031
1.00000000799
1.0000000184
1.00000000029
0.99999998674
0.999999991837
1.00000004774
0.999999842477
0.999999988716
0.999999899845
1.00000060038
0.999999753026
0.999999905023
0.999999893087
1.00000004447
0.999999998874
0.999999969908
1
0.999999987721
0.999999996823
1.00000001547
1.00000001878
1.0000000001
1.00000000503
1
0.99999998586
1.00000000025
1.00000005747
0.999999903469
0.999999909181
0.999999703117
0.999999871004
0.999999991004
1.00000004368
1.0000000069
1.0000000195
1
0.999985257682
0.999958200086
0.999946292832
0.999947568671
0.999947794558
0.999946224417
0.999958145915
0.999985226272
1
1.00000001837
1.00000000413
1.00000008856
0.999999959831
0.999999863964
0.999999983434
1.00000004832
1.00000000782
1.00000000681
1.00000000023
0.999957705743
0.999830044887
0.999701409446
0.999658617768
0.999658384471
0.999658260707
0.99965841927
0.999701297841
0.999829990029
0.999957686792
0.999999997739
1.00000000517
1.00000000155
1.00000007472
0.999999988941
1.00000003579
0.999999995184
1.00000001168
0.999999997077
0.999985682196
0.999830174742
0.999512418423
0.999260137336
0.999183646501
0.999182855854
0.999182700797
0.999183279527
0.999259763566
0.999512332447
0.999830021562
0.999985748905
0.999999989314
1.00000001553
0.999999997976
1.00000004575
0.999999966377
1.00000005073
1.00000000008
1.00000001753
0.999958589447
0.999701294512
0.999259882935
0.998938878174
0.99884477267
0.99884441308
0.99884426942
0.99884457354
0.99893834246
0.999259621524
0.999701313046
0.999958419686
1.0000000193
0.999999998667
1.00000003038
0.999999975621
1.00000002187
0.999999986509
1.00000004442
1.00000000006
0.999946168769
0.999658494749
0.999183250354
0.998845097787
0.998748526744
0.998744745674
0.998744547782
0.998748278403
0.998844902548
0.99918292571
0.999658261303
0.999946146662
1.00000000052
1.00000006917
0.999999996274
1.00000000397
0.999999973132
1.00000013214
1.00000000406
1.0000000173
0.999946330907
0.999657916273
0.99918238879
0.998844250702
0.998744699863
0.998744646096
0.998744322697
0.998744155955
0.998843874385
0.999182149072
0.999657650523
0.999945983761
0.99999999385
1.00000000304
1.00000014807
0.999999972884
0.99999997303
1.00000012089
1.00000000928
0.999999974917
0.999946277402
0.999657827952
0.999182371189
0.998844405359
0.998744711815
0.998744354078
0.998744090018
0.998744108542
0.99884386902
0.999182116242
0.999657579943
0.999945971095
0.999999979652
1.00000000769
1.00000012032
0.999999972438
1.00000002427
0.999999987068
1.00000006707
0.999999996566
0.999946055527
0.999658379197
0.99918308856
0.998845012875
0.998748750068
0.998744551471
0.998744329944
0.998748274231
0.998844843246
0.9991827819
0.999658173682
0.999946165992
1.00000000151
1.00000005094
0.99999999422
1.00000002453
0.999999962984
1.00000004663
0.999999998485
1.00000000633
0.999958509512
0.999701238671
0.999259678149
0.998938674238
0.99884465816
0.998844371961
0.998844110879
0.998844458863
0.998938120441
0.999259440536
0.999701272273
0.999958386323
0.999999990329
0.99999999364
1.00000003306
0.999999987753
1.00000003259
0.999999997455
1.00000001637
0.99999998939
0.999985763033
0.999830081451
0.999512317608
0.999259968121
0.999183460193
0.999182677353
0.999182518541
0.999183098178
0.999259618737
0.999512277659
0.999830030524
0.999985795005
0.999999985948
1.00000000286
0.999999998269
1.00000009325
0.999999988324
1.00000006184
1.00000000167
1.00000000601
0.999999996638
0.999957769916
0.999830033187
0.999701363856
0.999658515902
0.99965836736
0.999658252088
0.999658352798
0.999701284314
0.999830010149
0.99995774147
0.999999995262
0.999999995267
1.00000000043
1.00000007398
0.999999999675
0.999999869558
0.999999966388
1.00000008727
1.00000000084
1.00000000995
0.999999991477
0.99998533851
0.99995816005
0.999946157312
0.99994745515
0.999947694425
0.999946212019
0.999958150898
0.99998532675
0.999999989422
1.00000000889
1.00000000189
1.00000008817
0.999999932734
0.999999858668
0.999999752427
0.999999893278
0.999999907893
1.00000006398
1.00000000029
1.00000000969
0.999999997092
1.00000000523
0.999999993032
0.999999970784
0.999999982699
0.99999999352
1.0000000033
1
1.00000001368
1.00000000161
1.00000006149
0.999999902748
0.99999990245
0.999999690649
1.00000044954
0.999999876381
1.00000000784
0.999999839806
1.0000000215
0.999999999198
0.999999972675
0.999999992868
1.00000001579
0.999999998968
1.00000000326
1.00000001355
0.999999995736
0.999999978636
0.999999986096
1.0000000574
0.999999845315
0.999999993327
0.99999987836
1.00000049298
1.000002208
1.00000009732
0.999999818824
0.999999785066
0.999999872488
1.00000009365
0.999999954587
0.99999998487
1.0000000063
1.00000005574
1.00000004128
1.00000000378
0.999999979494
0.999999964248
1.00000008181
0.99999990371
0.999999797918
0.999999838475
1.00000012523
1.00000227646
1.00000007709
1.00000351161
0.999999881688
1.00000012932
1.00000051629
1.00000001611
1.00000031595
1.00000015988
1.00000040318
1.00000002111
1.00000007517
1.00000023264
1.000000118
1.00000010462
1.00000002773
1.00000042283
1.00000008995
0.999999899804
1.00000371795
1.00000006534
1.00000711383
1.00000042497
1.00000486902
1.00000014542
1.0000000168
1.00000025659
0.99999999035
1.00000001333
1.00000000707
1.00000012045
1.00000003095
1
1.0000000036
0.999999982222
1.00000025706
1.00000003215
1.00000018404
1.0000048348
1.00000051946
1.00000639946
1.00000022829
1.00000814913
0.999999806919
0.999999570513
0.999999971199
0.999999925111
0.999999986651
1.00000000005
1.0000000252
0.999999992053
0.999999992132
1.00000001265
1.00000000034
0.99999996303
0.999999909168
0.999999942124
0.999999599245
0.999999812552
1.00000794562
1.00000026863
1.00000629424
0.999999902396
0.999999586979
0.999999917892
0.999999922446
0.999999918809
1.00000000003
1.00000003476
0.999999996331
1.00000000912
1.00000000136
0.999999999931
1.00000002065
1.00000000003
0.999999914704
0.999999929728
0.999999945351
0.999999624838
0.999999913395
1.00000692697
1.00000000936
0.9999996391
0.999999966757
0.999999956501
0.999999976947
0.999973736998
0.999886639857
0.999799878864
0.999772123722
0.999772103723
0.999772082489
0.999772047902
0.999799718053
0.999886606111
0.999973666047
0.999999992811
0.999999958355
0.999999973021
0.999999685466
0.999999881005
0.999999781404
0.999999962609
0.999999965343
0.999999986761
0.999937291936
0.999686416284
0.999307183292
0.999040994096
0.998966729072
0.998966466067
0.998966396848
0.998966509044
0.99904079792
0.999307160739
0.999686451665
0.999937291226
0.999999983102
0.999999972551
0.999999959549
0.99999982873
0.999999873907
0.999999938779
0.999999983111
0.999974148229
0.999686473006
0.999041240452
0.998373127506
0.997993564164
0.997895046759
0.997894383776
0.99789417019
0.997894396782
0.9979928614
0.998373032019
0.999041460621
0.999686606793
0.99997407103
0.99999995739
0.999999938288
0.99999987415
0.999999927459
0.999999958049
1
0.999886831635
0.999306967292
0.998372732689
0.997596390094
0.997184297516
0.997077458597
0.997076366781
0.997076013518
0.997076302121
0.997183002221
0.997596134281
0.998373320273
0.999307348995
0.999887073838
1.00000000003
0.999999969917
0.999999938878
0.999999954296
1.00000000025
0.999999888118
0.999800024064
0.999040550966
0.997992601685
0.997183697234
0.996756316307
0.996645852109
0.996644018126
0.996643590683
0.996644366396
0.996754696825
0.997183251899
0.997993439826
0.999041151499
0.999800125457
1.0000000021
0.999999999364
0.999999984553
0.999999984322
0.9999999322
0.99999986213
0.999772400618
0.998966198827
0.99789398898
0.997076790772
0.996645846269
0.996533424674
0.99653193
0.996531429102
0.996531788377
0.996643990117
0.997076271284
0.997894843014
0.998966868235
0.99977236445
0.999999965632
1.00000001306
1.00000000027
1.00000001524
0.999999998343
1.00000001822
0.99977227816
0.99896598381
0.997893452183
0.997075844047
0.996644427011
0.996532399805
0.996530531461
0.996529956042
0.996530761222
0.996642476046
0.997075319834
0.997894229582
0.99896664383
0.999772266064
1.00000001545
0.99999999861
1.00000001877
0.99999995507
1.00000000074
1.00000001733
0.999772260069
0.998965942677
0.997893344598
0.99707557271
0.996644072129
0.996532033022
0.996530141812
0.996529575148
0.99653042759
0.996642157724
0.997075072564
0.997894109639
0.998966591728
0.99977223634
1.00000000819
0.999999999759
1.00000001985
0.999999997191
0.999999939655
0.999999881585
0.999772369709
0.99896606713
0.997893668639
0.997075977585
0.996644770296
0.996532240401
0.996530617766
0.996530117255
0.996530662154
0.996642951176
0.997075456867
0.997894497058
0.998966715927
0.999772318297
0.999999948055
1.00000001039
1.00000000018
0.999999992631
1.00000000003
0.999999909437
0.999799991228
0.999040367653
0.997992187813
0.997182643371
0.996754889054
0.996644212954
0.99664223134
0.996641780832
0.996642726184
0.996753128726
0.997182201919
0.997993000995
0.999040966322
0.999800043524
0.999999987625
0.999999998637
0.999999964079
0.999999982181
0.999999874768
0.999999999551
0.999886841143
0.999306849409
0.998372413155
0.997595617785
0.997183033068
0.997076067292
0.997074925569
0.99707457036
0.997074942493
0.997181761622
0.997595394507
0.998373011531
0.999307252313
0.999886932494
1.00000000003
0.999999942635
0.999999983144
0.999999897316
0.999999943892
0.999999939374
0.999974263885
0.999686489348
0.999041056962
0.998372708871
0.997992888525
0.997894280321
0.997893581084
0.997893368016
0.997893655629
0.997992230949
0.998372660626
0.999041307457
0.999686582395
0.999974074018
0.999999970186
0.99999993833
0.999999885552
0.99999969182
0.999999949427
0.99999995004
0.999999999399
0.999937319356
0.999686425857
0.999307040819
0.999040778243
0.998966492219
0.998966263928
0.998966201975
0.998966282215
0.999040571725
0.99930707077
0.999686455354
0.999937276036
0.999999995873
0.999999960935
0.999999910172
0.999999813911
0.999999860851
0.999999628132
0.999999996884
0.999999962163
0.999999981307
0.999973862054
0.999887044083
0.999799914677
0.999772184375
0.999772209644
0.999772215556
0.999772139235
0.999799817838
0.999886919254
0.999973766478
0.99999999999
0.999999961586
0.999999965276
0.999999709101
0.99999980942
1.00000674348
0.999999849143
0.999999513938
0.99999995065
0.999999932907
0.999999871618
1.00000000005
1.00000002131
0.999999996855
1.00000000145
1.00000000004
1.00000000051
1.00000001956
1.00000000028
0.999999808465
0.999999927981
0.999999861901
0.999999608903
0.999999866232
1.00000700811
1.0000003209
1.00000823644
0.999999831127
0.999999654735
0.999999977025
0.999999922104
0.999999989807
1.0000000013
1.00000000982
0.999999984974
0.999999989691
1.00000001041
1.00000000171
0.999999966929
0.999999878011
0.999999968727
0.999999632955
0.999999894984
1.00000885009
1.00000036106
1.0000069137
1.00000059324
1.00000507717
1.0000003462
1.00000005608
1.00000031376
0.999999968552
1.00000010304
1.00000000698
1.00000020603
1.00000008536
1.00000000593
1.00000001782
0.999999972694
1.00000028378
1.0000000492
1.00000021706
1.00000550836
1.0000006942
1.00000626179
1.00001236641
1.00000823813
1.00000613742
1.00000884269
0.999999783191
0.999999691211
0.999999884683
0.999999762383
0.999999602205
0.999999403768
0.999999139849
0.999999780714
0.999999855029
1.00000001102
0.999999609445
0.999999780112
1.0000085189
1.00000592851
1.00000807893
1.00001416998
1.00000898486
1.0000009584
1.00001015378
0.999999958938
0.999999908882
1.00000004595
1.00000000045
1.00000000128
0.999996603653
0.999999549987
0.999999471283
0.999996781856
1.00000000209
1.00000000043
1.00000000511
0.999999927198
1.00000007924
1.00001019685
1.00000129669
1.00000843711
1.00000615137
1.00001011068
0.999999485345
0.999999795599
1.00000000149
0.999984323594
0.999889216192
0.999799271285
0.999770983497
0.999770287212
0.999770251382
0.999770892219
0.999799100421
0.999889161895
0.999984392233
0.999999990784
0.999999807842
0.999999521685
1.00001024213
1.00000721288
1.00001099788
0.999999559568
0.999999780075
0.999999886747
0.999886864646
0.999565030915
0.999184516283
0.998939179149
0.998870576507
0.998870407235
0.998870340022
0.998870369044
0.998939001021
0.999184512549
0.99956506302
0.999886768324
0.999999920592
0.999999786533
0.999999624772
1.00001122112
0.999999660665
0.999999843279
0.999999960944
0.999886397219
0.999397988126
0.998647277493
0.99801247624
0.997674846186
0.99758843332
0.997588442049
0.99758832319
0.997588027291
0.997674525396
0.998012772126
0.998647887365
0.99939824395
0.999886231966
1.00000002883
0.999999845963
0.999999774633
0.999999345103
0.999999963358
0.999982183754
0.999564916856
0.998646929044
0.997672447261
0.996958722916
0.996586083118
0.996491953039
0.996492379889
0.996492234104
0.996491450964
0.996585641766
0.996959459718
0.997674250917
0.99864818358
0.999565144416
0.999981035248
0.999999920155
0.999999113916
0.999999719057
0.999999923086
0.999888982515
0.999184094988
0.998011251591
0.996957241824
0.996199697132
0.995810746464
0.995709695581
0.995702369872
0.995703917683
0.995707173602
0.995810888676
0.99620093381
0.996960233941
0.998013990714
0.999184883649
0.999888856853
0.999999943401
0.999999759543
0.999999494831
0.999999971492
0.999799670389
0.998938406207
0.997672638449
0.996583073948
0.995810095956
0.995398189222
0.995257790968
0.995257790916
0.995257780716
0.995257771865
0.995395462006
0.995812254052
0.99658712263
0.997676417145
0.998939680292
0.999799699005
0.999999955421
0.999999939013
0.999999577537
0.999998162039
0.999771149346
0.998869704799
0.997585983171
0.996488731738
0.995710074121
0.995257623895
0.99525954943
0.995258852553
0.995259571183
0.995257930744
0.99525788824
0.995709617393
0.996493430154
0.997589923536
0.998871084552
0.99977106845
0.999998953184
0.999998277242
0.999996163036
0.999999235372
0.999770180484
0.998869578416
0.99758606099
0.996489198428
0.995706070137
0.995257623885
0.995258518774
0.995262813657
0.995265727129
0.995257905076
0.995257924585
0.995708010563
0.996493946132
0.997589877946
0.998870913749
0.999770239736
0.999999123778
0.999996758036
0.999995855088
0.999999065433
0.999770238252
0.998869536361
0.997585973847
0.996489082544
0.995708685101
0.995257621731
0.995258447948
0.995264638218
0.995268375916
0.99525793364
0.995257942603
0.99571058561
0.996493761395
0.997589769269
0.998870862032
0.999770232384
0.999998933932
0.999996364131
0.999999349173
0.999998388495
0.999771264704
0.998869579749
0.997585771087
0.996488465401
0.99571091928
0.995257619856
0.995260124565
0.995258477856
0.995259172337
0.995258579559
0.995257934287
0.99571086517
0.996493133618
0.997589641563
0.998870934965
0.999771030456
0.999999387268
0.999998496648
0.9999998073
0.999999963633
0.999799718946
0.998938250284
0.997672338763
0.996582864768
0.995810511766
0.995400862821
0.995258126393
0.995259046757
0.995259015066
0.995258132408
0.995399186042
0.995812552904
0.996586781886
0.99767599697
0.998939496675
0.999799783158
0.999999961522
0.999999854074
0.999999951817
0.999999762428
0.999889075433
0.999183976744
0.998010883694
0.996956277334
0.996198687143
0.995810077354
0.99571189728
0.995711595797
0.995711888886
0.995710851185
0.995810520443
0.996200277659
0.996959370041
0.998013524054
0.999184757634
0.9998889778
0.999999876647
0.999999927089
0.999999330281
0.99999993291
0.999982719365
0.999564858045
0.998646653021
0.997671593669
0.996956881465
0.996583847247
0.996489788644
0.996490359541
0.99649032321
0.996489535407
0.996583793927
0.996957929061
0.99767349132
0.998647915383
0.999565098371
0.999981367132
0.999999899986
0.999999183448
0.999999493142
0.999999848628
0.999999977424
0.999886749211
0.999397887725
0.998646917485
0.998011781983
0.997673810036
0.997587345553
0.997587347924
0.997587235421
0.997587003247
0.997673633845
0.998012147208
0.998647579281
0.99939817896
0.999886607776
0.999999983484
0.999999854466
0.999999769053
1.00001104453
0.999999565584
0.99999979605
0.999999922988
0.999886628797
0.999564943804
0.999184313851
0.9989388789
0.998870241677
0.998870070755
0.99887000889
0.998870058122
0.99893874103
0.999184348429
0.999565004188
0.99988708401
0.999999924893
0.999999808365
0.999999688664
1.00001128904
1.00000614015
1.00001030241
0.999999393929
0.99999983869
1.00000000154
0.999981957004
0.999888249962
0.999799319566
0.999770915826
0.999770232952
0.999770235129
0.999770783658
0.999799234694
0.999888151394
0.99998269233
1.00000001392
0.999999867905
0.999999471051
1.00001082792
1.00000680233
1.00000869871
1.00000131538
1.00001016603
1.00000019251
0.999999938098
1.0000000554
1.0000000015
0.999999718974
0.999996694481
0.999999463458
0.999999471185
0.999997494129
0.999999813232
1.0000000041
1.00000003014
0.999999968703
1.00000028439
1.00001071468
1.00000279958
1.00000834469
1.00001307672
1.00000745439
1.00000702504
1.00000955348
0.99999970671
0.999999577207
1.00000001985
0.999999966653
0.999999630247
0.999999423852
0.999999262133
0.999999874067
0.999999826796
0.99999992801
0.999999541592
0.999999769823
1.00000953595
1.00000641349
1.0000071961
1.00001345402
1.00001237372
1.00000277444
1.00000866706
1.00000228927
1.00000638981
0.999996556377
0.99999214999
0.999997618627
0.999995434246
0.999998142032
0.999998062267
0.999997274767
0.999998295278
0.999991969272
0.999997048814
1.00000635204
1.00000226085
1.00000877509
1.00000202322
1.00000932459
1.00000323215
1.00000853669
1.00000179542
1.00001044229
0.999995843713
0.999999490308
0.999998546252
0.999967378674
0.999957036518
0.999965107052
0.999965857542
0.999958376259
0.999967711624
0.999998604407
0.999999343449
0.999996051422
1.00001073135
1.00000135152
1.00000777528
1.00000269969
1.0000064277
1.00000293054
1.0000092708
0.999999444843
0.999946882009
0.99973963176
0.999498817537
0.999350244883
0.999306733712
0.999306657732