/*--------------------------------*- C++ -*----------------------------------*\
| =========                 |                                                 |
| \\      /  F ield         | OpenFOAM: The Open Source CFD Toolbox           |
|  \\    /   O peration     | Version:  3.0.1                                 |
|   \\  /    A nd           | Web:      www.OpenFOAM.org                      |
|    \\/     M anipulation  |                                                 |
\*---------------------------------------------------------------------------*/
FoamFile
{
    version     2.0;
    format      ascii;
    class       volScalarField;
    location    "0.3";
    object      k;
}
// * * * * * * * * * * * * * * * * * * * * * * * * * * * * * * * * * * * * * //

dimensions      [0 2 -2 0 0 0 0];

internalField   nonuniform List<scalar> 
7968
(
0.0315243185026
0.0317195740758
0.0317898502876
0.0318035845221
0.0318057391998
0.0318061328201
0.0318061450359
0.0318059951498
0.0318057823293
0.0318056238484
0.0318056295492
0.0318057895751
0.0318059961501
0.0318061398622
0.0318061254234
0.0318057423583
0.0318035714824
0.0317898386541
0.0317196144868
0.0315243847604
0.0317195781184
0.0338257927335
0.0346025766004
0.0347700832453
0.0347971485136
0.0348009907912
0.0348016046268
0.0348018911675
0.0348022215684
0.0348024592223
0.034802476592
0.0348022622976
0.0348019437377
0.0348016728211
0.0348010166196
0.0347972067656
0.0347701063406
0.0346026080325
0.033825939205
0.0317196385114
0.031789858092
0.0346026029908
0.035826343552
0.0361314302495
0.0361875606807
0.0361957983403
0.0361967028135
0.0361969509201
0.0361974166272
0.0361978255162
0.0361978403779
0.0361974581065
0.0361970067428
0.0361967771947
0.0361958640326
0.0361876352264
0.0361314834329
0.0358263765534
0.0346026462212
0.0317898852771
0.0318035964993
0.0347701057006
0.0361314276234
0.0364881789918
0.0365559368674
0.036564643065
0.0365639752623
0.0365630650477
0.0365631384238
0.0365635509467
0.0365635680819
0.0365631922611
0.0365631297192
0.0365640690865
0.0365647353787
0.036556022629
0.0364882506334
0.0361314592257
0.0347701450288
0.0318036057955
0.0318057632689
0.0347971875788
0.0361875922846
0.0365559551824
0.0366244764517
0.0366301836682
0.0366271104296
0.036626899167
0.0366270372577
0.0366272398185
0.0366272485429
0.0366270693101
0.0366269314325
0.0366271473416
0.0366303008463
0.0366245710384
0.0365560154956
0.0361875950859
0.0347971707888
0.0318057557289
0.0318061531486
0.0348010366055
0.0361958300782
0.0365646629069
0.0366301894714
0.0366362835154
0.036636163645
0.0366353013596
0.0366350469765
0.0366351448754
0.0366351551627
0.0366350793103
0.0366353455874
0.0366362104575
0.0366363276049
0.036630315651
0.0365647383672
0.0361958422377
0.0348009942676
0.0318061505487
0.0318061677584
0.0348016520608
0.0361967368494
0.0365639935459
0.036627121142
0.0366361622127
0.0366349857646
0.0366331584159
0.0366323992569
0.0366323144205
0.0366323275198
0.0366324531797
0.0366332308158
0.0366350631843
0.0366362292261
0.0366271792148
0.0365641008543
0.0361967662292
0.0348016399102
0.0318061683475
0.031806026697
0.0348019436272
0.036196973651
0.0365630623541
0.0366269070791
0.0366352924264
0.0366331492655
0.0366304500741
0.0366290760231
0.0366286764703
0.0366286970722
0.0366291575178
0.0366305580262
0.0366332571436
0.0366353870528
0.0366269695774
0.0365632174189
0.036197040473
0.0348019628226
0.0318060103685
0.031805815412
0.0348022630259
0.0361974237804
0.0365631200282
0.036627040492
0.036635030751
0.0366323761104
0.0366290513288
0.0366270956928
0.0366262805287
0.0366263171879
0.0366272062786
0.0366291950918
0.0366325091038
0.0366351445149
0.0366271249217
0.0365633003431
0.0361975087996
0.0348022771493
0.0318057920964
0.0318056486725
0.0348024838859
0.036197818633
0.0365635119573
0.0366272392127
0.0366351177137
0.0366322744859
0.0366286343852
0.0366262434545
0.0366250090059
0.0366250715613
0.0366263949884
0.036628795077
0.0366324197712
0.0366352383058
0.036627313289
0.0365637158057
0.0361979174386
0.0348024959733
0.0318056215225
0.0318056434687
0.0348024947722
0.0361978255386
0.0365635189106
0.036627240844
0.0366351186891
0.036632272676
0.0366286285037
0.0366262400424
0.0366250093398
0.0366250700212
0.036626391157
0.036628785349
0.0366324098368
0.0366352324789
0.0366273065762
0.0365637097399
0.0361979129008
0.0348024965903
0.0318055997463
0.0318057962985
0.0348022742976
0.0361974380303
0.0365631398067
0.0366270517514
0.0366350331908
0.0366323802436
0.0366290573922
0.0366270985719
0.0366262856293
0.0366263221985
0.0366272005174
0.0366291873496
0.0366324992764
0.0366351309449
0.0366271132441
0.0365632990183
0.0361974986358
0.0348022672902
0.0318057392237
0.0318059948651
0.0348019494853
0.0361969880545
0.0365630797607
0.0366269098125
0.0366352946423
0.0366331518842
0.0366304531623
0.0366290772267
0.0366286770622
0.0366286927436
0.0366291469387
0.0366305418636
0.0366332367993
0.0366353669248
0.0366269376723
0.0365631713457
0.0361969926917
0.0348019103336
0.0318059267559
0.031806137601
0.034801673058
0.036196758525
0.0365640171573
0.0366271225712
0.0366361632922
0.0366349876717
0.0366331586542
0.0366323955248
0.0366323110907
0.0366323153137
0.0366324383364
0.0366332100275
0.036635036577
0.0366361980168
0.0366271354073
0.0365640446102
0.0361967002695
0.0348015693876
0.0318060617577
0.0318061224858
0.0348010192592
0.0361958442677
0.0365646911838
0.0366302052452
0.0366362854379
0.0366361666951
0.036635306372
0.036635048368
0.0366351454695
0.0366351494621
0.0366350700298
0.0366353319572
0.0366361841552
0.0366362852461
0.0366302565221
0.0365646672052
0.0361957532367
0.0348008782519
0.0318060464684
0.0318057433228
0.034797218033
0.036187625589
0.0365559910449
0.0366244709222
0.0366301845169
0.0366271059956
0.0366268967097
0.0366270321136
0.0366272328104
0.036627235319
0.0366270610587
0.03662690198
0.0366271075997
0.0366302380292
0.0366244796007
0.0365559241342
0.0361874698321
0.0347970507498
0.0318056625219
0.0318035751666
0.0347701367048
0.036131480158
0.0364882287457
0.0365559413995
0.0365646280582
0.0365639559746
0.0365630525063
0.0365631103155
0.0365635244854
0.0365635346748
0.0365631600505
0.0365630780351
0.0365639970758
0.0365646479374
0.0365559315802
0.0364881442047
0.0361313142448
0.0347699381876
0.0318035042095
0.0317898435343
0.0346026313851
0.0358263887198
0.0361314578671
0.0361875382338
0.0361957540337
0.0361966537107
0.0361969053669
0.0361973629996
0.0361977715638
0.0361977817702
0.0361973993186
0.0361969265128
0.0361966703535
0.0361957507781
0.0361875026485
0.0361313045385
0.0358261939533
0.0346024783844
0.0317897937676
0.0317196205083
0.0338259635052
0.0346026654878
0.0347701379841
0.0347971361328
0.0348009294915
0.0348015717132
0.0348018502762
0.0348021701326
0.034802391823
0.0348024068131
0.0348022056965
0.0348018764152
0.0348015678487
0.0348008947637
0.0347970868206
0.0347699455307
0.0346024946704
0.0338257656674
0.0317195771173
0.0315243864492
0.031719645236
0.031789893566
0.0318036106835
0.0318057585143
0.0318061509392
0.0318061512312
0.031805981348
0.0318057664689
0.0318055912692
0.0318055832888
0.0318057409217
0.0318059424161
0.0318060848695
0.031806073165
0.0318056860965
0.0318035228456
0.0317898061785
0.0317195820987
0.0315243776013
0.0317195787911
0.033819018891
0.0345926500486
0.0347588603175
0.0347851501386
0.034788342038
0.0347884102913
0.0347881799643
0.0347879918492
0.0347879023052
0.0347879100953
0.0347880084494
0.0347882012866
0.034788434458
0.0347883708765
0.0347851727421
0.0347588811091
0.034592671414
0.0338190815962
0.0317196316178
0.0338190221782
0.0514370933352
0.0555285974447
0.0564829001262
0.0566632167267
0.0566878285999
0.0566876532645
0.0566850984051
0.0566832528626
0.0566824054079
0.0566824222157
0.0566833238009
0.0566852075221
0.056687786559
0.0566879810301
0.0566633982676
0.0564830887898
0.0555287707475
0.0514373379913
0.0338190947957
0.0345926647058
0.055528633086
0.060783777815
0.0621630811609
0.0624668351835
0.062519563909
0.0625254143787
0.0625247225906
0.0625239840187
0.0625237321762
0.062523749207
0.0625240386496
0.0625248044651
0.0625255147976
0.0625196788551
0.0624669769686
0.0621632401471
0.060783933362
0.0555287602949
0.0345926701244
0.0347588821182
0.0564829585356
0.0621631069786
0.0637251749482
0.0640879794501
0.0641547005564
0.0641629107364
0.0641624921558
0.0641620581385
0.0641621079122
0.0641621277603
0.0641621225809
0.0641625791926
0.064163010846
0.0641548100471
0.0640881091268
0.0637253213055
0.0621632407124
0.056483076849
0.0347588736331
0.0347851837922
0.0566633034239
0.0624668796292
0.064087996748
0.0644696632433
0.0645390456115
0.0645455061608
0.0645424776683
0.0645410738058
0.0645410760507
0.0645411147497
0.0645412205467
0.0645426459701
0.0645456775731
0.0645391903083
0.0644698063891
0.0640881444952
0.0624669986846
0.0566633661383
0.0347851527599
0.0347883811707
0.056687909862
0.0625196141125
0.064154724552
0.0645390536998
0.0646039960567
0.0646036401785
0.0645970221757
0.0645943646751
0.0645942821679
0.0645943274164
0.0645945264532
0.0645972606416
0.0646039153084
0.0646042614073
0.0645392429231
0.0641548938993
0.0625197450746
0.0566879972704
0.0347883438683
0.0347884496095
0.0566877368809
0.0625254649895
0.0641629351219
0.0645455096881
0.0646036219509
0.0645979809593
0.0645883925054
0.0645848133476
0.064584704573
0.0645847709623
0.0645850410234
0.064588743762
0.0645983856058
0.0646040084859
0.0645458126737
0.0641631413634
0.0625256162523
0.0566878342181
0.0347884210512
0.0347882179433
0.0566851746343
0.0625247655063
0.0641625051693
0.0645424535576
0.0645969578273
0.0645883434987
0.0645772195563
0.064573224167
0.0645731593167
0.064573252612
0.0645735368271
0.0645777063495
0.0645888804329
0.0645974728396
0.0645428734452
0.0641627597639
0.0625249429246
0.0566852904475
0.0347881871615
0.0347880258927
0.0566833156248
0.062524013073
0.0641620550991
0.0645410155034
0.0645942436304
0.0645846757483
0.0645730937814
0.0645691793499
0.0645692543958
0.0645693812481
0.0645695862129
0.0645737310998
0.0645853363332
0.064594862399
0.0645415302695
0.0641623460382
0.0625242095612
0.0566834434113
0.0347879906268
0.0347879284829
0.0566824504874
0.0625237468231
0.0641620879888
0.0645409849304
0.0645941064849
0.0645845043995
0.0645729741997
0.0645691727377
0.0645692841464
0.0645694746399
0.0645697197703
0.0645737254226
0.0645852562204
0.0645947904211
0.0645414935705
0.0641623890915
0.0625239545655
0.0566825854089
0.0347878943816
0.0347879273005
0.0566824501255
0.0625237519824
0.0641620953297
0.0645409985459
0.0645941177445
0.0645845191419
0.0645729847211
0.0645691878055
0.0645693213269
0.0645695163391
0.0645697466376
0.0645737335443
0.0645852646552
0.0645947940367
0.0645414928751
0.0641623874658
0.0625239511613
0.0566825772785
0.034787889094
0.0347880215233
0.0566833301207
0.0625240306254
0.0641620792882
0.0645410779745
0.0645942856624
0.0645847311153
0.0645731762935
0.0645693005653
0.0645694272803
0.0645695650267
0.0645697255832
0.0645738203122
0.0645853868613
0.0645948927942
0.0645415487334
0.0641623463774
0.0625242026035
0.0566834197643
0.0347879752627
0.0347882054979
0.0566852164571
0.06252479451
0.0641625320991
0.0645424921243
0.0645970083996
0.0645884116558
0.0645773125849
0.06457337028
0.0645733524549
0.0645734483764
0.0645737136366
0.0645778155273
0.0645889400856
0.0645975042489
0.0645428526862
0.0641627455573
0.062524925036
0.05668526443
0.0347881526025
0.0347884409137
0.0566877935147
0.0625255016734
0.0641629660273
0.0645455359108
0.0646036778829
0.0645980536862
0.0645884787033
0.0645849334097
0.0645848682512
0.0645849295633
0.0645851867252
0.0645888398844
0.064598440754
0.0646040296841
0.0645457938764
0.0641631207602
0.0625255879501
0.0566878071697
0.0347883686968
0.0347883754219
0.056687974817
0.062519664091
0.0641547730661
0.0645391033125
0.064604062349
0.0646037209521
0.0645971178538
0.0645944747686
0.0645944176322
0.0645944610266
0.0645946561456
0.0645973596814
0.0646039713442
0.0646042718927
0.064539238011
0.0641548729276
0.0625197052644
0.0566879592017
0.0347882901042
0.0347851806918
0.0566633956591
0.0624669650058
0.0640880792112
0.0644697409869
0.0645391256923
0.0645455704897
0.0645425709198
0.064541165848
0.0645411791132
0.0645412156378
0.0645413453328
0.0645427100785
0.0645457095864
0.0645392208904
0.0644698158121
0.0640881248944
0.0624669412648
0.0566633013915
0.0347850845392
0.0347588916828
0.0564830854721
0.062163231704
0.0637252966221
0.064088091582
0.0641548097194
0.0641630189011
0.0641626054674
0.0641621706733
0.0641622230407
0.0641622401364
0.064162233683
0.0641626699206
0.0641630829548
0.0641548636623
0.0640881297863
0.0637252939705
0.0621631392617
0.0564828794531
0.0347587767432
0.0345926862398
0.0555287719697
0.0607839295003
0.0621632198851
0.0624669493157
0.0625196710707
0.0625255174639
0.0625248251459
0.0625240854467
0.0625238348584
0.0625238489182
0.0625241309333
0.062524885277
0.062525581003
0.0625197209592
0.0624669698949
0.0621631613545
0.0607837470797
0.0555284651389
0.034592537674
0.0338190955666
0.0514373476196
0.0555287617946
0.0564830616799
0.0566633068287
0.0566879272216
0.0566877324816
0.0566851775876
0.0566833324909
0.0566824834025
0.0566824968221
0.0566833841085
0.0566852709598
0.0566878437879
0.0566880161011
0.0566633636776
0.05648295177
0.0555285107267
0.0514368735576
0.0338189013568
0.0317196358578
0.0338191032134
0.0345926746643
0.034758871797
0.0347851386353
0.0347883245785
0.0347883889709
0.0347881432668
0.0347879495608
0.0347878560212
0.0347878603208
0.0347879628744
0.0347881558342
0.034788383013
0.0347883135539
0.0347851059465
0.0347587941723
0.0345925468348
0.0338189035675
0.0317195784869
0.0317901409078
0.034592959652
0.0358117802653
0.0361145272492
0.0361695214027
0.036177162702
0.0361776595975
0.0361774101184
0.0361772472051
0.0361771902624
0.0361771948931
0.0361772690737
0.0361774435941
0.0361776921002
0.0361771977587
0.0361695690247
0.0361145847702
0.0358118308757
0.0345930132768
0.0317901727069
0.0345929675525
0.0555253577454
0.0607760373863
0.0621515267294
0.0624515901213
0.0625006889359
0.0625032022496
0.0624997917565
0.0624971079114
0.062495845661
0.0624958625313
0.0624971952374
0.0624999285863
0.0625033513358
0.0625008477493
0.062451850452
0.0621517828315
0.0607762396118
0.0555255234584
0.0345929838418
0.0358117954233
0.0607760867382
0.0674277971396
0.0693630895967
0.0698538785904
0.0699543234166
0.0699691449364
0.0699693203407
0.0699682173821
0.0699676636089
0.0699676808245
0.0699682753071
0.069969412819
0.0699692586309
0.0699544606978
0.0698540620446
0.0693632901415
0.0674279593118
0.0607761242598
0.0358117671152
0.0361145523632
0.0621516083757
0.0693631234777
0.0715574961051
0.0721467458785
0.0722763437101
0.0722984819889
0.0723006581068
0.0723004672986
0.0723003800885
0.0723003948898
0.0723005142798
0.0723007308729
0.0722985761759
0.072276461477
0.0721468992485
0.0715576689885
0.0693632520714
0.0621515871963
0.0361145207714
0.0361695559309
0.0624516989516
0.0698539317629
0.0721467647871
0.0727746918577
0.0729151893529
0.0729389874746
0.0729404905294
0.0729400975396
0.0729401577811
0.0729401793995
0.0729401692291
0.0729405879275
0.0729391074356
0.0729153238535
0.0727748487072
0.0721469352057
0.0698540479097
0.0624516359404
0.0361695157573
0.0361771967425
0.0625007794646
0.0699543791458
0.0722763682494
0.0729151928358
0.073056083886
0.0730766708162
0.073076235786
0.0730751547067
0.0730751834685
0.0730752125503
0.0730752520738
0.073076376288
0.0730768303048
0.0730562762821
0.0729153874167
0.0722765583411
0.0699545179713
0.0625007977743
0.0361771764103
0.0361776953121
0.0625032884819
0.069969197935
0.0722985014673
0.0729389769213
0.0730766647361
0.0730941700066
0.0730917812149
0.0730898675957
0.073089739353
0.073089785717
0.0730900159175
0.0730919942641
0.0730943842431
0.0730768966042
0.0729392445654
0.0722987246447
0.0699693566333
0.0625033173703
0.0361776766885
0.0361774459231
0.0624998684971
0.0699693643749
0.0723006658743
0.0729404651867
0.0730762215479
0.0730917772816
0.0730880052708
0.0730852312321
0.073084832982
0.0730849003249
0.0730854381709
0.0730883091864
0.0730920669234
0.0730765031033
0.0729407834714
0.0723009202447
0.0699695362299
0.0624998718072
0.0361774290235
0.0361772762253
0.0624971635147
0.0699682441456
0.0723004581425
0.072940046692
0.0730751096632
0.0730898255085
0.0730851739561
0.073081598641
0.0730808702932
0.0730809654377
0.0730818701734
0.0730855771669
0.0730901932758
0.0730754538818
0.072940414705
0.0723007393259
0.069968437963
0.0624971967694
0.0361772623994
0.0361772137367
0.0624958794291
0.0699676746974
0.0723003564823
0.0729400826343
0.0730751085178
0.0730896692645
0.0730847436473
0.0730808409147
0.0730799303999
0.0730800581852
0.0730811898152
0.0730852422012
0.0730901014178
0.0730754963943
0.0729404653576
0.0723006471331
0.069967881328
0.0624959387171
0.0361772067319
0.0361772100117
0.0624958771224
0.0699676787361
0.07230036029
0.0729400890612
0.0730751221473
0.0730896982227
0.0730847835087
0.0730808909184
0.0730799900577
0.073080117342
0.0730812418222
0.0730852818618
0.0730901299465
0.0730755063971
0.072940465741
0.0723006447148
0.0699678764261
0.0624959244327
0.0361772025208
0.0361772753739
0.0624971706584
0.0699682590784
0.0723004705481
0.0729400684396
0.0730751512951
0.0730899142695
0.0730853012274
0.073081760198
0.0730810625977
0.0730811626802
0.0730820474556
0.0730857063286
0.0730902739375
0.0730754849534
0.0729404185084
0.0723007337785
0.0699684248447
0.0624971503483
0.0361772508979
0.0361774526423
0.0624999280907
0.0699693962909
0.0723006857175
0.0729404875191
0.0730762724347
0.0730918891394
0.0730881677301
0.0730854414858
0.0730850763931
0.0730851508639
0.0730856698608
0.073088481706
0.0730921707289
0.0730765382097
0.0729407811336
0.0723009103385
0.069969518241
0.0624998167067
0.0361774123244
0.0361777013903
0.0625033410747
0.0699692385003
0.0722985327572
0.0729390054228
0.0730767104499
0.0730942618176
0.0730919138401
0.0730900328554
0.0730899273532
0.0730899779418
0.0730901952542
0.0730921318228
0.0730944624006
0.0730769159912
0.072939235842
0.0722987132628
0.0699693366174
0.0625032856002
0.0361776516376
0.0361772036077
0.062500827362
0.0699544396392
0.0722764272769
0.0729152474598
0.0730561419939
0.0730767427006
0.0730763265404
0.0730752595368
0.0730752977949
0.0730753296388
0.0730753644584
0.0730764648474
0.073076882269
0.0730562983306
0.0729153985741
0.0722765575836
0.0699544909909
0.0625007279228
0.0361771478251
0.0361695765705
0.062451825879
0.069854041796
0.0721468716229
0.0727747961748
0.0729152894579
0.0729390834751
0.072940592435
0.0729401984857
0.0729402602878
0.0729402824482
0.072940274076
0.0729406808389
0.0729391800273
0.0729153854361
0.0727748949485
0.0721469518685
0.0698540226118
0.0624516070514
0.0361694826166
0.0361145952071
0.0621517587537
0.0693632700642
0.0715576416075
0.0721468900427
0.0722764872831
0.0722986217302
0.0723007939835
0.072300600664
0.0723005129696
0.0723005256806
0.0723006408322
0.0723008499044
0.0722986859986
0.0722765547319
0.0721469590679
0.0715576754033
0.0693631797679
0.0621514227113
0.0361144518743
0.0358118460743
0.0607762210508
0.0674279359326
0.0693632168551
0.0698539939724
0.0699544441215
0.0699692596518
0.0699694232834
0.0699683216886
0.0699677694536
0.0699677838507
0.0699683633376
0.0699694896524
0.0699693391285
0.0699545146132
0.0698540576163
0.0693632078409
0.0674277638041
0.0607757816203
0.0358116349127
0.0345930244553
0.0555255087154
0.0607760942526
0.0621515380881
0.0624515606198
0.0625007093813
0.0625031996137
0.0624997396258
0.062497067817
0.0624958145119
0.0624958322453
0.0624971117435
0.062499824304
0.0625033343098
0.062500791779
0.0624516948339
0.0621515036793
0.0607758301019
0.05552489884
0.0345927507311
0.031790175593
0.034592989584
0.0358117668167
0.0361145144384
0.0361694977592
0.036177152183
0.0361776398662
0.0361773828987
0.0361772151611
0.036177164239
0.0361771661291
0.0361772317702
0.0361774074216
0.0361776620781
0.0361771622399
0.0361695018859
0.0361144675374
0.0358116410512
0.0345927538665
0.0317900775289
0.0318045056224
0.0347601988899
0.0361156828239
0.0364700286505
0.0365377678354
0.0365478186581
0.0365488375056
0.036548786844
0.0365487964444
0.0365488557546
0.0365488595054
0.0365488191781
0.0365488227816
0.0365488746296
0.0365478468401
0.0365378242347
0.0364700925781
0.0361157279727
0.0347602200049
0.0318045131731
0.0347602151684
0.0564819145119
0.0621543070461
0.063710039124
0.0640676658525
0.0641299950892
0.0641345047318
0.06413107317
0.0641282240116
0.0641269559366
0.0641269858048
0.0641283165916
0.0641312121923
0.064134692458
0.0641301597361
0.0640679538093
0.0637103208471
0.0621545035037
0.05648199766
0.034760177146
0.0361156972131
0.0621543563326
0.0693615485521
0.0715524295046
0.0721390990037
0.0722668675642
0.0722876980849
0.0722889159886
0.0722879144164
0.0722873339296
0.0722873527
0.0722879743783
0.0722890195016
0.0722878344275
0.0722670282121
0.0721393092622
0.071552655651
0.0693617242286
0.0621543757833
0.0361156398828
0.0364700528915
0.0637101256243
0.0715524642487
0.0740460730518
0.0747548511248
0.0749216245156
0.0749532191363
0.0749576458219
0.0749578817013
0.0749577955187
0.0749578078033
0.07495792198
0.074957708025
0.0749533011683
0.0749217502499
0.0747550317234
0.0740462763161
0.0715526148709
0.0637100810332
0.036469999102
0.0365377998244
0.0640677810285
0.0721391513306
0.0747548674536
0.0755150990625
0.0756986250536
0.0757342223244
0.0757392819129
0.0757397071506
0.0757397857242
0.0757397993634
0.0757397536865
0.0757393478157
0.0757342971536
0.0756987196761
0.0755152616751
0.0747550776326
0.0721393048991
0.0640677352159
0.0365377571253
0.0365478513348
0.0641300964498
0.0722669185722
0.0749216410734
0.0756986403463
0.0758860551898
0.0759215398775
0.0759259342401
0.0759256543759
0.0759254132242
0.0759254301768
0.0759257146898
0.0759260292504
0.0759216349773
0.0758861405059
0.0756987708721
0.0749218663289
0.0722671024195
0.064130096264
0.0365478316239
0.0365488694206
0.0641345933941
0.0722877329422
0.0749532392018
0.0757342698922
0.0759215615134
0.075955897507
0.0759584221415
0.0759559760054
0.0759546318737
0.0759546628601
0.0759560734755
0.0759585802906
0.0759560501831
0.0759216650685
0.0757343679186
0.074953451888
0.0722879596552
0.0641346048058
0.0365488492433
0.0365488186576
0.0641311226252
0.0722889232664
0.0749576735578
0.0757393518331
0.0759259489372
0.0759583961885
0.0759574001424
0.0759507002688
0.0759471901294
0.0759472394982
0.07595084354
0.0759576354175
0.0759586121087
0.075926086398
0.0757394279743
0.0749578647312
0.0722891897166
0.0641311517146
0.0365488067977
0.0365488192162
0.064128247545
0.0722878911107
0.0749578986874
0.0757397661326
0.075925635464
0.0759558878549
0.0759506069219
0.0759387662536
0.0759326609574
0.0759327271938
0.0759389543453
0.0759509009927
0.0759561542669
0.0759258130634
0.0757398609514
0.0749581003535
0.072288200062
0.0641283699335
0.0365488274243
0.0365488651626
0.0641269387899
0.0722872898445
0.0749577970616
0.0757398238708
0.0759253653653
0.075954494138
0.075947025744
0.0759325766186
0.0759251649622
0.0759252392094
0.0759328117654
0.0759473738553
0.0759548014035
0.0759255740027
0.075739939712
0.0749580129716
0.0722876217367
0.0641270998709
0.0365488878935
0.0365488663552
0.064126951956
0.0722872948756
0.0749577995265
0.0757398288134
0.0759253729283
0.0759544879437
0.0759470124759
0.0759325611469
0.0759251545363
0.0759252303095
0.0759328001441
0.075947361379
0.0759548006447
0.0759255822854
0.0757399435054
0.0749580121632
0.0722876172347
0.0641270880904
0.0365488858155
0.0365488187677
0.0641282589805
0.0722879033328
0.0749579063614
0.0757397817644
0.0759256585143
0.0759558723272
0.0759505728982
0.0759387354872
0.0759326500891
0.0759327169408
0.0759389292377
0.0759508721333
0.0759561421452
0.0759258391679
0.0757398720326
0.0749580985358
0.07228819044
0.0641283292075
0.0365488195921
0.0365488254807
0.0641311628756
0.0722889488963
0.074957686546
0.0757393758771
0.0759259838003
0.0759583739931
0.0759573420505
0.0759506445634
0.0759471521795
0.0759472052959
0.0759508020276
0.075957586611
0.0759586015469
0.0759261271583
0.075739444656
0.0749578599788
0.0722891774377
0.0641310978119
0.0365487914059
0.036548876424
0.0641346244138
0.0722877669876
0.0749532622095
0.075734297405
0.0759216223161
0.0759559211558
0.0759583915661
0.0759559400856
0.075954603522
0.0759546409277
0.0759560553606
0.0759585674691
0.0759560837856
0.075921725686
0.0757343795888
0.0749534467169
0.0722879491726
0.064134595532
0.0365488394599
0.0365478509589
0.0641301005587
0.0722669745991
0.0749216985546
0.0756986860589
0.0758861409509
0.0759216394932
0.0759260149555
0.075925729299
0.0759254868459
0.0759255091533
0.0759258015478
0.0759261200935
0.0759217348237
0.0758862141086
0.075698790361
0.0749218771292
0.0722670829009
0.06412998542
0.0365478078816
0.0365378315364
0.0640678990909
0.0721392662515
0.0747549847572
0.0755152095894
0.0756987216875
0.0757343331597
0.0757394086886
0.0757398327292
0.0757399033333
0.0757399178787
0.0757398794722
0.0757394701276
0.0757343960293
0.0756987922873
0.0755153276261
0.0747551187605
0.0721392977416
0.0640676838516
0.0365377365913
0.0364700988296
0.0637102689975
0.0715526167279
0.0740462342185
0.074755015303
0.0749217825945
0.074953363097
0.0749577761106
0.0749580079989
0.074957921289
0.0749579337219
0.0749580456757
0.0749578301459
0.0749534258185
0.0749218693854
0.0747551237925
0.0740463170901
0.0715525759254
0.0637099209916
0.0364699425668
0.0361157374823
0.0621544636747
0.0693616833183
0.071552559661
0.0721392308877
0.072266997018
0.0722878179395
0.0722890252309
0.0722880319681
0.0722874523026
0.0722874715277
0.0722880806953
0.0722891123368
0.0722879294151
0.0722671006267
0.0721393300207
0.0715526030733
0.0693615839858
0.0621540995027
0.0361155185558
0.034760225881
0.0564819798585
0.0621543252175
0.063709986433
0.0640676307045
0.0641299572194
0.0641344314771
0.0641309664323
0.0641281799383
0.0641268928937
0.0641269364707
0.0641282298043
0.0641310582585
0.0641346163888
0.0641300522605
0.0640677660511
0.0637099957568
0.0621541490951
0.0564815254923
0.034759925542
0.0318045172155
0.0347601822191
0.0361156373836
0.0364699868646
0.0365377307489
0.0365478006741
0.0365488041387
0.0365487551002
0.0365487727197
0.036548830918
0.0365488375611
0.0365487871337
0.036548778067
0.0365488405485
0.0365478120466
0.0365377452514
0.0364699559524
0.0361155278665
0.0347599457237
0.0318044002781
0.031807905985
0.0347890333678
0.0361733853119
0.0365403131453
0.0366116947773
0.036622895729
0.0366245480484
0.0366250712088
0.0366254558525
0.0366257152511
0.036625722333
0.0366254780045
0.0366250992595
0.0366245861458
0.0366229286772
0.0366117502868
0.0365403731112
0.0361734432768
0.0347890497862
0.0318078950985
0.034789065429
0.0566684054304
0.062462542633
0.064076904951
0.064454929942
0.064523268194
0.0645297900635
0.0645276150891
0.0645255070941
0.0645246095055
0.0645246614944
0.0645256072167
0.0645277257965
0.0645300170504
0.0645234920788
0.0644552042339
0.0640771433841
0.0624627116849
0.0566684645583
0.0347890228546
0.0361734157969
0.0624625821129
0.0698566289615
0.0721434118095
0.0727680648975
0.0729076901538
0.0729320274885
0.0729345632087
0.0729341073525
0.0729337323307
0.0729337543992
0.07293417569
0.0729346671283
0.072932166027
0.072907877149
0.0727682963642
0.0721436477811
0.0698568117212
0.0624626238162
0.0361733255432
0.0365403306115
0.064076967807
0.0721434403119
0.0747554302747
0.0755137378208
0.0756968851162
0.0757332459302
0.0757390369154
0.0757395162442
0.075739405965
0.0757394185549
0.0757395589082
0.0757391037526
0.0757333271963
0.0756969942004
0.0755139142975
0.0747556699546
0.07214362762
0.0640769851294
0.0365402778571
0.0366117258178
0.0644550509577
0.0727681013566
0.0755137567801
0.0763295987136
0.0765319652919
0.0765732918758
0.0765796328189
0.0765794723637
0.0765789220269
0.0765789306704
0.0765795046212
0.0765796953396
0.076573364542
0.0765320215205
0.0763296802712
0.0755139617129
0.0727683248373
0.0644550048664
0.0366116739752
0.0366229224867
0.0645233457646
0.0729077184809
0.0756969788555
0.0765320844182
0.076740114313
0.0767813226725
0.0767846915306
0.0767804973425
0.0767777666072
0.0767777771016
0.0767805418643
0.0767847851772
0.0767814217425
0.0767401291757
0.0765319859872
0.0756970270934
0.0729079851321
0.0645234204179
0.0366229052978
0.0366245703435
0.064529839471
0.0729320635987
0.0757334837311
0.0765735485206
0.0767814070373
0.0768181950462
0.0768121524329
0.0767964243194
0.0767877091984
0.0767877366533
0.0767965161224
0.0768123129239
0.0768183462299
0.0767813886738
0.076573250464
0.0757332586895
0.07293229316
0.0645300021099
0.0366245744688
0.0366250786583
0.0645275232272
0.0729346077115
0.075739381435
0.076579950194
0.0767847679781
0.0768121119612
0.0767873489291
0.0767491790689
0.076729197869
0.0767292540255
0.0767493269132
0.0767875887693
0.0768123422373
0.0767847602656
0.0765795372593
0.0757389504779
0.072934780571
0.0645278123043
0.036625102416
0.0366254607915
0.0645254038335
0.0729341312711
0.0757398719215
0.076579779271
0.0767805199023
0.076796294591
0.0767490427405
0.0766845564516
0.0766517903575
0.0766518023126
0.0766847468325
0.076749294256
0.0767965578719
0.0767805434787
0.0765793533156
0.0757394083324
0.0729343208103
0.0645257729357
0.0366255053833
0.0366257078648
0.0645244842201
0.0729337284002
0.0757397417866
0.0765792109002
0.0767777459726
0.076787531959
0.0767290253976
0.076651751169
0.0766127158186
0.0766125701794
0.0766518964673
0.0767291197443
0.0767877665118
0.0767777894526
0.0765788011582
0.075739304667
0.0729339624461
0.0645248842561
0.0366257646871
0.0366257089967
0.0645244825804
0.0729337330958
0.0757397447967
0.0765792066895
0.0767777276358
0.0767875176329
0.0767290120777
0.0766516979105
0.0766125839934
0.0766125441959
0.0766519012815
0.0767291154299
0.0767877637303
0.076777780997
0.0765788064247
0.0757393122031
0.0729339627649
0.0645248735654
0.0366257630446
0.0366254630115
0.0645254322298
0.0729341459787
0.0757398816815
0.0765797687485
0.0767804639937
0.0767962550444
0.0767490245325
0.076684539048
0.0766517596601
0.076651764358
0.0766846800594
0.0767492782702
0.0767965395304
0.0767805162123