/*--------------------------------*- C++ -*----------------------------------*\
| =========                 |                                                 |
| \\      /  F ield         | OpenFOAM: The Open Source CFD Toolbox           |
|  \\    /   O peration     | Version:  3.0.1                                 |
|   \\  /    A nd           | Web:      www.OpenFOAM.org                      |
|    \\/     M anipulation  |                                                 |
\*---------------------------------------------------------------------------*/
FoamFile
{
    version     2.0;
    format      ascii;
    class       volScalarField;
    location    "0.3";
    object      rAU;
}
// * * * * * * * * * * * * * * * * * * * * * * * * * * * * * * * * * * * * * //

dimensions      [-1 3 1 0 0 0 0];

internalField   nonuniform List<scalar> 
7968
(
1.03952029415e-05
1.03617417792e-05
1.03610513994e-05
1.0361010403e-05
1.03610524677e-05
1.03606138545e-05
1.03603936047e-05
1.03606457379e-05
1.03607768137e-05
1.03608166089e-05
1.03608151634e-05
1.03607748396e-05
1.03606432213e-05
1.036041426e-05
1.03606387891e-05
1.03610572385e-05
1.03610033612e-05
1.03610582955e-05
1.03617440942e-05
1.03951914448e-05
1.03617410637e-05
1.02865410507e-05
1.02722945517e-05
1.02688860352e-05
1.02681946339e-05
1.02680519443e-05
1.02679527235e-05
1.02679902294e-05
1.02680275294e-05
1.02680557511e-05
1.02680556054e-05
1.02680268268e-05
1.02679905469e-05
1.02679586098e-05
1.02680553003e-05
1.02681996372e-05
1.02688828736e-05
1.02722969734e-05
1.02865416414e-05
1.03617420891e-05
1.03610626745e-05
1.02723086591e-05
1.02496062724e-05
1.02431838138e-05
1.02418313624e-05
1.02415806682e-05
1.02415735833e-05
1.02416246274e-05
1.02416895458e-05
1.02417146983e-05
1.02417132074e-05
1.02416903473e-05
1.02416244986e-05
1.02415792484e-05
1.02415888913e-05
1.02418375647e-05
1.02431866276e-05
1.02496069229e-05
1.02723100165e-05
1.03610748925e-05
1.03610350349e-05
1.02689371571e-05
1.02432231387e-05
1.02356040922e-05
1.02338720609e-05
1.02336367055e-05
1.02336846819e-05
1.0233873587e-05
1.02340353179e-05
1.02341120353e-05
1.02341096835e-05
1.02340317893e-05
1.02338705594e-05
1.0233683841e-05
1.02336428522e-05
1.02338719441e-05
1.0235606714e-05
1.02432246509e-05
1.02689334344e-05
1.03610356245e-05
1.03611090406e-05
1.02682748587e-05
1.02418576506e-05
1.02338810542e-05
1.02320731871e-05
1.02317085373e-05
1.02318003128e-05
1.02320631131e-05
1.02322226032e-05
1.02322397873e-05
1.02322342773e-05
1.02322108877e-05
1.02320530323e-05
1.02317939805e-05
1.02317023897e-05
1.02320730135e-05
1.02338841281e-05
1.02418627559e-05
1.02682722625e-05
1.03611150046e-05
1.03606397094e-05
1.02680903437e-05
1.02415770324e-05
1.02336152656e-05
1.0231666719e-05
1.02311949202e-05
1.02309981825e-05
1.02309177926e-05
1.02307398992e-05
1.02305537756e-05
1.02305521528e-05
1.02307432187e-05
1.02309169114e-05
1.02309971167e-05
1.02311913475e-05
1.02316692025e-05
1.02336146679e-05
1.0241580952e-05
1.02680828418e-05
1.03605897703e-05
1.03603611361e-05
1.02679639269e-05
1.02415642286e-05
1.02336401187e-05
1.02317526533e-05
1.02309576529e-05
1.02305091243e-05
1.02305096557e-05
1.02304190997e-05
1.02302556315e-05
1.02302610025e-05
1.02304322463e-05
1.02305204045e-05
1.02305173217e-05
1.02309622424e-05
1.02317551599e-05
1.02336377604e-05
1.02415690263e-05
1.02679493111e-05
1.03603020354e-05
1.03606434342e-05
1.02680034696e-05
1.02416084731e-05
1.02338408121e-05
1.02319815485e-05
1.02309008399e-05
1.02305351952e-05
1.02311485092e-05
1.02314287722e-05
1.02314376548e-05
1.02314420234e-05
1.02314304535e-05
1.02311527383e-05
1.02305369345e-05
1.02309269238e-05
1.0231998239e-05
1.02338319149e-05
1.02416118148e-05
1.02679919668e-05
1.03606379415e-05
1.03607783947e-05
1.02680328898e-05
1.02416905928e-05
1.02340057695e-05
1.02321577945e-05
1.02307198909e-05
1.02304782173e-05
1.02314487935e-05
1.02318421839e-05
1.02318810373e-05
1.02318840986e-05
1.02318421863e-05
1.02314504793e-05
1.02304768959e-05
1.02307535414e-05
1.02321802818e-05
1.02339933395e-05
1.02416936793e-05
1.02680273516e-05
1.03607752309e-05
1.03608189501e-05
1.02680643718e-05
1.02417148523e-05
1.02341003631e-05
1.02321635901e-05
1.02305397212e-05
1.0230331287e-05
1.02314675965e-05
1.02318929761e-05
1.02319470302e-05
1.02319485368e-05
1.02318921839e-05
1.02314696447e-05
1.02303278657e-05
1.02305796725e-05
1.02321913506e-05
1.02340877338e-05
1.0241716181e-05
1.02680589714e-05
1.03608104688e-05
1.03608209042e-05
1.02680642595e-05
1.02417151117e-05
1.02341017606e-05
1.02321621723e-05
1.02305375036e-05
1.02303339241e-05
1.02314736439e-05
1.02318979891e-05
1.02319499685e-05
1.02319506222e-05
1.02318946541e-05
1.02314758865e-05
1.02303321318e-05
1.02305792419e-05
1.02321920574e-05
1.02340876248e-05
1.024171655e-05
1.0268060487e-05
1.0360812572e-05
1.03607843117e-05
1.0268036393e-05
1.02416910796e-05
1.02340084745e-05
1.02321535073e-05
1.02307227393e-05
1.02304866819e-05
1.0231454964e-05
1.02318497557e-05
1.02318882078e-05
1.02318903857e-05
1.02318515206e-05
1.02314575707e-05
1.02304885456e-05
1.02307586037e-05
1.02321756196e-05
1.02339948805e-05
1.02416951067e-05
1.02680329183e-05
1.03607815484e-05
1.03606559511e-05
1.02680025688e-05
1.02416087308e-05
1.02338435302e-05
1.02319814838e-05
1.02308988799e-05
1.023054814e-05
1.02311641275e-05
1.02314483684e-05
1.02314589705e-05
1.02314644758e-05
1.02314524866e-05
1.02311717158e-05
1.02305540878e-05
1.02309308067e-05
1.02320021857e-05
1.02338358915e-05
1.02416139179e-05
1.02680010248e-05
1.03606596636e-05
1.03603799343e-05
1.02679585525e-05
1.02415682807e-05
1.02336438795e-05
1.02317498585e-05
1.02309537387e-05
1.02305138146e-05
1.02305258115e-05
1.0230449224e-05
1.02302932734e-05
1.02302991426e-05
1.02304631238e-05
1.02305410587e-05
1.02305302439e-05
1.02309682664e-05
1.02317573187e-05
1.02336400133e-05
1.02415774094e-05
1.0267962038e-05
1.03603756382e-05
1.03606399119e-05
1.02680828088e-05
1.02415808074e-05
1.02336169153e-05
1.0231665428e-05
1.02311844149e-05
1.0230982588e-05
1.02309122691e-05
1.02307370134e-05
1.02305518747e-05
1.02305530144e-05
1.02307447601e-05
1.023091833e-05
1.02309924206e-05
1.02311882933e-05
1.02316671043e-05
1.02336162147e-05
1.02415843617e-05
1.02680836232e-05
1.03606363268e-05
1.03611016989e-05
1.02682699621e-05
1.02418602369e-05
1.02338844419e-05
1.02320709025e-05
1.02316967976e-05
1.0231786265e-05
1.02320468748e-05
1.02321995092e-05
1.02322112573e-05
1.02322085031e-05
1.02321903694e-05
1.02320426088e-05
1.02317855e-05
1.02316942623e-05
1.02320687122e-05
1.02338839076e-05
1.02418617071e-05
1.02682660637e-05
1.03611000424e-05
1.03610287546e-05
1.02689331243e-05
1.02432241846e-05
1.02356093115e-05
1.02338684435e-05
1.02336339722e-05
1.02336774919e-05
1.02338626276e-05
1.02340259765e-05
1.02341032258e-05
1.02340996207e-05
1.02340222274e-05
1.02338612202e-05
1.0233678529e-05
1.02336371767e-05
1.02338691332e-05
1.0235611436e-05
1.02432310736e-05
1.02689366347e-05
1.03610253546e-05
1.03610751754e-05
1.02723120219e-05
1.02496071535e-05
1.02431907006e-05
1.02418394586e-05
1.02415834382e-05
1.02415749834e-05
1.02416242441e-05
1.02416923019e-05
1.02417177022e-05
1.02417168709e-05
1.02416913795e-05
1.02416257683e-05
1.02415833383e-05
1.0241592483e-05
1.02418491616e-05
1.02431930057e-05
1.02496142213e-05
1.02723170098e-05
1.03610747322e-05
1.03617447756e-05
1.0286543001e-05
1.02722948701e-05
1.02688846535e-05
1.02682037669e-05
1.02680404109e-05
1.02679389183e-05
1.02679860025e-05
1.02680260465e-05
1.02680546616e-05
1.02680547297e-05
1.02680270728e-05
1.02679901589e-05
1.02679588918e-05
1.02680576617e-05
1.02682034416e-05
1.02688849888e-05
1.02723005786e-05
1.02865584535e-05
1.03617498268e-05
1.03951923475e-05
1.03617371305e-05
1.03610606375e-05
1.03610170198e-05
1.03610713558e-05
1.03605824851e-05
1.03603420789e-05
1.03606483288e-05
1.03607714741e-05
1.03608087483e-05
1.03608097456e-05
1.03607727615e-05
1.03606447367e-05
1.03603994725e-05
1.03606355932e-05
1.0361060908e-05
1.03610042766e-05
1.03610620513e-05
1.0361746506e-05
1.03951972117e-05
1.0361738328e-05
1.02866492321e-05
1.02724405367e-05
1.0269124663e-05
1.02685446704e-05
1.02682698065e-05
1.0268141277e-05
1.02682826948e-05
1.02683940881e-05
1.0268438848e-05
1.02684371895e-05
1.02683922779e-05
1.02682764693e-05
1.02681453497e-05
1.02682805362e-05
1.02685464323e-05
1.02691195248e-05
1.02724406789e-05
1.02866432156e-05
1.03617275495e-05
1.02866555881e-05
9.92654316226e-06
9.79075056811e-06
9.75560074442e-06
9.74847407272e-06
9.74737274553e-06
9.74730946747e-06
9.74739569837e-06
9.74748984308e-06
9.74753404e-06
9.74753344464e-06
9.74748762129e-06
9.74739232489e-06
9.74730850437e-06
9.74737306654e-06
9.7484699634e-06
9.75559511807e-06
9.79074193407e-06
9.92653621197e-06
1.028665123e-05
1.02724534526e-05
9.79075547644e-06
9.58492048356e-06
9.52355052851e-06
9.50923697193e-06
9.50662828495e-06
9.50627850568e-06
9.50629813997e-06
9.50635310194e-06
9.50638497444e-06
9.50638396753e-06
9.50635039506e-06
9.50629417055e-06
9.50627586937e-06
9.50662609751e-06
9.50923307204e-06
9.52354370174e-06
9.58491132556e-06
9.79074548364e-06
1.02724604786e-05
1.02691514309e-05
9.75560788725e-06
9.52355175047e-06
9.45021721118e-06
9.43214842603e-06
9.42859630106e-06
9.42792482089e-06
9.42796496938e-06
9.42803913235e-06
9.42804652948e-06
9.42804381999e-06
9.42803333217e-06
9.42795776631e-06
9.4279148078e-06
9.42859025237e-06
9.43214121308e-06
9.45020841803e-06
9.5235405118e-06
9.75559797394e-06
1.02691493921e-05
1.02685658406e-05
9.74848406645e-06
9.50923186534e-06
9.43214384076e-06
9.41270103438e-06
9.40909013182e-06
9.40885182898e-06
9.40900444522e-06
9.40909264162e-06
9.40909889289e-06
9.40909758223e-06
9.40908518869e-06
9.40899627461e-06
9.40884477274e-06
9.40908087203e-06
9.41268905821e-06
9.43213328231e-06
9.50922144399e-06
9.74847466446e-06
1.02685660174e-05
1.02682668837e-05
9.74737379627e-06
9.50661917004e-06
9.42858312241e-06
9.40908158088e-06
9.40578685369e-06
9.40571730935e-06
9.40601109035e-06
9.4061213396e-06
9.40608806573e-06
9.4060864431e-06
9.40611716648e-06
9.40600429334e-06
9.40570910166e-06
9.40577938691e-06
9.40906912676e-06
9.42857032536e-06
9.50660763701e-06
9.7473623557e-06
1.02682574773e-05
1.02681066741e-05
9.74729953122e-06
9.5062617984e-06
9.42792045569e-06
9.40883454706e-06
9.40571244095e-06
9.40593140378e-06
9.40642311164e-06
9.40657955187e-06
9.40654790789e-06
9.40654717122e-06
9.40657573242e-06
9.40641653759e-06
9.40592241651e-06
9.40570029115e-06
9.40882439886e-06
9.4279053813e-06
9.50624878982e-06
9.74728835183e-06
1.02680968793e-05
1.02682663604e-05
9.74738583337e-06
9.50628537735e-06
9.42794358256e-06
9.40899057145e-06
9.40600886145e-06
9.40643213293e-06
9.40707503771e-06
9.40732533654e-06
9.40733035168e-06
9.407328865e-06
9.40731871055e-06
9.40706631442e-06
9.40642168154e-06
9.40599364558e-06
9.40897446264e-06
9.42792470309e-06
9.50627171109e-06
9.74737663993e-06
1.02682675786e-05
1.02683910613e-05
9.74748902077e-06
9.50634129096e-06
9.4280254551e-06
9.40908123486e-06
9.40613498195e-06
9.40660454273e-06
9.40734010084e-06
9.40765208459e-06
9.40769704553e-06
9.40769668459e-06
9.40764355869e-06
9.40732935108e-06
9.40659091375e-06
9.40611822018e-06
9.40906258473e-06
9.42800149816e-06
9.50632725032e-06
9.74748016923e-06
1.02683893262e-05
1.02684404285e-05
9.74753714795e-06
9.50638208783e-06
9.42803617323e-06
9.40910019583e-06
9.40611036165e-06
9.40658357975e-06
9.40734920982e-06
9.40769686489e-06
9.40775620341e-06
9.40775946046e-06
9.40768898651e-06
9.40733976469e-06
9.40656463971e-06
9.40609140315e-06
9.40908215758e-06
9.42801103452e-06
9.50636726807e-06
9.74752826914e-06
1.02684391481e-05
1.02684425307e-05
9.74753846484e-06
9.50638198194e-06
9.4280350833e-06
9.40909956682e-06
9.40611042587e-06
9.40658449139e-06
9.40735042078e-06
9.40769628154e-06
9.40775570134e-06
9.40775637263e-06
9.40768621185e-06
9.4073407714e-06
9.4065664801e-06
9.40609240664e-06
9.40908297476e-06
9.42801052456e-06
9.50636791038e-06
9.74752955153e-06
1.02684412348e-05
1.02683954445e-05
9.74749003998e-06
9.50634220898e-06
9.42802452148e-06
9.40907768524e-06
9.40613599817e-06
9.40660813236e-06
9.40734140951e-06
9.40764735941e-06
9.40769235196e-06
9.40768991385e-06
9.40764069385e-06
9.40733008953e-06
9.40659442501e-06
9.40612118273e-06
9.40906206892e-06
9.42800166296e-06
9.5063289404e-06
9.74748416248e-06
1.02683950398e-05
1.0268272039e-05
9.74738416682e-06
9.50628447739e-06
9.42794285643e-06
9.40899028422e-06
9.40601225133e-06
9.40643690544e-06
9.40707682791e-06
9.40732439402e-06
9.40732714168e-06
9.40732722524e-06
9.4073190026e-06
9.40706948512e-06
9.40642750808e-06
9.40599833655e-06
9.40897728399e-06
9.42792559514e-06
9.50627390318e-06
9.74738118413e-06
1.0268276046e-05
1.02681082018e-05
9.74729672933e-06
9.50626044911e-06
9.42791456168e-06
9.40883488162e-06
9.40571313171e-06
9.40593569464e-06
9.40642785171e-06
9.40658294993e-06
9.40654892974e-06
9.40654905933e-06
9.4065797708e-06
9.40642323692e-06
9.40592887376e-06
9.40570249973e-06
9.4088254388e-06
9.42790563308e-06
9.50625144733e-06
9.74729439482e-06
1.02681191689e-05
1.02682573787e-05
9.74736851788e-06
9.50661876387e-06
9.42857965932e-06
9.40907878736e-06
9.40578552607e-06
9.40571701377e-06
9.40601191373e-06
9.40612186837e-06
9.4060872566e-06
9.40608627257e-06
9.40611816297e-06
9.40600650336e-06
9.40570993927e-06
9.40577875509e-06
9.40906848318e-06
9.42856989827e-06
9.50661077198e-06
9.74736332245e-06
1.02682590575e-05
1.02685591069e-05
9.74848078386e-06
9.50922896159e-06
9.43214010124e-06
9.41269016475e-06
9.40908477558e-06
9.40884705681e-06
9.40899993605e-06
9.40908774767e-06
9.40909306143e-06
9.40909201898e-06
9.40907975835e-06
9.40899380386e-06
9.40884195641e-06
9.40907774207e-06
9.41268247302e-06
9.43213354824e-06
9.50922332962e-06
9.74847592706e-06
1.02685509599e-05
1.02691490578e-05
9.75560229535e-06
9.52354568716e-06
9.45021008766e-06
9.43213869272e-06
9.4285834387e-06
9.42790974508e-06
9.42795495409e-06
9.42802972806e-06
9.42803676889e-06
9.42803440899e-06
9.42802487192e-06
9.42795033392e-06
9.42790373965e-06
9.42858036323e-06
9.43213647841e-06
9.45020917079e-06
9.5235474432e-06
9.75560626476e-06
1.02691479413e-05
1.02724595127e-05
9.79074938402e-06
9.58491168402e-06
9.52354143875e-06
9.50922832192e-06
9.50661728824e-06
9.50626636337e-06
9.5062854712e-06
9.50633967306e-06
9.50637176362e-06
9.50637087424e-06
9.50633784156e-06
9.50628305777e-06
9.50626550716e-06
9.50661734591e-06
9.50922829376e-06
9.5235459113e-06
9.58492161344e-06
9.79075698116e-06
1.02724594505e-05
1.02866514861e-05
9.92653760855e-06
9.79074271969e-06
9.75559293314e-06
9.74846717768e-06
9.74736264142e-06
9.74729731366e-06
9.74738630368e-06
9.74748099857e-06
9.74752546589e-06
9.74752502185e-06
9.74748037955e-06
9.74738499355e-06
9.74729956223e-06
9.74736437829e-06
9.74846521462e-06
9.75559860732e-06
9.79074898371e-06
9.92654829283e-06
1.0286658082e-05
1.03617315431e-05
1.02866457069e-05
1.02724471803e-05
1.0269125693e-05
1.02685537974e-05
1.02682563506e-05
1.02681197624e-05
1.02682781271e-05
1.02683900964e-05
1.0268435669e-05
1.02684351938e-05
1.02683903785e-05
1.026827304e-05
1.0268138619e-05
1.02682725894e-05
1.02685452481e-05
1.02691230506e-05
1.0272443756e-05
1.02866471392e-05
1.03617410938e-05
1.03606209553e-05
1.02722935686e-05
1.0249827413e-05
1.02435498864e-05
1.02422772441e-05
1.02420547536e-05
1.02420266503e-05
1.02420906501e-05
1.02421577696e-05
1.02421807771e-05
1.02421829116e-05
1.02421567158e-05
1.02420807087e-05
1.02420324541e-05
1.02420620505e-05
1.0242271367e-05
1.02435471585e-05
1.02498235164e-05
1.02722914034e-05
1.03606160427e-05
1.02723092726e-05
9.79079104845e-06
9.58522872712e-06
9.52408642286e-06
9.50994877469e-06
9.507519485e-06
9.50730464007e-06
9.50741430891e-06
9.5075245696e-06
9.50758397658e-06
9.50758361664e-06
9.5075219102e-06
9.50740881029e-06
9.50730058612e-06
9.50751405618e-06
9.50993781034e-06
9.5240707617e-06
9.58521374899e-06
9.79077937799e-06
1.027231464e-05
1.02498473481e-05
9.58523603503e-06
9.25760188018e-06
9.14486835578e-06
9.11491262973e-06
9.10865406415e-06
9.1076127131e-06
9.1075067915e-06
9.10755472283e-06
9.10759415291e-06
9.10759245393e-06
9.10755004651e-06
9.10749906137e-06
9.107604443e-06
9.1086458239e-06
9.11490029053e-06
9.14485174801e-06
9.25758186843e-06
9.58522688088e-06
1.02498516615e-05
1.02435759953e-05
9.5240932746e-06
9.14486327023e-06
9.00599142419e-06
8.96679880363e-06
8.95814167532e-06
8.95678533895e-06
8.95666362331e-06
8.95666119744e-06
8.95665118857e-06
8.95665082386e-06
8.95666009962e-06
8.95666094744e-06
8.95677842566e-06
8.9581296136e-06
8.96678317407e-06
9.00597131979e-06
9.14484328792e-06
9.52408225659e-06
1.0243577514e-05
1.02423174456e-05
9.50994945314e-06
9.11490227301e-06
8.96679048707e-06
8.92434581168e-06
8.91498594271e-06
8.91360849868e-06
8.91374903374e-06
8.9138387004e-06
8.91378987855e-06
8.91378941246e-06
8.91384173281e-06
8.91374337734e-06
8.91359557774e-06
8.91497117942e-06
8.92433065867e-06
8.96676754849e-06
9.11487986366e-06
9.50994086144e-06
1.02423180598e-05
1.02420574258e-05
9.507514342e-06
9.10863997131e-06
8.95812226715e-06
8.91498169184e-06
8.90602768395e-06
8.90623419833e-06
8.90766773958e-06
8.90811828407e-06
8.90807493816e-06
8.90807897342e-06
8.90812502242e-06
8.90764114064e-06
8.90616896221e-06
8.90597781565e-06
8.91495519935e-06
8.95809704972e-06
9.1086152972e-06
9.50750235174e-06
1.02420450928e-05
1.0242009238e-05
9.50729885484e-06
9.10759473724e-06
8.9567713164e-06
8.91360212982e-06
8.90626347486e-06
8.90882870265e-06
8.91171950455e-06
8.91256766962e-06
8.91254981925e-06
8.91255457517e-06
8.9125776964e-06
8.91167089968e-06
8.9086949144e-06
8.90613704495e-06
8.91355739214e-06
8.95674612551e-06
9.10756889153e-06
9.50728790285e-06
1.02420051415e-05
1.02420746461e-05
9.50740566386e-06
9.1074910016e-06
8.95664788724e-06
8.91376336117e-06
8.90775499508e-06
8.91178887942e-06
8.91551066126e-06
8.91662562309e-06
8.91666870467e-06
8.91666889214e-06
8.91663212522e-06
8.91544986646e-06
8.91161612713e-06
8.90756718874e-06
8.91369080364e-06
8.95661515939e-06
9.107464079e-06
9.50739807527e-06
1.02420836024e-05
1.02421499095e-05
9.50752242027e-06
9.10754289964e-06
8.95665235675e-06
8.91387032233e-06
8.90823232818e-06
8.91266539339e-06
8.91665329122e-06
8.91792104102e-06
8.91808857121e-06
8.91809992688e-06
8.91792359851e-06
8.91658906763e-06
8.91248100171e-06
8.90802784849e-06
8.9137852743e-06
8.95661660122e-06
9.10751692898e-06
9.50751527102e-06
1.02421556537e-05
1.02421824715e-05
9.50758764625e-06
9.10758506637e-06
8.95664621776e-06
8.91382951357e-06
8.908182667e-06
8.91262733334e-06
8.91666025505e-06
8.91803871346e-06
8.91829425358e-06
8.91833587197e-06
8.91805539499e-06
8.91660318476e-06
8.91243811338e-06
8.90797732532e-06
8.91374842502e-06
8.95661001626e-06
9.10756138273e-06
9.50758009994e-06
1.02421850327e-05
1.02421847498e-05
9.50758852901e-06
9.10758447061e-06
8.9566467797e-06
8.91382742218e-06
8.90817016501e-06
8.9125999935e-06
8.91662256647e-06
8.91799571461e-06
8.91826063079e-06
8.91829047148e-06
8.91801089178e-06
8.91656828402e-06
8.91241152997e-06
8.9079662669e-06
8.91374580061e-06
8.95661073871e-06
9.10756240222e-06
9.50758124601e-06
1.02421854403e-05
1.02421555311e-05
9.50752298202e-06
9.10753952789e-06
8.95665275018e-06
8.91386379276e-06
8.90819628104e-06
8.91259109652e-06
8.91655583729e-06
8.91779998862e-06
8.91796980074e-06
8.91797815997e-06
8.91781251864e-06
8.91648842607e-06
8.91240732167e-06
8.90799576303e-06
8.9137782346e-06
8.95661826129e-06
9.10752029631e-06
9.50751952617e-06
1.02421614134e-05
1.02420728232e-05
9.50740306318e-06
9.10748627737e-06
8.95664841618e-06
8.91375965054e-06
8.90771924502e-06
8.91169939724e-06
8.91538062144e-06
8.91648341782e-06
8.91652139118e-06
8.91652675649e-06
8.91648965537e-06
8.91531894674e-06
8.91152726847e-06
8.90753348308e-06
8.91368538306e-06
8.95661777198e-06
9.1074683667e-06
9.50740334122e-06
1.02420865037e-05
1.02420090559e-05
9.50729527406e-06
9.10758959335e-06
8.95676672795e-06
8.91360172768e-06
8.90625335808e-06
8.90878397671e-06
8.91164175826e-06
8.91247697966e-06
8.91245118533e-06
8.9124540988e-06
8.91248140755e-06
8.91158843109e-06
8.90864682436e-06
8.90612389876e-06
8.91355404875e-06
8.95674560497e-06
9.10757322195e-06
9.50729298224e-06
1.02420183504e-05
1.02420532919e-05
9.50751088812e-06
9.10863452943e-06
8.95810577755e-06
8.91497694298e-06
8.90602701904e-06
8.90623389174e-06
8.90766110154e-06
8.90810625466e-06
8.90805744105e-06
8.90805938027e-06
8.90810678914e-06
8.90762704967e-06
8.90616225987e-06
8.90597256714e-06
8.91495233892e-06
8.95809592389e-06
9.10861923772e-06
9.50750706765e-06
1.0242047834e-05
1.02423079911e-05
9.50994211284e-06
9.11489317752e-06
8.9667748837e-06
8.92432785701e-06
8.91497517381e-06
8.91359842137e-06
8.91374133795e-06
8.91383123428e-06
8.91377970383e-06
8.91377790535e-06
8.91382975414e-06
8.91373107339e-06
8.91358068744e-06
8.91496143794e-06
8.9243196877e-06
8.9667647922e-06
9.11488273803e-06
9.50994179157e-06
1.0242304647e-05
1.02435762538e-05
9.5240830902e-06
9.14484849105e-06
9.00597188732e-06
8.96677276577e-06
8.95810393428e-06
8.95676356149e-06
8.95664970921e-06
8.95664709188e-06
8.95663796683e-06
8.95663793463e-06
8.95664710051e-06
8.95664859966e-06
8.95675955718e-06
8.95810692578e-06
8.9667697704e-06
9.00596592038e-06
9.14484724161e-06
9.52408874798e-06
1.02435764036e-05
1.0249847809e-05
9.58522480091e-06
9.25758330603e-06
9.1448482081e-06
9.11489036724e-06
9.10862747907e-06
9.10758352632e-06
9.10747301159e-06
9.10751909657e-06
9.10755891265e-06
9.10755885647e-06
9.10751989346e-06
9.107472754e-06
9.10758243779e-06
9.1086269127e-06
9.11488812764e-06
9.14484954405e-06
9.25758737189e-06
9.5852399754e-06
1.02498555788e-05
1.02723139983e-05
9.79077902143e-06
9.58521986033e-06
9.5240753614e-06
9.50994234634e-06
9.50750699221e-06
9.50729417289e-06
9.50740614478e-06
9.50751693928e-06
9.50757622822e-06
9.50757595844e-06
9.50751680645e-06
9.50740534066e-06
9.50729303541e-06
9.50750695535e-06
9.50993810124e-06
9.52407338041e-06
9.58522757619e-06
9.79079936801e-06
1.02723236062e-05
1.03606425804e-05
1.02722966509e-05
1.0249830011e-05
1.02435534307e-05
1.02422863849e-05
1.02420433372e-05
1.02420191277e-05
1.02420931654e-05
1.02421612819e-05
1.02421841728e-05
1.02421850122e-05
1.02421634057e-05
1.02420880586e-05
1.02420294907e-05
1.02420554035e-05
1.02422755255e-05
1.02435541376e-05
1.024982977e-05
1.0272298376e-05
1.03606879643e-05
1.03605538255e-05
1.02686701428e-05
1.02433645698e-05
1.02358605196e-05
1.02342441751e-05
1.0234034828e-05
1.0234028172e-05
1.02340576689e-05
1.0234063754e-05
1.02340567183e-05
1.02340593178e-05
1.02340674462e-05
1.02340540978e-05
1.02340271291e-05
1.02340393979e-05
1.02342386671e-05
1.02358562532e-05
1.02433638002e-05
1.02686614729e-05
1.03605535578e-05
1.02686918748e-05
9.75548545061e-06
9.52388650883e-06
9.45091409173e-06
9.43317590395e-06
9.42991794308e-06
9.42953810321e-06
9.4295721415e-06
9.4296523479e-06
9.42969081762e-06
9.4296909125e-06
9.42965060869e-06
9.42956739675e-06
9.42953092963e-06
9.42990998939e-06
9.4331604726e-06
9.45089680753e-06
9.5238704528e-06
9.75547837109e-06
1.02686899025e-05
1.02433929274e-05
9.52389099057e-06
9.14498760997e-06
9.00641577621e-06
8.96746675569e-06
8.9589181771e-06
8.95748613746e-06
8.95733952888e-06
8.95735935726e-06
8.95738019087e-06
8.95737933763e-06
8.95735965262e-06
8.95733647241e-06
8.95747841435e-06
8.95890765811e-06
8.96745368032e-06
9.00639427092e-06
9.14496648328e-06
9.52388239649e-06
1.02433946626e-05
1.02358918789e-05
9.45092307205e-06
9.00641060914e-06
8.83276089935e-06
8.78092542807e-06
8.76921697367e-06
8.76820097865e-06
8.768764817e-06
8.7689553041e-06
8.76894234428e-06
8.76894639245e-06
8.76896542051e-06
8.7687520732e-06
8.76815630891e-06
8.76917753416e-06
8.78090390186e-06
8.83273782633e-06
9.00638588286e-06
9.45091577817e-06
1.02358971398e-05
1.02342658508e-05
9.43317855178e-06
8.9674532234e-06
8.7809170949e-06
8.72486270916e-06
8.71400648364e-06
8.71528353624e-06
8.71756009813e-06
8.71816253825e-06
8.71812614612e-06
8.71813771387e-06
8.71819042143e-06
8.7175152591e-06
8.71512061012e-06
8.71383614897e-06
8.72477695002e-06
8.78088276417e-06
8.96742649186e-06
9.43316931547e-06
1.02342670956e-05
1.02340531903e-05
9.42991603999e-06
8.95889649289e-06
8.7692055454e-06
8.71404666311e-06
8.70679096691e-06
8.71126002699e-06
8.71479599761e-06
8.71567196492e-06
8.71566810696e-06
8.7156876947e-06
8.71573160624e-06
8.71472935798e-06
8.71093374835e-06
8.70638252796e-06
8.71378699815e-06
8.76912504997e-06
8.95886761249e-06
9.42990261063e-06
1.02340520469e-05
1.0234035091e-05
9.42952790763e-06
8.95746740356e-06
8.76822542147e-06
8.7154375669e-06
8.71144562067e-06
8.71728097035e-06
8.72134361323e-06
8.72246231503e-06
8.72257939271e-06
8.72258491181e-06
8.72253676453e-06
8.72126724151e-06
8.71681380821e-06
8.71079389033e-06
8.71497363164e-06
8.7680573461e-06
8.95742558221e-06
9.42951723797e-06
1.02340365125e-05
1.02340532532e-05
9.4295642412e-06
8.95732945539e-06
8.76885708127e-06
8.71784903177e-06
8.71520396218e-06
8.72158164675e-06
8.72602561274e-06
8.72747193632e-06
8.72778227279e-06
8.72773200314e-06
8.72750107974e-06
8.72593502656e-06
8.72105019159e-06
8.71440158307e-06
8.71724829972e-06
8.76861455981e-06
8.95727564943e-06
9.42955476478e-06
1.02340622945e-05
1.02340651688e-05
9.42964607938e-06
8.95735524237e-06
8.7690745354e-06
8.71849351961e-06
8.7161216579e-06
8.72269475676e-06
8.72744806178e-06
8.72926019852e-06
8.72979624882e-06
8.72974440049e-06
8.72923649678e-06
8.72735806379e-06
8.72215600145e-06
8.71528251996e-06
8.71785780682e-06
8.76881065507e-06
8.9573004143e-06
9.42963509424e-06
1.02340692584e-05
1.02340653518e-05
9.42968980135e-06
8.95737338027e-06
8.76905262603e-06
8.71841395325e-06
8.7160265289e-06
8.7226715293e-06
8.72760352538e-06
8.72967227037e-06
8.73043513922e-06
8.73043125657e-06
8.72965688186e-06
8.72752925646e-06
8.72213688669e-06
8.71519673603e-06
8.71778731031e-06
8.76879109374e-06
8.95732396147e-06
9.42968130295e-06
1.02340653042e-05
1.02340646406e-05
9.429690457e-06
8.95737320295e-06
8.76904532923e-06
8.71838020489e-06
8.71595812487e-06
8.72260477999e-06
8.72753667042e-06
8.72961896396e-06
8.73040834258e-06
8.73036489312e-06
8.72960316115e-06
8.72748467239e-06
8.72207161448e-06
8.71513577426e-06
8.71775883451e-06
8.76878638664e-06
8.95732580341e-06
9.42968230627e-06
1.02340637058e-05
1.02340678799e-05
9.42964551721e-06
8.95735358283e-06
8.76905306152e-06
8.71839240839e-06
8.7159011676e-06
8.72242923242e-06
8.72717223408e-06
8.72898786314e-06
8.72953179777e-06
8.72949572116e-06
8.72900317612e-06
8.72709355212e-06
8.72189260506e-06
8.7150833768e-06
8.7177747169e-06
8.76879664557e-06
8.95730547264e-06
9.42963992879e-06
1.02340713098e-05
1.02340516149e-05
9.4295611763e-06
8.95732596292e-06
8.76883426981e-06
8.71772447178e-06
8.71489809536e-06
8.7211545531e-06
8.72551540151e-06
8.72695200476e-06
8.72723896229e-06
8.72722085291e-06
8.72698971402e-06
8.72542603756e-06
8.72062574629e-06
8.71411775878e-06
8.71713918405e-06
8.76859938042e-06
8.95728185382e-06
9.42956106817e-06
1.02340647443e-05
1.02340307917e-05
9.42952482569e-06
8.95746420384e-06
8.76821833305e-06
8.71536077408e-06
8.71120775427e-06
8.71694329925e-06
8.72094038669e-06
8.72202284305e-06
8.72209255236e-06
8.72210010928e-06
8.7220788738e-06
8.72083990766e-06
8.71646433137e-06
8.71056045314e-06
8.71490316254e-06
8.76805324626e-06
8.95743365179e-06
9.42952334859e-06
1.023403581e-05
1.02340580125e-05
9.42991411006e-06
8.95889169022e-06
8.76919246925e-06
8.71402063648e-06
8.7066845532e-06
8.71108457878e-06
8.7145967437e-06
8.71545756562e-06
8.71543377121e-06
8.71544574176e-06
8.71548967399e-06
8.71449411157e-06
8.71073332843e-06
8.70626661377e-06
8.7137637101e-06
8.76912437239e-06
8.95887553604e-06
9.42991088233e-06
1.02340578364e-05
1.02342607477e-05
9.43316994028e-06
8.96744256975e-06
8.78090187714e-06
8.72484782931e-06
8.71398520058e-06
8.71524539832e-06
8.71749012411e-06
8.71808261471e-06
8.71804041966e-06
8.71804656863e-06
8.7180922089e-06
8.71742000465e-06
8.71506467517e-06
8.71381069599e-06
8.72476424752e-06
8.78087899287e-06
8.96743308368e-06
9.43317247965e-06
1.02342568149e-05
1.02358872443e-05
9.45091192566e-06
9.00639090486e-06
8.83273610438e-06
8.78089681776e-06
8.76917862974e-06
8.76817614069e-06
8.76874578384e-06
8.76893507541e-06
8.76891962513e-06
8.76892176929e-06
8.76894029327e-06
8.76872616225e-06
8.7681287866e-06
8.76915020669e-06
8.78088677307e-06
8.83273139476e-06
9.00638593261e-06
9.45092330248e-06
1.02358890855e-05
1.02433972362e-05
9.5238771349e-06
9.14496676907e-06
9.00638906677e-06
8.96743746024e-06
8.95888998823e-06
8.95745577134e-06
8.95730792119e-06
8.95732612964e-06
8.95734553028e-06
8.95734625425e-06
8.95732973616e-06
8.95731088472e-06
8.95745650528e-06
8.95889093393e-06
8.96744142431e-06
9.0063865002e-06
9.14496978117e-06
9.52389035507e-06
1.02433987133e-05
1.02686902369e-05
9.75548108643e-06
9.52387426301e-06
9.45090818088e-06
9.43316689544e-06
9.42990918463e-06
9.42952959721e-06
9.42956539154e-06
9.42964473573e-06
9.42968403893e-06
9.42968393537e-06
9.42964651684e-06
9.42956750827e-06
9.42952789602e-06
9.4299089716e-06
9.43316033542e-06
9.45090827682e-06
9.52387960229e-06
9.75549638094e-06
1.02687040471e-05
1.03605326462e-05
1.02686713068e-05
1.02433738957e-05
1.02358673039e-05
1.02342494026e-05
1.02340331141e-05
1.02340373201e-05
1.02340654896e-05
1.02340738811e-05
1.02340685572e-05
1.02340678238e-05
1.02340787221e-05
1.02340701595e-05
1.02340336528e-05
1.02340424166e-05
1.02342429365e-05
1.02358607692e-05
1.02433689172e-05
1.02686799416e-05
1.03605002344e-05
1.03611289465e-05
1.02680200442e-05
1.02416012559e-05
1.02337068132e-05
1.02318631824e-05
1.0231365883e-05
1.02310965432e-05
1.02307770703e-05
1.02305313981e-05
1.02303901842e-05
1.0230394562e-05
1.02305402308e-05
1.02307958884e-05
1.02310935238e-05
1.02313717204e-05
1.02318624315e-05
1.02337164661e-05
1.02416161645e-05
1.0268039361e-05
1.03610889512e-05
1.02680234987e-05
9.74789395046e-06
9.50948110805e-06
9.43274975564e-06
9.41371506147e-06
9.40999758589e-06
9.40937292742e-06
9.40926841124e-06
9.40925523849e-06