/*--------------------------------*- C++ -*----------------------------------*\
| =========                 |                                                 |
| \\      /  F ield         | OpenFOAM: The Open Source CFD Toolbox           |
|  \\    /   O peration     | Version:  3.0.1                                 |
|   \\  /    A nd           | Web:      www.OpenFOAM.org                      |
|    \\/     M anipulation  |                                                 |
\*---------------------------------------------------------------------------*/
FoamFile
{
    version     2.0;
    format      ascii;
    class       volScalarField;
    location    "5.9";
    object      ddt0(k);
}
// * * * * * * * * * * * * * * * * * * * * * * * * * * * * * * * * * * * * * //

dimensions      [0 2 -3 0 0 0 0];

internalField   nonuniform List<scalar> 
7968
(
-0.000128708588633
-0.000140394306181
-0.000149181352868
-0.000154328776929
-0.000157022335856
-0.000158221792376
-0.000158551484229
-0.000158145189839
-0.000158047563908
-0.000158054226831
-0.000158228432183
-0.000158501731737
-0.000158890971157
-0.000159160325212
-0.000158759064539
-0.000157418579501
-0.000154524985596
-0.000149163689758
-0.000140222499188
-0.000128608950788
-0.00014039384586
-0.000190778419524
-0.000223614767616
-0.000242843143616
-0.000253833807927
-0.000259848017584
-0.000262925560796
-0.000264498196338
-0.000265542354147
-0.000266611800928
-0.000267907780897
-0.000269267607864
-0.000270190268929
-0.000269831419304
-0.000267069166674
-0.000260421744546
-0.000247921638479
-0.000226597350759
-0.000191606471815
-0.00014017257764
-0.000149186361335
-0.000223603265571
-0.000271321346566
-0.000299509383928
-0.000316096685918
-0.00032572349825
-0.000331289915468
-0.000334759102195
-0.000337400160876
-0.000339907453623
-0.000342515177554
-0.000344888584075
-0.000346280428485
-0.000345496185975
-0.000340874820464
-0.000330307271738
-0.000311011757792
-0.000278803065261
-0.000226486505349
-0.00014907360892
-0.000154326956087
-0.00024273099937
-0.000299312247693
-0.000332990596745
-0.000353211535893
-0.00036546554603
-0.00037317985834
-0.000378544726422
-0.000383181675814
-0.000387516053666
-0.000391352740303
-0.000394217826391
-0.000395564285346
-0.00039440005975
-0.000388421597882
-0.000375101463479
-0.00035113930648
-0.000311637007274
-0.000248090182976
-0.000154421715512
-0.000156993019287
-0.000253425132917
-0.000315361949932
-0.000352544678114
-0.000375339199699
-0.00038976835929
-0.000399772949473
-0.000407901270275
-0.000414481718048
-0.000420112056611
-0.000424980098949
-0.000428481398273
-0.000429667980752
-0.000427127687564
-0.000419742071729
-0.000404352229862
-0.000377032919213
-0.000332431317857
-0.000261407272277
-0.000157282206842
-0.00015812839405
-0.000258877508846
-0.000324017056273
-0.000363553650889
-0.000388455319129
-0.000405346927758
-0.00041812420411
-0.000427794717793
-0.000435649426
-0.000442348623057
-0.000448029497146
-0.000452022862459
-0.000453317717769
-0.000450273002575
-0.000440876761167
-0.000423420396422
-0.000393602759954
-0.000345383288807
-0.000269270584593
-0.000158725798676
-0.000158369982711
-0.000261139150143
-0.000328179619414
-0.000369472101349
-0.000396384764633
-0.000415989451718
-0.000430179124759
-0.000441066304602
-0.000449929944616
-0.00045741448611
-0.000463651693757
-0.000467957373242
-0.000469298147895
-0.000465930768914
-0.000455598365732
-0.000435690508563
-0.000403888181737
-0.000353107223026
-0.000273611127329
-0.000159265347683
-0.000158090602384
-0.000261668053623
-0.000329875707696
-0.000372609283582
-0.000401937934364
-0.00042282772289
-0.000438104029656
-0.000449889529493
-0.000459436527125
-0.000467404967567
-0.000473960372459
-0.000478432876655
-0.000479765575507
-0.000476156103565
-0.000465234185639
-0.000444181603049
-0.000410019326782
-0.000357447097744
-0.000275778991858
-0.000159243522562
-0.000157664825835
-0.000261470635169
-0.00033045241756
-0.000374699933151
-0.000405541367836
-0.000427336280625
-0.000443388235949
-0.00045574176503
-0.000465687432861
-0.000473905149292
-0.00048058268426
-0.000485077874989
-0.000486373422783
-0.000482579385524
-0.000471255920257
-0.00044946900745
-0.000413726970318
-0.000359812241914
-0.000276783080643
-0.000159196725299
-0.000157450159784
-0.000261214021606
-0.000330788874277
-0.000376372143547
-0.00040801481972
-0.000430485901677
-0.000447034880375
-0.000459683522623
-0.000469787778826
-0.000478053905984
-0.000484714687033
-0.000489149038994
-0.00049035458899
-0.000486405182844
-0.000474795717551
-0.000452548589491
-0.000416105548953
-0.000361068474268
-0.000277239010502
-0.00015916085537
-0.000157319127388
-0.000261262256512
-0.000331348455227
-0.000377680320854
-0.00040987169536
-0.000432758931684
-0.000449565147587
-0.000462319546029
-0.000472407962971
-0.000480570910155
-0.000487101080614
-0.000491411870236
-0.000492470932849
-0.000488336376351
-0.000476485763898
-0.000453932104829
-0.000417131383357
-0.000361675987517
-0.000277464325002
-0.000159176165375
-0.000157459802229
-0.000261691214323
-0.0003321101911
-0.000378533336195
-0.000410923043775
-0.000433948964986
-0.000450789087008
-0.000463499552905
-0.000473454329597
-0.00048143476459
-0.000487759400671
-0.000491852239303
-0.000492674993108
-0.000488300756684
-0.000476232306236
-0.000453518122574
-0.000416717683896
-0.000361557959209
-0.000277446110622
-0.000159240062313
-0.000157837425674
-0.000262105263278
-0.000332480560022
-0.000377957384119
-0.000410341302639
-0.000433252056036
-0.000449878986016
-0.000462359606783
-0.000472059807132
-0.000479769771541
-0.000485807113378
-0.00048960383628
-0.00049010846074
-0.000485461892161
-0.000473240097378
-0.000450630129499
-0.000414564557447
-0.000360078008377
-0.000276761974472
-0.000159305400707
-0.000157983713266
-0.000261727797076
-0.000331426111586
-0.0003760402506
-0.000406900707564
-0.000429196883985
-0.000445274242486
-0.000457253094002
-0.000466506484462
-0.000473816528925
-0.000479462286801
-0.00048289245408
-0.0004830619666
-0.000478199692875
-0.000466026738486
-0.000443981280716
-0.000409462771329
-0.000356208059003
-0.0002746757431
-0.000159344140284
-0.00015773111223
-0.000259505305023
-0.000327448250189
-0.000370550403023
-0.000399076838289
-0.000419762649812
-0.000434859466539
-0.00044598585501
-0.000454519656523
-0.000461225312242
-0.000466346171986
-0.000469353095901
-0.000469227160535
-0.00046433497095
-0.000452713030935
-0.000432309969774
-0.000399487902349
-0.000348465784574
-0.000270182251109
-0.000158600366001
-0.000156623009029
-0.000253952404723
-0.000318443220583
-0.000358993492408
-0.000385294602457
-0.000402978034087
-0.000416031796042
-0.000425844116868
-0.000433337096724
-0.000439187887944
-0.000443618283889
-0.000446160367888
-0.000445879450397
-0.00044136714146
-0.000431241426342
-0.00041280253945
-0.000382368523457
-0.000335024337628
-0.00026199085599
-0.000157126455362
-0.000154007680415
-0.000243015009761
-0.00030154897971
-0.00033793327841
-0.000361113345351
-0.000376163073762
-0.000386244482627
-0.000393408717794
-0.000399495933729
-0.000404215018421
-0.0004078006191
-0.000409571080769
-0.00040981814523
-0.000406604003255
-0.000398048627334
-0.000381874167769
-0.000355160065756
-0.000313375965758
-0.000248355116973
-0.00015409982125
-0.000148924442964
-0.00022355121589
-0.000272407405474
-0.000302315872431
-0.000320914420838
-0.000332560859092
-0.000339937400478
-0.000344859018528
-0.000348525290598
-0.000351565522261
-0.000354180416668
-0.000356031842161
-0.000356332141825
-0.000353898360978
-0.000347238819257
-0.000334513221083
-0.000313245129538
-0.000279530512099
-0.000226401990981
-0.000148756368191
-0.000140195776749
-0.000190415405968
-0.000223546111727
-0.00024344605055
-0.000255339745232
-0.000262341446576
-0.000266382512888
-0.000268796801509
-0.000270479552734
-0.000271923658157
-0.000273308209325
-0.000274430643273
-0.000274754683049
-0.00027346667889
-0.000269579075069
-0.000261800744703
-0.000248301790609
-0.000226364012414
-0.000191186512281
-0.00014003911468
-0.00012863685163
-0.000140167467653
-0.00014887270428
-0.000153963771555
-0.000156661595203
-0.000157928118434
-0.000158365344014
-0.000158351050294
-0.000158367254547
-0.000158450491439
-0.000158725829126
-0.000158973566299
-0.000159234129982
-0.000159094263361
-0.000158557998107
-0.000157121516483
-0.000154251322354
-0.000148948341854
-0.000140042714908
-0.000128569260364
-0.000139949850327
-0.000189134291314
-0.000221293309407
-0.000240262195405
-0.000251353599887
-0.00025772778733
-0.000261338998377
-0.000263767883147
-0.000265096844011
-0.000266299371037
-0.000267637026807
-0.000268934601808
-0.000269571832995
-0.000268667983489
-0.000265530490706
-0.000258629935028
-0.000246065806158
-0.000224940011913
-0.000190462312575
-0.000139863617652
-0.00018907479268
-0.000371691599602
-0.000455362511125
-0.00050361101292
-0.000532587252859
-0.000550462356037
-0.000562064167167
-0.000570396091796
-0.000577174049614
-0.000583394780335
-0.000589248288811
-0.000594031145558
-0.000596511603766
-0.000594752581802
-0.000586175088006
-0.000567300418571
-0.000533315587061
-0.000476735120713
-0.000382940710256
-0.000190336012679
-0.000221161185047
-0.000455124319756
-0.000561746570822
-0.00062499141054
-0.000664603739097
-0.000690348370925
-0.000708012515686
-0.000721253130726
-0.000732324174194
-0.000742320813594
-0.000751460664392
-0.000758692130212
-0.000762312544745
-0.00075978907188
-0.000747651182169
-0.000721460617297
-0.000675199909511
-0.000599725918406
-0.000477020235444
-0.000224753898413
-0.000239928402604
-0.000502653976665
-0.000624069057526
-0.000698023490755
-0.000745973935875
-0.000778250680624
-0.000801147254564
-0.000818511300872
-0.000833800507202
-0.000847167197082
-0.000859106801811
-0.000868290598264
-0.000872637548171
-0.000869293474817
-0.000854184615217
-0.00082229029808
-0.000766864716108
-0.000677828588743
-0.000535328911129
-0.000246173760957
-0.000250627494882
-0.000530274294865
-0.000661854011941
-0.000743937312144
-0.000798520396952
-0.00083568142623
-0.000863886781639
-0.000885432313228
-0.00090369301938
-0.000919944122666
-0.00093424788132
-0.000945012389474
-0.000949983093845
-0.000945825292962
-0.000928038458068
-0.000891492408644
-0.000828938043382
-0.000729703944456
-0.000572935036893
-0.000259495983791
-0.000256377995194
-0.000546035133234
-0.000684739816919
-0.000773021475175
-0.000832500995692
-0.000875264615492
-0.000906640318667
-0.000931449257146
-0.000952612081593
-0.000971374420964
-0.000987622525142
-0.000999581952633
-0.00100486452774
-0.000999889203088
-0.000980059569408
-0.000939600594213
-0.00087138498307
-0.000764424131946
-0.000597296784652
-0.000267619414349
-0.000259129026514
-0.000554767668018
-0.000698555025703
-0.00079160054157
-0.000855759217207
-0.000901656925583
-0.000936041485888
-0.000963615139157
-0.000987219731649
-0.00100800764668
-0.00102571668823
-0.00103849729512
-0.00104386231476
-0.0010380994106
-0.00101646383396
-0.000973073576544
-0.000900281797986
-0.000787458260692
-0.000612864206316
-0.000272360362473
-0.000260293752918
-0.000559585965706
-0.00070706911029
-0.000803206447549
-0.000871212849129
-0.000919929801504
-0.000956776220778
-0.000986515112347
-0.00101196668353
-0.00103417009689
-0.00105282934621
-0.00106606326162
-0.00107130830086
-0.00106479965224
-0.00104164967074
-0.000995849556954
-0.000919750273583
-0.00080246145428
-0.000622567237564
-0.000274928613265
-0.000260617066468
-0.000562425688747
-0.000712784168248
-0.000812366684098
-0.000882403605299
-0.000933293805892
-0.000971976032885
-0.00100321681821
-0.00102985574626
-0.00105288849379
-0.00107194171798
-0.00108520925524
-0.00109021040354
-0.00108303200612
-0.00105869683062
-0.00101110784684
-0.000932567948662
-0.000812070009826
-0.000628452470206
-0.00027615200943
-0.000260530907575
-0.000564583439726
-0.000717248905132
-0.000819156490257
-0.000891142486323
-0.000943659253652
-0.000983566765049
-0.00101562802553
-0.00104281971613
-0.00106606164724
-0.00108503185985
-0.00109802636121
-0.00110263737237
-0.00109487000687
-0.00106963647938
-0.001020759483
-0.000940506246387
-0.000817845265992
-0.000631815335454
-0.000276682663336
-0.000260643262268
-0.000566600690761
-0.000721117519228
-0.000824755815706
-0.000898160133824
-0.000951700601985
-0.000992232668777
-0.00102454938896
-0.00105167787116
-0.00107461887634
-0.00109315515004
-0.00110567703318
-0.00110978524059
-0.00110145308505
-0.00107552371157
-0.00102576481412
-0.000944439771281
-0.000820580927413
-0.00063332057952
-0.000276871645625
-0.000261053517791
-0.000568272636197
-0.000723972558715
-0.000828569463984
-0.000902718513129
-0.000956638288364
-0.000997219856094
-0.00102930172208
-0.00105586932128
-0.00107813677245
-0.00109598843938
-0.00110789305726
-0.00111138947517
-0.00110249219549
-0.00107603038535
-0.00102577344218
-0.000944055365962
-0.000819993438909
-0.000632789427476
-0.000276726550059
-0.000261084832886
-0.000568682055309
-0.000724521522166
-0.000828931276776
-0.000902970343094
-0.000956536043446
-0.000996585475972
-0.00102791623939
-0.00105357268129
-0.00107484260289
-0.00109179762174
-0.00110290105779
-0.0011056927908
-0.00109624388905
-0.00106945758149
-0.00101920013144
-0.000938045188464
-0.000814864327975
-0.000629254932789
-0.000275817232032
-0.000260333449362
-0.00056611613903
-0.000720278838538
-0.00082314390529
-0.000895740207309
-0.000948108131169
-0.000986934684525
-0.00101697489
-0.00104127808447
-0.00106127739871
-0.00107710203643
-0.00108726378544
-0.00108932224411
-0.00107945271708
-0.00105272488092
-0.00100320671054
-0.00092343093816
-0.000803078009365
-0.000621128165139
-0.000273326896892
-0.000257704975522
-0.000558251984199
-0.000708336954816
-0.000807546960538
-0.000877049181127
-0.000927053376396
-0.000963772510936
-0.000991874620922
-0.00101436812941
-0.00103274365851
-0.00104718166698
-0.00105627102902
-0.0010576335861
-0.0010476123233
-0.00102153740703
-0.000973768457824
-0.000897162250981
-0.00078153986434
-0.000606110257857
-0.00026877515486
-0.000251853436615
-0.000541781102413
-0.000684517632622
-0.000777597305672
-0.000842041826944
-0.000887920418721
-0.000921524696707
-0.000946948319384
-0.000967071503558
-0.000983411092801
-0.000996169730808
-0.00100407654097
-0.00100482806396
-0.000995063675795
-0.000970377588393
-0.000925765575304
-0.000854399897446
-0.00074618113667
-0.000581084870077
-0.000260435227636
-0.000240833522185
-0.000511946287596
-0.000643022343698
-0.000726930852414
-0.00078400912061
-0.000824028931543
-0.000852962546526
-0.000874902538666
-0.00089201920038
-0.000905827620832
-0.000916594533652
-0.000923457804452
-0.00092347927207
-0.000914366331764
-0.000892396115623
-0.000852643788456
-0.000788810205621
-0.000691482774353
-0.00054170091567
-0.000246763420655
-0.000221602473768
-0.000461122193192
-0.000574786924737
-0.000645776731383
-0.000692860327955
-0.000725125299741
-0.000748004104095
-0.000765027049724
-0.000778299371587
-0.000789021440579
-0.000797376699178
-0.000802460419759
-0.00080252435229
-0.000795109512988
-0.00077698134654
-0.000744045621068
-0.000690826336519
-0.00060886039044
-0.000480895611972
-0.000224966808845
-0.000189068356349
-0.000374200550584
-0.000461596803357
-0.000514402427442
-0.000548120904449
-0.000570395379937
-0.000585686499889
-0.000596776894316
-0.000605337458247
-0.000612269254684
-0.00061773539234
-0.000621085470173
-0.000621061485704
-0.000615865373329
-0.000603088541176
-0.000579651538329
-0.000541230677397
-0.000480863120839
-0.000384406875741
-0.000190268596477
-0.000139813285748
-0.000189003472052
-0.00022156996676
-0.00024124845808
-0.000253228831923
-0.000260553656647
-0.000265064440068
-0.000267932284237
-0.000269832930416
-0.000271344563832
-0.000272682245655
-0.000273635351981
-0.000273649251851
-0.000272211951045
-0.000268034416588
-0.000260093476556
-0.000246650479464
-0.000224940018208
-0.000190240608469
-0.000139796111823
-0.000147659930778
-0.000216172351673
-0.000259327709584
-0.000284755119956
-0.000300137941543
-0.000309754334222
-0.000316122345226
-0.000320802725127
-0.000324735157204
-0.000328445425792
-0.000332135208193
-0.000335378743223
-0.000337395949
-0.000337037364822
-0.000332815619744
-0.000322793636576
-0.000304347032127
-0.000273451950585
-0.000223153730357
-0.000148163731823
-0.00021605595317
-0.000435393677032
-0.000534542991199
-0.000593579247303
-0.000631048890196
-0.000655931748982
-0.000673631284476
-0.000687664228285
-0.000700111007367
-0.000711993275536
-0.000723357756766
-0.000732962491375
-0.000739067671647
-0.000739054651663
-0.000729508666984
-0.000705986523556
-0.000662513633493
-0.000590001688019
-0.000470537790756
-0.000222954592163
-0.000258990402793
-0.000534063157985
-0.000660979833213
-0.000740466871894
-0.000793652875026
-0.000830244557534
-0.000856342644266
-0.000876693351505
-0.000893877070329
-0.000909739065184
-0.000924486663272
-0.000936557608235
-0.000943590236135
-0.000942234903917
-0.000928171900163
-0.000895845298627
-0.000837995373548
-0.000743828110076
-0.000591390057606
-0.000273454558895
-0.000283939344797
-0.000591976860983
-0.000739160364239
-0.00083478981707
-0.000900829414938
-0.000946955612527
-0.000979334523121
-0.00100519349782
-0.0010262489563
-0.00104498773059
-0.00106194445363
-0.00107533791313
-0.00108252468116
-0.00107954300338
-0.00106157256996
-0.00102236182797
-0.000953848818223
-0.000844127842527
-0.00066861457447
-0.000305607652835
-0.000298468109291
-0.000627411732741
-0.000790019920883
-0.000898535930944
-0.000974836618021
-0.00102882011893
-0.00106721679887
-0.0010964060711
-0.00112042880124
-0.00114154382587
-0.00116052141471
-0.00117529977031
-0.00118295453887
-0.0011785517175
-0.00115681560697
-0.00111190629893
-0.00103502151654
-0.000913397997479
-0.000720677337931
-0.000326595139592
-0.000306761966321
-0.00064918092322
-0.000823235001085
-0.000941556864538
-0.00102561558342
-0.00108491885159
-0.00112648734746
-0.00115916409996
-0.00118643976995
-0.00121018912583
-0.00123170570395
-0.00124845684245
-0.00125771048185
-0.00125307791066
-0.00122726822922
-0.00117654304272
-0.00109287635003
-0.000962019625169
-0.000756395567462
-0.000340373241978
-0.000311338564382
-0.000662722168916
-0.000845045660694
-0.000970558503704
-0.00106049483843
-0.00112072121939
-0.00116353325029
-0.00119899362113
-0.00122946731251
-0.00125616859298
-0.00128051027322
-0.0012996150189
-0.00131105922145
-0.00130801809889
-0.0012804111079
-0.00122377998582
-0.00113433143419
-0.000996254926693
-0.000780954088373
-0.000349279151613
-0.000313830038427
-0.000671721988194
-0.000860073089129
-0.000990818665084
-0.00108388304853
-0.00114404377384
-0.00118771143367
-0.00122503336217
-0.00125807126816
-0.0012873857843
-0.00131421018289
-0.00133526259122
-0.00134831744912
-0.00134634627288
-0.00131844326999
-0.0012581274624
-0.00116401011515
-0.0010202656078
-0.000797716074623
-0.000354869411519
-0.000315327151616
-0.000678632235663
-0.000871560871544
-0.00100623399917
-0.00110133731288
-0.00116229964328
-0.00120675944476
-0.00124531758919
-0.00128007035609
-0.00131113004161
-0.00133944034003
-0.00136153170956
-0.00137523675355
-0.0013733737183
-0.00134473245318
-0.00128231987493
-0.00118485160416
-0.00103687978743
-0.000808939798526
-0.000358218303227
-0.000316514951214
-0.000684818099625
-0.000881406856003
-0.00101897369588
-0.00111597699657
-0.00117816845768
-0.0012236035313
-0.00126308372987
-0.00129873092948
-0.00133046537285
-0.00135914788165
-0.00138134017254
-0.00139489591587
-0.0013925078195
-0.00136280453268
-0.00129872225817
-0.00119893125609
-0.00104800173722
-0.000816155348551
-0.000360100126955
-0.000317789547111
-0.000690640032417
-0.000890083170693
-0.00102974721967
-0.00112822013601
-0.00119152676854
-0.00123786167008
-0.00127790544617
-0.0013136590497
-0.0013450785804
-0.00137318546579
-0.00139470797794
-0.00140756971153
-0.00140440131571
-0.00137372928718
-0.00130842632689
-0.00120708619875
-0.00105422760582
-0.000820032391127
-0.000360961679067
-0.000319073028811
-0.000695446054459
-0.000896597791895
-0.00103734429827
-0.00113672234268
-0.00120091599827
-0.00124798173964
-0.00128820880875
-0.00132339694435
-0.00135373438951
-0.00138057684108
-0.00140086064453
-0.00141260689764
-0.0014084478704
-0.00137689672553
-0.00131081001287
-0.00120871560416
-0.00105498137962
-0.000820225407168
-0.000360773597119
-0.000319770758652
-0.000697789720331
-0.000898895830184
-0.00103906494147
-0.00113866949103
-0.00120325858387
-0.00125034510853
-0.00129003110147
-0.00132395044665
-0.00135258359473
-0.0013775803663
-0.00139612551699
-0.00140632137025
-0.00140103550511
-0.00136904542455
-0.00130334993752
-0.00120196365241
-0.00104884470975
-0.000815490965334
-0.000358929397936
-0.000318866963625
-0.000695268353054
-0.000893699942393
-0.00103132160398
-0.00112977230855
-0.00119501228474
-0.00124104376043
-0.00127902352931
-0.00131084553788
-0.00133729334715
-0.00136003225139
-0.00137645153605
-0.00138462033563
-0.00137788069574
-0.00134590385778
-0.00128270570397
-0.00118360405903
-0.00103299590174
-0.000803607072222
-0.000354410400576
-0.000314996475323
-0.000684717596313
-0.000876860791259
-0.00100906627363
-0.00110367547165
-0.00116969989335
-0.00121495962086
-0.00125017057427
-0.00127926077481
-0.00130340729254
-0.00132376060076
-0.00133805577997
-0.00134393915855
-0.00133543495884
-0.00130428819652
-0.00124482377595
-0.00114880757612
-0.00100340256577
-0.000781581593074
-0.000345934573439
-0.000306358205329
-0.000662155002867
-0.000843476016866
-0.000966833264083
-0.00105478847649
-0.00111756313304
-0.00116212912203
-0.00119514177347
-0.00122159877342
-0.00124365836371
-0.00126191144941
-0.00127443433604
-0.00127838607398
-0.00126855689673
-0.00123897022159
-0.00118283100655
-0.00109234840699
-0.000955121583737
-0.00074545906224
-0.000331821276729
-0.000290437727085
-0.000622224622366
-0.0007873059768
-0.000897896484698
-0.000976080673171
-0.00103188188851
-0.00107212249855
-0.00110253251768
-0.00112648711747
-0.00114641428236
-0.00116273933852
-0.00117377984446
-0.00117676212552
-0.00116692703571
-0.00113976950545
-0.00108887409584
-0.00100652494272
-0.000881375288705
-0.000689848565984
-0.000309738949673
-0.00026327224406
-0.00055655250806
-0.000698881164237
-0.000792215931626
-0.000857223358505
-0.00090343063744
-0.000937026788562
-0.000962538815803
-0.000983061619124
-0.00100020174811
-0.00101417473305
-0.00102347497579
-0.00102577890368
-0.00101745859113
-0.000994167136577
-0.000950556160625
-0.000879842236399
-0.000772048943339
-0.000606402227715
-0.000275966709406
-0.000217795335584
-0.000447904189622
-0.000557913242445
-0.000627702421178
-0.000674995138925
-0.00070822853368
-0.000732517314575
-0.000751237262569
-0.000766508160411
-0.000779355533212
-0.000789845387741
-0.000796852669437
-0.000798500577538
-0.000792187932488
-0.000774650848499
-0.000741835817138
-0.000688389047021
-0.000606086296514
-0.000478090651578
-0.00022381403187
-0.000147625436361
-0.000217709686713
-0.000263518209486
-0.000292058835502
-0.000310607514123
-0.00032312013996
-0.000331890362743
-0.000338354781779
-0.000343395420038
-0.000347520172819
-0.000350892668263
-0.000353153811537
-0.000353483674448
-0.000350802411891
-0.000343764210274
-0.000330682284883
-0.000309253201435
-0.000275809506205
-0.000223746253847
-0.00014817444447
-0.000149520181867
-0.000218649545441
-0.000263020424661
-0.000290443129948
-0.000308131598485
-0.000320044297896
-0.000328678532401
-0.000335765489947
-0.000342428275958
-0.000349233261373
-0.000356300106709
-0.000362845879305
-0.000367805211225
-0.000369637548452
-0.000366433517347
-0.000355839103977
-0.000334821978548
-0.000298890668369
-0.000240250828338
-0.000152406696059
-0.000218445497984
-0.000437882080534
-0.000549432833949
-0.000623498215946
-0.000674305653513
-0.000708719860311
-0.000732132639355
-0.000749200642605
-0.000763468336224
-0.000777194183892
-0.000791004292294
-0.000803359375783
-0.000812080866704
-0.000813853418766
-0.00080450010692
-0.00077875314108
-0.000729916095111
-0.000648203171209
-0.000514493075168
-0.000240050876866
-0.000262487235951
-0.000549048518554
-0.00070422555008
-0.000812621506987
-0.000889084434291
-0.000940461295637
-0.000973391650919
-0.00099425599443
-0.00100845624738
-0.00102127393211
-0.00103367137105
-0.00104432045236
-0.00105026573328
-0.00104748121681
-0.00103088624146
-0.000993889319413
-0.000928283473293
-0.000822249991246
-0.000651772437894
-0.000299698969589
-0.000289306517104
-0.000622304193984
-0.000811985481675
-0.000947610336606
-0.00104374093367
-0.00110663640124
-0.00114538412546
-0.0011696028852
-0.00118433175437
-0.00119494555488
-0.0012048402602
-0.00121280439588
-0.00121621556841
-0.0012092792739
-0.00118507411725
-0.00113889329432
-0.00106159498066
-0.000938824191574
-0.000742729786461
-0.000339004154794
-0.000305878597631
-0.00067165543183
-0.000887893522227
-0.00104416130323
-0.00115301966049
-0.00122238015099
-0.0012634407166
-0.00128915062479
-0.00130448654136
-0.00131436499019
-0.00132439642127
-0.00133306693162
-0.00133852147699
-0.0013321007526
-0.0013020649964
-0.00124494516277
-0.00115669851142
-0.0010216355541
-0.000806634028602
-0.000366013960211
-0.000315985334715
-0.000703967781707
-0.000939247428508
-0.00110918697265
-0.00122268107975
-0.00129065741539
-0.00133048849591
-0.00135793617261
-0.00137535847622
-0.00138707368103
-0.00140098146075
-0.00141390525176
-0.00142530102634
-0.0014242519837
-0.00139345022646
-0.00132777001372
-0.00122697520744
-0.00108162077205
-0.000852542780496
-0.000384940568206
-0.000322137532929
-0.000724803960826
-0.000972663677251
-0.00114858204493
-0.00126107424048
-0.00132404555119
-0.00136080318679
-0.00138893141918
-0.00140935514415
-0.00142539414879
-0.001445594344
-0.00146477864632
-0.00148333036638
-0.00148978727469
-0.00146163956558
-0.00139167009811
-0.00128099251357
-0.00112569209271
-0.000885916994108
-0.000398190679777
-0.000326219333428
-0.000739158545778
-0.000995234075846
-0.00117410800863
-0.00128276924109
-0.00133963628149
-0.00137245659971
-0.00139993232109
-0.00142359909589
-0.00144510771547
-0.00147203226948
-0.00149739604001
-0.00152174864564
-0.00153359993383
-0.00150898182145
-0.00143742290983
-0.00132154737636
-0.00115850984164
-0.000910395098712
-0.00040734438435
-0.000329590240957
-0.000750825591486
-0.00101191214679
-0.00119269450171
-0.00129935004396
-0.00135257194668
-0.00138242647582
-0.00140951121525
-0.00143609937072
-0.00146233615865
-0.00149432313362
-0.00152403181348
-0.00155180988866
-0.00156607111597
-0.00154256652349
-0.00147007245771
-0.00135117103389
-0.00118309638097
-0.000928380366206
-0.00041352615487
-0.000333018279786
-0.000761882182222
-0.00102616257624
-0.00120860885258
-0.00131514009223
-0.00136750906978
-0.00139692622241
-0.0014248765806
-0.00145375818046
-0.00148277857153
-0.00151721401384
-0.00154874918598
-0.00157769862118
-0.0015923379648
-0.00156828393178
-0.00149420500987
-0.00137275342361
-0.00120105667883
-0.000941290595856
-0.000417588637905
-0.000336804060836
-0.000772655820624
-0.00103902382872
-0.00122214674429
-0.00132930694967
-0.0013827893025
-0.00141384703007
-0.00144355600874
-0.00147369754355
-0.00150315600584
-0.00153738282967
-0.0015684186984
-0.00159680722199
-0.00161084885362
-0.00158594929443
-0.00151056020813
-0.00138729249319
-0.00121306150889
-0.000949688241414
-0.000419990857407
-0.000340527813562
-0.000781727739505
-0.00104861162713
-0.00123144610768
-0.00133975419615
-0.00139581683008
-0.00142993397104
-0.00146176096485
-0.00149202227542
-0.00152002862092
-0.00155210773564
-0.00158090822504
-0.00160746896348
-0.00162024413888
-0.00159436096872
-0.00151800170081
-0.00139372020276
-0.00121821108427
-0.000952934869537
-0.000420582483508
-0.000343249864444
-0.000786575408794
-0.00105130543469
-0.0012327681223
-0.00134187751547
-0.00140036738172
-0.00143721069372
-0.00147053949091
-0.00149979586197
-0.00152493531287
-0.00155330017059
-0.00157852934785
-0.00160213934925
-0.00161306102491
-0.00158666547075
-0.00151115511986
-0.00138832441906
-0.00121392302429
-0.000949188059732
-0.000418581762934
-0.000343493067617
-0.000783492884833
-0.00104213593978
-0.00122098733853
-0.00133143813373
-0.00139243599752
-0.00143005279948
-0.00146291212257
-0.00148987880186
-0.00151159166444
-0.00153549894103
-0.00155655180325
-0.00157614036977
-0.00158383631369
-0.00155664871301
-0.00148471442208
-0.00136674112086
-0.00119699405003
-0.000935742996262
-0.000412642966325
-0.000339417373498
-0.000768130665546
-0.00101559408039
-0.00118969768838
-0.00130168716132
-0.00136592861029
-0.00140423444572
-0.00143458553666
-0.00145850954466
-0.00147733786782
-0.0014971688985
-0.00151438474153
-0.00152915159124
-0.00153174718148
-0.00150350728016
-0.00143631187472
-0.00132622639096
-0.00116289469931
-0.000908910091078
-0.000401118546807
-0.000328965475938
-0.000736002074301
-0.000965930659408
-0.00112826664365
-0.00123927912343
-0.00130716358779
-0.00134711585212
-0.00137546249774
-0.00139697318262
-0.00141435758178
-0.00143146313304
-0.00144590537297
-0.00145596155114
-0.00145321691126
-0.00142440439367
-0.00136268756354
-0.00126120137255
-0.00110568115858
-0.00086398629013
-0.000381999317831
-0.000309620342749
-0.000682116603011
-0.000887304392415
-0.00103145433821
-0.0011331741188
-0.00120036654893
-0.00124221771554
-0.00127013839441
-0.00129088279061
-0.00130843240252
-0.00132483247941
-0.00133800400853
-0.00134500676958
-0.00133951924027
-0.00131143624332
-0.00125521182214
-0.00116188851982
-0.00101763566653
-0.000794832692768
-0.000352677903497
-0.000277697329737
-0.000599435449888
-0.000771864675929
-0.000891899823628
-0.000977007869252
-0.00103551073391
-0.00107483737577
-0.0011020907197
-0.00112330904071
-0.00114187378288
-0.0011585646864
-0.00117124405581
-0.00117711993234
-0.00117104258648
-0.00114665714685
-0.0010972759283
-0.00101464129013
-0.000887404576075
-0.000692425728251
-0.000309183067368
-0.000226581340787
-0.000472810052451
-0.000601498442661
-0.000689257218578
-0.000751288197388
-0.00079499056086
-0.000826068942766
-0.000849403016595