/*--------------------------------*- C++ -*----------------------------------*\
| =========                 |                                                 |
| \\      /  F ield         | OpenFOAM: The Open Source CFD Toolbox           |
|  \\    /   O peration     | Version:  3.0.1                                 |
|   \\  /    A nd           | Web:      www.OpenFOAM.org                      |
|    \\/     M anipulation  |                                                 |
\*---------------------------------------------------------------------------*/
FoamFile
{
    version     2.0;
    format      ascii;
    class       volScalarField;
    location    "5.9";
    object      ddt0(epsilon);
}
// * * * * * * * * * * * * * * * * * * * * * * * * * * * * * * * * * * * * * //

dimensions      [0 2 -4 0 0 0 0];

internalField   nonuniform List<scalar> 
7968
(
-0.000105171942444
-0.000122371282957
-0.000136187538462
-0.000144743992375
-0.000149470970357
-0.000151683854077
-0.000152363058952
-0.000151999672656
-0.000151821076257
-0.000151717560692
-0.000151939106952
-0.000152349724537
-0.000152824701879
-0.000153066889771
-0.000152235441039
-0.000149795995811
-0.000144816023773
-0.000136043374443
-0.000122133973353
-0.000105052969266
-0.000122358368843
-0.000203042454086
-0.000263718668116
-0.000302681845179
-0.000326271160705
-0.000339463320772
-0.000346021679019
-0.000348851202938
-0.000350163237339
-0.000351368540513
-0.000353112321142
-0.000355094452589
-0.000356204369272
-0.000354659539266
-0.000348128466616
-0.000333745966326
-0.000308005034445
-0.000266465294842
-0.000203546331314
-0.000122086945056
-0.000136174664567
-0.000263727616005
-0.000361057817722
-0.000424868582685
-0.000464788327533
-0.000488373784882
-0.00050142869456
-0.000508446280431
-0.000512722950966
-0.000516300342852
-0.000520051090925
-0.000523416663953
-0.00052467335721
-0.000521017242215
-0.000508630120282
-0.000482971366587
-0.000438686408007
-0.000369209510558
-0.000266305164045
-0.000135947012914
-0.00014475269991
-0.000302657473052
-0.000424732195616
-0.000505743504827
-0.000557348791257
-0.000588875572357
-0.0006075884587
-0.000618915948127
-0.000627498029045
-0.000634519339603
-0.000640112028141
-0.000643554083027
-0.000644070160137
-0.000638551064093
-0.000621580550788
-0.000587369298725
-0.000529254566102
-0.000439350663109
-0.000308061397221
-0.000144680276774
-0.000149494429965
-0.000326021987446
-0.000464106456415
-0.000556602230867
-0.000616401450656
-0.000654221478844
-0.000679512945691
-0.000697466402384
-0.000709923406865
-0.000719248361981
-0.000726551157311
-0.000730859693958
-0.000729834833789
-0.000719811163451
-0.000698397980538
-0.000657875890617
-0.000589812836697
-0.000485405271661
-0.000334616200986
-0.000149595539585
-0.000151687812556
-0.000338657453373
-0.000486535353212
-0.000586517834417
-0.000652471821074
-0.000697771482441
-0.000729449236667
-0.000750520403858
-0.000765197427395
-0.000776284067951
-0.00078495416561
-0.000790111274036
-0.000789117041769
-0.000777570094253
-0.000750232404797
-0.000703500865494
-0.000628394117251
-0.000514037942073
-0.000350287500757
-0.000152082794364
-0.000152312331464
-0.000344307031296
-0.000497778789134
-0.000602743762463
-0.000674748350849
-0.00072637721464
-0.000760915461828
-0.000784019507004
-0.000800189697758
-0.000812427829359
-0.000822027369983
-0.000827848213302
-0.000827086954343
-0.000814931647307
-0.000785324665052
-0.00073199614726
-0.000651374451703
-0.000530453708539
-0.000358593851981
-0.000153007086294
-0.000152062697564
-0.000345894694236
-0.000502402384686
-0.000610909359661
-0.000688973110003
-0.00074329961533
-0.000779657261935
-0.000803975218386
-0.000820933365344
-0.000833749973051
-0.000843883243929
-0.000850187175229
-0.00084970613513
-0.000837357825993
-0.000806678085507
-0.000750744478492
-0.000664000874696
-0.000538882873614
-0.000362287453836
-0.000153056411475
-0.00015154429139
-0.000345639845424
-0.000503797539914
-0.000615715351956
-0.000697083393579
-0.000753030667976
-0.000790498568782
-0.000815412423613
-0.00083268262781
-0.000845707516062
-0.000856068487241
-0.000862618358425
-0.000862367354943
-0.000849976443752
-0.000818740485445
-0.000761394508941
-0.000670957861499
-0.000542829912405
-0.00036358846038
-0.000152963725742
-0.000151201771979
-0.000345106918407
-0.000504279911539
-0.000618923783775
-0.000701798210905
-0.000758867968283
-0.000797021583436
-0.000822204349179
-0.000839526258239
-0.000852511028191
-0.000862883270632
-0.000869473923099
-0.000869246582275
-0.000856753351228
-0.000825130691799
-0.000766994108641
-0.000675184659364
-0.00054461823473
-0.000363963090348
-0.000152817585673
-0.00015106458468
-0.000345174823313
-0.000505091368068
-0.000620933706686
-0.000704750465864
-0.000762552635474
-0.00080116619375
-0.000826552666511
-0.000843880623679
-0.00085672260263
-0.000866887710037
-0.000873266541289
-0.000872767858017
-0.000859923116345
-0.000827849861425
-0.000769160508745
-0.000676734400686
-0.000545456796399
-0.000364204388712
-0.000152770244267
-0.000151330804179
-0.000345926779037
-0.000506176876331
-0.000621604936682
-0.000705618764268
-0.000763730157678
-0.000802599946874
-0.000828180743136
-0.000845545616506
-0.000858250530225
-0.000868055527326
-0.000873916094031
-0.000872798768071
-0.000859318349724
-0.000826702093578
-0.000767693499835
-0.000675436926353
-0.00054517759853
-0.000364293571776
-0.000152905044681
-0.000151765817029
-0.00034641304869
-0.000506072597883
-0.000619026833548
-0.000702233501028
-0.000760090064846
-0.000798833593542
-0.000824411409719
-0.000841723199922
-0.000854201418088
-0.000863513810664
-0.000868659674339
-0.000866680664761
-0.000852417756655
-0.000819363218808
-0.00076066240637
-0.00067055955275
-0.000542226300616
-0.000363223939621
-0.000152984209283
-0.00015191211411
-0.000344934225482
-0.000502221310683
-0.00061258250722
-0.000691186200998
-0.000747458835162
-0.000785299106199
-0.000810336321317
-0.000827253672347
-0.000839288090984
-0.000847942233138
-0.000852264438936
-0.000849412031381
-0.000834546336459
-0.00080162749057
-0.000744527322033
-0.000659022764086
-0.000534027806244
-0.000359345911925
-0.000152841833459
-0.000151252313448
-0.000339216021124
-0.000491019476109
-0.000596711856856
-0.000668735347319
-0.000720440512586
-0.000756088431808
-0.000779688358307
-0.000795586810031
-0.000806765365189
-0.000814546393926
-0.000818025362164
-0.000814533680629
-0.000799697860701
-0.000768414141005
-0.000716312428118
-0.000635901871102
-0.000517066664346
-0.000350512228653
-0.000151625326008
-0.000149064386009
-0.000326344909283
-0.000467856643132
-0.000565582681709
-0.000631183639022
-0.000674446016589
-0.000704799001565
-0.000725598886615
-0.000739628491455
-0.000749399531855
-0.000756034983041
-0.000758753021266
-0.000755210541585
-0.000741739528117
-0.000715391438815
-0.000669314905845
-0.000595892891477
-0.000487288091057
-0.000334148926733
-0.00014903175174
-0.000144367137611
-0.0003026324116
-0.000427141556944
-0.000512135201702
-0.000568422476457
-0.00060452007377
-0.000627150669229
-0.000641463825333
-0.000652339907534
-0.000660057195079
-0.000665319011834
-0.000667164331309
-0.000665776325386
-0.000656555472766
-0.000634916666341
-0.000595668839311
-0.000533015241957
-0.000439829904285
-0.000307078636436
-0.000143959484377
-0.000135856788143
-0.00026334410858
-0.000361904972093
-0.000428024241159
-0.000470888894497
-0.000497562123778
-0.000513453372903
-0.000522794932494
-0.000528762915232
-0.000533274649335
-0.000537095079119
-0.000539606722356
-0.000538988120677
-0.000532451360537
-0.00051653403884
-0.000487253110366
-0.000439902734983
-0.000368459197939
-0.000265024387197
-0.000135279716369
-0.000122129167409
-0.000202455449907
-0.000263299199111
-0.000303019275557
-0.000327766881923
-0.000342309337376
-0.000350234970549
-0.000354303779326
-0.000356593938431
-0.000358394336964
-0.000360273165571
-0.000361869333714
-0.000361999343205
-0.000358930911419
-0.0003505762802
-0.000334413636872
-0.00030724592744
-0.000265042274669
-0.000202287291031
-0.000121684924208
-0.000105086238107
-0.000122104393651
-0.000135811390991
-0.000144297717487
-0.000149040435981
-0.000151345717693
-0.000152170071315
-0.000152240974544
-0.000152222906189
-0.000152224248104
-0.000152498018707
-0.000152846283261
-0.000153124999976
-0.000152871019256
-0.000151791499532
-0.000149156146981
-0.00014414673033
-0.000135446243131
-0.000121683575776
-0.000104897851669
-0.000121554441193
-0.000198443374039
-0.000257158739642
-0.000295609516001
-0.000319696391317
-0.000334032218031
-0.000342028661443
-0.000346580862635
-0.000348632097222
-0.000350168005133
-0.000351924326883
-0.000353582883853
-0.000353877249739
-0.000350947745054
-0.000343249794826
-0.000327985856824
-0.000301922428286
-0.000260889003575
-0.000199680868045
-0.000121422116693
-0.00019835749697
-0.000147455518277
-0.000178393431813
-0.000200429305877
-0.000214894881791
-0.000223953672968
-0.000229434527916
-0.00023275900642
-0.000234925475438
-0.000236619408495
-0.000238123775107
-0.000239227258547
-0.000239360234951
-0.000237605355792
-0.000232748104261
-0.000223256197857
-0.000207339786672
-0.000183093613313
-0.000149712547987
-0.000199529991156
-0.000256978541297
-0.000178294766147
-0.000211745136785
-0.000236867420417
-0.000254122541898
-0.000265506654247
-0.000272880811892
-0.000277746934055
-0.000281213897898
-0.000283952461785
-0.000286233072523
-0.000287787109156
-0.000287975430037
-0.000285746313421
-0.000279656253832
-0.000267985499163
-0.00024883616882
-0.000220466017616
-0.000183098337334
-0.000260624652472
-0.000295220183263
-0.000200116841512
-0.000236601809647
-0.000264954746808
-0.000285135678683
-0.000299005225331
-0.000308424990078
-0.000314929192054
-0.000319859636528
-0.000323711061506
-0.000326701575068
-0.000328503808311
-0.000328499797307
-0.000325593282759
-0.000318135336536
-0.000304238174876
-0.00028189464946
-0.000249443822233
-0.000207718331612
-0.000301909864946
-0.000318888908305
-0.000214210814403
-0.000253381445092
-0.000284617093583
-0.000307491453848
-0.000323648746677
-0.000335286361556
-0.000343655699849
-0.000349813584143
-0.000354524656676
-0.000358091066941
-0.000360110701685
-0.000359793804892
-0.000355887458996
-0.000346941172478
-0.000330994613662
-0.000305867242939
-0.000269928591354
-0.00022446003992
-0.000328747954326
-0.000332522246754
-0.000222699818429
-0.000264035235743
-0.000297686922138
-0.000322864948467
-0.000341469557463
-0.00035494010395
-0.000364532568058
-0.000371551013282
-0.000376910517971
-0.000380948194097
-0.000383193939329
-0.000382738772091
-0.000378151352142
-0.000367751385932
-0.000349831977734
-0.000322380648973
-0.00028364814633
-0.00023523340309
-0.000345344547885
-0.000339513113597
-0.00022740758217
-0.000270423662513
-0.000306041265613
-0.000333310933195
-0.000353765720255
-0.000368409925487
-0.000378780236853
-0.000386359878593
-0.000392176830607
-0.000396587641393
-0.000399069660946
-0.000398606861444
-0.000393624645628
-0.00038226484005
-0.000362663552123
-0.000333242193306
-0.000292362900179
-0.000241750246999
-0.000354867923825
-0.000342512694823
-0.000229774798697
-0.000274080747718
-0.000311159113734
-0.000340240925175
-0.000361834845554
-0.000377191796178
-0.000388002614916
-0.00039590117411
-0.000402008653521
-0.000406691570531
-0.000409379220257
-0.00040897447043
-0.000403790548655
-0.00039184443972
-0.000371153087556
-0.000340090048467
-0.000297595800168
-0.000245418390544
-0.000359684846103
-0.000343367043503
-0.000230871394812
-0.000276178362551
-0.000314544045701
-0.000344729388411
-0.000367035852594
-0.000382811623253
-0.000393849331378
-0.000401906150911
-0.000408164157909
-0.000412997843258
-0.000415803865766
-0.000415434398979
-0.000410129900382
-0.000397819119188
-0.000376433959218
-0.000344276330204
-0.000300588620255
-0.000247323646301
-0.000361656964786
-0.000343264686529
-0.000231445422972
-0.000277488618321
-0.000316776942777
-0.000347657233629
-0.000370431859839
-0.000386470165908
-0.000397632006341
-0.000405744928159
-0.000412034072858
-0.000416886200441
-0.000419688089634
-0.000419270460108
-0.000413838723048
-0.000401271241002
-0.000379455567851
-0.000346669881647
-0.000302193254906
-0.000248248847336
-0.00036233300859
-0.000343438514387
-0.000231887647021
-0.00027838953017
-0.000318183461584
-0.000349468148884
-0.000372535358907
-0.000388753671009
-0.000399995623599
-0.00040810666149
-0.000414330252009
-0.000419073638905
-0.000421745949573
-0.00042117822832
-0.000415570206899
-0.000402790021846
-0.000380717493179
-0.000347634386612
-0.000302834219827
-0.000248600961225
-0.00036254230579
-0.000344002141556
-0.000232158175698
-0.000278787050376
-0.000318603460065
-0.000349954376535
-0.000373113773161
-0.000389422503626
-0.000400709600393
-0.00040878235819
-0.000414874189389
-0.000419414619474
-0.000421854895646
-0.000421049088672
-0.000415222454766
-0.000402276613027
-0.000380126105041
-0.000347085287497
-0.000302432942444
-0.000248320766193
-0.000362314653988
-0.000343671067051
-0.000231792686358
-0.000278149608311
-0.000317438418876
-0.000348367305655
-0.00037131971699
-0.000387549414448
-0.000398801724898
-0.00040678429699
-0.000412692596663
-0.000416964651626
-0.000419104669049
-0.000418010214406
-0.000411974668999
-0.000398980197588
-0.000377027891194
-0.000344499067731
-0.000300442299026
-0.000246904040006
-0.000360654096806
-0.000341081296778
-0.000229940734168
-0.000275520171998
-0.000313776745065
-0.000343515695949
-0.000365756441385
-0.000381583439723
-0.000392606365243
-0.000400392450246
-0.000406051205316
-0.00041001440159
-0.00041183236974
-0.000410477765801
-0.000404350836618
-0.000391565442213
-0.000370243594255
-0.000338790812319
-0.00029588054013
-0.000243500923619
-0.00035582940327
-0.000334164852602
-0.000225445269676
-0.000269600766336
-0.000306158783097
-0.000334032890597
-0.000354777820504
-0.000369694089314
-0.000380148841423
-0.000387532077947
-0.00039283449808
-0.000396447750549
-0.000397975966639
-0.000396483057752
-0.000390518360141
-0.000378383286391
-0.000358310771746
-0.000328481263457
-0.000287405526005
-0.000236986087217
-0.000346386103937
-0.000320324405266
-0.000216807569448
-0.000258747186929
-0.000292882822961
-0.000318400218459
-0.000336867388396
-0.000350131774804
-0.000359533489369
-0.000366206111005
-0.000370980127739
-0.000374186688663
-0.000375486566556
-0.000374060805393
-0.000368625226445
-0.000357676266543
-0.000339392436722
-0.000311768318848
-0.000273429093703
-0.000225967285007
-0.000329401210912
-0.000296214360224
-0.000202204107305
-0.000241082391219
-0.000272013151596
-0.000294605893956
-0.000310531392871
-0.000321577316741
-0.000329280910223
-0.000334845173265
-0.000338859330085
-0.000341574143299
-0.000342695277618
-0.000341590872264
-0.00033707507762
-0.000327631840358
-0.000311475367949
-0.000286806244211
-0.000252214561776
-0.000208794947941
-0.000302122818705
-0.000257424422715
-0.000179596473562
-0.000214772232526
-0.000241840736484
-0.000260999506388
-0.000274070113898
-0.000282815603357
-0.000288693502273
-0.000292787117734
-0.000295766269768
-0.000297880788036
-0.000298874827509
-0.00029808027372
-0.000294452184025
-0.000286647448761
-0.000273100828872
-0.000252119702203
-0.000222171346738
-0.000183650400633
-0.000260499653429
-0.000198337893878
-0.000147884788005
-0.000179698101045
-0.000202841242288
-0.000218483212446
-0.000228661696918
-0.000235113662614
-0.000239193924314
-0.000241878539395
-0.000243809550563
-0.000245240371533
-0.000245957421639
-0.000245368171716
-0.000242597501647
-0.000236521482231
-0.000225769956604
-0.000208728188649
-0.000183636612416
-0.000149757159017
-0.000199258318091
-0.000121394437224
-0.000198262655705
-0.000257357492626
-0.000296608789172
-0.000321794680413
-0.000337369483479
-0.000346585534779
-0.000351781631532
-0.000354678781643
-0.000356696687116
-0.000358467646836
-0.00035964307901
-0.000359032768194
-0.000355258299045
-0.000346049448171
-0.000329332102902
-0.000302146241472
-0.000260513835333
-0.000199237742108
-0.000121167973431
-0.000134254367878
-0.000251301360324
-0.000341359016486
-0.000401490670434
-0.000440518952251
-0.000465220014804
-0.00048056001252
-0.00049023473495
-0.000496909706327
-0.00050235020401
-0.00050739355909
-0.000511369693185
-0.000512530844958
-0.000508225164053
-0.000495072178175
-0.000468972512254
-0.00042506042875
-0.000357299898773
-0.00025837920376
-0.000134566265521
-0.000251150891416
-0.000173229357668
-0.000204936236819
-0.00022910329975
-0.000246055915054
-0.00025751056918
-0.00026514777412
-0.000270403043406
-0.000274360451545
-0.000277707018616
-0.000280699982329
-0.000282994128258
-0.000283896745983
-0.000282288203859
-0.000276726344253
-0.000265504995845
-0.000246760991869
-0.000218771223322
-0.000181720441356
-0.000258119439286
-0.000340908506291
-0.000204754530545
-0.000231666801194
-0.000255393300503
-0.000273540186715
-0.000286568103865
-0.000295588857478
-0.00030194222332
-0.000306633500718
-0.000310448196589
-0.000313668680832
-0.000315966289912
-0.000316658944027
-0.000314679040776
-0.000308659886264
-0.000297037143024
-0.000278300547647
-0.00025154065247
-0.00021907862852
-0.00035717406965
-0.000400450866477
-0.000228606296613
-0.000255129877583
-0.00028099750332
-0.000301907394499
-0.000317376960159
-0.000328037452303
-0.000335755893197
-0.000341176227674
-0.000345261362141
-0.000348438887797
-0.000350390354755
-0.000350481830974
-0.000347629022978
-0.00034050796698
-0.000327575542801
-0.000307503043288
-0.000279863768829
-0.000248305334447
-0.000426362422928
-0.00043841410455
-0.000245052155792
-0.000272921546196
-0.00030169113683
-0.000325608073999
-0.000343580380204
-0.000356205216609
-0.000364642542837
-0.000370329145197
-0.000374430995859
-0.000377550097467
-0.000379320198061
-0.000378998472657
-0.000375269127466
-0.000366797267999
-0.000352345667151
-0.000330610178531
-0.000301414398705
-0.000269306225352
-0.000473386013956
-0.000461408628315
-0.000255723087641
-0.000285439576194
-0.000316994699387
-0.000343530892665
-0.000363566490528
-0.000376958793578
-0.000385675830681
-0.000391427216913
-0.000395584048175
-0.000398952723409
-0.000400997087423
-0.000400889405783
-0.000396896861813
-0.000387215590649
-0.000371126444615
-0.000347764271906
-0.000316913750296
-0.000283706209968
-0.000504249223378
-0.000474384100866
-0.000262273410126
-0.000293776889498
-0.00032762568258
-0.000356342285109
-0.00037680269473
-0.000389978782876
-0.000398462611851
-0.000404165294077
-0.000408579549068
-0.000412529788743
-0.000415292619881
-0.000415906124587
-0.000412413478105
-0.000402339649006
-0.000384801690244
-0.000359959606073
-0.000327586580703
-0.000293138344701
-0.000523468133538
-0.000481141777214
-0.000266178583267
-0.000299215441378
-0.000334777733621
-0.000364668592055
-0.000384879287898
-0.000397470928896
-0.000405450018878
-0.000411088326234
-0.000415909017081
-0.000420626513993
-0.000424224843152
-0.000425608342003
-0.000422674415988
-0.000412715080247
-0.000394383200994
-0.000368371044572
-0.000334666997444
-0.000299025929017
-0.000534661705264
-0.00048455804852
-0.000268632375012
-0.000302936749357
-0.000339789017739
-0.000370199098453
-0.000390191294693
-0.000402258513182
-0.000409831727064
-0.000415499116737
-0.000420754337647
-0.00042612092681
-0.00043034112256
-0.000432203916027
-0.000429543312476
-0.00041957652125
-0.000400818165041
-0.000373968323477
-0.000339205972087
-0.000302523732487
-0.000540677038631
-0.000486625569774
-0.000270424588616
-0.000305694490762
-0.000343391742813
-0.000374171588436
-0.000394161416842
-0.000406059756195
-0.000413532834117
-0.000419320447305
-0.000424867091707
-0.000430561861285
-0.000435026510075
-0.000436995817064
-0.000434292727001
-0.000424125762857
-0.000404983878164
-0.000377539057027
-0.000342016572866
-0.000304498777675
-0.00054364894414
-0.000488483905606
-0.000271894959333
-0.000307751087798
-0.000345902433437
-0.000376954979196
-0.000397142981103
-0.000409233202915
-0.000416881141563
-0.00042278333608
-0.000428354647139
-0.000433986871273
-0.000438323406742
-0.000440111112506
-0.00043718052957
-0.000426742043266
-0.000407273590847
-0.00037942349205
-0.000343415546397
-0.000305391752495
-0.000544809653744
-0.000489994694829
-0.000272872580285
-0.000308847402092
-0.000346979845905
-0.000378139588335
-0.00039865387924
-0.000411212174786
-0.000419232309028
-0.000425208645371
-0.000430558124646
-0.00043580591292
-0.000439730485834
-0.000441144389558
-0.00043788873171
-0.000427175366222
-0.000407486546754
-0.000379458381765
-0.000343255854392
-0.000305106426508
-0.000544116584182
-0.000489677817574
-0.000272746465069
-0.000308329186035
-0.000345783114105
-0.000376727925195
-0.000397498066178
-0.000410569201314
-0.000419040947104
-0.00042508257236
-0.000430091890032
-0.000434758528506
-0.000438076461345
-0.000438972394619
-0.000435350555315
-0.00042447424638
-0.000404863910361
-0.00037704382832
-0.000341027386728
-0.000303046390397
-0.000540051693225
-0.00048502004487
-0.000270458109149
-0.000305114975746
-0.000341277344484
-0.000371343850282
-0.000392257990623
-0.00040563077278
-0.000414447179428
-0.000420550496506
-0.000425255293465
-0.000429340412672
-0.000431996682697
-0.0004322881652
-0.000428259559033
-0.000417366064444
-0.000398348452199
-0.000371144145605
-0.000335707501709
-0.000298176869262
-0.000530102261588
-0.000472759710345
-0.000264648198335
-0.000297903003273
-0.0003320947558
-0.000360417665037
-0.00038117889309
-0.00039472795965
-0.000403635743395
-0.000409775285074
-0.000414332256808
-0.000417982239857
-0.000420121243429
-0.000419858787651
-0.000415453789736
-0.000404824512639
-0.000386776593228
-0.00036040851159
-0.000325994339335
-0.000289180969638
-0.000511174313945
-0.000448920091778
-0.000253780291962
-0.00028541548458
-0.000317122467816
-0.000343130976206
-0.000362529497861
-0.00037594105694
-0.000384859147858
-0.000391025647498
-0.00039558731931
-0.000399035406932
-0.000400915222029
-0.000400336546467
-0.000395799723607
-0.000385720280833
-0.000368634475346
-0.000343538014689
-0.000310468484934
-0.000274527619192
-0.000479591914883
-0.000408693848473
-0.000236207860566
-0.000266555525987
-0.00029562591955
-0.000319004371936
-0.000336354895162
-0.00034858523636
-0.000357139233347
-0.000363198455579
-0.00036773062101
-0.000371100976704
-0.000372916047976
-0.000372361252628
-0.000368076378964
-0.000358774451878
-0.000342916393662
-0.0003193055236
-0.000287786798957
-0.00025257863819
-0.000430975778344
-0.000345971482048
-0.000210369063881
-0.000240868795212
-0.000267861939004
-0.000288767329563
-0.000304022473797
-0.000314789275828
-0.000322374291309
-0.000327918963451
-0.000332147471889
-0.000335313893632
-0.00033704714352
-0.000336600484704
-0.000332803417995
-0.000324303896808
-0.000309641888216
-0.000287506555288
-0.000257312286237
-0.000221881137119
-0.000359751646328
-0.000252981757372
-0.00017625033004
-0.000210787522532
-0.00023786280074
-0.000257513486046
-0.000271297845974
-0.000280799375382
-0.000287399022644
-0.000292169649537
-0.000295797526917
-0.000298520269309
-0.000300007213426
-0.000299494241205
-0.000295883446808
-0.000287835410013
-0.000273835285946
-0.000252290246534
-0.000221804448218
-0.000182909449684
-0.000258852684236
-0.000134155290073
-0.000252864579277
-0.000346190138417
-0.000410569368311
-0.000454170655775
-0.000483173798935
-0.000502120079967
-0.000514487832787
-0.000522846423105
-0.000528935211368
-0.000533531044198
-0.00053604637202
-0.000534648098005
-0.000526786981165
-0.000509352798879
-0.000478728144213
-0.000430646019813
-0.000359655652458
-0.000258809384451
-0.000134290232138
-0.000140693334529
-0.000274159385087
-0.000378886180187
-0.000451260407802
-0.000500151180492
-0.00053246429678
-0.000553702144276
-0.000568377498365
-0.000579903236022
-0.000590391488499
-0.000600689901741
-0.000609525882539
-0.000614482119688
-0.000611837766249
-0.000596952828573
-0.000564471292689
-0.000508429464077
-0.000421916384927
-0.000296984642904
-0.000142866116109
-0.000273939354124
-0.00018170744714
-0.000216575756944
-0.000246761484282
-0.000269802209387
-0.000285855456459
-0.000296264671338
-0.000302884934061
-0.000307423087268
-0.000311119372384
-0.000314494155147
-0.000317122034371
-0.000318179018762
-0.000316259717319
-0.000309679621097
-0.000296595287047
-0.000275202247318
-0.000244024676067
-0.00020380921748
-0.000296685065139
-0.000378221436023
-0.000216575667535
-0.000249936569572
-0.000284263783439
-0.000312211243204
-0.000331822245148
-0.000343813073697
-0.000350052766294
-0.00035258573718
-0.000353710864526
-0.000354102914682
-0.000353739109982
-0.000351871006224
-0.000347336673663
-0.000338755679347
-0.000324600879424
-0.000303731261036
-0.000275982756059
-0.000245095816558
-0.00042270724774
-0.000449873552317
-0.000246935536262
-0.000284802281282
-0.000326209040511
-0.000360364956698
-0.000383817725619
-0.000397513375986
-0.000403723773365
-0.000404587826445
-0.000402731536067
-0.000399925573371
-0.000396371960891
-0.000391609020255
-0.000384244166487
-0.000372839643996
-0.000356454284694
-0.000334217986823
-0.000306506784435
-0.000279080748284
-0.000513504220871
-0.000497367159619
-0.000270203800599
-0.000313867054016
-0.000362101761212
-0.000401395177614
-0.000428057579158
-0.000441970125525
-0.000446358606698
-0.000444584530077
-0.00043997996703
-0.000435100889293
-0.000430179658002
-0.000424699166818
-0.000416517824814
-0.000403074595431
-0.000383979833357
-0.000359820363288
-0.000331247734802
-0.000304856698201
-0.000577559549599
-0.000527256273133
-0.000286348890596
-0.000335108724181
-0.000388516708374
-0.000431057522197
-0.000457508194687
-0.000468805652216
-0.000470108995496
-0.000465553194877
-0.000459120241962
-0.000454071476061
-0.000449951811331
-0.000446117430433
-0.000439597144094
-0.00042644176683
-0.00040591645436
-0.000379556143676
-0.000349897223048
-0.000323550062313
-0.000621430050159
-0.000545042507513
-0.000296650002185
-0.000349081544268
-0.000405285879483
-0.000448527839009
-0.00047198236704
-0.000478835480969
-0.000476103419791
-0.000469122000783
-0.000462268156148
-0.000458783031066
-0.000457213216913
-0.000456512361644
-0.000453198704227
-0.000442036434077
-0.000421751804018
-0.000394183133324
-0.000363289907243
-0.000336561982255
-0.000650189188036
-0.000555508208856
-0.000303058712941
-0.000357869032826
-0.000415658866463
-0.000457156510203
-0.000476420337471
-0.0004783543416
-0.000471602533476
-0.000463084984236
-0.000457075452937
-0.000456170442956
-0.000457790036718
-0.00046031541696
-0.000459999276387
-0.000451246286356
-0.000432029922603
-0.000404415640221
-0.000372645215324
-0.00034531002382
-0.000668128805142
-0.000562483198146
-0.000307440974631
-0.000363481621906
-0.000421690119817
-0.000461380805369
-0.000477261340203
-0.000475391122996
-0.000465933123325
-0.000456961474505
-0.000452407388602
-0.000453971649664
-0.000458171610172
-0.000462921037222
-0.000464421684554
-0.000457116474126
-0.000438798081224
-0.000411401479405
-0.000379154537691
-0.000351059916708
-0.000678844648861
-0.000568436564914
-0.000311003043632
-0.000367433627945
-0.000425541076388
-0.000464060825185
-0.000478143082493
-0.000474533907409
-0.000464186478834
-0.000455612583001
-0.000452359170991
-0.000455474009397
-0.000460999028326
-0.000466666924559
-0.000468767394686
-0.000461878765175
-0.000443782063021
-0.000416320978299
-0.000383625844719
-0.000354781384083
-0.000685144107982
-0.000574511926215
-0.00031411864512
-0.00037026645249
-0.000427794622222
-0.000465811840847
-0.000479731154861
-0.000476428819692
-0.000466744253237
-0.000458902694269
-0.000456195448709
-0.00045958593089
-0.000465171107701
-0.00047073104757
-0.000472663779212
-0.0004656126143
-0.000447329519734
-0.000419590052304
-0.000386425025666
-0.000356924775142
-0.00068856468487
-0.000579973037774
-0.000316267423448
-0.000371328133781
-0.000427824363207
-0.000465878695354
-0.000480984653663
-0.000479611230629
-0.000471706689821
-0.0004646533501
-0.000461736201106
-0.000464350643901
-0.000469026305342
-0.00047380930748
-0.0004751511959
-0.000467630410857
-0.000448942020201
-0.000420840309884
-0.00038728941178
-0.000357297198324
-0.000688846976702
-0.000582518041922
-0.000316324173093
-0.000369337715069
-0.00042408364529
-0.000462163162373
-0.000479104023673
-0.000480619983378
-0.000475308081367
-0.00046925368543
-0.000465781004974
-0.000466945933144
-0.000470052288853
-0.000473570396877
-0.000474035922981
-0.000465982559895
-0.000447083560525
-0.000418957367226
-0.00038533763493
-0.000355099073666
-0.00068389989423
-0.00057839872272
-0.000312612750909
-0.000362512656457
-0.000414599306758
-0.000452484019724
-0.000471471504575
-0.000476038141769
-0.000473650989693
-0.000468978004892
-0.00046528393769
-0.000465042373751
-0.000466457035634
-0.00046840313097
-0.000467608234533
-0.000458854702521
-0.000440178184459
-0.000412587541879
-0.000379467565466
-0.000349030975151
-0.000670136584525
-0.000562964291932
-0.00030331048607
-0.000349149051554
-0.000398089837711
-0.00043485856709
-0.000455620369573
-0.000463173002445
-0.000463578669616
-0.000460754876792
-0.00045768729245
-0.000456762798132
-0.000456982663118
-0.000457398100342
-0.000455040975073
-0.000445561387452
-0.000427325242749
-0.000400775271534
-0.00036825113464
-0.000337497062501
-0.000643233187741
-0.000531261876107
-0.000286953687843
-0.000328179118852
-0.000372561636415
-0.000407358595984
-0.00042908030319
-0.000439212921721
-0.00044229531397
-0.000441791109691
-0.000440359498933
-0.000439815766758
-0.000439735091398
-0.000439108547442
-0.000435432550025
-0.000425491563133
-0.000407884480326
-0.000382438513926
-0.000350254128049
-0.000318813334182
-0.000598394969385
-0.000478092395431
-0.000262638706397
-0.000299625567659
-0.000338828024036
-0.000370377583628
-0.000391550227208
-0.000403437298032
-0.000408976021058
-0.000411052250202
-0.000411916654263
-0.000412805596718
-0.000413343047326
-0.000412521841258
-0.000408401793187
-0.000398398183378
-0.000381436643883
-0.000356591895253
-0.000324423826601
-0.000291414247933
-0.000530466712101
-0.000397627280141