/*--------------------------------*- C++ -*----------------------------------*\
| =========                 |                                                 |
| \\      /  F ield         | OpenFOAM: The Open Source CFD Toolbox           |
|  \\    /   O peration     | Version:  3.0.1                                 |
|   \\  /    A nd           | Web:      www.OpenFOAM.org                      |
|    \\/     M anipulation  |                                                 |
\*---------------------------------------------------------------------------*/
FoamFile
{
    version     2.0;
    format      ascii;
    class       volVectorField;
    location    "0.1";
    object      U;
}
// * * * * * * * * * * * * * * * * * * * * * * * * * * * * * * * * * * * * * //

dimensions      [0 1 -1 0 0 0 0];

internalField   nonuniform List<vector> 
7700
(
(0.0136509 -0.01046 0)
(0.0445783 -0.0129407 0)
(0.0781574 -0.0123863 0)
(0.110792 -0.0120988 0)
(0.142847 -0.0121514 0)
(0.175179 -0.0123117 0)
(0.208032 -0.0125034 0)
(0.241435 -0.0127215 0)
(0.275449 -0.0129711 0)
(0.31017 -0.0132555 0)
(0.345693 -0.0135773 0)
(0.382121 -0.0139386 0)
(0.419561 -0.014342 0)
(0.458128 -0.0147901 0)
(0.49794 -0.0152858 0)
(0.539132 -0.0158325 0)
(0.581831 -0.0164327 0)
(0.626192 -0.0170909 0)
(0.672364 -0.0178089 0)
(0.720496 -0.0185875 0)
(0.770774 -0.0194299 0)
(0.823362 -0.0203373 0)
(0.878401 -0.0213023 0)
(0.936052 -0.0223046 0)
(0.996446 -0.0232922 0)
(1.05953 -0.024207 0)
(1.12508 -0.025143 0)
(1.19304 -0.0263138 0)
(1.26384 -0.0275928 0)
(1.3374 -0.0281849 0)
(1.41141 -0.0268553 0)
(1.48044 -0.0227164 0)
(1.53727 -0.0160265 0)
(1.57581 -0.00843471 0)
(1.59449 -0.00161845 0)
(1.5968 0.00415925 0)
(1.58929 0.00869742 0)
(1.57863 0.010437 0)
(1.56342 0.0159333 0)
(1.53187 0.0480921 0)
(1.41298 0.091974 0)
(1.23658 0.129741 0)
(0.978323 0.147216 0)
(0.690875 0.119868 0)
(0.413424 0.0969801 0)
(0.14151 0.0985778 0)
(0.0136457 -0.0314293 0)
(0.0446839 -0.0388476 0)
(0.0783558 -0.0372252 0)
(0.111023 -0.0363806 0)
(0.143129 -0.0365377 0)
(0.175524 -0.0370191 0)
(0.208432 -0.0375969 0)
(0.241882 -0.0382543 0)
(0.275938 -0.0390059 0)
(0.310693 -0.039862 0)
(0.346246 -0.0408299 0)
(0.382697 -0.0419163 0)
(0.420152 -0.0431286 0)
(0.458727 -0.0444751 0)
(0.49854 -0.0459637 0)
(0.539724 -0.047604 0)
(0.582408 -0.0494031 0)
(0.626747 -0.0513741 0)
(0.672892 -0.0535214 0)
(0.720993 -0.0558535 0)
(0.771249 -0.0583874 0)
(0.823827 -0.061105 0)
(0.878834 -0.0639789 0)
(0.936446 -0.0670247 0)
(0.996933 -0.0701795 0)
(1.06038 -0.0731827 0)
(1.12645 -0.0759336 0)
(1.19467 -0.0788 0)
(1.26505 -0.081838 0)
(1.33768 -0.0835847 0)
(1.41136 -0.0811011 0)
(1.48271 -0.0716842 0)
(1.54713 -0.0548763 0)
(1.601 -0.0336461 0)
(1.64229 -0.0138934 0)
(1.67055 -0.00281222 0)
(1.6896 -0.00478609 0)
(1.71811 -0.0142445 0)
(1.77451 -0.010915 0)
(1.85186 0.0290596 0)
(1.9252 0.125992 0)
(1.87116 0.212076 0)
(1.69092 0.279585 0)
(1.37867 0.33818 0)
(0.891387 0.39456 0)
(0.300125 0.432872 0)
(0.0135918 -0.0524623 0)
(0.0445798 -0.0646963 0)
(0.0781684 -0.0620251 0)
(0.110685 -0.060641 0)
(0.142675 -0.0608988 0)
(0.174969 -0.0616948 0)
(0.207768 -0.0626528 0)
(0.241097 -0.063743 0)
(0.275023 -0.0649897 0)
(0.30964 -0.0664107 0)
(0.345045 -0.0680178 0)
(0.381339 -0.0698223 0)
(0.418626 -0.0718363 0)
(0.457021 -0.074073 0)
(0.496642 -0.0765459 0)
(0.537623 -0.0792704 0)
(0.58009 -0.0822599 0)
(0.624205 -0.0855357 0)
(0.670117 -0.0891057 0)
(0.717982 -0.0929906 0)
(0.768009 -0.0972177 0)
(0.820365 -0.101734 0)
(0.875158 -0.106512 0)
(0.93263 -0.111675 0)
(0.993143 -0.117134 0)
(1.05675 -0.122288 0)
(1.123 -0.126799 0)
(1.1916 -0.131276 0)
(1.26294 -0.136065 0)
(1.33728 -0.139188 0)
(1.41335 -0.136538 0)
(1.4882 -0.124851 0)
(1.55875 -0.104835 0)
(1.62426 -0.0811494 0)
(1.68691 -0.0586117 0)
(1.74904 -0.0384957 0)
(1.80426 -0.0257055 0)
(1.81684 -0.044345 0)
(1.76477 -0.0707671 0)
(1.78158 -0.0222303 0)
(1.8553 0.0833583 0)
(1.92564 0.288967 0)
(1.82042 0.458313 0)
(1.50237 0.597296 0)
(0.942129 0.775009 0)
(0.310661 0.881084 0)
(0.0135369 -0.0734835 0)
(0.0444399 -0.0904164 0)
(0.0778864 -0.0867056 0)
(0.1102 -0.0848048 0)
(0.14203 -0.0851656 0)
(0.174183 -0.0862691 0)
(0.206827 -0.0875984 0)
(0.239989 -0.0891116 0)
(0.273738 -0.0908436 0)
(0.308168 -0.0928191 0)
(0.343374 -0.0950547 0)
(0.379454 -0.0975659 0)
(0.416515 -0.100369 0)
(0.454668 -0.103484 0)
(0.494032 -0.106928 0)
(0.53474 -0.110725 0)
(0.576917 -0.114895 0)
(0.62073 -0.119469 0)
(0.666327 -0.124458 0)
(0.713872 -0.1299 0)
(0.763585 -0.135827 0)
(0.815627 -0.142159 0)
(0.870145 -0.148902 0)
(0.927472 -0.156293 0)
(0.987967 -0.164129 0)
(1.05156 -0.171452 0)
(1.11785 -0.177967 0)
(1.18708 -0.184835 0)
(1.26049 -0.19251 0)
(1.33901 -0.198049 0)
(1.42157 -0.196036 0)
(1.50513 -0.18315 0)
(1.58579 -0.162089 0)
(1.65921 -0.139575 0)
(1.72254 -0.118854 0)
(1.7769 -0.0978591 0)
(1.82886 -0.0609882 0)
(1.85253 -0.000462384 0)
(1.75868 0.00230571 0)
(1.61594 -0.0201978 0)
(1.56893 0.0677184 0)
(1.58456 0.268654 0)
(1.53652 0.602606 0)
(1.18105 0.978761 0)
(0.65547 1.22637 0)
(0.202709 1.31054 0)
(0.0134835 -0.0944776 0)
(0.0442606 -0.115967 0)
(0.0774988 -0.111221 0)
(0.109557 -0.108833 0)
(0.141183 -0.109305 0)
(0.173148 -0.110712 0)
(0.20559 -0.112405 0)
(0.238535 -0.114333 0)
(0.272056 -0.116542 0)
(0.306245 -0.119063 0)
(0.341194 -0.121918 0)
(0.377002 -0.125125 0)
(0.413773 -0.128707 0)
(0.451618 -0.132687 0)
(0.490652 -0.13709 0)
(0.53101 -0.141946 0)
(0.572816 -0.147283 0)
(0.616239 -0.153143 0)
(0.661429 -0.159544 0)
(0.708555 -0.16654 0)
(0.757849 -0.174166 0)
(0.809467 -0.182328 0)
(0.863609 -0.19111 0)
(0.920697 -0.200831 0)
(0.981043 -0.211066 0)
(1.04446 -0.220587 0)
(1.11078 -0.229435 0)
(1.18099 -0.239577 0)
(1.2572 -0.251671 0)
(1.34067 -0.261864 0)
(1.43013 -0.263795 0)
(1.52261 -0.254188 0)
(1.61439 -0.232455 0)
(1.69887 -0.195314 0)
(1.76456 -0.14647 0)
(1.77238 -0.100532 0)
(1.72833 -0.0573825 0)
(1.69179 0.0059944 0)
(1.66774 0.0813944 0)
(1.49073 0.101461 0)
(1.22607 0.159087 0)
(1.1316 0.384448 0)
(1.02584 0.768617 0)
(0.694819 1.27223 0)
(0.326418 1.55757 0)
(0.100854 1.58559 0)
(0.013432 -0.115431 0)
(0.0440411 -0.141306 0)
(0.0770052 -0.135529 0)
(0.108758 -0.13269 0)
(0.140138 -0.133284 0)
(0.171869 -0.134987 0)
(0.204063 -0.137034 0)
(0.236743 -0.139367 0)
(0.269985 -0.142042 0)
(0.303879 -0.145098 0)
(0.338516 -0.148558 0)
(0.373993 -0.152447 0)
(0.410412 -0.156791 0)
(0.447881 -0.161619 0)
(0.486515 -0.166963 0)
(0.526447 -0.172861 0)
(0.567799 -0.179348 0)
(0.610744 -0.186477 0)
(0.655429 -0.194275 0)
(0.702033 -0.202818 0)
(0.750791 -0.212137 0)
(0.801864 -0.222142 0)
(0.855508 -0.233038 0)
(0.912208 -0.245168 0)
(0.972209 -0.257794 0)
(1.03525 -0.269585 0)
(1.10155 -0.281356 0)
(1.17308 -0.296085 0)
(1.25256 -0.314328 0)
(1.34046 -0.331111 0)
(1.43453 -0.339539 0)
(1.53228 -0.332868 0)
(1.62873 -0.299507 0)
(1.70687 -0.233096 0)
(1.70874 -0.138556 0)
(1.64617 -0.0648979 0)
(1.54675 -0.010484 0)
(1.42109 0.068909 0)
(1.27885 0.180139 0)
(1.10836 0.261035 0)
(0.88663 0.299952 0)
(0.629622 0.506589 0)
(0.472789 0.978367 0)
(0.227649 1.47696 0)
(0.0870112 1.69929 0)
(0.0353965 1.6978 0)
(0.0133814 -0.136327 0)
(0.0437798 -0.166389 0)
(0.0764058 -0.159589 0)
(0.107807 -0.15634 0)
(0.138899 -0.157066 0)
(0.170353 -0.15906 0)
(0.20225 -0.161449 0)
(0.234618 -0.164176 0)
(0.267531 -0.167305 0)
(0.301079 -0.170881 0)
(0.33535 -0.174933 0)
(0.370439 -0.179487 0)
(0.406444 -0.184576 0)
(0.443473 -0.190232 0)
(0.481635 -0.196496 0)
(0.521066 -0.203412 0)
(0.561883 -0.211026 0)
(0.60426 -0.219402 0)
(0.648342 -0.228577 0)
(0.694313 -0.23865 0)
(0.742412 -0.249649 0)
(0.792807 -0.261505 0)
(0.845803 -0.274573 0)
(0.90192 -0.289149 0)
(0.96131 -0.304133 0)
(1.0237 -0.318356 0)
(1.08992 -0.33385 0)
(1.16295 -0.354545 0)
(1.24499 -0.380463 0)
(1.33461 -0.405543 0)
(1.43035 -0.420055 0)
(1.53018 -0.405715 0)
(1.61826 -0.344251 0)
(1.63185 -0.223457 0)
(1.56242 -0.0979508 0)
(1.45064 0.0127165 0)
(1.28258 0.110958 0)
(1.06785 0.214668 0)
(0.859724 0.330136 0)
(0.670957 0.412963 0)
(0.462418 0.493146 0)
(0.232818 0.712993 0)
(0.0792553 1.12463 0)
(-0.0442351 1.54077 0)
(-0.0151891 1.70233 0)
(0.00888237 1.71505 0)
(0.0133301 -0.157152 0)
(0.0434749 -0.191174 0)
(0.0757019 -0.183362 0)
(0.106708 -0.179748 0)
(0.137472 -0.180619 0)
(0.168606 -0.182896 0)
(0.200162 -0.185615 0)
(0.232171 -0.188723 0)
(0.264708 -0.192293 0)
(0.29786 -0.196374 0)
(0.331713 -0.201 0)
(0.366357 -0.2062 0)
(0.40189 -0.212011 0)
(0.438414 -0.218473 0)
(0.476038 -0.225631 0)
(0.514893 -0.233538 0)
(0.555093 -0.242252 0)
(0.596813 -0.251845 0)
(0.640192 -0.262368 0)
(0.685418 -0.273943 0)
(0.732727 -0.286596 0)
(0.782296 -0.300301 0)
(0.834475 -0.315571 0)
(0.889772 -0.332573 0)
(0.948223 -0.349845 0)
(1.00966 -0.366744 0)
(1.07576 -0.386837 0)
(1.14982 -0.414725 0)
(1.23195 -0.44961 0)
(1.32016 -0.483449 0)
(1.41705 -0.496202 0)
(1.5122 -0.459895 0)
(1.54708 -0.339551 0)
(1.49002 -0.177567 0)
(1.37591 -0.0147135 0)
(1.19014 0.141981 0)
(0.958903 0.275129 0)
(0.725471 0.382717 0)
(0.526012 0.47136 0)
(0.356357 0.546621 0)
(0.180089 0.649499 0)
(0.00474428 0.856743 0)
(-0.0980836 1.19017 0)
(-0.100882 1.50499 0)
(-0.0115973 1.64889 0)
(0.0110415 1.71039 0)
(0.0132774 -0.177891 0)
(0.0431255 -0.215624 0)
(0.0748954 -0.206816 0)
(0.105466 -0.202886 0)
(0.135865 -0.203913 0)
(0.166636 -0.206465 0)
(0.197809 -0.209502 0)
(0.229414 -0.212976 0)
(0.26153 -0.216971 0)
(0.294238 -0.221541 0)
(0.327622 -0.226721 0)
(0.361769 -0.232546 0)
(0.396772 -0.239055 0)
(0.432732 -0.246295 0)
(0.46975 -0.254318 0)
(0.507958 -0.263185 0)
(0.547461 -0.272963 0)
(0.588436 -0.283737 0)
(0.631011 -0.295569 0)
(0.675375 -0.308608 0)
(0.721759 -0.322874 0)
(0.770345 -0.338408 0)
(0.821513 -0.355871 0)
(0.875719 -0.375209 0)
(0.93286 -0.394682 0)
(0.993074 -0.414569 0)
(1.05886 -0.44006 0)
(1.13249 -0.476044 0)
(1.21121 -0.520753 0)
(1.2973 -0.559726 0)
(1.3931 -0.558611 0)
(1.46289 -0.469983 0)
(1.42772 -0.30316 0)
(1.31909 -0.0966117 0)
(1.13159 0.121236 0)
(0.886449 0.314739 0)
(0.65453 0.451396 0)
(0.462927 0.532064 0)
(0.310926 0.59122 0)
(0.181404 0.655511 0)
(0.053394 0.757255 0)
(-0.0577542 0.939031 0)
(-0.0950752 1.19812 0)
(-0.0351174 1.43762 0)
(0.0608585 1.5893 0)
(0.0589041 1.73008 0)
(0.0132219 -0.198525 0)
(0.04273 -0.2397 0)
(0.073988 -0.229918 0)
(0.104087 -0.225725 0)
(0.134084 -0.226921 0)
(0.164452 -0.229736 0)
(0.195199 -0.233076 0)
(0.226359 -0.236902 0)
(0.258009 -0.241307 0)
(0.290227 -0.246347 0)
(0.323093 -0.25206 0)
(0.356692 -0.258485 0)
(0.39111 -0.265666 0)
(0.426445 -0.273654 0)
(0.462794 -0.282508 0)
(0.500284 -0.292299 0)
(0.539012 -0.3031 0)
(0.579153 -0.315009 0)
(0.620822 -0.328102 0)
(0.664207 -0.342551 0)
(0.709526 -0.358371 0)
(0.756965 -0.375694 0)
(0.806918 -0.395295 0)
(0.859735 -0.416816 0)
(0.9152 -0.438397 0)
(0.973986 -0.461594 0)
(1.03896 -0.493141 0)
(1.10957 -0.537917 0)
(1.18289 -0.591692 0)
(1.26856 -0.627393 0)
(1.35684 -0.598058 0)
(1.35829 -0.452402 0)
(1.27194 -0.229829 0)
(1.10064 0.0406727 0)
(0.84359 0.299158 0)
(0.605447 0.490751 0)
(0.429058 0.592549 0)
(0.3016 0.640561 0)
(0.202296 0.67906 0)
(0.116282 0.733649 0)
(0.0380395 0.825864 0)
(-0.0136964 0.975867 0)
(-0.00220412 1.17441 0)
(0.0792011 1.3708 0)
(0.193139 1.53764 0)
(0.079259 1.81497 0)
(0.00699634 -0.00505746 0)
(0.0243549 -0.00669146 0)
(0.0442938 -0.00668288 0)
(0.0636108 -0.00625471 0)
(0.0810229 -0.00547035 0)
(0.095761 -0.0044706 0)
(0.107446 -0.00342829 0)
(0.116118 -0.00245476 0)
(0.122071 -0.0016003 0)
(0.125687 -0.000872905 0)
(0.127367 -0.00023146 0)
(0.127283 0.000290768 0)
(0.125906 0.000669158 0)
(0.123592 0.000941429 0)
(0.120562 0.00114666 0)
(0.116986 0.0013041 0)
(0.112995 0.00142356 0)
(0.10869 0.00151295 0)
(0.104152 0.00157896 0)
(0.0994456 0.00162669 0)
(0.0946186 0.0016599 0)
(0.0897099 0.00168162 0)
(0.08475 0.00169456 0)
(0.0797625 0.00170095 0)
(0.074765 0.00170235 0)
(0.0697707 0.00169983 0)
(0.064789 0.00169441 0)
(0.0598273 0.00168712 0)
(0.0548903 0.00167878 0)
(0.0499809 0.00166983 0)
(0.0450997 0.00166056 0)
(0.0402465 0.00165131 0)
(0.0354207 0.00164252 0)
(0.0306208 0.00163457 0)
(0.0258446 0.00162761 0)
(0.021089 0.00162164 0)
(0.0163506 0.00161656 0)
(0.0116264 0.00161217 0)
(0.00692575 0.00160668 0)
(0.0022569 0.00159756 0)
(0.00685566 -0.0158402 0)
(0.025331 -0.0218488 0)
(0.0472349 -0.0219258 0)
(0.0684803 -0.0204496 0)
(0.0874764 -0.0178191 0)
(0.103374 -0.0145286 0)
(0.11585 -0.0111293 0)
(0.125029 -0.00796714 0)
(0.131283 -0.00519815 0)
(0.135061 -0.00285916 0)
(0.13679 -0.000909911 0)
(0.137058 0.000669914 0)
(0.136064 0.00190198 0)
(0.133971 0.00284755 0)
(0.130996 0.00357549 0)
(0.127337 0.0041343 0)
(0.123153 0.00455882 0)
(0.118572 0.00487727 0)
(0.113696 0.00511233 0)
(0.108605 0.00528178 0)
(0.10336 0.00539961 0)
(0.0980101 0.00547719 0)
(0.0925941 0.00552382 0)
(0.0871412 0.00554686 0)
(0.0816734 0.00555188 0)
(0.0762072 0.00554328 0)
(0.0707548 0.00552491 0)
(0.0653251 0.00550002 0)
(0.059924 0.00547109 0)
(0.0545547 0.00543983 0)
(0.0492182 0.00540761 0)
(0.0439146 0.00537575 0)
(0.0386434 0.00534553 0)
(0.0334028 0.00531793 0)
(0.02819 0.00529345 0)
(0.023001 0.0052723 0)
(0.0178317 0.0052546 0)
(0.0126776 0.0052403 0)
(0.00754877 0.00522654 0)
(0.00242344 0.00505819 0)
(0.00559688 -0.0258498 0)
(0.0236317 -0.0373489 0)
(0.0472343 -0.0379303 0)
(0.0701813 -0.0353051 0)
(0.090291 -0.0305217 0)
(0.106624 -0.0246713 0)
(0.11907 -0.0187507 0)
(0.127978 -0.0133209 0)
(0.133864 -0.008614 0)
(0.137251 -0.00467784 0)
(0.138611 -0.00147892 0)
(0.138367 0.00109241 0)
(0.136857 0.00315032 0)
(0.134347 0.00477087 0)
(0.131057 0.00602976 0)
(0.127167 0.00699729 0)
(0.122816 0.00773294 0)
(0.118118 0.00828496 0)
(0.113164 0.00869187 0)
(0.108025 0.00898447 0)
(0.102755 0.00918751 0)
(0.0973975 0.00932095 0)
(0.0919871 0.0094006 0)
(0.0865496 0.00943892 0)
(0.0811045 0.00944584 0)
(0.0756664 0.00942951 0)
(0.070246 0.00939659 0)
(0.0648511 0.00935236 0)
(0.0594865 0.00930085 0)
(0.0541546 0.00924528 0)
(0.0488562 0.00918838 0)
(0.0435913 0.0091325 0)
(0.0383589 0.00907957 0)
(0.033157 0.00903093 0)
(0.0279825 0.00898752 0)
(0.0228316 0.00895002 0)
(0.0177002 0.00891909 0)
(0.0125837 0.00889531 0)
(0.00749508 0.00887719 0)
(0.00240568 0.00859298 0)
(0.00299318 -0.0339002 0)
(0.0199923 -0.0536748 0)
(0.0469711 -0.0557151 0)
(0.0729705 -0.0516263 0)
(0.0948702 -0.0439614 0)
(0.111746 -0.0349901 0)
(0.123985 -0.0262335 0)
(0.132351 -0.0183868 0)
(0.137584 -0.0116908 0)
(0.140325 -0.00615354 0)
(0.1411 -0.00167348 0)
(0.14034 0.00191429 0)
(0.138387 0.00475584 0)
(0.135508 0.00698117 0)
(0.131919 0.00870681 0)
(0.127789 0.0100321 0)
(0.12325 0.0110385 0)
(0.118405 0.011792 0)
(0.113338 0.0123457 0)
(0.108111 0.0127424 0)
(0.102776 0.0130162 0)
(0.0973696 0.0131942 0)
(0.091924 0.0132981 0)
(0.0864617 0.0133453 0)
(0.0810002 0.0133495 0)
(0.0755522 0.0133222 0)
(0.0701271 0.0132722 0)
(0.0647315 0.0132067 0)
(0.0593691 0.0131313 0)
(0.0540419 0.0130509 0)
(0.0487503 0.012969 0)
(0.0434937 0.012889 0)
(0.0382709 0.0128132 0)
(0.0330794 0.0127435 0)
(0.0279159 0.0126814 0)
(0.0227764 0.0126279 0)
(0.0176569 0.0125841 0)
(0.0125528 0.0125509 0)
(0.00747775 0.0125262 0)
(0.00240101 0.0121222 0)
(-0.00268257 -0.0391056 0)
(0.0114727 -0.0710452 0)
(0.0456877 -0.0764192 0)
(0.0772823 -0.0701905 0)
(0.101851 -0.0583285 0)
(0.119193 -0.0453358 0)
(0.130873 -0.0333216 0)
(0.138333 -0.0229031 0)
(0.14259 -0.0141942 0)
(0.144409 -0.00709621 0)
(0.14438 -0.00141244 0)
(0.142949 0.00311342 0)
(0.140438 0.0066739 0)
(0.137104 0.00944809 0)
(0.13315 0.0115919 0)
(0.128729 0.0132332 0)
(0.123958 0.0144756 0)
(0.118931 0.0154022 0)
(0.113719 0.0160802 0)
(0.108379 0.0165629 0)
(0.102955 0.0168927 0)
(0.0974811 0.0171036 0)
(0.0919827 0.0172225 0)
(0.0864804 0.0172711 0)
(0.0809889 0.017267 0)
(0.0755193 0.0172239 0)
(0.070079 0.017153 0)
(0.0646733 0.0170632 0)
(0.059305 0.0169619 0)
(0.0539753 0.0168547 0)
(0.048684 0.0167466 0)
(0.04343 0.0166411 0)
(0.0382114 0.0165416 0)
(0.0330255 0.0164502 0)
(0.0278686 0.0163689 0)
(0.0227367 0.0162991 0)
(0.0176256 0.0162422 0)
(0.0125302 0.0161991 0)
(0.00746449 0.0161668 0)
(0.00239691 0.015644 0)
(-0.0148301 -0.0375742 0)
(-0.00694423 -0.0894027 0)
(0.0416555 -0.102796 0)
(0.0837225 -0.092256 0)
(0.112222 -0.0737132 0)
(0.129562 -0.0554407 0)
(0.139974 -0.0396944 0)
(0.145985 -0.0265874 0)
(0.148866 -0.0158975 0)
(0.14946 -0.00733253 0)
(0.148397 -0.000542614 0)
(0.146117 0.00481262 0)
(0.142913 0.00899603 0)
(0.139023 0.0122395 0)
(0.134625 0.0147359 0)
(0.129851 0.0166399 0)
(0.124802 0.0180751 0)
(0.119554 0.0191406 0)
(0.114169 0.0199155 0)
(0.108693 0.0204623 0)
(0.103163 0.0208307 0)
(0.0976068 0.0210603 0)
(0.0920452 0.0211831 0)
(0.086495 0.0212244 0)
(0.080968 0.0212046 0)
(0.0754726 0.0211399 0)
(0.0700143 0.0210434 0)
(0.0645967 0.0209257 0)
(0.0592218 0.0207954 0)
(0.0538896 0.0206592 0)
(0.0485992 0.0205227 0)
(0.0433487 0.0203903 0)
(0.0381357 0.0202657 0)
(0.0329571 0.0201516 0)
(0.0278088 0.0200504 0)
(0.0226866 0.0199638 0)
(0.017586 0.0198932 0)
(0.0125017 0.0198396 0)
(0.00744733 0.0197994 0)
(0.00239134 0.0191588 0)
(-0.0340635 -0.0205119 0)
(-0.0276615 -0.113514 0)
(0.0378903 -0.142709 0)
(0.0938528 -0.121296 0)
(0.12713 -0.0902386 0)
(0.143486 -0.0646663 0)
(0.151509 -0.0448264 0)
(0.155318 -0.0290593 0)
(0.156342 -0.016526 0)
(0.155385 -0.0066669 0)
(0.153059 0.00107079 0)
(0.149761 0.00711575 0)
(0.145742 0.011803 0)
(0.141205 0.0154173 0)
(0.136296 0.0181864 0)
(0.131117 0.0202889 0)
(0.125747 0.021866 0)
(0.120248 0.0230299 0)
(0.114665 0.0238693 0)
(0.109035 0.0244542 0)
(0.103384 0.0248404 0)
(0.097734 0.0250724 0)
(0.092101 0.0251859 0)
(0.086497 0.0252094 0)
(0.0809301 0.0251655 0)
(0.0754058 0.0250724 0)
(0.0699276 0.0249449 0)
(0.0644976 0.0247949 0)
(0.059116 0.024632 0)
(0.0537819 0.0244639 0)
(0.0484933 0.0242968 0)
(0.0432476 0.0241357 0)
(0.038042 0.0239846 0)
(0.0328726 0.0238467 0)
(0.0277352 0.0237246 0)
(0.022625 0.0236204 0)
(0.0175373 0.0235355 0)
(0.0124666 0.0234711 0)
(0.00742611 0.0234228 0)
(0.00238439 0.0226648 0)
(-0.0416972 0.00736967 0)
(-0.00307127 -0.149659 0)
(0.0583494 -0.195695 0)
(0.115087 -0.158133 0)
(0.148406 -0.107771 0)
(0.161362 -0.071968 0)
(0.165516 -0.0478933 0)
(0.166244 -0.0298424 0)
(0.164874 -0.0157822 0)
(0.162039 -0.00489282 0)
(0.15824 0.00357046 0)
(0.153775 0.0101201 0)
(0.148838 0.0151637 0)
(0.143582 0.0190325 0)
(0.138106 0.021982 0)
(0.132481 0.0242099 0)
(0.126761 0.0258712 0)
(0.120986 0.0270876 0)
(0.115187 0.0279549 0)
(0.109387 0.028549 0)
(0.103605 0.0289299 0)
(0.097853 0.0291459 0)
(0.0921426 0.0292355 0)
(0.0864803 0.0292293 0)
(0.0808703 0.0291518 0)
(0.0753152 0.0290227 0)
(0.0698163 0.0288581 0)
(0.0643736 0.0286708 0)
(0.0589858 0.0284715 0)
(0.0536507 0.0282683 0)
(0.0483652 0.028068 0)
(0.043126 0.0278761 0)
(0.0379297 0.0276968 0)
(0.0327717 0.0275338 0)
(0.0276474 0.0273899 0)
(0.0225517 0.0272672 0)
(0.0174795 0.0271674 0)
(0.0124249 0.0270917 0)
(0.00740085 0.027035 0)
(0.00237611 0.0261599 0)
(0.0215203 0.0276476 0)
(0.111769 -0.184916 0)
(0.136137 -0.234747 0)
(0.159413 -0.186425 0)
(0.178196 -0.121465 0)
(0.183056 -0.0758365 0)
(0.181583 -0.0479085 0)
(0.178451 -0.0283704 0)
(0.174221 -0.0133775 0)
(0.169217 -0.00182683 0)
(0.163769 0.00707221 0)
(0.158026 0.0139022 0)
(0.1521 0.0191323 0)
(0.146073 0.0231243 0)
(0.139994 0.0261517 0)
(0.133895 0.028425 0)
(0.127803 0.0301074 0)
(0.121736 0.0313264 0)
(0.115709 0.0321822 0)
(0.109731 0.0327541 0)
(0.10381 0.0331049 0)
(0.0979515 0.0332851 0)
(0.09216 0.0333348 0)
(0.0864368 0.0332862 0)
(0.0807822 0.0331648 0)
(0.0751958 0.0329914 0)
(0.0696762 0.0327829 0)
(0.0642215 0.0325532 0)
(0.0588287 0.0323131 0)
(0.0534939 0.0320714 0)
(0.0482132 0.0318351 0)
(0.0429827 0.03161 0)
(0.0377977 0.0314009 0)
(0.0326536 0.0312114 0)
(0.0275449 0.0310444 0)
(0.0224661 0.0309024 0)
(0.017412 0.0307869 0)
(0.0123763 0.0306995 0)
(0.00737146 0.0306342 0)
(0.00236649 0.0296423 0)
(0.150852 -0.0995545 0)
(0.253717 -0.238504 0)
(0.244165 -0.243291 0)
(0.22153 -0.185733 0)
(0.213857 -0.121292 0)
(0.206788 -0.0739745 0)
(0.198662 -0.0443147 0)
(0.19128 -0.0242433 0)
(0.183986 -0.00907362 0)
(0.17665 0.00266497 0)
(0.169443 0.0116538 0)
(0.162364 0.0185121 0)
(0.155413 0.0237421 0)
(0.148591 0.0277153 0)
(0.141891 0.030712 0)
(0.135306 0.0329463 0)
(0.128833 0.0345837 0)
(0.122467 0.0357533 0)
(0.116206 0.0365566 0)
(0.110045 0.0370736 0)
(0.103983 0.0373684 0)
(0.0980163 0.037492 0)
(0.0921425 0.0374852 0)
(0.086358 0.0373806 0)
(0.0806591 0.0372045 0)
(0.075042 0.0369781 0)
(0.069503 0.036719 0)
(0.0640378 0.0364411 0)
(0.0586416 0.0361557 0)
(0.0533092 0.0358717 0)
(0.0480356 0.0355965 0)
(0.0428159 0.035336 0)
(0.037645 0.035095 0)
(0.0325172 0.0348774 0)
(0.0274268 0.0346863 0)
(0.0223678 0.034524 0)
(0.0173346 0.0343923 0)
(0.0123206 0.0342926 0)
(0.0073378 0.0342184 0)
(0.0023555 0.0331099 0)
(0.0131601 -0.219211 0)
(0.0422814 -0.263572 0)
(0.072972 -0.252833 0)
(0.102562 -0.248431 0)
(0.132117 -0.249806 0)
(0.162037 -0.252878 0)
(0.192313 -0.256509 0)
(0.222981 -0.260674 0)
(0.254116 -0.265473 0)
(0.285795 -0.270967 0)
(0.318091 -0.277195 0)
(0.351085 -0.284199 0)
(0.384859 -0.292027 0)
(0.419506 -0.300735 0)
(0.455116 -0.31039 0)
(0.491812 -0.321068 0)
(0.529679 -0.332852 0)
(0.568891 -0.345853 0)
(0.609545 -0.360156 0)
(0.651823 -0.37596 0)
(0.695932 -0.39327 0)
(0.742049 -0.412331 0)
(0.79056 -0.433982 0)
(0.841663 -0.457491 0)
(0.895129 -0.481094 0)
(0.952341 -0.50792 0)
(1.01536 -0.546108 0)
(1.07989 -0.600238 0)
(1.14914 -0.6591 0)
(1.23407 -0.679763 0)
(1.29068 -0.592535 0)
(1.23539 -0.391333 0)
(1.08961 -0.0990927 0)
(0.833954 0.224721 0)
(0.572742 0.480976 0)
(0.399153 0.625923 0)
(0.293592 0.682552 0)
(0.22259 0.706542 0)
(0.166325 0.733422 0)
(0.117986 0.780298 0)
(0.081305 0.859503 0)
(0.0726885 0.979405 0)
(0.117968 1.13031 0)
(0.207407 1.29889 0)
(0.418563 1.45796 0)
(0.454429 1.85054 0)
(0.0130874 -0.240024 0)
(0.0417746 -0.287311 0)
(0.071844 -0.275634 0)
(0.100885 -0.271077 0)
(0.129955 -0.272644 0)
(0.159382 -0.275962 0)
(0.189139 -0.279871 0)
(0.219267 -0.284362 0)
(0.249838 -0.289543 0)
(0.280924 -0.295474 0)
(0.312595 -0.302197 0)
(0.344926 -0.309758 0)
(0.377994 -0.318207 0)
(0.411886 -0.327607 0)
(0.446686 -0.338029 0)
(0.482508 -0.349557 0)
(0.519427 -0.362282 0)
(0.557613 -0.376324 0)
(0.597141 -0.39178 0)
(0.638184 -0.408872 0)
(0.680933 -0.427594 0)
(0.725555 -0.448321 0)
(0.772394 -0.471891 0)
(0.821456 -0.497151 0)
(0.872704 -0.5227 0)
(0.928163 -0.553421 0)
(0.987271 -0.598746 0)
(1.04406 -0.66201 0)
(1.11311 -0.718955 0)
(1.19441 -0.711915 0)
(1.19231 -0.565036 0)
(1.08863 -0.291933 0)
(0.863972 0.0842708 0)
(0.570472 0.4185 0)
(0.375542 0.622698 0)
(0.278045 0.705404 0)
(0.228035 0.728496 0)
(0.195544 0.739896 0)
(0.169207 0.760895 0)
(0.148914 0.800852 0)
(0.141909 0.865647 0)
(0.160538 0.958389 0)
(0.229706 1.06947 0)
(0.324484 1.20017 0)
(0.576058 1.31122 0)
(0.759304 1.60934 0)
(0.0130025 -0.260844 0)
(0.0412097 -0.310762 0)
(0.0706092 -0.29818 0)
(0.0990657 -0.293526 0)
(0.127613 -0.295292 0)
(0.156502 -0.298845 0)
(0.185697 -0.303018 0)
(0.215239 -0.30782 0)
(0.2452 -0.313364 0)
(0.275645 -0.319711 0)
(0.306641 -0.326906 0)
(0.338255 -0.334996 0)
(0.37056 -0.344035 0)
(0.403637 -0.35409 0)
(0.43756 -0.365238 0)
(0.472438 -0.377567 0)
(0.508329 -0.391177 0)
(0.5454 -0.406196 0)
(0.583701 -0.42273 0)
(0.623392 -0.441022 0)
(0.664648 -0.461053 0)
(0.707619 -0.483336 0)
(0.752563 -0.508636 0)
(0.799309 -0.535369 0)
(0.84828 -0.562788 0)
(0.901554 -0.59766 0)
(0.954369 -0.650612 0)
(1.00465 -0.720706 0)
(1.07541 -0.766597 0)
(1.13535 -0.70945 0)
(1.08086 -0.495169 0)
(0.914715 -0.130562 0)
(0.614128 0.295371 0)
(0.370674 0.579968 0)
(0.261658 0.70624 0)
(0.220941 0.740266 0)
(0.204394 0.746248 0)
(0.194166 0.752911 0)
(0.186571 0.770529 0)
(0.184836 0.803481 0)
(0.196864 0.853763 0)
(0.23042 0.921724 0)
(0.310276 0.997759 0)
(0.407331 1.07745 0)
(0.617157 1.1248 0)
(0.87113 1.2776 0)
(0.0129028 -0.281642 0)
(0.0405847 -0.333885 0)
(0.0692695 -0.320438 0)
(0.0971086 -0.315743 0)
(0.125093 -0.317716 0)
(0.153402 -0.32149 0)
(0.181991 -0.325911 0)
(0.210905 -0.331007 0)
(0.240211 -0.336895 0)
(0.269969 -0.343636 0)
(0.30024 -0.351277 0)
(0.331086 -0.359864 0)
(0.362575 -0.369459 0)
(0.394778 -0.380129 0)
(0.427762 -0.391955 0)
(0.461628 -0.405032 0)
(0.496416 -0.419463 0)
(0.532292 -0.435386 0)
(0.569272 -0.452911 0)
(0.607506 -0.472302 0)
(0.647151 -0.493521 0)
(0.688331 -0.517222 0)
(0.731168 -0.544023 0)
(0.775399 -0.571933 0)
(0.822148 -0.601134 0)
(0.87228 -0.640484 0)
(0.916825 -0.701476 0)
(0.964832 -0.773517 0)
(1.03555 -0.798615 0)
(1.05332 -0.676816 0)
(0.955801 -0.382758 0)
(0.706583 0.0870818 0)
(0.40093 0.485633 0)
(0.252803 0.683615 0)
(0.208809 0.741697 0)
(0.199828 0.749233 0)
(0.200011 0.749268 0)
(0.201511 0.754526 0)
(0.205173 0.76912 0)
(0.214943 0.794745 0)
(0.23798 0.831365 0)
(0.278507 0.877009 0)
(0.355783 0.924344 0)
(0.452129 0.960177 0)
(0.599904 0.957891 0)
(0.83459 1.01068 0)
(0.0127865 -0.302384 0)
(0.0398988 -0.356634 0)
(0.0678275 -0.342372 0)
(0.095018 -0.337693 0)
(0.122402 -0.339875 0)
(0.15009 -0.343857 0)
(0.178032 -0.348509 0)
(0.206276 -0.353881 0)
(0.234883 -0.360092 0)
(0.263909 -0.367203 0)
(0.293408 -0.37526 0)
(0.323439 -0.384313 0)
(0.35406 -0.394424 0)
(0.385335 -0.405665 0)
(0.417323 -0.418118 0)
(0.450115 -0.431884 0)
(0.483733 -0.447067 0)
(0.518341 -0.463812 0)
(0.553916 -0.482233 0)
(0.590601 -0.502608 0)
(0.628537 -0.52488 0)
(0.667807 -0.549839 0)
(0.708348 -0.57788 0)
(0.749989 -0.606665 0)
(0.794598 -0.637547 0)
(0.84004 -0.681716 0)
(0.875751 -0.750344 0)
(0.925869 -0.817944 0)
(0.99082 -0.809225 0)
(0.961803 -0.620247 0)
(0.808641 -0.220246 0)
(0.489631 0.309092 0)
(0.262376 0.624201 0)
(0.197475 0.732547 0)
(0.188976 0.748786 0)
(0.194242 0.746286 0)
(0.201675 0.745185 0)
(0.209417 0.749546 0)
(0.219923 0.760708 0)
(0.236603 0.779044 0)
(0.265111 0.803666 0)
(0.308136 0.831024 0)
(0.376508 0.856812 0)
(0.467136 0.866812 0)
(0.572382 0.837418 0)
(0.742569 0.831757 0)
(0.0126515 -0.323034 0)
(0.0391514 -0.378969 0)
(0.0662866 -0.363949 0)
(0.0927993 -0.359341 0)
(0.119546 -0.361732 0)
(0.146572 -0.365905 0)
(0.173829 -0.370772 0)
(0.201362 -0.376402 0)
(0.229229 -0.382914 0)
(0.257481 -0.390368 0)
(0.286167 -0.398811 0)
(0.315336 -0.408294 0)
(0.345042 -0.418881 0)
(0.375341 -0.430644 0)
(0.40628 -0.443671 0)
(0.437943 -0.45806 0)
(0.47033 -0.473921 0)
(0.503607 -0.4914 0)
(0.537706 -0.510613 0)
(0.572767 -0.531849 0)
(0.608918 -0.555027 0)
(0.646177 -0.581068 0)
(0.684271 -0.610076 0)
(0.72341 -0.63945 0)
(0.765873 -0.67197 0)
(0.804809 -0.7214 0)
(0.833772 -0.795826 0)
(0.888384 -0.85211 0)
(0.933559 -0.79079 0)
(0.86429 -0.518077 0)
(0.633049 0.00944218 0)
(0.315062 0.495878 0)
(0.191861 0.703896 0)
(0.176211 0.745867 0)
(0.182659 0.743415 0)
(0.193136 0.738716 0)
(0.203662 0.737524 0)
(0.215105 0.740487 0)
(0.229861 0.747896 0)
(0.250532 0.759486 0)
(0.281093 0.774116 0)
(0.323903 0.787843 0)
(0.38301 0.797687 0)
(0.462611 0.793891 0)
(0.544344 0.754396 0)
(0.654615 0.715613 0)
(0.0124964 -0.343556 0)
(0.0383428 -0.40085 0)
(0.0646509 -0.385136 0)
(0.0904585 -0.380651 0)
(0.116532 -0.383249 0)
(0.14286 -0.387597 0)
(0.169392 -0.39266 0)
(0.196177 -0.398528 0)
(0.223267 -0.405318 0)
(0.250705 -0.413088 0)
(0.278536 -0.421885 0)
(0.306803 -0.431761 0)
(0.335551 -0.44278 0)
(0.364829 -0.455016 0)
(0.394673 -0.468557 0)
(0.425159 -0.483503 0)
(0.456265 -0.499962 0)
(0.488159 -0.518084 0)
(0.520724 -0.53798 0)
(0.554103 -0.559947 0)
(0.588417 -0.583877 0)
(0.623578 -0.610815 0)
(0.659125 -0.640518 0)
(0.695982 -0.670211 0)
(0.735972 -0.704498 0)
(0.76699 -0.75987 0)
(0.793818 -0.836959 0)
(0.851546 -0.874931 0)
(0.865616 -0.747018 0)
(0.758041 -0.376519 0)
(0.451202 0.243375 0)
(0.208198 0.626882 0)
(0.163621 0.736748 0)
(0.168713 0.741911 0)
(0.180076 0.73404 0)
(0.192097 0.729414 0)
(0.20426 0.727769 0)
(0.218106 0.728804 0)
(0.235412 0.732451 0)
(0.258098 0.73815 0)
(0.288724 0.744664 0)
(0.329337 0.748529 0)
(0.380464 0.746662 0)
(0.446539 0.733724 0)
(0.512995 0.692795 0)
(0.585404 0.640339 0)
(0.0123198 -0.363908 0)
(0.0374741 -0.422238 0)
(0.0629253 -0.405903 0)
(0.0880023 -0.401588 0)
(0.113369 -0.404387 0)
(0.138962 -0.408893 0)
(0.164736 -0.414135 0)
(0.190737 -0.420221 0)
(0.217013 -0.427264 0)
(0.243602 -0.435322 0)
(0.270541 -0.444439 0)
(0.297869 -0.454668 0)
(0.325621 -0.466075 0)
(0.353839 -0.478733 0)
(0.382549 -0.492728 0)
(0.411817 -0.50816 0)
(0.4416 -0.525136 0)
(0.472072 -0.543804 0)
(0.503056 -0.564271 0)
(0.534716 -0.586839 0)
(0.567163 -0.611364 0)
(0.600154 -0.63901 0)
(0.633121 -0.66913 0)
(0.667963 -0.698882 0)
(0.704628 -0.735216 0)
(0.727042 -0.796853 0)
(0.75596 -0.872029 0)
(0.811443 -0.882944 0)
(0.79127 -0.684314 0)
(0.628514 -0.179059 0)
(0.290187 0.443458 0)
(0.156607 0.701869 0)
(0.153457 0.74182 0)
(0.164895 0.731981 0)
(0.177458 0.723807 0)
(0.189935 0.719248 0)
(0.203211 0.716599 0)
(0.21857 0.715448 0)
(0.237199 0.715589 0)
(0.260485 0.716334 0)
(0.289986 0.716394 0)
(0.327145 0.713057 0)
(0.371321 0.703163 0)
(0.42469 0.683777 0)
(0.478811 0.644559 0)
(0.530529 0.591273 0)
(0.0121211 -0.384052 0)
(0.0365469 -0.443097 0)
(0.0611153 -0.426219 0)
(0.085438 -0.422119 0)
(0.110065 -0.425112 0)
(0.13489 -0.429758 0)
(0.159873 -0.43516 0)
(0.185059 -0.441442 0)
(0.210488 -0.448714 0)
(0.236195 -0.457029 0)
(0.26221 -0.466432 0)
(0.288564 -0.476976 0)
(0.315287 -0.488724 0)
(0.342412 -0.501749 0)
(0.369955 -0.516137 0)
(0.397973 -0.531984 0)
(0.426402 -0.549395 0)
(0.455422 -0.568513 0)
(0.484795 -0.589438 0)
(0.514718 -0.612475 0)
(0.545289 -0.637438 0)
(0.576052 -0.665608 0)
(0.606508 -0.695871 0)
(0.639602 -0.725451 0)
(0.671774 -0.76421 0)
(0.686227 -0.831572 0)
(0.720354 -0.899883 0)
(0.765455 -0.870434 0)
(0.710288 -0.585753 0)
(0.472618 0.0652524 0)
(0.183671 0.586821 0)
(0.136608 0.733201 0)
(0.148492 0.73414 0)
(0.161165 0.72092 0)
(0.173816 0.713438 0)
(0.186541 0.708452 0)
(0.200578 0.704467 0)
(0.216733 0.701138 0)