/*--------------------------------*- C++ -*----------------------------------*\
| =========                 |                                                 |
| \\      /  F ield         | OpenFOAM: The Open Source CFD Toolbox           |
|  \\    /   O peration     | Version:  3.0.1                                 |
|   \\  /    A nd           | Web:      www.OpenFOAM.org                      |
|    \\/     M anipulation  |                                                 |
\*---------------------------------------------------------------------------*/
FoamFile
{
    version     2.0;
    format      ascii;
    class       volScalarField;
    location    "3";
    object      p;
}
// * * * * * * * * * * * * * * * * * * * * * * * * * * * * * * * * * * * * * //

dimensions      [1 -1 -2 0 0 0 0];

internalField   nonuniform List<scalar> 
7968
(
4647.02633981
4647.02679064
4646.99174049
4646.93371995
4646.85922257
4646.77882405
4646.70502603
4646.64546425
4646.60408343
4646.5828078
4646.58229329
4646.6026019
4646.64315862
4646.70210533
4646.77551643
4646.85575879
4646.93018785
4646.98818148
4647.02317927
4647.0224964
4647.02710547
4647.05532249
4647.03433677
4646.9844774
4646.91224383
4646.83161305
4646.75533043
4646.69370059
4646.65110298
4646.62923354
4646.62870304
4646.64958937
4646.69138148
4646.75246386
4646.82845473
4646.90894843
4646.98108068
4647.03080413
4647.05155943
4647.02271461
4646.99238184
4647.0345484
4647.01461002
4646.95686509
4646.86860499
4646.76819901
4646.67281472
4646.59498904
4646.54095903
4646.51317817
4646.51254156
4646.53917833
4646.59233012
4646.66964185
4646.76477531
4646.86501038
4646.95305182
4647.01046028
4647.0299737
4646.9869609
4646.93444838
4646.9847962
4646.95694896
4646.8790739
4646.76249905
4646.63197146
4646.51007695
4646.41148311
4646.343249
4646.30813898
4646.30735792
4646.34111254
4646.40834563
4646.50644603
4646.62812108
4646.75841738
4646.87458013
4646.95187501
4646.97906557
4646.92767851
4646.85996932
4646.91245537
4646.86859034
4646.76234787
4646.61242956
4646.45122346
4646.30538077
4646.18986628
4646.11080995
4646.07027979
4646.06940582
4646.10841097
4646.18636498
4646.30137723
4646.44702279
4646.60793019
4646.75721691
4646.86258083
4646.90554692
4646.85188138
4646.77949259
4646.83173944
4646.76796229
4646.63150185
4646.45084744
4646.2645987
4646.10139316
4645.97529442
4645.89004547
4645.84638093
4645.84547075
4645.88748405
4645.97152657
4646.09711889
4646.2601759
4646.44608831
4646.62593876
4646.76124498
4646.82390262
4646.77033285
4646.70561571
4646.75528274
4646.67229131
4646.50923682
4646.30460136
4646.10102427
4645.92808334
4645.79861458
4645.71230847
4645.66815395
4645.66721178
4645.70963935
4645.79461885
4645.92355068
4646.09640044
4646.29968382
4646.50341383
4646.6651178
4646.7467578
4646.69569176
4646.64601169
4646.6935638
4646.5943109
4646.41047638
4646.18900454
4645.97495016
4645.79874555
4645.67227168
4645.59212099
4645.55227254
4645.55129083
4645.5892913
4645.66789547
4645.79384661
4645.97004701
4646.18388163
4646.40445814
4646.58685767
4646.68462557
4646.63560573
4646.60467213
4646.65100877
4646.54033232
4646.34236755
4646.11026707
4645.89021425
4645.71315585
4645.59299597
4645.52079574
4645.48480475
4645.48375698
4645.51777643
4645.58829605
4645.70786973
4645.88503202
4646.1049537
4646.33623525
4646.53271322
4646.64182152
4646.59396944
4646.58349141
4646.62925859
4646.51269795
4646.30739355
4646.0701903
4645.84720317
4645.66979925
4645.55416305
4645.48598015
4645.45145956
4645.45033723
4645.48279105
4645.54927164
4645.66433398
4645.84188483
4646.06481648
4646.30136939
4646.50503542
4646.61994461
4646.57263191
4646.58309473
4646.62888756
4646.51230243
4646.30694626
4646.06981819
4645.8468952
4645.6695658
4645.55405038
4645.48597687
4645.45151589
4645.45039244
4645.48278373
4645.54914868
4645.66407985
4645.84156094
4646.06444425
4646.30096185
4646.50461851
4646.61952377
4646.57218079
4646.60347462
4646.64989143
4646.53917465
4646.34117619
4646.10914839
4645.88922409
4645.71234732
4645.59250809
4645.52061142
4645.4847584
4645.4837057
4645.5175616
4645.58775333
4645.70699592
4645.88398608
4646.10378547
4646.33498237
4646.53143673
4646.64054092
4646.59260287
4646.64399915
4646.69166731
4646.59233386
4646.40842193
4646.18697925
4645.97304884
4645.79705978
4645.67094055
4645.59116762
4645.55149262
4645.55049593
4645.58826919
4645.66646373
4645.79207
4645.9680655
4646.18175469
4646.40224399
4646.58464797
4646.68243875
4646.63329591
4646.70278905
4646.75258201
4646.66943991
4646.5061974
4646.30146851
4646.0979122
4645.92512186
4645.79592497
4645.70986242
4645.66583334
4645.66486259
4645.70709276
4645.79180284
4645.92048065
4646.09317747
4646.29638179
4646.50010637
4646.66189915
4646.74361429
4646.69241501
4646.77594001
4646.82829302
4646.76427776
4646.62747145
4646.44654138
4646.26011429
4646.09689292
4645.97091976
4645.88583458
4645.84228227
4645.84132795
4645.88317391
4645.96703435
4646.09249609
4646.25552476
4646.44150514
4646.62149734
4646.75702246
4646.81981031
4646.76614895
4646.85580664
4646.9083968
4646.86420637
4646.75744745
4646.60700679
4646.44543141
4646.29933832
4646.18378648
4646.10484972
4646.06449934
4646.06355773
4646.10236047
4646.18018211
4646.29517905
4646.44096298
4646.60209448
4646.7517305
4646.85746348
4646.90066067
4646.84688478
4646.92986319
4646.98028465
4646.95204543
4646.87351777
4646.75621808
4646.62507434
4646.50273877
4646.40394029
4646.3357921
4646.30102447
4646.30011816
4646.33354717
4646.40068545
4646.49888664
4646.62084501
4646.7515603
4646.86825029
4646.94603476
4646.97352848
4646.92205405
4646.98753637
4647.02975487
4647.00936684
4646.95088264
4646.861778
4646.76059839
4646.66460573
4646.58640869
4646.53225736
4646.50453007
4646.50382032
4646.53035858
4646.58356624
4646.66111653
4646.75667211
4646.857458
4646.94613387
4647.00411927
4647.02399164
4646.98090411
4647.02218794
4647.05037111
4647.02890379
4646.97826364
4646.90513437
4646.82366388
4646.74670646
4646.68462341
4646.64177897
4646.61981389
4646.61923108
4646.64013671
4646.68207435
4646.74346069
4646.81992779
4646.90101803
4646.97385331
4647.02418236
4647.04533529
4647.01649863
4647.02139839
4647.0217373
4646.98616669
4646.92737213
4646.85200107
4646.77075916
4646.69628813
4646.63625333
4646.59458123
4646.57316411
4646.5726056
4646.59297769
4646.63371808
4646.69298599
4646.76687679
4646.84773012
4646.92281274
4646.98138446
4647.01680486
4647.01617459
4157.39873114
4157.38536877
4157.33801379
4157.26887568
4157.1871859
4157.10300622
4157.02687211
4156.96625797
4156.92453722
4156.90314635
4156.9026367
4156.92305132
4156.96391025
4157.02383962
4157.0995122
4157.18344
4157.26503947
4157.33421498
4157.38160064
4157.39484754
4157.38575726
4157.39785383
4157.36067927
4157.29928462
4157.22660382
4157.1524734
4157.08491972
4157.03121794
4156.99413692
4156.9749681
4156.97449071
4156.99273838
4157.02900223
4157.08205912
4157.14914438
4157.22289925
4157.29536624
4157.35664669
4157.3937127
4157.38111426
4157.33862958
4157.36083473
4157.31756225
4157.24519333
4157.16087445
4157.07537187
4156.99795923
4156.9356751
4156.89197553
4156.86904862
4156.86849963
4156.89040346
4156.93324314
4156.99493878
4157.07188061
4157.15690707
4157.24075956
4157.31276511
4157.3557102
4157.33267452
4157.26980022
4157.29959041
4157.2453348
4157.15435259
4157.05093635
4156.94852476
4156.85746867
4156.78404554
4156.73152577
4156.70314505
4156.70243158
4156.72966424
4156.78124036
4156.85417848
4156.944782
4157.04658326
4157.14923432
4157.23947644
4157.29310691
4157.26224141
4157.18828066
4157.22710841
4157.16109203
4157.05102918
4156.93133836
4156.81787196
4156.72196915
4156.64630829
4156.59255383
4156.56355109
4156.5629274
4156.59073428
4156.64350469
4156.71859241
4156.81400001
4156.92669693
4157.04532217
4157.15430406
4157.21936814
4157.17922563
4157.10413539
4157.15296241
4157.07555398
4156.94851774
4156.81778989
4156.70309415
4156.61074203
4156.54064567
4156.4902308
4156.46206838
4156.46153502
4156.488641
4156.53809772
4156.60751805
4156.69917708
4156.81293755
4156.94236127
4157.06801656
4157.14415518
4157.09389028
4157.02798405
4157.08537033
4156.99807898
4156.85733844
4156.72181431
4156.61065504
4156.52797691
4156.46838135
4156.42397095
4156.39769175
4156.39726459
4156.42280816
4156.46637121
4156.52512369
4156.60675983
4156.7166807
4156.85081187
4156.98998802
4157.07588642
4157.01692086
4156.96738441
4157.0317266
4156.935849
4156.78391797
4156.64637422
4156.54076607
4156.46865047
4156.42066747
4156.37892656
4156.35209212
4156.35159341
4156.37752912
4156.41835311
4156.46583858
4156.53676049
4156.64083772
4156.7770303
4156.9273122
4157.02175545
4156.955812
4156.92574743
4156.99480712
4156.89237544
4156.73161063
4156.59320936
4156.49102471
4156.42505405
4156.37986767
4156.33909394
4156.3135801
4156.31301367
4156.33732015
4156.37699884
4156.42170756
4156.48664677
4156.58725673
4156.72458416
4156.88352236
4156.98449812
4156.91385834
4156.90447124
4156.97581103
4156.86959255
4156.70254504
4156.56467063
4156.46346278
4156.39932673
4156.35390586
4156.31477137
4156.29028635
4156.28951948
4156.31275701
4156.3507647
4156.39576012
4156.45892444
4156.558638
4156.69647388
4156.86070214
4156.96532553
4156.89240686
4156.90407518
4156.97548719
4156.86925457
4156.70191276
4156.5644562
4156.46339509
4156.39936535
4156.35403574
4156.31503611
4156.2906542
4156.2898864
4156.31302688
4156.35090636
4156.39580166
4156.45885631
4156.55847249
4156.69618428
4156.8603852
4156.96495622
4156.89194608
4156.92454659
4156.99382699
4156.89146925
4156.7307571
4156.59264597
4156.49073892
4156.4250336
4156.38014409
4156.33967376
4156.31435947
4156.31380618
4156.33789539
4156.37724766
4156.42167126
4156.48635611
4156.58670908
4156.7237548
4156.88254384
4156.98336552
4156.91246179
4156.96535442
4157.03003294
4156.93426766
4156.78247069
4156.64524077
4156.53996816
4156.46818265
4156.42073196
4156.3792466
4156.35258757
4156.35209065
4156.37779371
4156.41834504
4156.46531512
4156.53597275
4156.63969615
4156.7755086
4156.92556262
4157.01979046
4156.95344774
4157.02510971
4157.08289038
4156.99569302
4156.85504544
4156.71977287
4156.6089229
4156.52660621
4156.46747296
4156.42340662
4156.39725641
4156.39683599
4156.42213355
4156.46529406
4156.52371725
4156.60505346
4156.71460318
4156.84836975
4156.98731889
4157.07299716
4157.01355032
4157.10049578
4157.14969404
4157.07230922
4156.94522526
4156.81458433
4156.70006557
4156.60797894
4156.53819055
4156.48804871
4156.46004907
4156.45947387
4156.48636566
4156.53555461
4156.60473604
4156.69614214
4156.80963247
4156.93879901
4157.0643361
4157.14032652
4157.08956415
4157.18402725
4157.22320057
4157.15704657
4157.046719
4156.92686456
4156.8133287
4156.71752002
4156.64203577
4156.58855255
4156.55990065
4156.55919576
4156.58669565
4156.63923572
4156.71413674
4156.8094109
4156.92197623
4157.04056809
4157.14962531
4157.21466432
4157.17406801
4157.26513781
4157.29516336
4157.24060841
4157.14914081
4157.04530966
4156.94255004
4156.85126841
4156.7777097
4156.72540389
4156.69841359
4156.69718274
4156.72347163
4156.77495533
4156.84790094
4156.93857649
4157.04051958
4157.14337126
4157.23389508
4157.28765729
4157.25645841
4157.33377516
4157.35606372
4157.31235435
4157.23931224
4157.15433647
4157.06825595
4156.99040312
4156.92785026
4156.88410976
4156.86136138
4156.86072016
4156.88246528
4156.92532111
4156.98715498
4157.0643637
4157.14976561
4157.23404284
4157.30648957
4157.34972187
4157.32651132
4157.38081467
4157.39290098
4157.35521468
4157.29303903
4157.21954846
4157.14467901
4157.07653083
4157.02244181
4156.98515235
4156.96591139
4156.96538425
4156.98363871
4157.02001354
4157.07331054
4157.140805
4157.21511311
4157.28812657
4157.34997969
4157.38743834
4157.37477317
4157.39383524
4157.38038244
4157.33247787
4157.26251433
4157.17992511
4157.09489857
4157.0180848
4156.95700194
4156.91498475
4156.89344302
4156.89288386
4156.91335812
4156.9543917
4157.01463082
4157.09078529
4157.17533412
4157.25759369
4157.32738282
4157.37522508
4157.388533
3667.82670458
3667.80801263
3667.75553624
3667.68130874
3667.59650759
3667.51103885
3667.43456824
3667.3739873
3667.33261014
3667.31153752
3667.31109266
3667.33129426
3667.3718733
3667.43178529
3667.50780058
3667.59303322
3667.67780119
3667.75217981
3667.8048426
3667.82343552
3667.80852466
3667.82400885
3667.78754631
3667.72582984
3667.65771772
3667.59099071
3667.53149491
3667.48443973
3667.45208044
3667.4354362
3667.43511305
3667.45108412
3667.4827823
3667.52925116
3667.58826955
3667.65459873
3667.72246356
3667.78411752
3667.82047225
3667.80420264
3667.75643933
3667.78777564
3667.74463742
3667.66637926
3667.58244431
3667.50196877
3667.43168496
3667.37682194
3667.3396819
3667.32075887
3667.32032118
3667.33834704
3667.37472649
3667.42913276
3667.4989926
3667.57894353
3667.66236107
3667.74030275
3667.78299916
3667.75031421
3667.68265653
3667.72632568
3667.66657539
3667.55811827
3667.44415984
3667.33795315
3667.24761125
3667.17928926
3667.1352783
3667.11381087
3667.11326758
3667.13347745
3667.176421
3667.2446932
3667.33467664
3667.44007887
3667.55308552
3667.66083305
3667.7197888
3667.67436247
3667.59816279
3667.65847119
3667.58282491
3667.44430067
3667.30171332
3667.1727607
3667.04694849
3666.97346265
3666.94151071
3666.91872276
3666.91807095
3666.93948282
3667.00184256
3667.08368203
3667.17036365
3667.29782323
3667.43860939
3667.57587471
3667.65033196
3667.58790219
3667.51285265
3667.59191926
3667.50242996
3667.33789783
3667.17212241
3666.97060164
3666.79457319
3666.76251476
3666.77039111
3666.74970834
3666.74939026
3666.76940998
3666.87250635
3667.01291554
3667.08036898
3667.16970863
3667.33215473
3667.49457976
3667.58246242
3667.50104434
3667.43644458
3667.53252851
3667.43212129
3667.24699137
3667.04497588
3666.71442857
3666.51849634
3666.54512537
3666.59242077
3666.57517493
3666.57569973
3666.59377822
3666.74107926
3666.97474855
3667.07770176
3667.08327406
3667.24164275
3667.42369646
3667.52216781
3667.4235979
3667.37593058
3667.48565454
3667.377417
3667.17838976
3666.92786596
3666.51683292
3666.32966412
3666.38451773
3666.4582938
3666.44847584
3666.44975193
3666.46169896
3666.6261714
3666.91664286
3667.07215631
3667.03669068
3667.1730042
3667.36843962
3667.47465868
3667.36245504
3667.33466158
3667.45356887
3667.34081658
3667.13547274
3666.86242176
3666.43632676
3666.25151584
3666.31996972
3666.40587992
3666.39974312
3666.40030774
3666.41023797
3666.57335447
3666.87071714
3667.04096427
3667.00167179
3667.12938916
3667.33123202
3667.44209642
3667.32078852
3667.31369215
3667.43714984
3667.3225501
3667.11612741
3666.84102909
3666.41670022
3666.2340672
3666.30850081
3666.39655142
3666.39237484
3666.39366435
3666.40033637
3666.56115237
3666.85161943
3667.01966039
3666.979221
3667.10836086
3667.31241145
3667.4253605
3667.29957365
3667.31330643
3667.43691608
3667.32242645
3667.11642769
3666.84109648
3666.41671451
3666.2336884
3666.30757882
3666.39532256
3666.39088476
3666.3924389
3666.39929085
3666.55985929
3666.85036021
3667.01892255
3666.97906209
3667.10827331
3667.31218313
3667.42502692
3667.29908158
3667.33347451
3667.45279783
3667.34024294
3667.13516518
3666.86238242
3666.43640902
3666.25021531
3666.31719041
3666.40265381
3666.39653711
3666.39696902
3666.40660745
3666.56942396
3666.86687993
3667.03861406
3667.00107497
3667.12896629
3667.33048705
3667.4410655
3667.31929921
3667.37390988
3667.48425931
3667.3762661
3667.17749598
3666.9238822
3666.50443198
3666.30623267
3666.35413603
3666.42622757
3666.4172965
3666.41876772
3666.43056705
3666.59588863
3666.89099978
3667.05731412
3667.03248834
3667.17200326
3667.36702984
3667.47285278
3667.35994113
3667.43357247
3667.53040374
3667.43020615
3667.24519627
3667.03906974
3666.68932874
3666.46630125
3666.47669294
3666.52004988
3666.50397601
3666.5052856
3666.52389875
3666.67458472
3666.92238316
3667.05180515
3667.07760761
3667.23966747
3667.42140248
3667.51946899
3667.42002581
3667.50922088
3667.58904477
3667.49965375
3667.33503958
3667.16918789
3666.95577894
3666.75209337
3666.69827524
3666.70059586
3666.68079278
3666.6812916
3666.70200924
3666.81049246
3666.97113857
3667.06567494
3667.16667432
3667.32897464
3667.49124499
3667.57881718
3667.49648137
3667.59394216
3667.654939
3667.57920262
3667.44035304
3667.29751163
3667.16830268
3667.03838282
3666.95713892
3666.92180233
3666.8991448
3666.89873422
3666.92038122
3666.98581482
3667.07494169
3667.16586586
3667.29333496
3667.43412607
3667.57146387
3667.64579315
3667.58250197
3667.67807182
3667.72225242
3667.66222396
3667.55318501
3667.43875399
3667.33217987
3667.24162245
3667.17307037
3667.12920967
3667.106683
3667.10650925
3667.12748822
3667.1704645
3667.238596
3667.3286175
3667.43414094
3667.54735245
3667.65543534
3667.71446473
3667.6683617
3667.75174714
3667.7833635
3667.73977624
3667.6607296
3667.57607727
3667.49503038
3667.42433391
3667.36920219
3667.33190851
3667.31273186
3667.31231765
3667.33049776
3667.36694312
3667.42143478
3667.49150701
3667.57179474
3667.65566958
3667.7341629
3667.77712758
3667.74400413
3667.8038437
3667.81940537
3667.78236163
3667.71973121
3667.65071991
3667.58321948
3667.52312641
3667.47567701
3667.44305508
3667.42622812
3667.42585323
3667.44187553
3667.47367419
3667.52035242
3667.57975698
3667.64663172
3667.7151371
3667.77748818
3667.81426678
3667.79779462
3667.82207344
3667.80330331
3667.75012648
3667.67488288
3667.58901437
3667.50257073
3667.42532548
3667.36420776
3667.32246503
3667.30117873
3667.30065223
3667.32090923
3667.36166344
3667.4219038
3667.49845881
3667.58441454
3667.66999495
3667.74517581
3667.79839643
3667.8170648
3178.29801924
3178.27601951
3178.2228161
3178.14875847
3178.06543927
3177.98220936
3177.90818147
3177.84961996
3177.80994447
3177.78994543
3177.78962299
3177.8089649
3177.84800301
3177.90598853
3177.97963568
3178.06273491
3178.14617601
3178.22058502
3178.27410372
3178.29595827
3178.27671688
3178.29253866
3178.26103112
3178.20473545
3178.14281742
3178.08219244
3178.02816835
3177.9848928
3177.95531075
3177.94032004
3177.94024043
3177.95498162
3177.98424862
3178.02710032
3178.08073138
3178.14101545
3178.20271394
3178.25898951
3178.29028049
3178.27322668
3178.22417626
3178.26144598
3178.22476947
3178.14606946
3178.0587578
3177.97317859
3177.89824623
3177.84127372
3177.80523126
3177.78801016
3177.78767403
3177.80423168
3177.83996705
3177.89673049
3177.97126896
3178.05621532
3178.14296654
3178.22143849
3178.25749028
3178.21806402
3178.15081254
3178.20560364
3178.14644454
3178.02292512
3177.88335627
3177.71058174
3177.55024419
3177.50634893
3177.49482228
3177.47488466
3177.47429649
3177.4931518
3177.57496695
3177.69917742
3177.77869044
3177.88015443
3178.01813035
3178.14096629
3178.19917455
3178.1415129
3178.06802425
3178.1441023
3178.05949861
3177.88356971
3177.59937117
3177.23085324
3177.02333481
3177.02778917
3177.05725494
3177.0380805
3177.038425
3177.05813483
3177.21819584
3177.5126955
3177.706565
3177.75804276
3177.87833298
3178.0522598
3178.13544069
3178.05586361
3177.98512562
3178.08382017
3177.97409859
3177.71002612
3177.12903715
3176.62346506
3176.41198519
3176.39385292
3176.42977753
3176.41638719
3176.41984157
3176.43773516
3176.65945764
3177.14841718
3177.61675871
3177.78862282
3177.77611747
3177.96587301
3178.07339766
3177.9707615
3177.91125736
3178.03001541
3177.89891481
3177.4707131
3176.63830212
3176.14148128
3175.84103797
3175.78553329
3175.83187734
3175.82868034
3175.83630181
3175.85059867
3176.08491743
3176.67118198
3177.37384543
3177.82832043
3177.75989381
3177.89059185
3178.01845392
3177.89545425
3177.85280385
3177.98703122
3177.84193419
3177.25976712
3176.34626024
3175.82542309
3175.47410751
3175.43500401
3175.49708486
3175.50168447
3175.51253481
3175.52784048
3175.75794345
3176.34033541
3177.13192607
3177.77837959
3177.77156001
3177.83339916
3177.97472772
3177.83615874
3177.81320911
3177.95776393
3177.80629738
3177.17089027
3176.24458562
3175.70972372
3175.36026543
3175.32917493
3175.40089104
3175.41136961
3175.42233059
3175.43445004
3175.65636144
3176.23208966
3177.03108698
3177.72404615
3177.75206499
3177.79710071
3177.94488591
3177.79605478
3177.79322031
3177.94295765
3177.78965922
3177.15213301
3176.22559959
3175.69274218
3175.34803961
3175.31807222
3175.39295947
3175.40701601
3175.41843946
3175.42550922
3175.64317069
3176.21681155
3177.01118887
3177.70187477
3177.73156871
3177.77983783
3177.9296546
3177.77574605
3177.79284029
3177.94284933
3177.7896157
3177.15228373
3176.22532739
3175.69107843
3175.3435659
3175.31141681
3175.38552621
3175.39930323
3175.4110286
3175.41828331
3175.63604779
3176.21086798
3177.00714517
3177.69949582
3177.73083625
3177.779659
3177.92937273
3177.77520177
3177.81202622
3177.95731829
3177.80600891
3177.17105968
3176.24342071
3175.70308399
3175.34609339
3175.3093101
3175.37929183
3175.38971949
3175.40071026
3175.41259927
3175.63517357
3176.21476295
3177.01913457
3177.71686579
3177.74972126
3177.79651789
3177.94401166
3177.79441536
3177.85079179
3177.98611702
3177.84117042
3177.25161358
3176.3233872
3175.78651143
3175.42295685
3175.37411419
3175.43336941
3175.43881522
3175.44997885
3175.46514538
3175.69652572
3176.28582247
3177.0876138
3177.74819623
3177.76089928
3177.83223575
3177.97317927
3177.8334121
3177.90841412
3178.02847146
3177.89741814
3177.45239129
3176.58191301
3176.05019678
3175.72992184
3175.66291495
3175.70587178
3175.7048395
3175.71321213
3175.72807292
3175.96460133
3176.55811441
3177.27867379
3177.76706316
3177.74121682
3177.88857129
3178.01606532
3177.89158878
3177.9815618
3178.08158513
3177.97175375
3177.69935966
3177.0732378
3176.50678714
3176.26123294
3176.22819289
3176.26068708
3176.24949737
3176.25432397
3176.27354813
3176.49832605
3176.99875121
3177.49859665
3177.73140512
3177.76542701
3177.96275374
3178.07006065
3177.96586774
3178.06393717
3178.14120502
3178.05631594
3177.87962631
3177.57700438
3177.15239524
3176.8835277
3176.8577829
3176.88127289
3176.86417301
3176.86655724
3176.88824042
3177.05456107
3177.37610869
3177.6286555
3177.7353673
3177.87366586
3178.04799405
3178.13114978
3178.05013347
3178.14646759
3178.20216443
3178.14255825
3178.0180965
3177.8776655
3177.69658703
3177.5112714
3177.44202341
3177.42232669
3177.40287058
3177.40314947
3177.42299493
3177.51236112
3177.66000211
3177.76391823
3177.87373289
3178.01219009
3178.13564181
3178.19403615
3178.13522928
3178.21986983
3178.25767483
3178.22043234
3178.14066605
3178.05240709
3177.96610402
3177.89069304
3177.83350905
3177.79716606
3177.77969074
3177.77931137
3177.7959284
3177.83170205
3177.88855467
3177.96337099
3178.04874573
3178.13611528
3178.21537209
3178.25177959
3178.21157953
3178.27258258
3178.28855812
3178.25632797
3178.1988866
3178.13588525
3178.07439568
3178.01976231
3177.97612805
3177.94623592
3177.93103591
3177.93085167
3177.94558786
3177.97488068
3178.01787028
3178.07185213
3178.13270784
3178.19518454
3178.25235907
3178.2841959
3178.26680557
3178.29409232
3178.27180187
3178.21761411
3178.14219481
3178.05749099
3177.9730352
3177.89805188
3177.83882299
3177.79866789
3177.7783692
3177.77791105
3177.79729071
3177.83650798
3177.89486939
3177.96916345
3178.05317165
3178.13769834
3178.21323684
3178.26761307
3178.2896584
2688.82036391
2688.79768489
2688.75066403
2688.68580153
2688.6127631
2688.53991343
2688.47557282
2688.42505159
2688.3913691
2688.37467875
2688.37453181
2688.39091503
2688.42430431
2688.47454706
2688.53878255
2688.61181453
2688.68531534
2688.75081588
2688.79834099
2688.82095014
2688.79863715
2688.80296941
2688.77335281
2688.72131055
2688.6634969
2688.60554874
2688.55368297
2688.51116048
2688.48288741
2688.46952026
2688.46988099
2688.48366637
2688.51221225
2688.55452319
2688.60619574
2688.6639375
2688.72162802
2688.77376258
2688.80299843
2688.79699253
2688.75264779
2688.7740286
2688.73537429
2688.6559065
2688.56271072
2688.42895744
2688.30093319
2688.2770905
2688.27689805
2688.26239727
2688.2625381
2688.27720464
2688.34804556
2688.45207992
2688.49883125
2688.56176917
2688.6542083
2688.73368059
2688.77161014
2688.74709038
2688.6888345
2688.7227363
2688.65658243
2688.51426795
2688.20189256
2687.89258397
2687.71976772
2687.70275273
2687.72684479
2687.71235853
2687.71430769
2687.73245532
2687.88547955
2688.17489513
2688.40816682
2688.48507586
2688.5136436
2688.65144231
2688.71668561
2688.67861476
2688.61659787
2688.66561317
2688.56410402
2688.19815009
2687.5619223
2687.09964831
2686.82463278
2686.75139093
2686.77174761
2686.76413342
2686.77190574
2686.79424419
2687.01151045
2687.50686465
2688.10277049
2688.49393895
2688.48613103
2688.5563345
2688.65633499
2688.60217703
2688.544272
2688.60821562
2688.43105473
2687.65005466
2686.88101315
2686.28122824
2685.84007218
2685.73401159
2685.77118278
2685.78164572
2685.7997843
2685.82659121
2686.06336513
2686.64176075
2687.4738796
2688.2867811
2688.60510876
2688.49150535
2688.59652571
2688.52660856
2688.48017428
2688.55669299
2688.22556081
2687.15242356
2686.33802146
2685.56622582
2685.09419314
2684.97561338
2685.03014456
2685.05943102
2685.08566809
2685.11021485
2685.35138858
2685.97688998
2686.87090392
2687.91749272
2688.64391347
2688.50661044
2688.54351583
2688.46038742
2688.42976545
2688.51456485
2688.03503834
2686.88213111
2685.99074142
2685.16784651
2684.67648624
2684.56001844
2684.62547638
2684.66505776
2684.69609199
2684.7186267
2684.95418955
2685.58777915
2686.52796786
2687.64911863
2688.56547532
2688.53784379
2688.50055206
2688.40870356
2688.39605213
2688.48668005
2687.9573117
2686.78799064
2685.86615627
2685.04045664
2684.5539281
2684.44277093
2684.52281974
2684.57360938
2684.60697733
2684.61894687
2684.84135827
2685.46854011
2686.40994184
2687.54184913
2688.50632788
2688.52959318
2688.47201209
2688.3742157
2688.37919079
2688.47337054
2687.9431351
2686.77069395
2685.8453497
2685.0224605
2684.54174372
2684.43362478
2684.52509174
2684.58132484
2684.61349108
2684.620344
2684.83149544
2685.4540696
2686.38892464
2687.51939199
2688.48588532
2688.51370167
2688.45809322
2688.3568582
2688.378786
2688.47347872
2687.94327813
2686.76976263
2685.84020264
2685.01212881
2684.52675035
2684.41575997
2684.50631005
2684.56281736
2684.59499987
2684.60170707
2684.8134647
2685.43820415
2686.37704423
2687.5127632
2688.48253938
2688.51284114
2688.45784493
2688.35622072
2688.39481723
2688.48663911
2687.95745658
2686.78490608
2685.85058366
2685.00925217
2684.5090295
2684.38927127
2684.4663099
2684.51709095
2684.55134784
2684.56348921
2684.78708149
2685.42068203
2686.3740365
2687.52125178
2688.49605796
2688.52688728
2688.47119789
2688.37233506
2688.42774458
2688.51421486
2688.02684329
2686.85797909
2685.94300141
2685.09246231
2684.57849736
2684.44876013
2684.5091976
2684.54813726
2684.58009915
2684.60357525
2684.84203151
2685.48524918
2686.44531296
2687.59233974
2688.53185988
2688.52701161
2688.4992122
2688.40562937
2688.47744298
2688.55583544
2688.20740526
2687.09798549
2686.24159376
2685.43283792
2684.92993783
2684.79511459
2684.84477443
2684.87447844
2684.9017283
2684.9274957
2685.17118425
2685.80859185
2686.73019097
2687.81239619
2688.58124265
2688.48804594
2688.54145054
2688.45618403
2688.54097792
2688.60680076
2688.42112737
2687.58900807
2686.75459131
2686.11117722
2685.63490569
2685.51043943
2685.54147207
2685.55305409
2685.5727644
2685.60159509
2685.84217858
2686.43576126
2687.29845598
2688.15378954
2688.53995745
2688.48115456
2688.59356382
2688.52141257
2688.61295925
2688.66360325
2688.56129937
2688.16184266
2687.44995321
2686.92242979
2686.61164552
2686.51912043
2686.53367166
2686.52884643
2686.53943998
2686.56416793
2686.78515607
2687.29500724
2687.92342105
2688.37960246
2688.4495005
2688.55210753
2688.65238923
2688.59622076
2688.68512039
2688.72024925
2688.65324702
2688.5086987
2688.16306536
2687.77622553
2687.53776616
2687.49373618
2687.51240068
2687.49987139
2687.50404378
2687.52469634
2687.68338033
2687.99705041
2688.29289152
2688.44450215
2688.50658136
2688.64610382
2688.71181815
2688.67219388
2688.74914405
2688.77124303
2688.73175962
2688.65072771
2688.55616356
2688.41397117
2688.26054745
2688.21054027
2688.20200268
2688.18806372
2688.18885797
2688.2043471
2688.28280108
2688.4104558
2688.48204752
2688.55365771
2688.64700124
2688.72763157
2688.76609841
2688.74055699
2688.79547243
2688.79991698
2688.76934925
2688.71581217
2688.65661334
2688.59761661
2688.54506021
2688.50225105
2688.47355771
2688.45993143
2688.46010489
2688.47387466
2688.50230985
2688.54470116
2688.59672506
2688.6551168
2688.71376613
2688.76704705
2688.79699602
2688.79064861
2688.81756137
2688.79425167
2688.74583515
2688.67912596
2688.604205
2688.52968737
2688.4640344
2688.41254903
2688.37812392
2688.36095338
2688.36059613
2688.37705367
2688.41073189
2688.46152846
2688.52665341
2688.60093013
2688.67593292
2688.7429871
2688.79176912
2688.81491928
2199.40011591
2199.37870139
2199.34427266
2199.29619395
2199.24299848
2199.19165272
2199.14924725
2199.11875219
2199.10035893
2199.09190331
2199.09190826
2199.10051134
2199.11924063
2199.15018035
2199.19320753
2199.24553617
2199.29997279
2199.34926865
2199.38446625
2199.40622753
2199.38008605
2199.35951403
2199.32600518
2199.27737639
2199.22492176
2199.17301404
2199.10774245
2199.07466437
2199.06829814
2199.05920676
2199.05991073
2199.07017322
2199.10849649
2199.15024292
2199.17665664
2199.22892663
2199.28184991
2199.33086103
2199.3638795
2199.38218718
2199.34710185
2199.32710097
2199.28088183
2199.20632227
2199.03742539
2198.83823663
2198.75121766
2198.73416434
2198.75206866
2198.74531068
2198.74732074
2198.75800681
2198.85282122
2199.0232278
2199.17653742
2199.19809377
2199.20620564
2199.28200665
2199.32766065
2199.34356023
2199.30057482
2199.27953901
2199.20747224
2198.92809812
2198.50843384
2198.12770503
2197.90617759
2197.8477503
2197.87313333
2197.87809642
2197.88838519
2197.90392773
2198.06628806
2198.44901455
2198.90971878
2199.18458239
2199.20714122
2199.20228974
2199.27475844
2199.29008863
2199.24850138
2199.22818868
2199.04038381
2198.37238694
2197.76374593
2197.20531024
2196.77955876
2196.6335959
2196.65645605
2196.68324106
2196.70728509
2196.72970907
2196.9357918
2197.46265779
2198.18782105
2198.91528712
2199.29545887
2199.18987436
2199.21830173