/*--------------------------------*- C++ -*----------------------------------*\
| =========                 |                                                 |
| \\      /  F ield         | OpenFOAM: The Open Source CFD Toolbox           |
|  \\    /   O peration     | Version:  3.0.1                                 |
|   \\  /    A nd           | Web:      www.OpenFOAM.org                      |
|    \\/     M anipulation  |                                                 |
\*---------------------------------------------------------------------------*/
FoamFile
{
    version     2.0;
    format      ascii;
    class       volScalarField;
    location    "3.8";
    object      p_rgh;
}
// * * * * * * * * * * * * * * * * * * * * * * * * * * * * * * * * * * * * * //

dimensions      [1 -1 -2 0 0 0 0];

internalField   nonuniform List<scalar> 
7968
(
5362.16509929
5362.13800341
5362.02128169
5361.85466368
5361.66594981
5361.48185397
5361.32713406
5361.21256206
5361.13777571
5361.10097085
5361.10090383
5361.13757773
5361.21225275
5361.32675071
5361.48144849
5361.66556231
5361.85434075
5362.02103116
5362.13780879
5362.16490335
5362.13800033
5362.16320174
5362.07500171
5361.92454211
5361.74158776
5361.55903034
5361.4026465
5361.28726886
5361.21270336
5361.17612055
5361.17604329
5361.21248248
5361.28692282
5361.40220456
5361.55856314
5361.74116552
5361.92420928
5362.07477765
5362.16304409
5362.1378323
5362.02124003
5362.07498981
5361.99966093
5361.84980924
5361.65595508
5361.45750006
5361.2850275
5361.15599804
5361.07192563
5361.0304353
5361.03034761
5361.07165892
5361.15557988
5361.28450342
5361.45692766
5361.6554353
5361.8494019
5361.99938338
5362.07480774
5362.02105819
5361.85463407
5361.92455961
5361.84984777
5361.68770181
5361.47363981
5361.25489948
5361.06741332
5360.9289088
5360.83997132
5360.79642188
5360.79633354
5360.83970862
5360.92847511
5361.06684018
5361.25426577
5361.47302158
5361.68719933
5361.84949068
5361.9243237
5361.85442189
5361.66593592
5361.74165317
5361.65602279
5361.47365912
5361.24016788
5361.01078992
5360.82373563
5360.69219774
5360.6113207
5360.57251866
5360.57243983
5360.61108444
5360.69179895
5360.82318468
5361.01012995
5361.23949689
5361.47306713
5361.65558558
5361.74135241
5361.66566911
5361.48188276
5361.55909006
5361.45753637
5361.25483716
5361.01066085
5360.7856285
5360.61526968
5360.50671552
5360.44658039
5360.41930263
5360.41922
5360.44633658
5360.5063089
5360.61470914
5360.78495978
5361.00994913
5361.25417992
5361.45701407
5361.55871632
5361.48157483
5361.32711237
5361.40264239
5361.28494724
5361.06710991
5360.82325171
5360.61484843
5360.47366119
5360.40094676
5360.37138147
5360.36058229
5360.3604814
5360.37108899
5360.40046945
5360.47302418
5360.61411333
5360.82248835
5361.0663924
5361.28435148
5361.4021939
5361.32672485
5361.21245564
5361.28714093
5361.15572268
5360.92826419
5360.69121417
5360.50569899
5360.40035604
5360.37285461
5360.38848022
5360.40245858
5360.4023272
5360.38809761
5360.37223373
5360.39955208
5360.50480352
5360.69032959
5360.92745467
5361.15504583
5361.28660439
5361.21197732
5361.13761757
5361.21247218
5361.07149495
5360.83905515
5360.60993509
5360.44508388
5360.37033172
5360.38810124
5360.44165453
5360.47348399
5360.47331746
5360.44115035
5360.38724902
5360.36925951
5360.44392632
5360.60883615
5360.83808663
5361.07069974
5361.21181907
5361.13702523
5361.10084162
5361.17589275
5361.02998445
5360.7954452
5360.57105584
5360.41770825
5360.35944586
5360.40202395
5360.47346228
5360.51342
5360.51318407
5360.47276008
5360.40088676
5360.35805651
5360.41623904
5360.5696956
5360.79427553
5361.02904053
5361.17509282
5361.1001126
5361.10093452
5361.1759718
5361.03004229
5360.79556802
5360.57123802
5360.41790971
5360.35958244
5360.40202105
5360.47331733
5360.51315177
5360.51283058
5360.4723926
5360.4005861
5360.35788453
5360.41613111
5360.56961273
5360.79418944
5361.0289343
5361.17500404
5361.1000491
5361.13789872
5361.21270636
5361.07167306
5360.83936597
5360.61040824
5360.44559156
5360.37067595
5360.38803498
5360.44116703
5360.47264763
5360.472292
5360.44013164
5360.3864378
5360.36878086
5360.44361964
5360.60859563
5360.8378362
5361.0704112
5361.21158294
5361.13686493
5361.21297652
5361.287576
5361.15607204
5360.92875082
5360.69188753
5360.50640982
5360.40081309
5360.37277
5360.38777309
5360.40127099
5360.40091725
5360.38675101
5360.37118113
5360.39890054
5360.50438647
5360.6900041
5360.92711939
5361.15467357
5361.2863094
5361.21180741
5361.32797198
5361.4033829
5361.28557134
5361.06781103
5360.82410008
5360.61570791
5360.47424809
5360.40102412
5360.37086962
5360.35961584
5360.35930593
5360.36995618
5360.39958782
5360.47244191
5360.61376254
5360.82221837
5361.06611129
5361.2840472
5361.40198187
5361.32666792
5361.48319955
5361.56028771
5361.45859815
5361.2558828
5361.01176277
5360.78673311
5360.61613256
5360.50713329
5360.44647605
5360.4188077
5360.41852245
5360.4456505
5360.50582136
5360.61446718
5360.78488205
5361.00990405
5361.25410724
5361.4569365
5361.55874163
5361.4817684
5361.66781611
5361.74340905
5361.65767055
5361.47523775
5361.24171963
5361.01228702
5360.82505649
5360.69316579
5360.61188905
5360.57277242
5360.57251537
5360.61113586
5360.69197043
5360.82349641
5361.0105054
5361.23983596
5361.47335575
5361.65586492
5361.74171929
5361.66626605
5361.85705262
5361.92691923
5361.85213847
5361.68993279
5361.47579411
5361.25695617
5361.06930076
5360.93053285
5360.84130353
5360.79751209
5360.79726933
5360.84060115
5360.92940058
5361.06780906
5361.25519704
5361.47387581
5361.68797338
5361.85023374
5361.92512582
5361.85541269
5362.02411915
5362.07786746
5362.00254336
5361.85266188
5361.65872983
5361.46014621
5361.28750652
5361.15823976
5361.07393386
5361.03224533
5361.0320122
5361.07324426
5361.15713667
5361.2860546
5361.45841672
5361.65681293
5361.85069206
5362.00061238
5362.07604417
5362.02244073
5362.14115654
5362.16640217
5362.07826966
5361.92783161
5361.74483032
5361.56215428
5361.40558403
5361.28996519
5361.21514922
5361.17836041
5361.17813004
5361.21448842
5361.28890732
5361.40417088
5361.5604721
5361.74298129
5361.92592686
5362.07640143
5362.16462798
5362.13949922
5362.16830857
5362.14125499
5362.02462389
5361.85806044
5361.66931884
5361.48513951
5361.33024166
5361.21543768
5361.14042169
5361.10341552
5361.10320152
5361.13980573
5361.21444192
5361.32892539
5361.48357871
5361.66762784
5361.85630592
5362.02288667
5362.13957221
5362.16668814
5362.17636345
5362.11956923
5361.97433389
5361.7823687
5361.57802521
5361.38614514
5361.22628145
5361.10987919
5361.03513341
5360.99854738
5360.99847401
5361.03492674
5361.10957714
5361.22588263
5361.3857364
5361.57764699
5361.78202769
5361.9740595
5362.11930658
5362.17607778
5362.1195612
5362.10568694
5361.97998276
5361.8028153
5361.6160539
5361.44174768
5361.29661215
5361.19166378
5361.12426018
5361.09093454
5361.09088582
5361.12408098
5361.19137791
5361.29624533
5361.4413471
5361.61568753
5361.80250735
5361.97974687
5362.10550002
5362.11932667
5361.97431303
5361.98000241
5361.85300236
5361.67124633
5361.48077355
5361.30404432
5361.1568861
5361.04884747
5360.97849201
5360.94314301
5360.94308534
5360.97832789
5361.04858438
5361.15654561
5361.30367684
5361.48041878
5361.67095566
5361.85280026
5361.97983401
5361.97411596
5361.78238329
5361.80291652
5361.67129687
5361.48010145
5361.28309035
5361.10505978
5360.96089435
5360.8557324
5360.78904147
5360.75503511
5360.75499382
5360.78893189
5360.85552789
5360.96062271
5361.10474345
5361.28278127
5361.47983185
5361.67110628
5361.80276635
5361.78219674
5361.57810703
5361.61620264
5361.48079903
5361.28301304
5361.08895542
5360.92679849
5360.8088198
5360.73154593
5360.68489785
5360.66134884
5360.66132432
5360.68484915
5360.73143863
5360.80862506
5360.92654197
5361.08865798
5361.28274589
5361.4806009
5361.61604367
5361.57790403
5361.38621986
5361.44181988
5361.30390834
5361.10464887
5360.92633754
5360.80009776
5360.72613692
5360.69430066
5360.682386
5360.67653309
5360.67650042
5360.68230012
5360.69415695
5360.72591371
5360.79979638
5360.92600116
5361.10432251
5361.30364393
5361.44161449
5361.38597804
5361.22629701
5361.29653354
5361.1564324
5360.95993275
5360.80753571
5360.72520966
5360.70735198
5360.73187485
5360.76124219
5360.77604833
5360.77597999
5360.76105477
5360.73159286
5360.70697222
5360.72476939
5360.80707553
5360.95948994
5361.15607409
5361.29625788
5361.22598923
5361.10977736
5361.19135665
5361.04801185
5360.85417754
5360.72930263
5360.6922999
5360.73090982
5360.8064931
5360.86167918
5360.88875844
5360.88865424
5360.86139099
5360.80600909
5360.73023941
5360.69152536
5360.72856396
5360.85351705
5361.04750222
5361.19097061
5361.10938407
5361.03494438
5361.12380389
5360.97742153
5360.78698217
5360.68200953
5360.67964449
5360.75970929
5360.8613338
5360.94027144
5360.97987386
5360.97973743
5360.93984777
5360.86057207
5360.75861351
5360.6784009
5360.68084185
5360.78600072
5360.97668491
5361.12324715
5361.03443464
5360.99837431
5361.0905174
5360.94210849
5360.75304533
5360.65842201
5360.67371434
5360.77447012
5360.88844199
5360.97996433
5361.02607712
5361.02585657
5360.97929468
5360.88731148
5360.77291264
5360.67195712
5360.65677601
5360.75171831
5360.94110351
5361.08974768
5360.99771323
5360.99848104
5361.09066494
5360.94232475
5360.75337329
5360.65886897
5360.67412235
5360.77472969
5360.88850778
5360.97987914
5361.02585753
5361.02553043
5360.9789278
5360.88699216
5360.77270386
5360.67185819
5360.65673839
5360.75168816
5360.94103612
5361.08967395
5360.9976449
5361.03523932
5361.12424619
5360.97801247
5360.78788793
5360.68317891
5360.68071146
5360.7603385
5360.86146131
5360.93992735
5360.97912894
5360.97875062
5360.93883366
5360.85970269
5360.7579816
5360.67809237
5360.6807414
5360.78589664
5360.97649319
5361.12305705
5361.03426062
5361.11032291
5361.19207549
5361.04894301
5360.85542986
5360.73094919
5360.69374075
5360.73172252
5360.80657719
5360.86104134
5360.88752066
5360.88714135
5360.85993041
5360.80478287
5360.72926515
5360.69103196
5360.72837678
5360.85335202
5361.04727179
5361.19074966
5361.10919939
5361.22716984
5361.29757032
5361.157697
5360.96155668
5360.80941718
5360.72687831
5360.7082587
5360.73183392
5360.76031659
5360.77448967
5360.77412293
5360.75925217
5360.73009575
5360.70595965
5360.72430469
5360.80693415
5360.95942621
5361.15594905
5361.29612871
5361.22594027
5361.38758317
5361.44328196
5361.30557281
5361.10659282
5360.92841861
5360.80191339
5360.72729537
5360.69451941
5360.6817225
5360.67525998
5360.6749485
5360.68078518
5360.69296727
5360.72523281
5360.79961403
5360.92611751
5361.10450682
5361.30376304
5361.44174489
5361.38622497
5361.58001432
5361.61818083
5361.48297153
5361.2853705
5361.09133765
5360.92894035
5360.81040936
5360.73238959
5360.68500741
5360.66095383
5360.66066717
5360.68417156
5360.73102157
5360.80860585
5360.92686792
5361.0891971
5361.28331762
5361.48112223
5361.6165404
5361.57855496
5361.78485745
5361.80544676
5361.67400481
5361.48293939
5361.28592621
5361.10766506
5360.96310002
5360.85738403
5360.79015772
5360.75580605
5360.75554281
5360.78939713
5360.85616745
5360.96146039
5361.10575779
5361.28387511
5361.48092981
5361.67211305
5361.80374208
5361.78332081
5361.97723631
5361.9830158
5361.85619356
5361.67453726
5361.48403463
5361.30713518
5361.15965888
5361.0512087
5360.9804638
5360.94483368
5360.9445762
5360.97973
5361.05002178
5361.15810141
5361.30529252
5361.48205826
5361.67254704
5361.85429974
5361.98128085
5361.97566946
5362.12273307
5362.10899088
5361.98344822
5361.80639244
5361.61960746
5361.44512754
5361.29974858
5361.19445648
5361.12671648
5361.09312913
5361.09288351
5361.1260022
5361.19330808
5361.29824342
5361.44337129
5361.6176925
5361.80445527
5361.98159484
5362.10728499
5362.12118411
5362.17955426
5362.12285061
5361.97779192
5361.78592651
5361.58158358
5361.38958175
5361.22951497
5361.11285778
5361.03784856
5361.00103684
5361.00082617
5361.03720283
5361.11184335
5361.22818671
5361.38802998
5361.57990257
5361.78422108
5361.976135
5362.12129492
5362.17806103
5362.28467639
5362.2050712
5362.0296285
5361.80620019
5361.57717097
5361.36625126
5361.19228923
5361.06557107
5360.98391765
5360.94358524
5360.94350996
5360.98369566
5361.06520724
5361.19182421
5361.36572955
5361.5766662
5361.80575717
5362.02923748
5362.20466987
5362.28418639
5362.20509964
5362.18692287
5362.04469294
5361.84665855
5361.64890611
5361.46977583
5361.32285218
5361.21567029
5361.14568025
5361.11048777
5361.11043538
5361.14552926
5361.2154094
5361.32249559
5361.4693753
5361.64850903
5361.84631941
5362.04441601
5362.18662522
5362.20474519
5362.02970874
5362.04481173
5361.89705294
5361.68264449
5361.4723344
5361.2870382
5361.13677906
5361.02638682
5360.95329309
5360.91606603
5360.91602721
5360.95318505
5361.02620096
5361.13649661
5361.28673206
5361.47205985
5361.68244106
5361.89690334
5362.04463939
5362.02944855
5361.80637868
5361.84690675
5361.6827823
5361.44211476
5361.21377395
5361.02180286
5360.87302094
5360.7689521
5360.70058636
5360.66585583
5360.66583438
5360.7005535
5360.76891709
5360.87283363
5361.02157684
5361.21358462
5361.44200182
5361.68271413
5361.84682267
5361.80618842
5361.57741381
5361.64921769
5361.47245593
5361.213694
5360.97885751
5360.79451004
5360.66320494
5360.57937798
5360.53135147
5360.5083114
5360.50835113
5360.53141462
5360.57939878
5360.66307567
5360.79432288
5360.97869162
5361.21358413
5361.47241441
5361.64915653
5361.577258
5361.36647795
5361.46993905
5361.28691901
5361.02129925
5360.7940409
5360.63280127
5360.54163241
5360.50249215
5360.48999668
5360.48537658
5360.48537873
5360.4900106
5360.50241821
5360.54146068
5360.63255642
5360.79375903
5361.02111514
5361.28682037
5361.46987558
5361.36630963
5361.19238526
5361.32271599
5361.13615612
5360.8718084
5360.66182587
5360.54060648
5360.50362894
5360.5211942
5360.55413078
5360.57340658
5360.57334017
5360.55395229
5360.52085131
5360.50322234
5360.5401756
5360.66142192
5360.87149535
5361.13598181
5361.32260478
5361.19219756
5361.06546037
5361.21513311
5361.02514989
5360.76670594
5360.57693164
5360.50014477
5360.51993546
5360.59773847
5360.67907345
5360.7225118
5360.72235962
5360.67862797
5360.59705374
5360.51913534
5360.49937715
5360.5762436
5360.76620168
5361.02482202
5361.21490923
5361.0652176
5360.98362926
5361.14490109
5360.95168403
5360.69785613
5360.52797771
5360.48656746
5360.55181327
5360.67818041
5360.79342568
5360.85420856
5360.85400103
5360.79280764
5360.67710802
5360.55051528
5360.48527139
5360.52689039
5360.69693666
5360.95107548
5361.14448907
5360.98328614
5360.94328643
5361.10970521
5360.91444746
5360.66295409
5360.50447015
5360.48154553
5360.57092997
5360.72149704
5360.85408346
5360.92324056
5360.92295252
5360.85319603
5360.72005475
5360.56912329
5360.47970836
5360.50299938
5360.66172807
5360.91353748
5361.10904232
5360.94280014
5360.94337328
5361.10989741
5360.91469073
5360.66328697
5360.50494057
5360.48196033
5360.57117044
5360.7215138
5360.85387207
5360.92283761
5360.92243239
5360.85267561
5360.71961945
5360.56887934
5360.47952819
5360.50290876
5360.66163429
5360.91347371
5361.1089792
5360.94274156
5360.98391292
5361.14542637
5360.95234467
5360.69860168
5360.52879696
5360.48758451
5360.55248485
5360.6782109
5360.79287295
5360.85316288
5360.85270323
5360.7915024
5360.67603086
5360.54979577
5360.48480189
5360.52639189
5360.69669203
5360.95085712
5361.14432069
5360.98312927
5361.0659444
5361.21597634
5361.02622279
5360.76813604
5360.57816561
5360.50156276
5360.52079636
5360.59772443
5360.67818925
5360.72095354
5360.72048824
5360.67682368
5360.5955318
5360.51806607
5360.49870293
5360.57562998
5360.76593221
5361.02457038
5361.21472903
5361.06508112
5361.19318441
5361.32385917
5361.13754884
5360.87345726
5360.66343951
5360.54217111
5360.50460886
5360.52117242
5360.5531863
5360.57175481
5360.57134771
5360.5519845
5360.51923315
5360.50215594
5360.53956151
5360.66101277
5360.87131146
5361.13586507
5361.32257045
5361.19222987
5361.36774411
5361.47148966
5361.28871793
5361.02329388
5360.79588323
5360.63442962
5360.54278851
5360.50271464
5360.48930378
5360.48403292
5360.48369446
5360.4883122
5360.50109787
5360.54068303
5360.6321726
5360.7936244
5361.02120952
5361.28703381
5361.47014058
5361.36671628
5361.57930205
5361.65129828
5361.47481734
5361.21623659
5360.98126309
5360.79657689
5360.66481678
5360.58016023
5360.53139694
5360.50799638
5360.50768326
5360.53057727
5360.57879393
5360.66297337
5360.79446395
5360.97902061
5361.21417847
5361.4730945
5361.64991503
5361.57816697
5361.80889395
5361.84959206
5361.6857424
5361.44527416
5361.21685362
5361.02457732
5360.87538253
5360.7706267
5360.70169852
5360.66657946
5360.66632623
5360.70098103
5360.76939937
5360.87372052
5361.0226115
5361.21475217
5361.44330546
5361.68403923
5361.84814723
5361.80768387
5362.03271698
5362.04797996
5361.9005308
5361.68629677
5361.47593646
5361.29039038
5361.13975086
5361.02883104
5360.95530985
5360.91778057
5360.91753318
5360.95458608
5361.02768194
5361.13818889
5361.28857003
5361.47398086
5361.68441081
5361.89882655
5362.04652643
5362.03146658
5362.20833263
5362.1903552
5362.04843208
5361.85054232
5361.65272997
5361.47337509
5361.3261341
5361.21854856
5361.14818597
5361.11271252
5361.1124702
5361.14748807
5361.21742734
5361.3246682
5361.47167151
5361.65089782
5361.84873138
5362.04677957
5362.18892755
5362.20711226
5362.28788046
5362.20849359
5362.03330587
5361.81001322
5361.5809587
5361.36989317
5361.19570187
5361.06871671
5360.98675744
5360.94620841
5360.94600007
5360.98614432
5361.06773096
5361.19443549
5361.36843579
5361.57940714
5361.80848116
5362.03185573
5362.20718648
5362.28666958
5362.45368676
5362.34107352
5362.13009798
5361.87002345
5361.60798585
5361.36829863
5361.17127937
5361.02623362
5360.93105869
5360.88312837
5360.88305526
5360.93083558
5361.02584263
5361.17074234
5361.36766646
5361.6073089
5361.86936327
5362.12944343
5362.34040432
5362.45292765
5362.34115204
5362.32005322
5362.16139639
5361.94443308
5361.7308944
5361.53810542
5361.37858858
5361.25763941
5361.17408918
5361.12987059
5361.12982547
5361.17395078
5361.25738965
5361.37821569
5361.53763136
5361.73037938
5361.94393538
5362.16093891
5362.31956737
5362.34056778
5362.130288
5362.16159826
5361.98350236
5361.731024
5361.48016164
5361.25594501
5361.07110354
5360.93004006
5360.83412139
5360.78439168
5360.7843589
5360.83406368
5360.92989498
5361.07082073
5361.25558392
5361.47982654
5361.73074981
5361.98327229
5362.16131585
5362.12987377
5361.87037067
5361.94486864
5361.7312355
5361.42788586
5361.13141215
5360.87588524
5360.67517615
5360.527771
5360.43458684
5360.38832801
5360.38826518
5360.43308379
5360.52778728
5360.67490674
5360.87552277
5361.13116337
5361.42772417
5361.73116472
5361.94473704
5361.87010577
5361.60841288
5361.73140027
5361.48042406
5361.13134174
5360.79423223
5360.50944751
5360.30242741
5360.1151743
5360.04087297
5360.02690771
5360.02864891
5360.0426732
5360.11684601
5360.30219719
5360.50916993
5360.79395447
5361.13123171
5361.480396
5361.73139628
5361.60825323
5361.36866025
5361.53841043
5361.25585272
5360.87538992
5360.50932989
5360.21492677
5360.01905889
5359.91795718
5359.8820648
5359.87129639
5359.87133248
5359.88278544
5359.91798696
5360.01879714
5360.21447474
5360.50869918
5360.87510885
5361.25585311
5361.53845882
5361.3685891
5361.17140564
5361.37836228
5361.07042404
5360.67393687
5360.30095543
5360.01819744
5359.85806763
5359.81665248
5359.83623813
5359.85421176
5359.85419921
5359.83619238
5359.81624839
5359.85752938
5360.01758679
5360.30051
5360.67363027
5361.07036955
5361.37846087
5361.17138627
5361.02600321
5361.25678759
5360.92842291
5360.52512403
5360.11676633
5359.91542659
5359.81445131
5359.83940392
5359.91976079
5359.97132657
5359.97114362
5359.91913714
5359.837637
5359.8133604
5359.91459296
5360.11683779
5360.524645
5360.92830744
5361.25682106
5361.02600517
5360.93055129
5361.17282241
5360.8319109
5360.42894761
5360.04113559
5359.87844289
5359.83165959
5359.91563953
5360.04730245
5360.12837021
5360.12798674
5360.04614856
5359.91345867
5359.82979387
5359.87698887
5360.04095308
5360.42597335
5360.83158189
5361.17265893
5360.93050368
5360.88254037
5361.12857329
5360.78204012
5360.38411388
5360.01798703
5359.86573178
5359.848947
5359.96814729
5360.12762204
5360.22448323
5360.22401653
5360.12623043
5359.96586905
5359.84618171
5359.86343208
5360.02301907
5360.38332888
5360.78144288
5361.12815321
5360.88239188
5360.88261549
5361.1287762
5360.78224513
5360.38431832
5360.02325492
5359.86612423
5359.84925888
5359.96815104
5360.12703187
5360.22356356
5360.22300606
5360.1253929
5359.96541045
5359.84574535
5359.86306354
5360.02400112
5360.3831566
5360.78133135
5361.12810623
5360.88232025
5360.93075633
5361.1733807
5360.83238392
5360.42566618
5360.03209642
5359.87903783
5359.8327023
5359.91616281
5360.04659862
5360.1270327
5360.12642371
5360.04477485
5359.91301937
5359.82896555
5359.87622669
5360.03085728
5360.42444147
5360.83128936
5361.17250282
5360.93040284
5361.02637307
5361.25762928
5360.92924128
5360.5256218
5360.10787932
5359.91689273
5359.8159513
5359.83954931
5359.9191862
5359.97001217
5359.96940877
5359.91734336
5359.83629261
5359.81243755
5359.91382011
5360.10617616
5360.52398641
5360.92800057
5361.25669625
5361.02595422
5361.17202752
5361.37944501
5361.07151793
5360.67473917
5360.301241
5360.01943976
5359.85974361
5359.81723275
5359.83558749
5359.85261555
5359.85214261
5359.83410167
5359.81477336
5359.85691077
5360.0169874
5360.29910254
5360.67308189
5361.07031898
5361.37853557
5361.17164128
5361.36973853
5361.53984512
5361.25738566
5360.87663135
5360.50955673
5360.21311185
5360.02048517
5359.91876803
5359.88248567
5359.87006191
5359.86973731
5359.88141846
5359.9170216
5360.0183739
5360.21247821
5360.50790451
5360.8749796
5361.25619109
5361.53902636
5361.36933053
5361.61015997
5361.73341831
5361.4826538
5361.13352605
5360.79585511
5360.51062428
5360.30331428
5360.10872277
5360.03392414
5360.02856161
5360.0261547
5360.03330099
5360.1076128
5360.30162532
5360.50877017
5360.79374483
5361.13169686
5361.48142134
5361.73259671
5361.60970191
5361.87289537
5361.94759643
5361.73429057
5361.43104075
5361.13432906
5360.87840488
5360.67758309
5360.52944871
5360.43496052
5360.3891208
5360.38887939
5360.43532691
5360.52858631
5360.67616476
5360.87667127
5361.13237345
5361.42936915
5361.73307251
5361.94676656
5361.87233503
5362.13345914
5362.16497296
5361.9872505
5361.73493255
5361.48400654
5361.25953196
5361.07438146
5360.93274648
5360.83645078
5360.78653683
5360.78634761
5360.83595129
5360.93187452
5361.07311663
5361.25798937
5361.48234869
5361.73343604
5361.98605153
5362.16408622
5362.13282881
5362.3446404
5362.32376159
5362.16546975
5361.9486419
5361.73507246
5361.54207248
5361.38220701
5361.26078733
5361.17685727
5361.13238273
5361.13216978
5361.1762423
5361.25982233
5361.38092724
5361.54063661
5361.73357998
5361.94728825
5362.16430605
5362.32291788
5362.34400238
5362.45712869
5362.34483735
5362.13413249
5361.87421659
5361.61216477
5361.3723537
5361.17511886
5361.02981579
5360.93440947
5360.88631252
5360.88615
5360.93394681
5361.02907249
5361.17417713
5361.37126205
5361.61105265
5361.87316703
5362.13322035
5362.34406932
5362.45650386
5362.7136394
5362.56328326
5362.32252815
5362.02573054
5361.7222667
5361.44050419
5361.20434636
5361.0239084
5360.89943114
5360.83417429
5360.83407764
5360.89913449
5361.02339457
5361.20360175
5361.43958218
5361.72122666
5362.02463443
5362.32142162
5362.56214207
5362.71241233
5362.56338893
5362.51569639
5362.32527064
5362.07164268
5361.81516556
5361.57466872
5361.36347887
5361.18826598
5361.05581784
5360.98164392
5360.98159051
5361.05564563
5361.18794021
5361.36296875
5361.57397296
5361.81435853
5362.07077259
5362.32436928
5362.51476956
5362.56236503
5362.32279949
5362.32559862
5362.10338132
5361.78522603
5361.45999593
5361.15865287
5360.90030384
5360.69519416
5360.55107268
5360.474881
5360.47483737
5360.55096974
5360.69492314
5360.8997821
5361.15794008
5361.45933455
5361.78463225
5362.10282433
5362.32492992
5362.32203998
5362.02628425
5362.07229192
5361.78557227
5361.37645922
5360.96348829
5360.59352858
5360.27725609
5359.83528103
5359.69290973
5359.63775306
5359.63241675
5359.69676309
5359.83887729
5360.27366717
5360.59244684
5360.96279507
5361.37596821
5361.78521966
5362.07189209
5362.02574269
5361.72298011
5361.81595558
5361.46043863
5360.96341464
5360.45794323
5359.55245608
5359.17969006
5359.36703326
5359.23938982
5359.19121039
5359.19107045
5359.23961044
5359.36698167
5359.18860058
5359.56150272
5360.45733942
5360.96293116
5361.46021592
5361.81578336
5361.72266406
5361.44117966
5361.57518462
5361.15878169
5360.5929262
5359.57389999
5359.11110892
5358.95054764
5358.72471101
5358.66984474
5358.64701595
5358.64729307
5358.67091938
5358.72587198
5358.95040624
5359.11464846
5359.56202737
5360.5921593
5361.15856387
5361.57524002
5361.44108515
5361.20475871
5361.36338247
5360.89982913
5360.29017478
5359.13612668
5358.95087187
5358.52791225
5358.41472162
5358.44159985
5358.45378966
5358.45412413
5358.44281006
5358.41536092
5358.52773551
5358.94966763
5359.15337023
5360.28939397
5360.89975843
5361.36361215
5361.20489633
5361.02389508
5361.18734325
5360.69341067
5359.81742329
5359.36694601
5358.72293437
5358.40732922
5358.23972393
5358.48524297
5358.57212697
5358.57228783
5358.48563182
5358.18742807
5358.40675008
5358.72320672
5359.36705537
5359.81219517
5360.6935546
5361.18773435
5361.0242067
5360.89900037
5361.0543874
5360.54857244
5359.67365857
5359.23727386
5358.66496367
5358.42966219
5358.34493968
5358.71096237
5358.88094656
5358.87989509
5358.7084285
5358.31529782
5358.42735289
5358.66400226
5359.23696915
5359.66847122
5360.54864703
5361.0547565
5360.89947087
5360.83354497
5360.98010315
5360.472268
5359.61657386
5359.18746244
5358.63662383
5358.43833667
5358.56294416
5358.8782419
5359.08620511
5359.0856683
5358.87551634
5358.5591335
5358.43336024
5358.63370319
5359.18698306
5359.62784058
5360.47222587
5360.98035535
5360.8340474
5360.83348253
5360.98019913
5360.47231569
5359.61686753
5359.18706242
5358.63735324
5358.43910994
5358.56263947
5358.8751836
5359.08263494
5359.08171169
5358.87279952
5358.55840329
5358.43207522
5358.63242926
5359.18626548
5359.6263871
5360.47208274
5360.9802792
5360.83404492
5360.89880802
5361.05464057
5360.54487364
5359.65931337
5359.23660767
5358.66581985
5358.43116273
5358.37297396
5358.7090028
5358.87833167
5358.87718668
5358.70651592
5358.35719313
5358.42500096
5358.66121339
5359.23588483
5359.66293569
5360.54815719
5361.05464704
5360.89937211
5361.02363749
5361.18771416
5360.6933872
5359.80259631
5359.3663656
5358.72494737
5358.41155867
5358.20932759
5358.48563584
5358.57222324
5358.57148186
5358.48331281
5358.18312697
5358.40661873
5358.72177396
5359.3454623
5359.80640662
5360.69304828
5361.18774609
5361.0242812
5361.20464684
5361.36388806
5360.89983245
5360.28832141
5359.12532167
5358.9522086
5358.53276897
5358.41675202
5358.44066666
5358.45143395
5358.4510547
5358.43883566
5358.41333374
5358.52921071
5358.95079998
5359.09336667
5360.28885202
5360.89976871
5361.36406432
5361.20535783
5361.44151633
5361.5759978
5361.15935976
5360.59243182
5359.53616898
5359.10096335
5358.95462457
5358.72649115
5358.66901544
5358.64370971
5358.64347939
5358.66791549
5358.72448768
5358.95242142
5359.08986171
5359.54906942
5360.59164162
5361.15923548
5361.57626495
5361.44225045
5361.72411661
5361.81743734
5361.46199202
5360.96452333
5360.45803337
5359.5364162
5359.11407563
5359.37050161
5359.241917
5359.1942078
5359.19423343
5359.24151282
5359.36993175
5359.10452354
5359.53710216
5360.45564355
5360.96297083
5361.46166632
5361.81770817
5361.72473779
5362.02843994
5362.07474604
5361.78828343
5361.37912688
5360.965642
5360.59524164
5360.29249175
5359.81902958
5359.67669448
5359.61699002
5359.61096339
5359.6804423
5359.82253906
5360.28846096
5360.59404005
5360.9638047
5361.37804902
5361.78797793
5362.07490822
5362.0289248
5362.32595073
5362.32899485
5362.10715354
5361.78914801
5361.46391027
5361.16238983
5360.90406077
5360.69836938
5360.55427877
5360.47856397
5360.47854882
5360.55432425
5360.69823171
5360.90347832
5361.16152711
5361.46286627
5361.7884319
5362.10681886
5362.32905086
5362.32627164
5362.56712369
5362.51970963
5362.32957797
5362.07616699
5361.81977537
5361.57926298
5361.36791997
5361.19245496
5361.05990966
5360.9857501
5360.98564436
5361.05964482
5361.1920104
5361.36730019
5361.57847724
5361.81902903
5362.07559451
5362.3292906
5362.51974333
5362.56738508
5362.7174726
5362.56741959
5362.3269292
5362.03026733
5361.72687394
5361.44512877
5361.20899246
5361.02852016
5360.90405175
5360.83880725
5360.83874806
5360.90386712
5361.02828722
5361.20861396
5361.44475906
5361.7265043
5362.03004131
5362.32684293
5362.56752752
5362.71770272
5363.16256444
5362.9824466
5362.70755233
5362.3445066
5361.95907499
5361.58832576
5361.26360669
5361.00040887
5360.80718311
5360.70202839
5360.70187301
5360.80668941
5360.9995535
5361.26239393
5361.58678089
5361.95733926
5362.34270267
5362.70568177
5362.98052635
5363.16053349
5362.98256957
5362.85410911
5362.6063536
5362.26344161
5361.89718164
5361.53235077
5361.18838523
5360.88193956
5360.64059566
5360.50401453
5360.50389498
5360.64023242
5360.88127491
5361.18736187
5361.53106314
5361.89569729
5362.26184393
5362.60481013
5362.85243604
5362.98085581
5362.70802279
5362.6067798
5362.30349725
5361.86421761
5361.40229525
5360.95631617
5360.55711359
5360.22959673
5359.99528606
5359.87199506
5359.87189405
5359.99495734
5360.22896588
5360.55598389
5360.9548049
5361.40086938
5361.86288405
5362.30221974
5362.60549246
5362.70655988
5362.34538278
5362.26430432
5361.86472607
5361.2834345
5360.68589242
5360.05780998
5359.66280179
5359.30625388
5359.08785545
5358.98273879
5358.98270062
5359.08771591
5359.30596029
5359.66109864
5360.04502124
5360.68441592
5361.28214005
5361.86366937
5362.26330095
5362.34431735
5361.96028126
5361.89835623
5361.40316162
5360.68309682
5359.25685566
5358.97797245
5357.5726801
5354.79087587
5354.70359589
5354.92610258
5354.92130996
5354.74031379
5354.84279124
5357.55436655
5358.9607662
5359.27374306
5360.68364557
5361.40222834
5361.89763555