/*--------------------------------*- C++ -*----------------------------------*\
| =========                 |                                                 |
| \\      /  F ield         | OpenFOAM: The Open Source CFD Toolbox           |
|  \\    /   O peration     | Version:  3.0.1                                 |
|   \\  /    A nd           | Web:      www.OpenFOAM.org                      |
|    \\/     M anipulation  |                                                 |
\*---------------------------------------------------------------------------*/
FoamFile
{
    version     2.0;
    format      ascii;
    class       surfaceScalarField;
    location    "3.8";
    object      phi;
}
// * * * * * * * * * * * * * * * * * * * * * * * * * * * * * * * * * * * * * //

dimensions      [0 3 -1 0 0 0 0];

internalField   nonuniform List<scalar> 
22672
(
6.53687804944e-06
6.54709233962e-06
-1.30841087588e-05
1.5105371591e-05
4.89149013155e-06
-1.34601476634e-05
2.32345888042e-05
4.30521252433e-06
-1.24346093797e-05
2.89403431336e-05
4.78013197264e-06
-1.04860812816e-05
3.10569439192e-05
6.2718658173e-06
-8.38867840925e-06
2.94653890486e-05
8.30943394758e-06
-6.71810764955e-06
2.48925642438e-05
1.02221077848e-05
-5.64952686337e-06
1.78510191243e-05
1.20325643149e-05
-4.99127576343e-06
9.27245281391e-06
1.33479012487e-05
-4.76960052966e-06
2.48359831315e-09
1.40234109751e-05
-4.75371205557e-06
-9.26880960934e-06
1.40244408644e-05
-4.75341774468e-06
-1.78509332709e-05
1.33508658797e-05
-4.76900687142e-06
-2.48974414215e-05
1.20371438806e-05
-4.99088973956e-06
-2.9475480702e-05
1.02276312162e-05
-5.64983022819e-06
-3.1070950938e-05
8.3149377584e-06
-6.71968531339e-06
-2.89554949911e-05
6.27676536315e-06
-8.39241440871e-06
-2.32476424957e-05
4.78391052931e-06
-1.04919295469e-05
-1.51144859328e-05
4.30907401277e-06
-1.24423753425e-05
-6.54064708249e-06
4.89687892494e-06
-1.34708559117e-05
6.55512455089e-06
-1.30958654667e-05
4.8852688178e-06
1.51186118373e-05
-1.34569459051e-05
1.47702832368e-05
1.47728043409e-05
-1.97665085568e-05
2.46290487597e-05
1.55380508058e-05
-2.10917977279e-05
3.14551816003e-05
1.78628546054e-05
-1.99090623248e-05
3.40600783511e-05
2.1593960682e-05
-1.79272112821e-05
3.24418599092e-05
2.59416384143e-05
-1.60142170484e-05
2.72735784076e-05
2.99612989571e-05
-1.45711496488e-05
1.9477150887e-05
3.3472133267e-05
-1.36433874729e-05
1.0090965334e-05
3.59720097885e-05
-1.32381718859e-05
7.12425844385e-09
3.7244590596e-05
-1.31375868561e-05
-1.0078084419e-05
3.72457310465e-05
-1.31363256172e-05
-1.94680192354e-05
3.59753224962e-05
-1.32347581735e-05
-2.72701637327e-05
3.3477320993e-05
-1.36382579652e-05
-3.24451358635e-05
2.99675258649e-05
-1.45651336591e-05
-3.40691148881e-05
2.59479663702e-05
-1.60092432941e-05
-3.14667772675e-05
2.15996975174e-05
-1.79254434445e-05
-2.46395107686e-05
1.78677994205e-05
-1.99113087191e-05
-1.47770686869e-05
1.55441308939e-05
-2.10976372502e-05
-4.88744768853e-06
1.47823992861e-05
-1.97752762563e-05
1.51344329263e-05
-1.34668461605e-05
4.30272385933e-06
2.3243600895e-05
-1.24278680358e-05
1.55441531844e-05
2.46206568799e-05
-2.10894550231e-05
2.69900223417e-05
2.69683667012e-05
-2.2876366857e-05
3.49036000047e-05
3.11724600952e-05
-2.12233701806e-05
3.79788806069e-05
3.69296635995e-05
-1.84111733998e-05
3.62164267133e-05
4.32816834124e-05
-1.55777810112e-05
3.0394459191e-05
4.91014233162e-05
-1.33183440909e-05
2.16625167281e-05
5.40168145482e-05
-1.18129212775e-05
1.12078201753e-05
5.74885702426e-05
-1.10620399827e-05
1.27436513185e-08
5.92478906089e-05
-1.08083922022e-05
-1.11838773188e-05
5.92484759759e-05
-1.08062846855e-05
-2.16429007727e-05
5.74903302506e-05
-1.10561369584e-05
-3.03818636553e-05
5.4019574502e-05
-1.18034356105e-05
-3.6212546635e-05
4.91044090208e-05
-1.33063377584e-05
-3.7983075925e-05
4.32846676671e-05
-1.55663019526e-05
-3.49124386924e-05
3.6932616747e-05
-1.84036783496e-05
-2.69992427578e-05
3.1175684845e-05
-2.12211960073e-05
-1.55505217676e-05
2.6974175039e-05
-2.28788770686e-05
-4.30500072447e-06
2.46320156913e-05
-2.10952542311e-05
2.32645271797e-05
-1.2435173501e-05
4.77995621197e-06
2.89390395795e-05
-1.04755383272e-05
1.78747585048e-05
3.14317697125e-05
-1.99060711851e-05
3.12038121322e-05
3.4863676459e-05
-2.12245203923e-05
4.04133365995e-05
4.03596822515e-05
-1.83968982247e-05
4.39616364664e-05
4.74827348341e-05
-1.41015127143e-05
4.18340186945e-05
5.51715373849e-05
-9.76236424455e-06
3.50039435254e-05
6.21394324449e-05
-6.20804615265e-06
2.48556934452e-05
6.79231131312e-05
-3.75814414661e-06
1.28196795273e-05
7.19850810346e-05
-2.46057681739e-06
1.69170249513e-08
7.40432139697e-05
-1.99262718821e-06
-1.27873894502e-05
7.40424519394e-05
-1.98972514192e-06
-2.48280174062e-05
7.19828951927e-05
-2.45198584208e-06
-3.49844332729e-05
6.79196904464e-05
-3.74374656379e-06
-4.18251799898e-05
6.21345833018e-05
-6.18947579883e-06
-4.39631010438e-05
5.51664603481e-05
-9.74392443054e-06
-4.0421322435e-05
4.7478450624e-05
-1.40876715076e-05
-3.12134312636e-05
4.03572626013e-05
-1.83895357618e-05
-1.78821721231e-05
3.48657031613e-05
-2.12228648074e-05
-4.78337855492e-06
3.14415812175e-05
-1.99084500472e-05
2.89617362882e-05
-1.04806499058e-05
6.27279317583e-06
3.10423555465e-05
-8.37623707345e-06
2.16077871589e-05
3.40234839901e-05
-1.79268429494e-05
3.69652563351e-05
3.79242501756e-05
-1.84181704793e-05
4.75446576848e-05
4.3889571594e-05
-1.41094024659e-05
5.15388470219e-05
5.14530159307e-05
-7.96456068363e-06
4.88906776477e-05
5.94982808537e-05
-1.6786393169e-06
4.07919172464e-05
6.66857904204e-05
3.55236325658e-06
2.887728641e-05
7.26006047319e-05
7.23712499694e-06
1.48638751063e-05
7.67220593618e-05
9.27644023187e-06
1.88432956566e-08
7.88012612196e-05
1.00870088152e-05
-1.48278939062e-05
7.87987600318e-05
1.00904647573e-05
-2.88463376565e-05
7.67145849595e-05
9.28679433563e-06
-4.07699208768e-05
7.2588698707e-05
7.25461269328e-06
-4.88803657072e-05
6.66698990475e-05
3.57515746696e-06
-5.15395046285e-05
5.94809230677e-05
-1.65530952062e-06
-4.75528257763e-05
5.14372196294e-05
-7.94545104091e-06
-3.69760650222e-05
4.38773734868e-05
-1.40968942e-05
-2.16169718759e-05
3.79186758169e-05
-1.84121094528e-05
-6.27806674798e-06
3.40279196584e-05
-1.79253066702e-05
3.10617943527e-05
-8.37816921816e-06
8.30727928758e-06
2.9442747088e-05
-6.70778153976e-06
2.5951353e-05
3.23995251957e-05
-1.60202271164e-05
4.33133382772e-05
3.61581749697e-05
-1.55960087217e-05
5.52315270071e-05
4.17584529932e-05
-9.78714569449e-06
5.95860893562e-05
4.87992188586e-05
-1.70081227614e-06
5.63018212796e-05
5.62068107496e-05
6.5757216512e-06
4.68170665355e-05
6.27088083214e-05
1.34617500403e-05
3.30463212047e-05
6.80835701303e-05
1.82878191741e-05
1.69718856292e-05
7.18238289649e-05
2.09727268827e-05
1.77259926991e-08
7.36942749931e-05
2.20612231993e-05
-1.69376927898e-05
7.36904308499e-05
2.20638356001e-05
-3.30161921133e-05
7.18120502829e-05
2.09811246209e-05
-4.67952011918e-05
6.80640846596e-05
1.83037087784e-05
-5.62909813437e-05
6.26819935813e-05
1.34837594614e-05
-5.95860157815e-05
5.61759586228e-05
6.60005504357e-06
-5.52393109068e-05
4.87692734226e-05
-1.67872408215e-06
-4.33240599102e-05
4.17333205196e-05
-9.77118799044e-06
-2.59606736914e-05
3.61418852491e-05
-1.55866113381e-05
-8.31275567682e-06
3.23953955748e-05
-1.60154313655e-05
2.94560799169e-05
-6.70706899826e-06
1.02190401814e-05
2.48644404826e-05
-5.64082687276e-06
2.99671141701e-05
2.72358617637e-05
-1.45845013761e-05
4.91275431379e-05
3.03476194686e-05
-1.33499470187e-05
6.21951168811e-05
3.49455608772e-05
-6.25472911853e-06
6.67732637315e-05
4.07205864641e-05
3.50046749834e-06
6.28044620618e-05
4.6744481385e-05
1.34311418966e-05
5.20023152785e-05
5.19328652466e-05
2.15781256174e-05
3.65474077193e-05
5.62447971846e-05
2.72937370172e-05
1.87001365397e-05
5.9165396259e-05
3.05057770307e-05
1.43370859571e-08
6.05665009178e-05
3.18136594871e-05
-1.86726011191e-05
6.05621168832e-05
3.18153463578e-05
-3.65236968802e-05
5.91514604935e-05
3.05117822043e-05
-5.19864144225e-05
5.62199927482e-05
2.73069027268e-05
-6.27979647977e-05
5.18972685789e-05
2.1596359305e-05
-6.6775323429e-05
4.67017434311e-05
1.34516437782e-05
-6.22029238255e-05
4.06769208915e-05
3.52000422594e-06
-4.91376213977e-05
3.49076049556e-05
-6.23955822923e-06
-2.99758156661e-05
3.0320136167e-05
-1.33400529024e-05
-1.02246769999e-05
2.7222153526e-05
-1.45779134492e-05
2.48688665729e-05
-5.63747804053e-06
1.20285427717e-05
1.78195756787e-05
-4.98375477581e-06
3.34752235004e-05
1.94505734795e-05
-1.36614643738e-05
5.40379659015e-05
2.16374928985e-05
-1.18526693781e-05
6.797406626e-05
2.48291348512e-05
-3.81970284005e-06
7.26896789334e-05
2.8843474777e-05
7.1614959637e-06
6.81858161674e-05
3.30123982296e-05
1.82359639555e-05
5.63180080938e-05
3.65167159114e-05
2.72839912518e-05
3.94517743554e-05
3.94194811802e-05
3.36915950072e-05
2.01854725687e-05
4.14358747845e-05
3.69958777956e-05
8.50824979547e-09
4.24067794417e-05
3.83367482696e-05
-2.01693650139e-05
4.2401583843e-05
3.83384747777e-05
-3.94395075099e-05
4.14195125787e-05
3.70021622321e-05
-5.63141353445e-05
3.93901625569e-05
3.37045298321e-05
-6.8189016452e-05
3.6476117235e-05
2.72961015144e-05
-7.26970940883e-05
3.29630377321e-05
1.82468461292e-05
-6.79827974473e-05
2.87911772002e-05
7.17149884992e-06
-5.40467755243e-05
2.47824910499e-05
-3.81087287922e-06
-3.34821068384e-05
2.16015779704e-05
-1.18460957631e-05
-1.20331314696e-05
1.94286804827e-05
-1.36555051629e-05
1.78149937249e-05
-4.97926422422e-06
1.33440767756e-05
9.2357388151e-06
-4.76030226628e-06
3.59745251606e-05
1.00751987604e-05
-1.32551300988e-05
5.7506776091e-05
1.12058769631e-05
-1.11006735898e-05
7.20311644671e-05
1.28264983642e-05
-2.52176836887e-06
7.68103857786e-05
1.48700572101e-05
9.19419895293e-06
7.19312710885e-05
1.69756196039e-05
2.09159085458e-05
5.92453683337e-05
1.87002659308e-05
3.05023738128e-05
4.14725091149e-05
2.01783844067e-05
3.70139796006e-05
2.11754017663e-05
2.11626527062e-05
4.05703553468e-05
2.65250784343e-09
2.16337874482e-05
4.194577036e-05
-2.11723501452e-05
2.16278800059e-05
4.19487395529e-05
-4.14749593712e-05
2.11442412332e-05
4.05779177559e-05
-5.92554624543e-05
2.01472652327e-05
3.70234419542e-05
-7.19456027576e-05
1.86587139231e-05
3.05075890628e-05
-7.68242923743e-05
1.69257263978e-05
2.09160482579e-05
-7.20409081543e-05
1.48165518251e-05
9.19128537118e-06
-5.75134491845e-05
1.27782405154e-05
-2.52317431797e-06
-3.59786208214e-05
1.11671353825e-05
-1.1100367177e-05
-1.33468515064e-05
1.00491178727e-05
-1.32522027059e-05
9.22433167222e-06
-4.75619143418e-06
1.40204496446e-05
-4.34673221511e-08
-4.74129490923e-06
3.72475165719e-05
-2.65684255442e-09
-1.31492566112e-05
5.92646124344e-05
2.79380056988e-08
-1.08391850953e-05
7.40836713758e-05
4.80479752457e-08
-2.04061708899e-06
7.88809467577e-05
5.6188011374e-08
1.00166000668e-05
7.37931257373e-05
4.92470059442e-08
2.20142063832e-05
6.06407094008e-05
3.45194718339e-08
3.18181753852e-05
4.244185052e-05
1.44006498451e-08
3.83628525781e-05
2.16494826269e-05
-2.60115512157e-09
4.1957629554e-05
-4.55131085478e-09
-1.58833531672e-08
4.33037125534e-05
-2.16601009755e-05
-2.16458617932e-08
4.33050855735e-05
-4.2456708005e-05
-2.02621706966e-08
4.19611249929e-05
-6.06620146052e-05
-1.38060616895e-08
3.83663990952e-05
-7.38169093228e-05
-3.0989527954e-09
3.18167366082e-05
-7.89004677853e-05
5.38168453215e-09
2.20039387189e-05
-7.40936846516e-05
1.03570320094e-08
9.99944829029e-06
-5.92685778558e-05
6.41309451734e-09
-2.0532493622e-06
-3.72483801975e-05
-6.18398060013e-09
-1.08468611003e-05
-1.40210157699e-05
-2.71582515067e-08
-1.31510844099e-05
-5.74082342142e-08
-4.73927922239e-06
1.40221536755e-05
-9.32512710745e-06
-4.74053942885e-06
3.72477689117e-05
-1.00850879042e-05
-1.31432237119e-05
5.92616193215e-05
-1.11574398282e-05
-1.08284948391e-05
7.40749984339e-05
-1.27391639036e-05
-2.02616995829e-06
7.88652149261e-05
-1.47678441751e-05
1.00338272431e-05
7.37740853423e-05
-1.68855775272e-05
2.20259717685e-05
6.06236402731e-05
-1.8638559325e-05
3.1823541474e-05
4.24283875165e-05
-2.01541722745e-05
3.83638404577e-05
2.16397686289e-05
-2.11722121123e-05
4.19582423595e-05
-1.08274671405e-08
-2.16680107612e-05
4.33027352773e-05
-2.16622223876e-05
-2.1672322778e-05
4.33020849268e-05
-4.24537136988e-05
-2.11847062934e-05
4.19559521569e-05
-6.06536700579e-05
-2.01743013232e-05
3.83604741868e-05
-7.38042886941e-05
-1.8666890341e-05
3.18144396894e-05
-7.88877164969e-05
-1.69170955446e-05
2.20059395977e-05
-7.40839902699e-05
-1.47984338435e-05
1.00050986344e-05
-5.92624222713e-05
-1.27673028521e-05
-2.04782623897e-06
-3.72453414443e-05
-1.11802264926e-05
-1.0843026259e-05
-1.40205011296e-05
-1.01024712799e-05
-1.31495295668e-05
-9.33699670951e-06
-4.74092162677e-06
1.33483106078e-05
-1.79147421122e-05
-4.75874130173e-06
3.5974931889e-05
-1.94729133304e-05
-1.32388356458e-05
5.74980853797e-05
-2.16092081312e-05
-1.10714063067e-05
7.20052413492e-05
-2.47670758293e-05
-2.47924299828e-06
7.67632270121e-05
-2.87686133123e-05
9.24280277789e-06
7.18730359841e-05
-3.29434503501e-05
2.09480947635e-05
5.91910585979e-05
-3.64708495679e-05
3.05143042081e-05
4.14279139162e-05
-3.94026459859e-05
3.70116579116e-05
2.1143579267e-05
-4.14488842541e-05
4.05610476904e-05
-1.48600952239e-08
-4.24394269433e-05
4.19298974387e-05
-2.11742199378e-05
-4.24416182964e-05
4.19286982898e-05
-4.14610981644e-05
-4.14542564447e-05
4.05564727318e-05
-5.92276339286e-05
-3.94113040014e-05
3.70035847087e-05
-7.19065896056e-05
-3.64845241463e-05
3.04966364163e-05
-7.67858241054e-05
-3.29568244614e-05
2.09190080165e-05
-7.20119360279e-05
-2.87785004549e-05
9.20621482578e-06
-5.749515017e-05
-2.47760225362e-05
-2.5080442589e-06
-3.59692225981e-05
-2.16162199755e-05
-1.10899303e-05
-1.33447504393e-05
-1.94790258474e-05
-1.32479310419e-05
-1.79207330647e-05
-4.76103191305e-06
1.20333589089e-05
-2.49649206206e-05
-4.98323204789e-06
3.34742411646e-05
-2.72741463198e-05
-1.36396951441e-05
5.40226257526e-05
-3.03452582695e-05
-1.18123597285e-05
6.79320343555e-05
-3.49165036276e-05
-3.75997990548e-06
7.26158310979e-05
-4.06799547628e-05
7.22757047485e-06
6.80947671396e-05
-4.67014797321e-05
1.82791392672e-05
5.62315067937e-05
-5.19032050281e-05
2.7295677438e-05
3.93795233853e-05
-5.62360339604e-05
3.36854442303e-05
2.01344155e-05
-5.91782265467e-05
3.69745307944e-05
-1.70764457797e-08
-6.05920256702e-05
3.83041756226e-05
-2.01691945073e-05
-6.05920453819e-05
3.83026312879e-05
-3.94157739705e-05
-5.91772829631e-05
3.69696905119e-05
-5.6269644795e-05
-5.62336829719e-05
3.36763293599e-05
-6.81279101338e-05
-5.18996479551e-05
2.72734602835e-05
-7.26360476151e-05
-4.66941711018e-05
1.82455413954e-05
-6.79358422144e-05
-4.0667765175e-05
7.18909748767e-06
-5.40166546209e-05
-3.49048496374e-05
-3.79034527775e-06
-3.34661917013e-05
-3.03356203777e-05
-1.18310709676e-05
-1.20286557443e-05
-2.72677266286e-05
-1.36488642821e-05
-2.4963313999e-05
-4.986104188e-06
1.02225854927e-05
-2.95441155313e-05
-5.64345260614e-06
2.99630491482e-05
-3.24514994988e-05
-1.456316746e-05
4.91052759684e-05
-3.61795013944e-05
-1.33080192789e-05
6.21414951024e-05
-4.17603196804e-05
-6.19240980867e-06
6.66827720893e-05
-4.879114823e-05
3.56993983518e-06
6.26927508264e-05
-5.61901796676e-05
1.34787727671e-05
5.18946697844e-05
-6.26946688602e-05
2.15896205103e-05
3.6459684361e-05
-6.80798085696e-05
2.72788550912e-05
1.86387156446e-05
-7.1831005339e-05
3.04738562685e-05
-1.72923398392e-08
-7.37070807477e-05
3.17711794247e-05
-1.86739813052e-05
-7.37046607227e-05
3.17694220488e-05
-3.64962940469e-05
-7.18234182096e-05
3.04685606551e-05
-5.19305046206e-05
-6.80668665401e-05
2.72674954739e-05
-6.27218577936e-05
-6.26761034959e-05
2.15678915358e-05
-6.66983926809e-05
-5.61648653208e-05
1.34472873886e-05
-6.21422948657e-05
-4.876078763e-05
3.53695435806e-06
-4.90978422964e-05
-4.17322564683e-05
-6.21704540113e-06
-2.99543941249e-05
-3.61566910212e-05
-1.33224046976e-05
-1.02177661218e-05
-3.24351147704e-05
-1.45692896546e-05
-2.95360823002e-05
-5.64504163064e-06
8.30887425569e-06
-3.11386576099e-05
-6.71440711984e-06
2.59428109075e-05
-3.40812517155e-05
-1.60042565009e-05
4.32851340306e-05
-3.79606965738e-05
-1.55611809309e-05
5.51725978332e-05
-4.3913391184e-05
-9.73441830174e-06
5.94905262845e-05
-5.14683461079e-05
-1.64072658835e-06
5.61831424674e-05
-5.95022208601e-05
6.61945871125e-06
4.66992920172e-05
-6.66835255119e-05
1.34727681922e-05
3.2947981255e-05
-7.25979940955e-05
1.82695800706e-05
1.69034986041e-05
-7.67204730302e-05
2.09340504808e-05
-1.6059951858e-08
-7.87992651919e-05
2.20118521284e-05
-1.69357105916e-05
-7.87955750918e-05
2.20106750938e-05
-3.29798613921e-05
-7.67092484499e-05
2.09300838083e-05
-4.67283554616e-05
-7.25788935873e-05
1.82606076832e-05
-5.62042039142e-05
-6.66561199684e-05
1.34559274661e-05
-5.94994710984e-05
-5.94671375443e-05
6.59757250112e-06
-5.51703601402e-05
-5.14293761483e-05
-1.66052072161e-06
-4.32776580652e-05
-4.38779251672e-05
-9.74706177656e-06
-2.59352596815e-05
-3.79320136862e-05
-1.55671306873e-05
-8.30497528794e-06
-3.40603899461e-05
-1.60050859638e-05
-3.11274976602e-05
-6.7136217813e-06
6.26885971639e-06
-2.90199856867e-05
-8.38762024652e-06
2.15923437469e-05
-3.14867541848e-05
-1.79180716465e-05
3.69308795721e-05
-3.4904908738e-05
-1.83944014171e-05
4.7483216532e-05
-4.03936055813e-05
-1.40721816461e-05
5.14462853828e-05
-4.75102016604e-05
-7.92125083043e-06
4.87775768917e-05
-5.51877847073e-05
-1.64574258494e-06
4.06779447235e-05
-6.21448475991e-05
3.5609609241e-06
2.87799523787e-05
-6.79202767956e-05
7.22030019585e-06
1.47955326141e-05
-7.19751788332e-05
9.23916423527e-06
-1.35558544604e-08
-7.40278909052e-05
1.00377600675e-05
-1.48221247658e-05
-7.40240613863e-05
1.00371011671e-05
-2.88046711263e-05
-7.19635639663e-05
9.23690007651e-06
-4.06985760912e-05
-6.79006502912e-05
7.21568440111e-06
-4.8790692293e-05
-6.21173452983e-05
3.55334259225e-06
-5.14503238097e-05
-5.51540683093e-05
-1.6534617328e-06
-4.74804713064e-05
-4.74745642763e-05
-7.92471372058e-06
-3.69254691517e-05
-4.03615583575e-05
-1.40714413966e-05
-2.15874220774e-05
-3.48791087771e-05
-1.83910446348e-05
-6.26655159374e-06
-3.14682034989e-05
-1.79131672354e-05
-2.90098698297e-05
-8.3842630199e-06
4.77100075363e-06
-2.33039791562e-05
-1.04871090556e-05
1.78519175024e-05
-2.46652635893e-05
-1.99025171857e-05
3.11636855033e-05
-2.70056687395e-05
-2.12111163004e-05
4.03516790574e-05
-3.12064883891e-05
-1.837521442e-05
4.38767885166e-05
-3.69600118445e-05
-1.40753968281e-05
4.17336809689e-05
-4.33029689501e-05
-9.74179842888e-06
3.49040237598e-05
-4.91124966059e-05
-6.20277610072e-06
2.47709453004e-05
-5.40184086991e-05
-3.76886462925e-06
1.27605593169e-05
-5.74816174716e-05
-2.4832448592e-06
-1.16408220716e-08
-5.92348192538e-05
-2.02093826827e-06
-1.27827392583e-05
-5.92317286089e-05
-2.02130188354e-06
-2.47897790012e-05
-5.74722219746e-05
-2.48437461061e-06
-3.49177737743e-05
-5.40028815179e-05
-3.7698550591e-06
-4.17408467308e-05
-4.90915297565e-05
-6.20283513802e-06
-4.38774346068e-05
-4.32782697053e-05
-9.73931574854e-06
-4.03485674247e-05
-3.69347081596e-05
-1.40688402136e-05
-3.11595996889e-05
-3.11842192897e-05
-1.83664341285e-05
-1.78488377728e-05
-2.69882052579e-05
-2.12018023172e-05
-4.76990675584e-06
-2.4653423554e-05
-1.9893859145e-05
-2.32979035308e-05
-1.04819804526e-05
4.28991088009e-06
-1.51570339763e-05
-1.24369722564e-05
1.5516649619e-05
-1.48036007217e-05
-2.10885331289e-05
2.69474969343e-05
-1.55662692391e-05
-2.28703893146e-05
3.48450347042e-05
-1.78906468035e-05
-2.12135336521e-05
3.79047206762e-05
-2.16207025999e-05
-1.83991619542e-05
3.6132543469e-05
-2.59627372883e-05
-1.55682326501e-05
3.03118807656e-05
-2.99757828027e-05
-1.33162387007e-05
2.15920545036e-05
-3.34796194953e-05
-1.18191575605e-05
1.11580306898e-05
-3.59730439808e-05
-1.10747488951e-05
-1.08591297567e-08
-3.72406787567e-05
-1.08254522786e-05
-1.11779895861e-05
-3.72386604838e-05
-1.08261398447e-05
-2.16074486368e-05
-3.59671402672e-05
-1.1075824071e-05
-3.03212552143e-05
-3.3470270978e-05
-1.18190036004e-05
-3.61356566387e-05
-2.99637893431e-05
-1.33135358571e-05
-3.79025267144e-05
-2.59494408699e-05
-1.55621520316e-05
-3.48403282756e-05
-2.16075131988e-05
-1.83895824855e-05
-2.6942640523e-05
-1.78798564902e-05
-2.12022352374e-05
-1.55132470457e-05
-1.55586027171e-05
-2.28591786425e-05
-4.28852691128e-06
-1.47993337048e-05
-2.107899726e-05
-1.51551274098e-05
-1.24314372182e-05
4.87163972832e-06
-6.56456571477e-06
-1.34642450411e-05
1.4743060942e-05
-4.90728068048e-06
-1.97678977362e-05
2.45893758833e-05
-4.321365059e-06
-2.10913973065e-05
3.14039162967e-05
-4.79737649359e-06
-1.99080147349e-05
3.39987038289e-05
-6.29003866336e-06
-1.79256834588e-05
3.23747831178e-05
-8.3253075522e-06
-1.60137679605e-05
2.72084256139e-05
-1.02356508941e-05
-1.45740568246e-05
1.94221173399e-05
-1.20425862673e-05
-1.36510256878e-05
1.00525173099e-05
-1.3354224816e-05
-1.32495317895e-05
-1.03588515136e-08
-1.40266657107e-05
-1.31514546982e-05
-1.00712014994e-05
-1.40258661896e-05
-1.3152268061e-05
-1.94356127496e-05
-1.3352002452e-05
-1.32510357254e-05
-2.7215177317e-05
-1.20393503975e-05
-1.3651653122e-05
-3.23750625673e-05
-1.02319607179e-05
-1.45722250205e-05
-3.39936504179e-05
-8.3221883099e-06
-1.60089292621e-05
-3.13963313486e-05
-6.28701446129e-06
-1.79180652512e-05
-2.45818857653e-05
-4.79598978996e-06
-1.98985441764e-05
-1.47375367982e-05
-4.32122889096e-06
-2.10819445946e-05
-4.86880198559e-06
-4.90821690103e-06
-1.97600783483e-05
-6.5649274053e-06
-1.34591528998e-05
6.52695259025e-06
-1.30916218646e-05
1.50863617168e-05
-1.34668077968e-05
2.3208031758e-05
-1.24431714734e-05
2.89075810679e-05
-1.04970836656e-05
3.10184136794e-05
-8.40105154628e-06
2.94240591789e-05
-6.73115422857e-06
2.48512706881e-05
-5.66308122945e-06
1.78150151088e-05
-5.00656253062e-06
9.24657375624e-06
-4.78602274369e-06
-9.12866782557e-09
-4.77120423472e-06
-9.26238091229e-06
-4.77285109559e-06
-1.78244001439e-05
-4.79021185779e-06
-2.48524257342e-05
-5.01154132288e-06
-2.94173829739e-05
-5.66720576868e-06
-3.10066253443e-05
-6.73313364116e-06
-2.88923363115e-05
-8.40147765049e-06
-2.31937649476e-05
-1.04947239939e-05
-1.50756315777e-05
-1.2439521671e-05
-6.5209418293e-06
-1.34630634383e-05
-1.30859434528e-05
1.01046159138e-05
1.01142692846e-05
-3.33031514893e-05
2.0052121477e-05
1.1661720875e-05
-3.50695534103e-05
2.82673938102e-05
1.32280968044e-05
-3.3878170984e-05
3.34911918003e-05
1.54149212473e-05
-3.1125004406e-05
3.49617799569e-05
1.80153460179e-05
-2.78748270148e-05
3.27144240084e-05
2.06551071483e-05
-2.51260817041e-05
2.72911995718e-05
2.30190366539e-05
-2.32455675434e-05
1.94253665874e-05
2.50661596822e-05
-2.21918335991e-05
1.0049269144e-05
2.65407621699e-05
-2.19344963307e-05
3.44283223104e-09
2.73046180483e-05
-2.2012732263e-05
-1.00435983936e-05
2.73044177487e-05
-2.20110176955e-05
-1.94228281953e-05
2.65400984514e-05
-2.19300915853e-05
-2.72932075307e-05
2.50650293691e-05
-2.21857463818e-05
-3.27215703263e-05
2.30173133438e-05
-2.32389758421e-05
-3.497268917e-05
2.06524843315e-05
-2.51212319444e-05
-3.35025569359e-05
1.80117933621e-05
-2.78745049753e-05
-2.82760601801e-05
1.54109993665e-05
-3.11295739215e-05
-2.00566804996e-05
1.32254971702e-05
-3.38873883557e-05
-1.01053898315e-05
1.16622995192e-05
-3.50845808744e-05
1.01190913113e-05
-3.33204373824e-05
1.16610013975e-05
2.00590144339e-05
-3.50628624318e-05
2.19896942517e-05
2.19813801974e-05
-4.04150472861e-05
2.99243046948e-05
2.44952749605e-05
-4.0293781145e-05
3.4786247506e-05
2.81849966475e-05
-3.75412804687e-05
3.60439139638e-05
3.26688460698e-05
-3.38385801679e-05
3.36461884521e-05
3.73240911335e-05
-3.02856770629e-05
2.80071821715e-05
4.1599527904e-05
-2.75128322983e-05
1.99427927774e-05
4.52033773683e-05
-2.57164074631e-05
1.0338354356e-05
4.77712347421e-05
-2.48643906088e-05
1.47894197873e-08
4.90943335665e-05
-2.46039145511e-05
-1.03101346528e-05
4.90938477561e-05
-2.46010010825e-05
-1.99182697937e-05
4.77696495372e-05
-2.48563363506e-05
-2.79884599387e-05
4.52006818862e-05
-2.57038758737e-05
-3.36346662061e-05
4.15956130033e-05
-2.74973761807e-05
-3.60390688739e-05
3.73186249605e-05
-3.02711234798e-05
-3.47857565963e-05
3.2662081688e-05
-3.38291784629e-05
-2.99254955469e-05
2.81780495541e-05
-3.75387471142e-05
-2.19903780474e-05
2.44904711034e-05
-4.02978527222e-05
-1.16604057939e-05
2.19815209301e-05
-4.04245977059e-05
2.00677193365e-05
-3.50759651216e-05
1.32341240904e-05
2.82627769915e-05
-3.38659183853e-05
2.45135692902e-05
2.99027485479e-05
-4.02904430931e-05
3.29046735045e-05
3.28722380668e-05
-3.96446094234e-05
3.78978726014e-05
3.74514393842e-05
-3.5483182242e-05
3.90456505395e-05
4.30882911946e-05
-2.99785569387e-05
3.63156445926e-05
4.90031678631e-05
-2.45269985273e-05
3.01622062383e-05
5.44636492435e-05
-2.0029157637e-05
2.14457518183e-05
5.89951342539e-05
-1.6888337774e-05
1.11133328555e-05
6.21779138163e-05
-1.51363990724e-05
2.20515162108e-08
6.38065737466e-05
-1.4429437248e-05
-1.10707750753e-05
6.38053947896e-05
-1.44250815764e-05
-2.14074446143e-05
6.21742978139e-05
-1.51241860732e-05
-3.01308751969e-05
5.89893993638e-05
-1.68687908484e-05
-3.62934642012e-05
5.44556217805e-05
-2.00038274388e-05
-3.90324721763e-05
4.89929858737e-05
-2.45017283933e-05
-3.78913872456e-05
4.3076855277e-05
-2.99596153075e-05
-3.2902001448e-05
3.74402776726e-05
-3.54728948291e-05
-2.45120946354e-05
3.28639956805e-05
-3.96424027774e-05
-1.323254445e-05
2.99009525175e-05
-4.02943424947e-05
2.82733006568e-05
-3.38733709011e-05
1.5425698409e-05
3.34695851071e-05
-3.11081937881e-05
2.82103238209e-05
3.47506285182e-05
-3.75387300211e-05
3.74920125581e-05
3.78521504313e-05
-3.54862666586e-05
4.28566320473e-05
4.28019697571e-05
-2.91121764475e-05
4.39020520243e-05
4.89409570111e-05
-2.09997038982e-05
4.0637144286e-05
5.54104868462e-05
-1.29048540295e-05
3.3630336399e-05
6.13485699804e-05
-6.08621008229e-06
2.38266122672e-05
6.61932522758e-05
-1.15256360322e-06
1.23202383488e-05
6.95679844431e-05
1.6557225307e-06
2.63971349076e-08
7.12881154676e-05
2.81968481967e-06
-1.22691801182e-05
7.12856499654e-05
2.82562003009e-06
-2.37799172513e-05
6.95608436773e-05
1.67223235904e-06
-3.35917151734e-05
6.61818145442e-05
-1.12434023442e-06
-4.06092072373e-05
6.13333689552e-05
-6.04971690886e-06
-4.3884897542e-05
5.53923130444e-05
-1.28675616536e-05
-4.2847797505e-05
4.89220190951e-05
-2.09699532635e-05
-3.74882392085e-05
4.27841081977e-05
-2.9092962054e-05
-2.82086168725e-05
3.78382089023e-05
-3.54767592596e-05
-1.54243676505e-05
3.47445962882e-05
-3.75364217e-05
3.34789775623e-05
-3.11107484833e-05
1.80290691523e-05
3.49255308996e-05
-2.78613826871e-05
3.26978622545e-05
3.59985659991e-05
-3.38437026983e-05
4.31333797475e-05
3.89914378461e-05
-2.99930879746e-05
4.90017438221e-05
4.3838086679e-05
-2.10139693625e-05
4.9931498005e-05
4.98594385849e-05
-9.81284933186e-06
4.59834975876e-05
5.621460545e-05
1.46522447459e-06
3.78881934129e-05
6.20902332481e-05
1.09060198524e-05
2.67549676781e-05
6.68383119592e-05
1.77253360617e-05
1.38034151086e-05
7.01140789941e-05
2.16819666943e-05
2.7325359465e-08
7.17809790106e-05
2.33703203594e-05
-1.37503403777e-05
7.17772868675e-05
2.33765884642e-05
-2.67063787594e-05
7.01032194037e-05
2.17005532e-05
-3.78477209124e-05
6.68209648835e-05
1.77568936514e-05
-4.59543505234e-05
6.20665812748e-05
1.09486493826e-05
-4.99134507421e-05
5.61868305834e-05
1.50932731514e-06
-4.89929337098e-05
4.98301274356e-05
-9.77404689022e-06
-4.31303308198e-05
4.38107559042e-05
-2.09861430763e-05
-3.2697241781e-05
3.89692730548e-05
-2.99762894114e-05
-1.80288781884e-05
3.59859225851e-05
-3.38350474119e-05
3.49303268655e-05
-2.78584330305e-05
2.06683588826e-05
3.26713684941e-05
-2.51220894831e-05
3.73522090308e-05
3.35992110356e-05
-3.03048276256e-05
4.90472014214e-05
3.62627854789e-05
-2.45624320719e-05
5.54714496257e-05
4.05757051622e-05
-1.29490637638e-05
5.62889298156e-05
4.59135782473e-05
1.42755241103e-06
5.16904824317e-05
5.16175579298e-05
1.57712369386e-05
4.24348805831e-05
5.68718455405e-05
2.79357913115e-05
2.98825900405e-05
6.11175085763e-05
3.65609903321e-05
1.53928620054e-05
6.40319369357e-05
4.15446937369e-05
2.51188824354e-08
6.55112021387e-05
4.36988534017e-05
-1.53439510746e-05
6.55064874147e-05
4.37038222828e-05
-2.98377399895e-05
6.40178982944e-05
4.15603518345e-05
-4.23978222736e-05
6.10945993334e-05
3.65902667352e-05
-5.16637869941e-05
5.68394941392e-05
2.79769078532e-05
-5.62729830666e-05
5.15784016879e-05
1.58177575839e-05
-5.54639698062e-05
4.58720256774e-05
1.47041794627e-06
-4.90455912453e-05
4.05365858415e-05
-1.29153707637e-05
-3.73527235359e-05
3.62301360516e-05
-2.4540345813e-05
-2.06686691196e-05
3.35775378877e-05
-3.02911288157e-05
3.26685907702e-05
-2.51140236061e-05
2.30318675557e-05
2.72509394182e-05
-2.3252358428e-05
4.16247992128e-05
2.79699259157e-05
-2.75482321233e-05
5.4503338626e-05
3.01239902749e-05
-2.00897516519e-05
6.14061839579e-05
3.35877401024e-05
-6.16963857468e-06
6.21628195484e-05
3.78399548028e-05
1.08174587082e-05
5.69428894009e-05
4.23855716854e-05
2.78830896844e-05
4.66328802741e-05
4.65882080606e-05
4.21718253472e-05
3.27782258804e-05
5.00240689581e-05
5.22418997537e-05
1.68597691147e-05
5.24258299507e-05
5.80304205583e-05
2.05881282593e-08
5.36358785724e-05
6.05282515518e-05
-1.68197078763e-05
5.36306519379e-05
6.05315694666e-05
-3.27419418318e-05
5.24099656227e-05
5.80420407919e-05
-4.66041313677e-05
4.99969638203e-05
5.22668160827e-05
-5.69232165373e-05
4.65493263867e-05
4.22056935195e-05
-6.21516629573e-05
4.23371713711e-05
2.79213909287e-05
-6.14015141883e-05
3.77872705789e-05
1.08546652317e-05
-5.45032829944e-05
3.35374533253e-05
-6.13862374525e-06
-4.1626144102e-05
3.00811300679e-05
-2.00681770998e-05
-2.30326920711e-05
2.79390307823e-05
-2.75328702247e-05
2.72387950255e-05
-2.32403859965e-05
2.50786983173e-05
1.93955410853e-05
-2.22071312233e-05
4.52263790574e-05
1.99227352055e-05
-2.57620209759e-05
5.90307668723e-05
2.14305051454e-05
-1.6963616211e-05
6.6248198633e-05