/*--------------------------------*- C++ -*----------------------------------*\
| =========                 |                                                 |
| \\      /  F ield         | OpenFOAM: The Open Source CFD Toolbox           |
|  \\    /   O peration     | Version:  3.0.1                                 |
|   \\  /    A nd           | Web:      www.OpenFOAM.org                      |
|    \\/     M anipulation  |                                                 |
\*---------------------------------------------------------------------------*/
FoamFile
{
    version     2.0;
    format      ascii;
    class       surfaceVectorField;
    location    "3.8";
    object      Uf;
}
// * * * * * * * * * * * * * * * * * * * * * * * * * * * * * * * * * * * * * //

dimensions      [0 1 -1 0 0 0 0];

internalField   nonuniform List<vector> 
22672
(
(0.00261475121978 0.000935857421998 -0.00229701316571)
(0.000932785794206 0.00261883693585 -0.00229675585237)
(0.00175288553554 0.00175651288248 -0.00523364350352)
(0.00604214863638 0.000381637048773 -0.00213916434497)
(0.00384067315928 0.00195659605262 -0.00349042755214)
(0.00506937321154 0.00167420322672 -0.00538405906537)
(0.00929383552167 0.00014278883184 -0.00170410340531)
(0.00792074108905 0.00172208500973 -0.00368186655283)
(0.00880797517797 0.00170962200474 -0.0049738437519)
(0.0115761372534 0.000209015938462 -0.00115210574955)
(0.0110704141689 0.00191205278905 -0.00331148746335)
(0.0116241403247 0.00195905179555 -0.00419443251264)
(0.0124227775677 0.000529557781448 -0.000655350692722)
(0.0129092723742 0.00250874632692 -0.00279510636559)
(0.0131870562594 0.00240964399914 -0.0033554713637)
(0.0117861556194 0.000942707037074 -0.000312201654808)
(0.0129730310334 0.00332377357903 -0.00234031198975)
(0.0130708546965 0.0029549698969 -0.00268724305982)
(0.0099570256975 0.00136921641722 -0.000106182482455)
(0.0116945800477 0.0040888431139 -0.00204441336621)
(0.0117176264483 0.00344801153785 -0.00225981074535)
(0.00714040764971 0.00176326482901 2.78786453631e-06)
(0.00915705986816 0.00481302572594 -0.00185191277308)
(0.00915062190902 0.00393507219418 -0.00199651030537)
(0.00370898112556 0.00202352254361 3.40860081505e-05)
(0.00577913272578 0.00533916049947 -0.00177957221987)
(0.00576871759092 0.00429810555649 -0.00190784021186)
(9.9343932526e-07 0.00211334468087 3.75033849697e-05)
(0.00197203959207 0.00560936439005 -0.00176857509051)
(0.00196732386834 0.00448779105136 -0.00190148482223)
(-0.00370752384374 0.00202425067454 3.4030116539e-05)
(-0.00196821939309 0.00560977634575 -0.00176845252571)
(-0.00196497150556 0.00448798830494 -0.00190136709787)
(-0.00714037330837 0.00176461764654 2.58339787472e-06)
(-0.00577642281071 0.00534034635189 -0.00177928932317)
(-0.00576741302471 0.00429865291362 -0.00190760274857)
(-0.0099589765686 0.00137099256001 -0.000106648651915)
(-0.00915626205295 0.00481485755225 -0.00185159526614)
(-0.00915105319896 0.00393587283925 -0.00199635589582)
(-0.0117901922808 0.000944600438349 -0.000313009167919)
(-0.0116961610508 0.0040910524865 -0.00204421470767)
(-0.0117201411826 0.0034488831998 -0.00225993209128)
(-0.0124283803752 0.000531346423222 -0.000656553396835)
(-0.0129768282218 0.00332597510336 -0.00234048368881)
(-0.0130752552046 0.0029556591829 -0.00268787412535)
(-0.0115821979964 0.00021052513 -0.0011537333454)
(-0.0129146248392 0.00251070614526 -0.00279595592053)
(-0.0131925611692 0.00241008787182 -0.00335696576348)
(-0.0092990569983 0.00014404370619 -0.00170614439018)
(-0.0110755919829 0.00191356421172 -0.00331310177448)
(-0.0116290801763 0.00195920061864 -0.00419677181875)
(-0.00604579437313 0.000382956796032 -0.00214182914927)
(-0.00792472203824 0.00172362960511 -0.00368412396484)
(-0.00881149738972 0.00170992436456 -0.00497695013699)
(-0.002616258833 0.000937472860919 -0.00230030344571)
(-0.00384291573407 0.00195875156998 -0.00349347459473)
(-0.00507120750582 0.00167508956092 -0.00538834236468)
(-0.000933028679428 0.00262204982036 -0.00230004835246)
(-0.00175296345749 0.00175804452684 -0.00523834618667)
(0.00195410752712 0.00384434559293 -0.0034901702388)
(0.000379245460222 0.0060474447349 -0.00213820828847)
(0.00167203112126 0.00507384524341 -0.00538277836206)
(0.00590811329472 0.00353661950957 -0.00503312975999)
(0.00353543320024 0.00590912173635 -0.00503279929728)
(0.00519706119528 0.00519771079377 -0.00790660342274)
(0.00985161950387 0.00375839399853 -0.00528925061087)
(0.00838673936247 0.0062152203223 -0.0058835953912)
(0.00931001136696 0.00559501224957 -0.00843671909116)
(0.0125820726401 0.00452560870088 -0.0049544880794)
(0.0121110639582 0.00714514184217 -0.00564993169174)
(0.0123717937156 0.00646067309216 -0.00796362492994)
(0.0136240313404 0.00567707130003 -0.00448006766262)
(0.0142376191651 0.0086375842728 -0.00507243035228)
(0.0140025569013 0.00771326134692 -0.00717088451286)
(0.0129767439637 0.00690205370727 -0.00407252370114)
(0.0144126089775 0.0103766553657 -0.00448902031539)
(0.0139404509428 0.00910691828627 -0.00640568681935)
(0.0109094313631 0.00801669642986 -0.00379014365683)
(0.0129433025348 0.0119845195828 -0.00405494611307)
(0.0124324193177 0.0103837378511 -0.00582845985954)
(0.0077908603548 0.00891683311567 -0.00363427285749)
(0.0101056607636 0.0133888533068 -0.00377806538719)
(0.00968528189104 0.0114949233492 -0.00545735498917)
(0.00403638613359 0.00948064933285 -0.00358223331854)
(0.0063593221815 0.0143888039154 -0.00366514909428)
(0.00609919696128 0.0122873584246 -0.00529526875437)
(2.84970337754e-06 0.00967080232108 -0.0035745310012)
(0.00216634465108 0.0148978362384 -0.0036435787486)
(0.00208033840832 0.0126933400073 -0.00525503474246)
(-0.0040312337676 0.00948155407312 -0.00358177196542)
(-0.00215843743029 0.0148982924186 -0.00364320359438)
(-0.00207159969338 0.0126934910448 -0.00525453024687)
(-0.00778720769418 0.00891856678427 -0.00363346798718)
(-0.00635258933701 0.0143901289985 -0.00366414682377)
(-0.00609154742459 0.0122877749594 -0.00529390326941)
(-0.0109080654931 0.00801905805855 -0.0037891613219)
(-0.0101010737452 0.0133909283972 -0.00377651025705)
(-0.00967958931863 0.011495566437 -0.00545530318607)
(-0.0129780543454 0.00690468251693 -0.00407168922856)
(-0.012941704785 0.011987010346 -0.00405307751541)
(-0.0124294220608 0.010384454306 -0.00582605346364)
(-0.0136276459552 0.00567957605392 -0.0044798862125)
(-0.0144140489573 0.0103791865481 -0.00448746476295)
(-0.0139402193395 0.00910743271602 -0.00640369731764)
(-0.012586710907 0.00452772405494 -0.00495532434961)
(-0.0142413812186 0.00863987900695 -0.00507194721302)
(-0.0140044138286 0.00771341446806 -0.00717017737782)
(-0.00985580430744 0.00376036379432 -0.00529108134914)
(-0.0121153064737 0.00714711976821 -0.00565078008701)
(-0.0123742628768 0.00646053525201 -0.00796452348766)
(-0.00591082747477 0.00353919458432 -0.00503576941029)
(-0.00839009876699 0.00621765235754 -0.00588550975825)
(-0.00931198534838 0.00559532183843 -0.00843905490007)
(-0.00195497907541 0.00384830363948 -0.00349321950147)
(-0.00353718060565 0.00591295971444 -0.00503546437603)
(-0.00519797296798 0.00519936406025 -0.0079101105025)
(-0.000379396869112 0.00605377317052 -0.0021409990603)
(-0.00167184485544 0.00507763539656 -0.00538673846419)
(0.00172108954373 0.00792307886375 -0.00368083734695)
(0.000141015026707 0.009297440358 -0.00170208522368)
(0.00170889951363 0.00881121303216 -0.0049711472143)
(0.00621766127377 0.00838396013808 -0.00588326492849)
(0.00375911147229 0.00984826275196 -0.00528836228791)
(0.00559726087216 0.00930692055445 -0.00843578200925)
(0.0107960089367 0.00938379035393 -0.00624427647206)
(0.00939035114828 0.0107873466805 -0.00624435237848)
(0.0102144679106 0.0102069685847 -0.00915054674281)
(0.0139614400019 0.0110121417745 -0.00576787396462)
(0.0137229069599 0.0124689840381 -0.00580599465188)
(0.0136105265614 0.0117254245445 -0.00848934807225)
(0.0151915522427 0.0130496623575 -0.00508138300505)
(0.0161756177902 0.0147718654398 -0.00491399110959)
(0.0153833280023 0.0137221012702 -0.00736446935992)
(0.0144865706853 0.0151184976522 -0.00447144272732)
(0.0164069733916 0.017312673365 -0.00400988273555)
(0.0153245607271 0.0158815480821 -0.00623111240448)
(0.0121577836764 0.0169564109708 -0.00404286784342)
(0.0146930262792 0.0196405693265 -0.00330672971409)
(0.0136251420329 0.0178696043026 -0.00532733763637)
(0.00866500669123 0.0184038320605 -0.00380894162397)
(0.0114389927032 0.0216067258193 -0.00285342755089)
(0.0105922180957 0.0195479297811 -0.00472516851099)
(0.00448312807011 0.0193103028021 -0.00372649452435)
(0.00717640494361 0.022995428097 -0.00265154337105)
(0.00666127024329 0.0207374114858 -0.0044248159931)
(5.09746052741e-06 0.0196161320234 -0.00371225134179)
(0.00243968095388 0.0236991562435 -0.00259979410285)
(0.0022711912656 0.0213456061311 -0.00432335688088)
(-0.00447355092751 0.0193110730948 -0.00372557845273)
(-0.00242785802553 0.0236993903904 -0.00259915735909)
(-0.00225730588948 0.0213456719923 -0.0043225138742)
(-0.00865716030907 0.0184053073925 -0.00380718909364)
(-0.00716581095287 0.0229961321002 -0.0026497892964)
(-0.0066486001866 0.0207375581938 -0.00442245478336)
(-0.0121527454621 0.0169583814317 -0.00404042645057)
(-0.0114308488146 0.0216078298008 -0.0028504875032)
(-0.0105818261704 0.0195481200791 -0.00472137424418)
(-0.014485018654 0.0151206578085 -0.0044688530498)
(-0.0146885773984 0.0196417636083 -0.00330300700249)
(-0.0136181194212 0.0178696407934 -0.00532253510337)
(-0.01519323037 0.0130517621087 -0.00507952576347)
(-0.0164064739056 0.0173138670668 -0.00400640566169)
(-0.0153212386042 0.0158812398702 -0.00622652078103)
(-0.013964975477 0.0110140938241 -0.00576740295043)
(-0.0161783135445 0.0147730466988 -0.00491184922219)
(-0.0153830168827 0.013721424402 -0.00736147133984)
(-0.0107996971031 0.00938604306643 -0.00624520849612)
(-0.013726772779 0.012470273938 -0.0058056079656)
(-0.0136116690907 0.0117246682899 -0.00848847840293)
(-0.00622020870704 0.0083874744966 -0.00588520472398)
(-0.00939372952312 0.0107896700156 -0.00624536803641)
(-0.0102157420857 0.0102070655709 -0.00915155082746)
(-0.00172200028979 0.00792908013029 -0.00368324393485)
(-0.00376104821177 0.00985280627654 -0.00529025572633)
(-0.00559781608652 0.00930903784031 -0.00843810169242)
(-0.000141492467238 0.00930581087189 -0.00170432334282)
(-0.0017087246303 0.00881702650685 -0.00497406940042)
(0.00191198248479 0.0110684819861 -0.00330961016463)
(0.000207796186621 0.0115756158318 -0.00114874312669)
(0.00195935055552 0.011622826715 -0.00419021533089)
(0.00714990340193 0.0121020173424 -0.0056494497379)
(0.00452722534918 0.012572707885 -0.00495344258332)
(0.00646486320549 0.01236309874 -0.00796242847404)
(0.0124815248529 0.0137085332389 -0.0058060705583)
(0.011020821893 0.0139454705836 -0.00576869866887)
(0.0117360071355 0.013596639792 -0.00848980815691)
(0.0161653346398 0.0160244768287 -0.00495211179686)
(0.0160422281041 0.0161438729006 -0.00495313067847)
(0.0155906008931 0.0155727448034 -0.00735875928989)
(0.0175846545865 0.0187715385367 -0.00384249084009)
(0.0188689789123 0.0189930939336 -0.00357519807242)
(0.0175692792528 0.0180953950151 -0.00564060508571)
(0.0167336074778 0.0215042487781 -0.00284516972232)
(0.019108030044 0.022068614954 -0.00215500360443)
(0.0174591781793 0.0207923172764 -0.00390494569782)
(0.0140015774102 0.0238943835718 -0.00211728942155)
(0.0170625943555 0.024855772978 -0.00101573342717)
(0.0154663517246 0.0232618412087 -0.00248321846106)
(0.00994227737806 0.025747093406 -0.00169602929796)
(0.0132389769989 0.0271692452525 -0.000237533717384)
(0.0119792862239 0.0253093101629 -0.00150325765864)
(0.00512787181093 0.0268988010455 -0.00152484294955)
(0.00827580970389 0.0287940324139 0.000153324299006)
(0.00750632874039 0.0267447928891 -0.000984230726956)
(6.76680998053e-06 0.0272856038013 -0.00148670012015)
(0.0028064903093 0.0296172855879 0.000283091044421)
(0.00255355492712 0.0274734589219 -0.000797050875286)
(-0.00511495578007 0.0268989930213 -0.00152336820276)
(-0.00279221967682 0.0296169807758 0.000283999153161)
(-0.00253626173249 0.0274731721565 -0.000795890056768)
(-0.0099312069625 0.0257474467327 -0.00169308770596)
(-0.00826279386869 0.0287931580771 0.000155925940933)
(-0.00749026489374 0.0267439594826 -0.000980794336833)
(-0.0139937733092 0.023894692374 -0.00211306805513)
(-0.0132286932773 0.0271678761786 -0.000233149689762)
(-0.0119657391456 0.0253079467815 -0.00149749862551)
(-0.0167300719959 0.0215043981162 -0.00284055961439)
(-0.0170565669797 0.0248538333207 -0.00101023604425)
(-0.0154567983369 0.0232597937455 -0.00247579031953)
(-0.0175852404175 0.0187716847793 -0.00383872912042)
(-0.0191065982564 0.0220665841393 -0.00214976024048)
(-0.017454144829 0.0207897009415 -0.00389756977221)
(-0.016168528974 0.0160248328456 -0.00495005423737)
(-0.0188712629526 0.0189913802496 -0.0035713765101)
(-0.0175680350865 0.0180926091068 -0.00563506860303)
(-0.0124853725055 0.0137097270019 -0.00580576750589)
(-0.0160462603476 0.0161429050405 -0.0049512984825)
(-0.0155914059334 0.0155702368276 -0.00735581430474)
(-0.00715286884926 0.0121052119075 -0.00565041903875)
(-0.0110246672243 0.0139462812645 -0.00576853607977)
(-0.0117373321535 0.0135954789768 -0.00848914592297)
(-0.00191335142197 0.0110752502271 -0.00331133513429)
(-0.0045297674721 0.012576632487 -0.0049543204405)
(-0.0064656633891 0.0123646961327 -0.00796338001888)
(-0.000208892897504 0.0115846945153 -0.00115026925789)
(-0.00195950174247 0.0116294830136 -0.00419225996232)
(0.00250911727033 0.0129015015536 -0.00279257554538)
(0.000528142375084 0.0124169422186 -0.000651305155488)
(0.00241087097773 0.0131793952449 -0.00335049482938)
(0.00864311486356 0.014221714234 -0.0050726915143)
(0.00567807756573 0.013609393596 -0.00447974481863)
(0.0077182336029 0.0139880028486 -0.00717073717974)
(0.014786102534 0.0161529934455 -0.00491575878905)
(0.0130581080558 0.0151697000702 -0.00508433043132)
(0.0137340479105 0.0153632888963 -0.0073672681917)
(0.0190178630739 0.018841028759 -0.00357621695404)
(0.018789560467 0.0175558286376 -0.00384690140551)
(0.0181152916835 0.0175442029591 -0.00564376098635)
(0.0206155388087 0.021976636314 -0.00188771083676)
(0.0220067141575 0.0205812063723 -0.00189100604765)
(0.0203292714722 0.0203006119237 -0.00318582427345)
(0.0195562710591 0.0250766811143 -0.00032556730928)
(0.0222079410433 0.0237993123415 0.000150459354669)
(0.0201325924124 0.0232435792711 -0.00067145572676)
(0.0163167668986 0.0277675407603 0.000864022276999)
(0.0197698832483 0.0266743161682 0.00182262600374)
(0.0177702302992 0.0259308919819 0.00142094530263)
(0.011550914564 0.0298369967439 0.00161181987959)
(0.0152921459205 0.0290402418927 0.00300006350484)
(0.0137141870346 0.0281318076686 0.00289484999878)
(0.00594555004251 0.0311226081201 0.00196125829298)
(0.00952854096865 0.0306888237447 0.00362644623096)
(0.00856580945091 0.029667004239 0.00371057609275)
(7.53731826263e-06 0.0315550157787 0.00205379031773)
(0.00322401009865 0.0315205044878 0.00385661260416)
(0.00290786338165 0.0304471897457 0.00403480352609)
(-0.00593115756249 0.0311213661772 0.00196329329686)
(-0.00320941772365 0.0315195040127 0.00385747071847)
(-0.00288941766442 0.0304462594267 0.00403618590292)
(-0.0115385350626 0.0298346276379 0.00161586395713)
(-0.00951503249457 0.0306858339838 0.00362908665428)
(-0.00854858980706 0.0296642952257 0.00371471773425)
(-0.0163079683507 0.0277641774418 0.000869682321111)
(-0.0152813348071 0.0290354794828 0.00300479111479)
(-0.013699654644 0.0281275246357 0.00290184507731)
(-0.0195521462829 0.0250727542495 -0.000319436670338)
(-0.0197634380961 0.026667959619 0.00182874680498)
(-0.0177599898007 0.0259251673453 0.00143006298678)
(-0.0206158018514 0.0219728259641 -0.00188240763016)
(-0.0222061144056 0.0237923692271 0.000156672174858)
(-0.0201271514206 0.0232371026062 -0.000662123808249)
(-0.0190211303105 0.0188379812226 -0.00357262075523)
(-0.0220088441071 0.0205748878517 -0.00188591798276)
(-0.020327861684 0.0202941572027 -0.00317818041636)
(-0.0147904260089 0.0161515871376 -0.00491406705638)
(-0.0187937287706 0.0175509493947 -0.00384377874611)
(-0.018116366542 0.0175385955528 -0.00563875767998)
(-0.00864678875038 0.0142231809608 -0.00507243748152)
(-0.0130622901571 0.0151674703268 -0.00508301371345)
(-0.0137358835775 0.0153596548507 -0.00736484378113)
(-0.00251122669919 0.0129075845064 -0.0027932545641)
(-0.00568101881202 0.0136111678634 -0.00447953945114)
(-0.00771960428308 0.0139878912146 -0.00717012266808)
(-0.000529648963856 0.0124247177411 -0.000652088097737)
(-0.00241167542801 0.0131854218913 -0.00335126768726)
(0.00332291171503 0.0129608795962 -0.00233847442874)
(0.000940991430442 0.0117770988352 -0.00030788454565)
(0.00295557683868 0.0130587488453 -0.00268311261591)
(0.0103805412 0.01439237389 -0.00449138373565)
(0.00690173080302 0.0129598100783 -0.00407356716502)
(0.00911101513478 0.0139223835983 -0.00640809084654)
(0.0173253353109 0.016379411095 -0.00401547304778)
(0.0151251711775 0.0144632699879 -0.00447755819414)
(0.0158924521519 0.015301266609 -0.00623840348867)
(0.0220926108028 0.0190735118244 -0.00216169049912)
(0.0215201314113 0.0167033811973 -0.00285512902922)
(0.0208111572537 0.0174301386643 -0.00391485827779)
(0.0238344357425 0.0221694313838 0.000147164143779)
(0.0251061832132 0.0195196875434 -0.000336867349639)
(0.0232723893708 0.020098508308 -0.000680324910455)
(0.0225207285118 0.0251661613896 0.00229865266769)
(0.0252057787518 0.0224827242998 0.00229400146893)
(0.0229648725861 0.0229292938255 0.00263028866048)
(0.0187268266142 0.0277208919936 0.00395866723158)
(0.0223632055398 0.0250835233285 0.00444092366177)
(0.0202046160191 0.0254764202187 0.00538470001613)
(0.0132185284819 0.029667982027 0.00501468985622)
(0.0172358094939 0.0272334280521 0.00596607982593)
(0.0155432453176 0.0275490535782 0.00731512766963)
(0.00678875425169 0.0308650734159 0.00552180054214)
(0.0106932449893 0.028729531586 0.0067965803467)
(0.00967985418598 0.0289818757146 0.00838909075308)
(7.09039707963e-06 0.0312648209835 0.0056602930049)
(0.00360670320233 0.0294777099972 0.00711009528634)
(0.00327932885441 0.0297061995281 0.00882448927972)
(-0.00677507711594 0.0308623841764 0.00552326407589)
(-0.00359392205162 0.02947617234 0.0071106345793)
(-0.00326222182381 0.0297046542447 0.00882553424004)
(-0.0132064768453 0.0296627263588 0.00501801381194)
(-0.0106813003632 0.0287248201131 0.00679846519629)
(-0.00966367191942 0.0289772693828 0.00839244984835)
(-0.0187180804767 0.0277133346445 0.00396385559865)
(-0.0172263324226 0.0272256338638 0.00597008637495)
(-0.0155294925362 0.0275416835047 0.00732148351138)
(-0.0225163925375 0.0251570440186 0.00230485565017)
(-0.0223578025302 0.0250727974325 0.00444645556387)
(-0.020194951919 0.0254664544029 0.00539350378455)
(-0.0238344063126 0.0221602025872 0.000153161822263)
(-0.0252043727438 0.0224703834491 0.00230000186572)
(-0.0229596479853 0.0229178371461 0.00264002201743)
(-0.0220957243627 0.0190654502955 -0.00215707597363)
(-0.0251083827843 0.019507709369 -0.000331427222743)
(-0.0232712256215 0.0200870715108 -0.00067148963286)
(-0.0173296239641 0.0163736814918 -0.00401272540318)
(-0.0215241647292 0.0166933282078 -0.00285141792971)
(-0.02081247882 0.0174199658852 -0.00390847519618)
(-0.0103842694766 0.0143903801492 -0.00449011568307)
(-0.0151292389619 0.0144567540997 -0.00447554729588)
(-0.0158946000538 0.0152937709132 -0.00623464453525)
(-0.00332510227073 0.0129643799992 -0.00233837298478)
(-0.00690458200706 0.0129581582299 -0.00407250412591)
(-0.00911256967982 0.0139191486033 -0.00640617254618)
(-0.000942714278839 0.0117824319667 -0.000307996060431)
(-0.00295645762942 0.013062483317 -0.0026828275993)
(0.00408761607258 0.0116808618802 -0.00204297728193)
(0.00136761219508 0.00994577619303 -0.000101283093448)
(0.00344894975425 0.0117035396277 -0.0022563307491)
(0.0119868456681 0.0129235751968 -0.00405974162351)
(0.0080155179273 0.0108943447055 -0.00379237775658)
(0.010386964963 0.0124149241341 -0.00583380055043)
(0.0196510172552 0.0146672496718 -0.00331721417558)
(0.0169614154457 0.0121390477874 -0.00405175640974)
(0.0178787499253 0.0136040435625 -0.00533997880747)
(0.0248780467524 0.0170303713717 -0.00103030587973)
(0.0239075696447 0.0139782243509 -0.00213265145083)
(0.0232783815532 0.0154405159422 -0.00250189164741)
(0.0267093054926 0.0197338003673 0.00180996997552)
(0.0277958406377 0.0162882345856 0.000843896571975)
(0.02595856774 0.0177395854684 0.00140018699934)
(0.0251217848247 0.0223264546632 0.00443627246302)
(0.0277620571502 0.018697792554 0.00394571995834)
(0.0255123139833 0.0201727890795 0.00537245675865)
(0.0208009261114 0.0245368573201 0.00644833625612)
(0.0245752324452 0.0207731460987 0.00644656581842)
(0.0223834439237 0.0223521680238 0.00863125024696)
(0.0146189630877 0.026223933053 0.00774797031641)
(0.0188826807739 0.0224979188738 0.00820585032451)
(0.0171626443183 0.024147015106 0.0109174948069)
(0.00748005461588 0.0272481790051 0.0083848750909)
(0.0116789013415 0.0236661585036 0.0089703796773)
(0.0106471162248 0.0253834784044 0.0122023108123)
(5.73483438284e-06 0.0275863427561 0.00856043686075)
(0.00392587877909 0.0242266003671 0.00925528473029)
(0.00359675674352 0.0260014133566 0.0127254637949)
(-0.00746904044765 0.0272446677143 0.0083858356997)
(-0.00391678321451 0.0242248467533 0.00925573975466)
(-0.00358283217245 0.0259995168163 0.0127261385431)
(-0.0146094787521 0.026216831199 0.0077505377593)
(-0.0116705694096 0.0236605841974 0.00897210367739)
(-0.0106339751911 0.0253777578999 0.0122047128817)
(-0.020794565769 0.0245261024673 0.00645268634017)
(-0.0188768532324 0.0224879970993 0.00820965717758)
(-0.0171518796329 0.0241375012938 0.0109227610907)
(-0.0251191859191 0.0223127239203 0.00444160177942)
(-0.0245732069614 0.0207589074316 0.00645077120579)
(-0.0223764507961 0.0223386064671 0.00863854372201)
(-0.0267101293716 0.0197189736797 0.00181541282071)
(-0.0277628363995 0.0186806973724 0.0039499829472)
(-0.0255089172042 0.0201564437063 0.00538065751127)
(-0.0248811695302 0.017016662904 -0.00102576917882)
(-0.0277986719316 0.0162707683566 0.000847973070024)
(-0.0259582551992 0.0177226172422 0.00140800169037)
(-0.0196550485591 0.014656584559 -0.00331423982241)
(-0.0239113630691 0.0139630419822 -0.00212960934864)
(-0.0232800087494 0.0154251524386 -0.00249582329169)
(-0.0119903262664 0.0129175104739 -0.00405793573873)
(-0.0169649889427 0.0121280544668 -0.0040498506375)
(-0.0178809783184 0.0135920671602 -0.00533602116097)
(-0.00408987079995 0.0116810346276 -0.00204212720156)
(-0.00801789957424 0.0108888614104 -0.00379088072445)
(-0.0103884868458 0.0124079369174 -0.00583116537967)
(-0.00136944400135 0.00994754662914 -0.000100758472625)
(-0.00345016354164 0.0117039961746 -0.00225499121621)
(0.00481141710868 0.00914434142108 -0.0018506835681)
(0.00176151925715 0.00712783027146 8.39413668484e-06)
(0.00393591470624 0.009137254856 -0.00199350191033)
(0.0133900894002 0.0100912920265 -0.00378439254281)
(0.00891545746835 0.00778022939179 -0.00363671496793)
(0.0114976772332 0.00967249373995 -0.0054645857495)
(0.0216151863606 0.0114221130414 -0.00286719368499)
(0.0184078869577 0.0086549971594 -0.0038185577179)
(0.0195557075517 0.0105788579656 -0.00474106775125)
(0.027189626504 0.0132182258969 -0.000258448999122)
(0.0257578999792 0.00993165394048 -0.00171344650911)
(0.0253235475402 0.0119640853625 -0.00152788113602)
(0.0290758715734 0.015269077902 0.0029796465548)
(0.0298636274311 0.0115373899108 0.00158617564988)
(0.0281583061362 0.0136957329447 0.00286459838548)
(0.027274326467 0.0172139053481 0.00595601331374)
(0.0297108422701 0.0132049592918 0.00499700586624)
(0.0275868749051 0.0155247743683 0.00729438558221)
(0.0225272032375 0.0188618608977 0.00820407988681)
(0.0262655738754 0.0146066863646 0.00774538520372)
(0.0241807371163 0.0171467083444 0.0109135965007)
(0.0157807097422 0.0201503546801 0.0094282596854)
(0.0201725838615 0.0157677924721 0.00943139742296)
(0.0185128461459 0.0184973532544 0.0134766380029)
(0.00807418902749 0.020942223354 0.00984078931669)
(0.0124379318285 0.0165743499138 0.010074166958)
(0.0114626761946 0.0194320732551 0.0147983511183)
(3.40329991819e-06 0.0211959211799 0.0099505876242)
(0.00416548817982 0.0169627117767 0.0102970540462)
(0.00386105375841 0.0198839572474 0.0153346993078)
(-0.00806774600555 0.0209383087846 0.00984200773235)
(-0.00416104041006 0.0169606335372 0.0102978096194)
(-0.00385166915241 0.0198819910358 0.0153353899111)
(-0.0157758030039 0.0201418312224 0.00943122309567)
(-0.0124348794958 0.0165678050315 0.0100763382456)
(-0.0114540701647 0.0194258525035 0.0148008648929)
(-0.0225256541378 0.0188484546613 0.00820774204321)
(-0.0201721982025 0.0157560650228 0.00943488664898)
(-0.0185069798819 0.0184861026134 0.0134818119328)
(-0.0272756065808 0.01719646097 0.00595915237358)
(-0.0262683621891 0.014590446894 0.00774760204916)
(-0.0241786040609 0.0171305416013 0.0109184406057)
(-0.0290788376353 0.0152495646595 0.00298254319652)
(-0.0297150077816 0.0131852150928 0.00499842234714)
(-0.0275869265413 0.0155047417784 0.00729873845167)
(-0.0271931189789 0.0131995446855 -0.000255867099787)
(-0.0298676249349 0.0115164708801 0.00158712742439)
(-0.0281594831693 0.0136743037361 0.00286859953997)
(-0.0216187102097 0.011406850993 -0.00286522016372)
(-0.0257612298728 0.00991299641994 -0.00171243281442)
(-0.0253253552537 0.0119443016666 -0.00152434915169)
(-0.0133928427354 0.0100810990159 -0.00378279562322)
(-0.0184105466559 0.00864063118816 -0.00381762380784)
(-0.0195575815371 0.0105628470077 -0.00473843830525)
(-0.00481325258782 0.00914065594977 -0.00184951199551)
(-0.0089170094345 0.00777147219308 -0.00363540204568)
(-0.0114987487044 0.00966178834634 -0.00546220206515)
(-0.00176299970982 0.00712599748997 9.29041516644e-06)
(-0.00393700055299 0.00913388897899 -0.00199170568969)
(0.00533763071025 0.00576836105384 -0.00177763726315)
(0.00202190748067 0.00369429552604 4.04448523374e-05)
(0.00429893220402 0.00575733353984 -0.00190412090651)
(0.0143898100642 0.00635265388801 -0.00367088014302)
(0.00947954558994 0.00403007950415 -0.00358361634874)
(0.0122901951108 0.00609303551251 -0.00530205203951)
(0.0230027104364 0.00717204633579 -0.00266481054201)
(0.0193141063324 0.00448235078522 -0.00373453660937)
(0.0207446521629 0.00665816497202 -0.00444026943591)
(0.0288124657868 0.0082713874383 0.000131178139897)
(0.0269079807202 0.00513059934569 -0.00154031095088)
(0.0267573688444 0.00750486760625 -0.00100870734755)
(0.0307241543114 0.00952313411467 0.00360353496131)
(0.0311466680352 0.00594802288404 0.00193607058535)
(0.0296918133487 0.00856352337139 0.00367767958117)
(0.0287725084354 0.0106879432083 0.00678637775622)
(0.0309064522367 0.00679024784155 0.00550450303581)
(0.0290204514036 0.00967729599194 0.00836636341832)
(0.0236981473335 0.0116735627794 0.00897270273987)
(0.0272898516056 0.00748010637232 0.00838418477129)
(0.0254198767723 0.0106452563555 0.0122009495251)
(0.016589003646 0.0124319155908 0.0100773046955)
(0.0209651235932 0.00807135376268 0.0098480994654)
(0.0194494339013 0.0114607813579 0.0148055918403)
(0.00847016070654 0.012874046855 0.0105304316875)
(0.0128806307626 0.00846506108249 0.0105323029899)
(0.0119916484089 0.0119891419505 0.0162281421387)
(1.06100313737e-06 0.0130149722625 0.0106442760414)
(0.00429977390189 0.00865351497927 0.0107547037044)
(0.00402404230008 0.0122393216515 0.016778308144)
(-0.00846894005808 0.0128694498745 0.0105321401327)
(-0.00430056933638 0.00865115200235 0.0107554414538)
(-0.00401927267265 0.0122370806839 0.0167794958212)
(-0.0165899837485 0.0124221297708 0.0100800017989)
(-0.0128832018482 0.00845769649326 0.0105341247252)
(-0.0119886645244 0.0119821181803 0.0162311671024)
(-0.0237021849817 0.0116587170035 0.00897474665493)
(-0.0209701657351 0.00805890609309 0.00985026540986)
(-0.0194493916152 0.0114483196676 0.0148093767817)
(-0.028778241103 0.0106690249041 0.00678687202272)
(-0.0272972547005 0.00746348556925 0.00838420175477)
(-0.0254228587047 0.0106281616321 0.0122030356251)
(-0.0307297169497 0.00950168036208 0.00360300657501)
(-0.0309140689591 0.00677029055912 0.00550286607404)
(-0.0290244684784 0.00965614248805 0.00836641930317)
(-0.0288163632617 0.00825035511587 0.00013056170976)
(-0.0311518740892 0.00592662073004 0.00193300308775)
(-0.0296948258575 0.00854034724635 0.00367651414847)
(-0.0230053796738 0.00715430646099 -0.00266483645853)
(-0.0269105291683 0.00511129620616 -0.00154221049135)
(-0.0267591295109 0.00748310711227 -0.00100926972719)
(-0.0143914483286 0.00633981322936 -0.0036702302303)
(-0.0193155315648 0.00446685415301 -0.00373524448566)
(-0.0207457526039 0.00664006106842 -0.00444014687082)
(-0.00533874060255 0.00576158103819 -0.00177659963501)
(-0.00948008561729 0.00401964714907 -0.00358310220739)
(-0.0122905638343 0.00608001422014 -0.00530088108238)
(-0.00202273973689 0.00368973266889 4.13812925218e-05)
(-0.00429963642255 0.00575088196515 -0.00190247657367)
(0.00560817985786 0.00196165480091 -0.00176553423326)
(0.00211223436396 -1.73869288605e-05 4.39559183165e-05)
(0.00448877544232 0.00195660935242 -0.00189651796369)
(0.0148990066288 0.00216580022132 -0.00364727281509)
(0.00966980138315 -1.06273702177e-06 -0.00357456201535)
(0.0126962721479 0.00207958792986 -0.0052597026445)
(0.0237058449738 0.00244579480619 -0.00261003701824)
(0.0196195741962 1.11752022795e-05 -0.00371791352)
(0.0213525308738 0.00227703770828 -0.0043356740381)
(0.0296334685503 0.00281595150827 0.000264581494575)
(0.0272932042975 1.92191900983e-05 -0.00149855454239)
(0.0274848780543 0.00256369425569 -0.000816246835594)
(0.0315523787031 0.00323326244705 0.00383703865985)
(0.0315753387102 2.24752045496e-05 0.0020326821873)
(0.0304694585144 0.00291932060119 0.00400664002671)
(0.0295172502949 0.0036132974572 0.00710231005088)
(0.0313011981059 1.96988023777e-05 0.00564595767175)
(0.0297415292111 0.00328924023419 0.00880568255328)
(0.0242562837603 0.00392844678505 0.00925958149682)
(0.0276233953175 1.38077887336e-05 0.00856144853401)
(0.0260350522755 0.00360372878826 0.0127272701541)
(0.016976740208 0.00416457969451 0.0103030977597)