/*--------------------------------*- C++ -*----------------------------------*\
| =========                 |                                                 |
| \\      /  F ield         | OpenFOAM: The Open Source CFD Toolbox           |
|  \\    /   O peration     | Version:  3.0.1                                 |
|   \\  /    A nd           | Web:      www.OpenFOAM.org                      |
|    \\/     M anipulation  |                                                 |
\*---------------------------------------------------------------------------*/
FoamFile
{
    version     2.0;
    format      ascii;
    class       volScalarField;
    location    "7";
    object      rAU;
}
// * * * * * * * * * * * * * * * * * * * * * * * * * * * * * * * * * * * * * //

dimensions      [-1 3 1 0 0 0 0];

internalField   nonuniform List<scalar> 
7968
(
1.05275884004e-05
1.05212587024e-05
1.05209374197e-05
1.05224392077e-05
1.05227807228e-05
1.05127020389e-05
1.05072154216e-05
1.05137751295e-05
1.05166125032e-05
1.05176740399e-05
1.05177569044e-05
1.0516899218e-05
1.05144881368e-05
1.05092597921e-05
1.05123859463e-05
1.05208653248e-05
1.05223380614e-05
1.05209017964e-05
1.05212098581e-05
1.05275775008e-05
1.05212115712e-05
1.05055773768e-05
1.05008532437e-05
1.04998809608e-05
1.04978672878e-05
1.04926825763e-05
1.04896984848e-05
1.04918803667e-05
1.04939405485e-05
1.04948765579e-05
1.04949570612e-05
1.0494199909e-05
1.04923675952e-05
1.04901804989e-05
1.04923158359e-05
1.04972164524e-05
1.04997550787e-05
1.05008698195e-05
1.05056210725e-05
1.05212639014e-05
1.05208758625e-05
1.05008097986e-05
1.0493178659e-05
1.04906841364e-05
1.04882570291e-05
1.04849510184e-05
1.0483584424e-05
1.04850444449e-05
1.04865841611e-05
1.04878163842e-05
1.04879150656e-05
1.04868796186e-05
1.04855149593e-05
1.04839193778e-05
1.04848216446e-05
1.04879580847e-05
1.04906211577e-05
1.04932616091e-05
1.05009236336e-05
1.05209391373e-05
1.05223365298e-05
1.04997482036e-05
1.04906057671e-05
1.04877631682e-05
1.04856606017e-05
1.04843370741e-05
1.0484068929e-05
1.04862889432e-05
1.04885710913e-05
1.04897234027e-05
1.04897878319e-05
1.04888029932e-05
1.04866338784e-05
1.04843508583e-05
1.04843236202e-05
1.04854578161e-05
1.04876919539e-05
1.04907225936e-05
1.0499917002e-05
1.05224546395e-05
1.05220964473e-05
1.04975504963e-05
1.0488097224e-05
1.04856002605e-05
1.0483520871e-05
1.04787760637e-05
1.04757892023e-05
1.04763837616e-05
1.04773843223e-05
1.04778667579e-05
1.04779630247e-05
1.0477639751e-05
1.04767169465e-05
1.04760325972e-05
1.04786395564e-05
1.04833058847e-05
1.04855448703e-05
1.04881523227e-05
1.04976259108e-05
1.05219463517e-05
1.05127673169e-05
1.04925467757e-05
1.04849070327e-05
1.0484349276e-05
1.04788996415e-05
1.04697101098e-05
1.04652438047e-05
1.04651338363e-05
1.0465485809e-05
1.04654167107e-05
1.04654947603e-05
1.04657005743e-05
1.04654508554e-05
1.04655328198e-05
1.04696127495e-05
1.04784987422e-05
1.04842812224e-05
1.04848708824e-05
1.04924894223e-05
1.05126562834e-05
1.0508141941e-05
1.04899206757e-05
1.04837419113e-05
1.0484271141e-05
1.04760933686e-05
1.04654240135e-05
1.04615311834e-05
1.04625829718e-05
1.0463610572e-05
1.04639983309e-05
1.04640437241e-05
1.04637200337e-05
1.04627456678e-05
1.04617823048e-05
1.0465382108e-05
1.04757296454e-05
1.04841069064e-05
1.04837546536e-05
1.04899254193e-05
1.05082721419e-05
1.05141092401e-05
1.04920756755e-05
1.04851972029e-05
1.04865229536e-05
1.04767415876e-05
1.04653435182e-05
1.04625687491e-05
1.04651080628e-05
1.04672626192e-05
1.04733273935e-05
1.04738042629e-05
1.04677600618e-05
1.04652488555e-05
1.04627782784e-05
1.04653075249e-05
1.04764057248e-05
1.04863802414e-05
1.04853639758e-05
1.04921534287e-05
1.05141225914e-05
1.05167580837e-05
1.04940259868e-05
1.04865913636e-05
1.0488743578e-05
1.04777199749e-05
1.0465668e-05
1.04635496924e-05
1.04672181149e-05
1.04811352949e-05
1.04845708389e-05
1.04847752949e-05
1.04817714333e-05
1.0468314812e-05
1.04638224794e-05
1.04656060876e-05
1.04773817378e-05
1.04886272583e-05
1.04868665517e-05
1.04941086423e-05
1.05167494918e-05
1.05177406941e-05
1.04948887869e-05
1.04877276975e-05
1.04898283407e-05
1.04781357782e-05
1.04655371431e-05
1.04638967082e-05
1.04724903616e-05
1.04844112276e-05
1.04878857218e-05
1.04880909685e-05
1.04849480037e-05
1.04745785775e-05
1.04642019789e-05
1.0465473607e-05
1.04777911606e-05
1.04896537216e-05
1.0488017799e-05
1.04949676279e-05
1.05177244747e-05
1.05177555274e-05
1.04949025861e-05
1.04877396349e-05
1.04898368995e-05
1.04781414003e-05
1.04655423704e-05
1.04639052508e-05
1.04724990309e-05
1.04844215492e-05
1.04878978199e-05
1.04881028002e-05
1.04849591829e-05
1.04745885108e-05
1.04642121566e-05
1.04654838977e-05
1.04778017661e-05
1.04896644823e-05
1.04880341456e-05
1.04949856671e-05
1.0517742778e-05
1.05168091345e-05
1.0494071751e-05
1.04866342229e-05
1.0488777241e-05
1.04777462749e-05
1.0465695131e-05
1.04635870495e-05
1.04672637335e-05
1.04812062067e-05
1.04846346571e-05
1.04848386424e-05
1.04818321986e-05
1.04684105807e-05
1.04638668675e-05
1.04656449821e-05
1.04774188797e-05
1.04886636533e-05
1.04869194204e-05
1.04941658895e-05
1.05168121995e-05
1.05142280252e-05
1.04921579956e-05
1.04852492328e-05
1.04865884125e-05
1.04767977555e-05
1.04654028615e-05
1.04626471756e-05
1.04652070725e-05
1.0467377892e-05
1.04736338858e-05
1.04741018458e-05
1.04681186895e-05
1.04653556075e-05
1.04628676723e-05
1.04653832891e-05
1.04764726202e-05
1.04864479767e-05
1.04854153406e-05
1.04922527713e-05
1.05142662502e-05
1.0508494258e-05
1.04899908657e-05
1.04837854153e-05
1.04843387808e-05
1.04761515615e-05
1.04654814187e-05
1.04616199457e-05
1.04627089722e-05
1.04637627981e-05
1.04641622971e-05
1.04642107614e-05
1.04638863745e-05
1.04628856318e-05
1.04618885776e-05
1.04654589117e-05
1.04757991009e-05
1.04841747756e-05
1.04837992277e-05
1.04900120103e-05
1.0508678958e-05
1.05127439516e-05
1.0492487926e-05
1.0484899087e-05
1.04843868245e-05
1.04789079984e-05
1.04696900406e-05
1.04652375903e-05
1.04651670769e-05
1.04655419242e-05
1.04654865095e-05
1.04655692256e-05
1.04657740281e-05
1.04655044745e-05
1.04655482904e-05
1.04696145139e-05
1.04785131937e-05
1.04843149354e-05
1.04848607935e-05
1.04924227774e-05
1.05125778476e-05
1.05218080927e-05
1.04974759951e-05
1.04880883725e-05
1.04856155472e-05
1.04835281533e-05
1.04787103506e-05
1.04757039698e-05
1.04763098834e-05
1.047732474e-05
1.04778152164e-05
1.04779158675e-05
1.04775930853e-05
1.04766561409e-05
1.04759623742e-05
1.04785804876e-05
1.04833069789e-05
1.04855717182e-05
1.04881419673e-05
1.04975386815e-05
1.05215685017e-05
1.05223489647e-05
1.04997643227e-05
1.04906382764e-05
1.04877983646e-05
1.04857033585e-05
1.04843386198e-05
1.04840305783e-05
1.04862564098e-05
1.04885446018e-05
1.04896632912e-05
1.04897301689e-05
1.04887789102e-05
1.04866070723e-05
1.04843181027e-05
1.0484320418e-05
1.04855103968e-05
1.0487732438e-05
1.04907613322e-05
1.04999417765e-05
1.05224706391e-05
1.05208975054e-05
1.05008390935e-05
1.04932260791e-05
1.04907471243e-05
1.04883071775e-05
1.04849612035e-05
1.04835905071e-05
1.04850791874e-05
1.04866479157e-05
1.04878839941e-05
1.04879862819e-05
1.04869556971e-05
1.04855556305e-05
1.04839292145e-05
1.04848270179e-05
1.04880039409e-05
1.04906898832e-05
1.04933161925e-05
1.05009615808e-05
1.05209565394e-05
1.05212257639e-05
1.05056120434e-05
1.05008991623e-05
1.0499947977e-05
1.04979338594e-05
1.04926951596e-05
1.04896998344e-05
1.04919107408e-05
1.04939784478e-05
1.04949168821e-05
1.0495001724e-05
1.04942509246e-05
1.04924191344e-05
1.04902054285e-05
1.04923156832e-05
1.04972597794e-05
1.04998267059e-05
1.05009215235e-05
1.05056565536e-05
1.05212731218e-05
1.05276027507e-05
1.05212780969e-05
1.05209624301e-05
1.05224788683e-05
1.05228048557e-05
1.0512709491e-05
1.05072255932e-05
1.05137856838e-05
1.0516628678e-05
1.0517693835e-05
1.05177813528e-05
1.05169301442e-05
1.05145279179e-05
1.05093405134e-05
1.05123258228e-05
1.05207754551e-05
1.05223830924e-05
1.05209284657e-05
1.0521235428e-05
1.05275973052e-05
1.05253098067e-05
1.05122833699e-05
1.05068125413e-05
1.05059949092e-05
1.05036865536e-05
1.04971636345e-05
1.04949706744e-05
1.04990250059e-05
1.05019071339e-05
1.05032057121e-05
1.05033138808e-05
1.05022557103e-05
1.04997173775e-05
1.04959872015e-05
1.04967281099e-05
1.05026316907e-05
1.05059413294e-05
1.05068741146e-05
1.05123390082e-05
1.05253055101e-05
1.05123190989e-05
1.04528684937e-05
1.04193383128e-05
1.04044180361e-05
1.03973017082e-05
1.03938261304e-05
1.03938230442e-05
1.03968439099e-05
1.04000142186e-05
1.040178952e-05
1.04019565818e-05
1.04004907626e-05
1.03975736985e-05
1.03945260443e-05
1.03941014783e-05
1.03973423973e-05
1.04045964449e-05
1.0419616137e-05
1.0452985645e-05
1.05122852822e-05
1.05068337615e-05
1.04194029311e-05
1.03655376772e-05
1.03388227554e-05
1.03266954733e-05
1.03225008551e-05
1.03228812747e-05
1.03252906195e-05
1.03279702849e-05
1.03303391167e-05
1.03305212264e-05
1.03284710075e-05
1.03260260609e-05
1.03236136718e-05
1.03230739897e-05
1.03270929412e-05
1.03391255702e-05
1.03658000516e-05
1.0419490865e-05
1.05068411717e-05
1.0505942995e-05
1.0404443428e-05
1.03388456797e-05
1.03064553789e-05
1.0293005778e-05
1.02878021416e-05
1.02868435457e-05
1.02883363504e-05
1.02905574351e-05
1.02921278431e-05
1.02923392998e-05
1.02911489783e-05
1.02891229562e-05
1.02876477375e-05
1.02885328075e-05
1.02936255666e-05
1.03069117542e-05
1.03390560248e-05
1.04044814358e-05
1.05059885478e-05
1.0503284352e-05
1.03972965671e-05
1.03267613048e-05
1.02930295525e-05
1.02764223571e-05
1.02697839792e-05
1.02691605345e-05
1.02715097634e-05
1.02743955624e-05
1.02763331543e-05
1.02766201099e-05
1.02751298604e-05
1.02724370584e-05
1.02700765398e-05
1.02706014179e-05
1.0277137103e-05
1.02935860993e-05
1.03269874865e-05
1.0397244663e-05
1.05031339741e-05
1.04970558801e-05
1.03939466938e-05
1.03226087662e-05
1.02878467751e-05
1.02698219596e-05
1.02642228562e-05
1.02654962487e-05
1.02691906608e-05
1.02730395717e-05
1.02755236201e-05
1.02758735877e-05
1.02739139296e-05
1.02702247452e-05
1.02664275319e-05
1.02650635513e-05
1.02705597237e-05
1.02884305638e-05
1.03229408551e-05
1.03938601394e-05
1.04968893952e-05
1.04954233461e-05
1.03941073418e-05
1.03229970241e-05
1.0286941078e-05
1.0269241236e-05
1.02655811793e-05
1.02681707375e-05
1.02729691327e-05
1.02776941996e-05
1.02805305355e-05
1.02809188666e-05
1.02786763185e-05
1.02741254175e-05
1.02691196149e-05
1.02663636527e-05
1.02699979733e-05
1.02874799083e-05
1.03234422174e-05
1.03940959089e-05
1.04954426871e-05
1.04993322619e-05
1.03970969983e-05
1.03253686907e-05
1.02883997053e-05
1.02715626346e-05
1.02692980363e-05
1.02730014015e-05
1.02787726231e-05
1.02841116551e-05
1.02930272278e-05
1.02939413842e-05
1.02856627249e-05
1.02800521607e-05
1.02740842166e-05
1.0270131796e-05
1.02723912816e-05
1.02890046945e-05
1.03258510114e-05
1.03971730678e-05
1.04993533051e-05
1.05020562391e-05
1.04001310768e-05
1.03279457736e-05
1.02904759426e-05
1.02742794788e-05
1.0272975439e-05
1.02775511845e-05
1.02839157822e-05
1.03018757358e-05
1.03088804728e-05
1.03095499314e-05
1.03037930966e-05
1.02863597554e-05
1.02787926928e-05
1.02739761532e-05
1.02752493075e-05
1.02911878503e-05
1.03283698084e-05
1.0400240591e-05
1.05020814563e-05
1.05032532719e-05
1.04017703285e-05
1.03302819028e-05
1.02918477037e-05
1.02759509091e-05
1.02751364357e-05
1.02800361804e-05
1.02916325799e-05
1.03082790065e-05
1.03151774174e-05
1.03158442221e-05
1.03101511264e-05
1.02952359421e-05
1.02813987458e-05
1.02762600983e-05
1.02770284992e-05
1.0292580012e-05
1.03304987504e-05
1.04018805391e-05
1.05032808819e-05
1.05032727454e-05
1.04018025228e-05
1.03303286218e-05
1.02918684435e-05
1.02759639215e-05
1.02751409087e-05
1.02800329329e-05
1.02916257262e-05
1.03082728759e-05
1.03151735757e-05
1.03158411313e-05
1.03101456433e-05
1.02952308661e-05
1.02813942695e-05
1.02762611385e-05
1.02770377344e-05
1.02926006074e-05
1.03305463361e-05
1.04019133322e-05
1.05033020383e-05
1.05021209234e-05
1.04002265155e-05
1.03280617131e-05
1.02905429413e-05
1.02743243781e-05
1.02729992654e-05
1.02775580208e-05
1.02839131884e-05
1.03018958094e-05
1.03089007772e-05
1.03095716426e-05
1.03038162247e-05
1.02864080196e-05
1.02787948446e-05
1.02739911048e-05
1.02752836307e-05
1.02912500894e-05
1.03284935409e-05
1.04003383837e-05
1.0502150696e-05
1.04994597793e-05
1.03972532013e-05
1.0325520919e-05
1.0288518949e-05
1.02716552154e-05
1.02693718722e-05
1.02730606153e-05
1.02788167462e-05
1.02841497345e-05
1.02932568423e-05
1.02941643165e-05
1.02859527386e-05
1.02800925683e-05
1.02741384714e-05
1.02701937338e-05
1.02724674088e-05
1.02891115475e-05
1.03259968209e-05
1.03973301767e-05
1.0499488177e-05
1.04956136807e-05
1.03942774074e-05
1.0323187883e-05
1.0287107242e-05
1.02693848564e-05
1.02657251325e-05
1.02683097874e-05
1.02730985761e-05
1.02778089536e-05
1.02806326478e-05
1.02810208803e-05
1.02787882476e-05
1.02742545309e-05
1.0269249971e-05
1.02664879106e-05
1.02701214206e-05
1.02876264312e-05
1.03236295946e-05
1.03942626234e-05
1.0495645524e-05
1.04969852875e-05
1.03940829329e-05
1.03228120128e-05
1.02880488783e-05
1.02699947439e-05
1.02644063261e-05
1.02656925717e-05
1.02693853209e-05
1.0273226301e-05
1.02757017911e-05
1.02760504235e-05
1.0274099569e-05
1.02704163178e-05
1.02666121024e-05
1.02652270708e-05
1.02707131555e-05
1.02886141494e-05
1.03231457792e-05
1.03939809673e-05
1.04968086451e-05
1.05031231603e-05
1.03974344893e-05
1.0326962599e-05
1.02932461615e-05
1.0276603103e-05
1.02699527812e-05
1.02693288873e-05
1.02716682627e-05
1.02745453193e-05
1.02764766445e-05
1.02767636123e-05
1.02752770027e-05
1.02725903933e-05
1.02702352694e-05
1.02707591789e-05
1.02773031381e-05
1.0293800048e-05
1.03271932851e-05
1.03973620898e-05
1.05029460156e-05
1.05059817847e-05
1.04046161645e-05
1.03390425022e-05
1.0306660099e-05
1.02931917043e-05
1.02879326974e-05
1.02869244227e-05
1.02883887235e-05
1.02905943731e-05
1.02921326427e-05
1.02923485493e-05
1.02911890848e-05
1.02891757011e-05
1.02877213782e-05
1.028865758e-05
1.02938152124e-05
1.03071369672e-05
1.03392523384e-05
1.04046400221e-05
1.05060108307e-05
1.05068915704e-05
1.04195850784e-05
1.03657145681e-05
1.03389662145e-05
1.03268278255e-05
1.03226400733e-05
1.03230023366e-05
1.03253616239e-05
1.03279998918e-05
1.03303032687e-05
1.03304952829e-05
1.03285188608e-05
1.03261051013e-05
1.03237407398e-05
1.03232154737e-05
1.03272282895e-05
1.03392680599e-05
1.03659723788e-05
1.04196654734e-05
1.05068876129e-05
1.05123762262e-05
1.04529918073e-05
1.0419453503e-05
1.04045034839e-05
1.03973451341e-05
1.03938335184e-05
1.03938172983e-05
1.03968386053e-05
1.04000056247e-05
1.04017770831e-05
1.04019467421e-05
1.04004910007e-05
1.03975766791e-05
1.03945201228e-05
1.039409271e-05
1.03973634725e-05
1.04046675178e-05
1.04197212821e-05
1.04531027671e-05
1.0512337138e-05
1.05253501756e-05
1.05123105706e-05
1.05068413762e-05
1.05060297326e-05
1.05036812893e-05
1.04971466411e-05
1.04949715671e-05
1.04990236312e-05
1.0501911898e-05
1.05032142585e-05
1.05033255056e-05
1.05022697785e-05
1.04997306302e-05
1.04960036975e-05
1.04966901596e-05
1.05025933139e-05
1.0505966356e-05
1.05068980737e-05
1.05123651553e-05
1.05253501538e-05
1.05226427287e-05
1.05060468067e-05
1.04978559035e-05
1.04911346856e-05
1.04826353961e-05
1.04780870746e-05
1.04768530378e-05
1.04782995893e-05
1.04795168274e-05
1.04800332976e-05
1.04801969096e-05
1.04798871612e-05
1.04787533177e-05
1.04774191839e-05
1.04780448101e-05
1.04821369604e-05
1.04908918136e-05
1.04979028692e-05
1.05061756e-05
1.05226851598e-05
1.05060768279e-05
1.04238254469e-05
1.03754702053e-05
1.03498812719e-05
1.03353589771e-05
1.03314866473e-05
1.03313876877e-05
1.03332439517e-05
1.03355486167e-05
1.03370094517e-05
1.03372769564e-05
1.03361686902e-05
1.03339359997e-05
1.03320858638e-05
1.03320815064e-05
1.03358643528e-05
1.03502616082e-05
1.0375825363e-05
1.04240282558e-05
1.05060912858e-05
1.04978290367e-05
1.03755089539e-05
1.02973171718e-05
1.02575097862e-05
1.02389250638e-05
1.0232081791e-05
1.02313031243e-05
1.0233286763e-05
1.02361339967e-05
1.0238314446e-05
1.02385590685e-05
1.02367853108e-05
1.02341809274e-05
1.02322848743e-05
1.02331132139e-05
1.02399532269e-05
1.02584104993e-05
1.02979160799e-05
1.03757128453e-05
1.04978973187e-05
1.04910749944e-05
1.0350029907e-05
1.02575939699e-05
1.02058086124e-05
1.01796868432e-05
1.01669187629e-05
1.01629035434e-05
1.01633648729e-05
1.01654256785e-05
1.01672017135e-05
1.01675604117e-05
1.01663554107e-05
1.01645448096e-05
1.01640960828e-05
1.01681434085e-05
1.01809009287e-05
1.02068918569e-05
1.02582507328e-05
1.03499437964e-05
1.04909053057e-05
1.04822495688e-05
1.03352985505e-05
1.02390284146e-05
1.01796991815e-05
1.01460094784e-05
1.01320014451e-05
1.01292455492e-05
1.0130953615e-05
1.01337980441e-05
1.01360806504e-05
1.01365446762e-05
1.01349546522e-05
1.01321259486e-05
1.01302885595e-05
1.01333306154e-05
1.01473413044e-05
1.01808057918e-05
1.02397352811e-05
1.03358342442e-05
1.0482588236e-05
1.04779026639e-05
1.03314315425e-05
1.02321236079e-05
1.01668959335e-05
1.013203049e-05
1.0120041393e-05
1.01194173188e-05
1.01225651777e-05
1.01264769222e-05
1.01295716984e-05
1.0130156866e-05
1.01278529746e-05
1.0123239767e-05
1.0119058466e-05
1.01203244089e-05
1.01332975529e-05
1.01680628217e-05
1.02329380169e-05
1.03320510132e-05
1.04782735795e-05
1.0476895873e-05
1.03313532289e-05
1.0231249952e-05
1.01628338325e-05
1.0129443552e-05
1.01201514298e-05
1.01218381658e-05
1.01265861911e-05
1.01318748318e-05
1.01359334316e-05
1.01366409962e-05
1.01335300075e-05
1.01268833718e-05
1.01197469896e-05
1.01184750339e-05
1.01301428328e-05
1.01640739504e-05
1.02321640207e-05
1.03320167777e-05
1.0477403858e-05
1.04782744881e-05
1.03331622237e-05
1.02331543856e-05
1.01632225124e-05
1.0131459755e-05
1.0124483245e-05
1.01282189401e-05
1.01347996714e-05
1.01416104427e-05
1.01471633041e-05
1.01480148124e-05
1.01435993954e-05
1.01351562053e-05
1.01255292868e-05
1.01216744327e-05
1.01317688054e-05
1.01646377283e-05
1.02341099311e-05
1.03338903188e-05
1.0478827166e-05
1.04793862214e-05
1.03353421925e-05
1.02359021493e-05
1.01650387895e-05
1.01342428915e-05
1.01287458582e-05
1.01341546172e-05
1.01423397749e-05
1.01517122003e-05
1.01581905882e-05
1.01591051578e-05
1.01539994625e-05
1.01431818228e-05
1.01317604333e-05
1.01260558527e-05
1.01346983753e-05
1.01667159427e-05
1.0236820384e-05
1.03361107549e-05
1.0479942999e-05
1.04798356536e-05
1.03366630563e-05
1.0237986423e-05
1.01664500677e-05
1.01360476214e-05
1.013126201e-05
1.01375592078e-05
1.01471311711e-05
1.01574217017e-05
1.01643607011e-05
1.01652944658e-05
1.01598242382e-05
1.01483271516e-05
1.01355283183e-05
1.0128917701e-05
1.01367722912e-05
1.01683277452e-05
1.023874597e-05
1.03375051058e-05
1.04804542257e-05
1.04798523901e-05
1.03366972715e-05
1.02380381905e-05
1.01664714139e-05
1.01360545937e-05
1.01312520045e-05
1.01375324716e-05
1.01470990302e-05
1.01573878859e-05
1.01643295866e-05
1.0165261789e-05
1.01597877542e-05
1.01482944848e-05
1.01354997644e-05
1.01289006357e-05
1.01367697001e-05
1.016834112e-05
1.02387920424e-05
1.0337621923e-05
1.04805577796e-05
1.0479442958e-05
1.03354430639e-05
1.02360320122e-05
1.01651060146e-05
1.01342729436e-05
1.01287406756e-05
1.01341162e-05
1.01422807353e-05
1.01516439602e-05
1.0158118546e-05
1.01590308612e-05
1.01539265648e-05
1.01431246724e-05
1.01317119252e-05
1.01260332269e-05
1.01347041057e-05
1.01667588513e-05
1.02369388269e-05
1.03364270684e-05
1.048022586e-05
1.04783774414e-05
1.03333208478e-05
1.02333480361e-05
1.01633540532e-05
1.01315775238e-05
1.01246394982e-05
1.01284213155e-05
1.01350083566e-05
1.01418020837e-05
1.01473443354e-05
1.01481950385e-05
1.01438072327e-05
1.01353560087e-05
1.01257248411e-05
1.01218132479e-05
1.01318495536e-05
1.01647291691e-05
1.02342803238e-05
1.03340450035e-05
1.0478935342e-05
1.0477018672e-05
1.0331546248e-05
1.0231497926e-05
1.01630365872e-05
1.0129662135e-05
1.01205244515e-05
1.01224040229e-05
1.01272429556e-05
1.01325154156e-05
1.01365378489e-05
1.01372413118e-05
1.01341579991e-05
1.01275330283e-05
1.01203107151e-05
1.01188139738e-05
1.01303117452e-05
1.01642269989e-05
1.02323778354e-05
1.03321957901e-05
1.0477534694e-05
1.04779144299e-05
1.03316594385e-05
1.02324251728e-05
1.01671527256e-05
1.01322740017e-05
1.01204083152e-05
1.01200127392e-05
1.01233043388e-05
1.01272185357e-05
1.01302729367e-05
1.01308494896e-05
1.01285736109e-05
1.01239575205e-05
1.01196219166e-05
1.01206433653e-05
1.01334872663e-05
1.01682668941e-05
1.02332033672e-05
1.03322559638e-05
1.04782947942e-05
1.0482189588e-05
1.03355419331e-05
1.02393707377e-05
1.01799962609e-05
1.01462284462e-05
1.01322409189e-05
1.01295434667e-05
1.01313084396e-05
1.01341434669e-05
1.01363963966e-05
1.01368528624e-05
1.01352821785e-05
1.01324517679e-05
1.01305485317e-05
1.01335250969e-05
1.01475122357e-05
1.01810521757e-05
1.02400489767e-05
1.03360583391e-05
1.04825295977e-05
1.049100607e-05
1.03501961877e-05
1.02579365415e-05
1.02061239866e-05
1.01798878479e-05
1.01670319375e-05
1.01629785066e-05
1.01634346437e-05
1.01654750403e-05
1.01672346953e-05
1.01675901261e-05
1.01663924278e-05
1.01645927461e-05
1.01641436165e-05
1.01682227309e-05
1.01810599323e-05
1.02071924528e-05
1.0258572818e-05
1.03500609714e-05
1.0490792458e-05
1.0497874711e-05
1.0375718557e-05
1.02975921936e-05
1.02577508301e-05
1.0239112294e-05
1.02322191462e-05
1.02313748924e-05
1.02332868955e-05
1.02360648074e-05
1.02381728466e-05
1.02384225369e-05
1.0236722662e-05
1.02341781112e-05
1.02323433162e-05
1.02332292514e-05
1.02401201124e-05
1.02586350798e-05
1.02981753453e-05
1.03758916676e-05
1.04979195147e-05
1.0506170949e-05
1.04239794678e-05
1.03755929956e-05
1.03498070661e-05
1.03354942584e-05
1.03316163513e-05
1.03314889025e-05
1.03333231446e-05
1.03356186189e-05
1.03372315466e-05
1.03375431416e-05
1.03364499709e-05
1.03340190309e-05
1.03321819299e-05
1.03321997482e-05
1.03359891022e-05
1.0350179002e-05
1.0375928543e-05
1.04241673132e-05
1.05061773115e-05
1.05227175237e-05
1.05060836779e-05
1.04978643466e-05
1.04909806901e-05
1.04827102993e-05
1.04781731175e-05
1.04769584688e-05
1.04784104823e-05
1.04796313322e-05
1.04803099735e-05
1.04805215853e-05
1.04802250727e-05
1.0478880291e-05
1.04775398534e-05
1.04781430212e-05
1.0482214194e-05
1.04907374267e-05
1.04979029252e-05
1.05062137929e-05
1.05227600839e-05
1.05125805494e-05
1.04895523666e-05
1.04827979565e-05
1.04792918557e-05
1.04749628937e-05
1.04717539333e-05
1.04711133322e-05
1.04710650394e-05
1.04707769968e-05
1.04703517121e-05
1.04702804766e-05
1.04706795722e-05
1.04711202456e-05
1.04713621817e-05
1.04719285875e-05
1.04746116769e-05
1.04789057848e-05
1.04828924792e-05
1.04896731488e-05
1.0512632256e-05
1.04894756809e-05
1.0386924714e-05
1.03397356524e-05
1.03149852507e-05
1.03036070288e-05
1.02996098134e-05
1.02993291917e-05
1.03006019954e-05
1.03022102035e-05
1.03033043185e-05
1.03034625029e-05
1.03026476035e-05
1.03012393092e-05
1.03000784115e-05
1.03004289381e-05
1.03044694408e-05
1.03158247007e-05
1.03404860846e-05
1.03875247046e-05
1.04896800295e-05
1.04826183621e-05
1.03396118135e-05
1.0255487473e-05
1.02075016326e-05
1.0183266551e-05
1.01726995672e-05
1.01694420232e-05
1.01695718435e-05
1.01708316603e-05
1.01719415628e-05
1.01722453738e-05
1.01716488618e-05
1.01706717502e-05
1.01706643617e-05
1.0174094322e-05
1.01847717692e-05
1.02089245906e-05
1.02566727299e-05
1.03406215361e-05
1.04831366061e-05
1.04788442459e-05
1.03148498247e-05
1.02075389431e-05
1.01409654719e-05
1.01040865471e-05
1.00868007949e-05
1.00804973439e-05
1.00791276357e-05
1.00798668705e-05
1.00811418305e-05
1.00816283129e-05
1.00810811348e-05
1.00799512815e-05
1.00805968528e-05
1.00875186749e-05
1.0105555097e-05
1.01425051307e-05
1.02087902358e-05
1.03159221932e-05
1.0479520211e-05
1.04745075696e-05
1.0303434777e-05
1.01832721645e-05
1.01041076527e-05
1.00608983325e-05
1.00417463263e-05
1.00346542041e-05
1.00320592439e-05
1.00322991526e-05
1.00342232025e-05
1.00350396505e-05
1.00340770623e-05
1.00311257874e-05
1.00299951901e-05
1.00378631843e-05
1.00603891055e-05
1.01054691095e-05
1.01845845617e-05
1.03045687236e-05
1.04752327095e-05
1.04714710853e-05
1.02993609621e-05
1.01726160664e-05
1.00870963898e-05
1.00430343021e-05
1.00243719023e-05
1.00168561464e-05
1.00130831387e-05
1.00133850737e-05
1.00164243164e-05
1.00176663102e-05
1.00159414974e-05
1.00097807454e-05
1.00046142004e-05
1.00114250876e-05
1.00367444104e-05
1.00872361671e-05
1.01739522089e-05
1.03005800237e-05
1.04723967607e-05
1.04708094027e-05
1.02989895173e-05
1.01693389371e-05
1.00817867044e-05
1.00391131041e-05
1.00220796534e-05
1.00155651248e-05
1.00122910433e-05
1.0013707059e-05
1.00182136228e-05
1.00198025004e-05
1.00168945317e-05
1.0006860165e-05
9.99615446705e-06
9.99984765176e-06
1.00260609545e-05
1.00795440203e-05
1.01705943086e-05
1.03003106551e-05
1.04718918977e-05
1.04706418022e-05
1.03001394457e-05
1.01694824997e-05
1.00818615927e-05
1.00406462738e-05
1.00258391013e-05
1.00215404492e-05
1.00204820458e-05
1.00238690768e-05
1.00297532783e-05
1.00316063242e-05
1.0027442751e-05
1.00140951759e-05
9.99860552086e-06
9.99831450394e-06
1.00236075353e-05
1.00778363264e-05
1.01706984707e-05
1.03015950837e-05
1.04717809018e-05
1.04702617666e-05
1.03015858149e-05
1.0170549944e-05
1.00829986401e-05
1.00427568719e-05
1.00298056961e-05
1.00279258294e-05
1.00293046596e-05
1.00348695906e-05
1.00424335687e-05
1.0044248556e-05
1.00387059347e-05
1.00231059086e-05
1.00046047221e-05
1.00014867088e-05
1.0025144384e-05
1.00787844398e-05
1.01719456659e-05
1.03031699332e-05
1.04714217152e-05
1.04698324898e-05
1.03025141569e-05
1.01713467735e-05
1.0083771018e-05
1.0043955488e-05
1.00319285119e-05
1.00314253515e-05
1.00342088682e-05
1.00412728512e-05
1.00498973764e-05
1.00516970898e-05
1.00452106325e-05
1.00283584168e-05
1.00085329727e-05
1.0004106726e-05
1.00268147866e-05
1.00798869413e-05
1.01729136821e-05
1.03041937144e-05
1.04709850746e-05
1.04698278046e-05
1.03025340798e-05
1.01713676074e-05
1.0083769858e-05
1.0043913961e-05
1.00318363278e-05
1.00312939735e-05
1.00340584423e-05
1.00411322578e-05
1.00497815295e-05
1.00515544469e-05
1.00450501419e-05
1.00281962109e-05
1.00083911312e-05
1.00040088884e-05
1.00267638033e-05
1.00798731183e-05
1.01729236648e-05
1.0304215209e-05
1.04709864173e-05
1.04702643732e-05
1.0301658706e-05
1.01706207352e-05
1.00830146225e-05
1.00426949214e-05
1.00296520488e-05
1.00277115635e-05
1.00290607284e-05
1.00346175763e-05
1.00421778034e-05
1.00439739278e-05
1.00384059654e-05
1.00228148062e-05
1.0004345666e-05
1.00013156416e-05
1.00250599281e-05
1.00787633143e-05
1.0171980072e-05
1.03032333226e-05
1.04714336479e-05
1.04706734451e-05
1.03002732107e-05
1.01696284947e-05
1.00820225901e-05
1.00409525398e-05
1.00263769826e-05
1.00223416534e-05
1.00214778498e-05
1.0024910337e-05
1.0030761411e-05
1.00325876076e-05
1.00284372592e-05
1.00150807906e-05
9.99954160651e-06
9.99898841782e-06
1.0023928254e-05
1.00779378404e-05
1.01707786045e-05
1.03017015047e-05
1.0471822491e-05
1.04708686104e-05
1.02991857041e-05
1.01695716169e-05
1.00821283632e-05
1.00399463153e-05
1.00236883719e-05
1.00179730737e-05
1.00152720702e-05
1.00168481011e-05
1.00212864753e-05
1.00228342835e-05
1.0019927794e-05
1.0009925004e-05
9.99892672862e-06
1.00017103829e-05
1.00269111163e-05
1.00798043055e-05
1.01707373458e-05
1.03004654764e-05
1.0471963947e-05
1.04715037296e-05
1.02996208745e-05
1.0172917273e-05
1.00874315101e-05
1.00438660603e-05
1.00261736251e-05
1.0019704182e-05
1.00166558227e-05
1.00171404506e-05
1.00200990173e-05
1.00212984687e-05
1.00195999488e-05
1.00134146887e-05
1.00076907109e-05
1.00133393411e-05
1.00375224471e-05
1.00874758665e-05
1.01741571841e-05
1.03007916306e-05
1.04724535211e-05
1.04744425529e-05
1.03037366558e-05
1.01836343058e-05
1.01043773055e-05
1.0061352194e-05
1.00428321258e-05
1.00365026049e-05
1.00344044873e-05
1.00347464209e-05
1.00365882635e-05
1.00373777771e-05
1.00364560084e-05
1.00334392618e-05
1.00318498996e-05
1.00388972469e-05
1.00607520135e-05
1.01056574016e-05
1.01848671476e-05
1.03048349977e-05
1.04751851546e-05
1.04787817932e-05
1.0315159878e-05
1.02079296443e-05
1.01412210037e-05
1.01042424133e-05
1.00870432787e-05
1.0081002781e-05
1.00798497298e-05
1.0080613108e-05
1.00818414055e-05
1.00823128124e-05
1.00817841671e-05
1.00806165585e-05
1.00810419452e-05
1.00876869898e-05
1.01056428501e-05
1.0142695775e-05
1.02091349358e-05
1.03162186554e-05
1.04794595715e-05
1.04826547334e-05
1.03398838756e-05
1.0255853484e-05
1.02077687912e-05
1.01834003406e-05
1.01727140471e-05
1.01694078697e-05
1.01695151011e-05
1.01707388492e-05
1.01718203271e-05
1.01721168433e-05
1.01715325295e-05
1.01705772064e-05
1.01705770685e-05
1.01740489095e-05
1.01848509088e-05
1.02091562595e-05
1.02570151143e-05
1.03409002908e-05
1.04831778201e-05
1.04895409692e-05
1.03870747636e-05
1.03400019039e-05
1.03152324205e-05
1.03038022603e-05
1.0299748653e-05
1.02994187441e-05
1.03006456547e-05
1.03022294532e-05
1.03033163419e-05
1.0303474371e-05
1.03026606853e-05
1.0301272317e-05
1.0300148314e-05
1.03005475233e-05
1.03046470829e-05
1.03160655728e-05
1.03407637025e-05
1.03876957252e-05
1.04897515513e-05
1.05126541407e-05
1.04895935286e-05
1.04828986064e-05
1.04794263938e-05
1.04750922574e-05
1.04719127679e-05
1.04712941322e-05
1.04712406645e-05
1.04709429618e-05
1.04705115061e-05
1.04704464307e-05
1.04708570238e-05
1.04713099183e-05
1.04715567972e-05
1.04721085333e-05
1.04747558707e-05
1.04790472231e-05
1.048300352e-05
1.04897144666e-05
1.05126815683e-05
1.04860703316e-05
1.04810254343e-05
1.04790168983e-05
1.04737594075e-05
1.04697541492e-05
1.04667787608e-05
1.04637623165e-05
1.04607471726e-05
1.04580392434e-05
1.045594584e-05
1.04551520631e-05
1.04567292232e-05
1.04597829242e-05
1.04629938421e-05
1.04662550082e-05
1.04694149692e-05
1.04733547657e-05
1.04786924429e-05
1.04813148312e-05
1.04863903524e-05
1.04807444934e-05
1.03731208084e-05
1.03166181016e-05
1.02866277168e-05
1.02721391404e-05
1.02662144916e-05
1.02647030367e-05
1.02650014474e-05
1.02656470852e-05