/*--------------------------------*- C++ -*----------------------------------*\
| =========                 |                                                 |
| \\      /  F ield         | OpenFOAM: The Open Source CFD Toolbox           |
|  \\    /   O peration     | Version:  3.0.1                                 |
|   \\  /    A nd           | Web:      www.OpenFOAM.org                      |
|    \\/     M anipulation  |                                                 |
\*---------------------------------------------------------------------------*/
FoamFile
{
    version     2.0;
    format      ascii;
    class       surfaceScalarField;
    location    "5.8";
    object      alphaPhi;
}
// * * * * * * * * * * * * * * * * * * * * * * * * * * * * * * * * * * * * * //

dimensions      [0 3 -1 0 0 0 0];

internalField   nonuniform List<scalar> 
22672
(
4.51233665076e-25
4.077788511e-25
-1.30908078104e-22
9.93632410702e-24
7.73544249777e-25
-8.90263643765e-22
4.09885180074e-23
1.05424212703e-25
-1.87698741084e-21
3.71257770352e-23
2.43116362104e-25
-1.13791525839e-21
2.83445464419e-23
1.15744367462e-24
-6.53873655336e-22
8.39877196489e-24
8.03671120115e-25
-1.6693004438e-22
1.8583219594e-24
3.15445510661e-25
-2.74405767035e-23
5.20297557798e-26
1.56111640843e-26
2.71562623482e-27
7.1388220181e-28
4.55274847638e-28
1.40206914832e-28
7.35176751677e-31
5.69291829723e-30
1.97708313958e-30
-9.08060224247e-28
8.41224920787e-30
2.74751895671e-30
-5.9346439135e-26
6.9737940106e-28
1.71951320206e-28
-1.326521836e-24
1.97014852931e-26
-1.86171311334e-27
-5.45081692733e-24
2.46895681576e-25
-3.32069198317e-23
-2.11392506252e-23
5.90697709785e-25
-1.39141944002e-22
-2.93571474484e-23
1.18168510034e-24
-6.13784086488e-22
-2.18721382626e-23
8.34320540461e-25
-1.06968399372e-21
-5.72784460023e-24
8.8969202663e-25
-1.22316848701e-21
-3.40012653327e-25
9.23402696723e-25
-5.51100104396e-22
4.36942712247e-25
-1.27023216596e-22
1.3756224651e-24
1.05653124563e-23
-1.02306715829e-21
5.11174339495e-23
4.53465636384e-23
-4.62074662641e-21
1.27495490586e-22
5.90307412196e-23
-5.25799066303e-21
1.28786773032e-22
5.00810306206e-23
-3.62871824442e-21
9.69531139808e-23
4.05561698634e-23
-2.1848912199e-21
7.15982478458e-23
3.67161012886e-23
-1.63205747726e-21
1.83605420801e-23
1.2529671446e-23
-4.63654946787e-22
2.31974217883e-24
2.38244979389e-24
-7.87586967228e-23
2.03927490374e-25
4.11611948156e-25
-1.39094033079e-23
4.29482079033e-27
1.26044009675e-25
-4.82870170273e-24
-1.69829800318e-25
1.22412653692e-25
-4.55747698698e-24
-1.64825860066e-24
4.00942017144e-25
-1.46785226354e-23
-1.02199745665e-23
1.86896810611e-24
-7.183960366e-23
-4.03537240182e-23
7.68358229546e-24
-3.30624587027e-22
-6.97637244675e-23
2.31727605829e-23
-1.17452218826e-21
-5.71283008075e-23
3.38883596416e-23
-2.06968385688e-21
-7.37558387331e-23
2.7188238164e-23
-2.10821082967e-21
-1.02499163333e-23
4.41797226538e-23
-3.61178188597e-21
-5.31454517721e-25
1.23236702776e-23
-1.11565827032e-21
8.10049867632e-24
-6.97664485764e-22
9.00166936157e-25
2.94129770883e-23
-1.47672607454e-21
7.55494223629e-23
1.30854911418e-22
-6.07209492729e-21
2.86770571863e-22
2.61395014783e-22
-1.03070052841e-20
2.07333042032e-22
1.55109566014e-22
-5.10121036025e-21
9.13841931486e-23
6.96067530168e-23
-1.81885265435e-21
2.04466224223e-23
1.80535359201e-23
-3.86073783417e-22
2.78434480649e-24
3.14965049477e-24
-5.59902714618e-23
2.36994588809e-25
3.93598958815e-25
-5.96843372131e-24
1.47148105906e-26
4.76930247712e-26
-6.95226521588e-25
1.82087094275e-28
1.12845848778e-26
-1.80482157505e-25
-1.32829311177e-26
1.17897243639e-26
-1.91618787516e-25
-1.65454944235e-25
4.86811352042e-26
-8.30879216596e-25
-1.38350787511e-24
3.00068287664e-25
-5.71525466727e-24
-8.46655969602e-24
1.72036528891e-24
-3.76737520616e-23
-3.39973398725e-23
8.37873455571e-24
-2.1414510482e-22
-8.09857753064e-23
2.99370300331e-23
-8.87180298579e-22
-6.85007430563e-23
7.28724767142e-23
-2.53294374968e-21
-4.35985186832e-23
7.84493909965e-23
-3.23192302748e-21
1.87722831491e-25
1.00418583874e-22
-4.44093913922e-21
1.88769867306e-23
-9.15439801784e-22
1.51556017298e-24
5.53349699326e-23
-1.73917862793e-21
1.01675298263e-22
2.15083785683e-22
-7.04552223972e-21
1.1175249954e-22
1.2678158454e-22
-3.35485393584e-21
8.30653756497e-23
7.71990360428e-23
-1.65979930369e-21
1.83277941073e-23
1.71251634403e-23
-2.69825359811e-22
2.2642237468e-24
2.41834061792e-24
-2.44468348878e-23
1.94718537509e-25
2.64250309345e-25
-1.42212545559e-24
1.17554279553e-26
2.33472316184e-26
-3.02761787804e-26
5.69083251846e-28
2.22057431241e-27
6.36427069794e-29
3.70313941936e-30
4.43755610081e-28
2.01063182706e-29
-4.92753880284e-28
4.69545707845e-28
1.77130322878e-29
-7.60888561353e-27
2.08802929632e-27
1.58107905754e-29
-8.55462836889e-26
1.62542648289e-26
-6.41219681349e-26
-7.79229224232e-25
1.27058804725e-25
-1.07381082434e-24
-5.51509275351e-24
9.34214569414e-25
-1.22580861157e-23
-2.69677458599e-23
5.97694088741e-24
-1.08390178344e-22
-5.55785553149e-23
3.02113669477e-23
-7.07913223983e-22
-3.47945213503e-23
7.91852600979e-23
-2.22643793301e-21
-4.46304339526e-27
9.77118710217e-23
-3.1120575159e-21
3.25800170446e-23
-1.01885334556e-21
1.8440306377e-24
3.04336289736e-23
-7.6631183979e-22
6.80230756792e-23
1.37707655136e-22
-3.38372788042e-21
9.1176143979e-23
1.03547800628e-22
-2.21938407636e-21
2.19560962901e-23
2.0603913113e-23
-3.27392255582e-22
2.46816938952e-24
2.32548513589e-24
-1.9718276405e-23
1.84209875695e-25
1.97720076838e-25
-3.65953132564e-25
1.17527214426e-26
1.60135602527e-26
1.12962227315e-27
6.0524363207e-28
1.21064040194e-27
1.72166227337e-28
2.45207163714e-29
9.74209214273e-29
1.77577102717e-29
4.30009774434e-32
1.63698059418e-29
3.21205635572e-30
-1.99584275271e-29
1.73483590981e-29
3.25522529256e-30
-3.19713682329e-28
8.25329691443e-29
1.30391831602e-29
-4.00494081419e-27
6.77763829624e-28
7.21054438011e-29
-5.09982230146e-26
5.94964564045e-27
1.80918408371e-28
-6.05903459417e-25
6.16492344805e-26
-2.4420887116e-25
-5.51002062866e-24
6.66935359129e-25
-6.95134314376e-24
-2.75526794363e-23
6.28736887286e-24
-1.08619938165e-22
-3.61277995309e-23
3.95938572054e-23
-8.98199577071e-22
-4.75917007223e-25
9.72234936091e-23
-2.47473108645e-21
1.70258835567e-23
-4.28560674146e-22
1.94358587519e-24
1.65465723968e-23
-3.69801062311e-22
3.12278251404e-23
5.27969426437e-23
-1.24732685177e-21
2.65934299707e-23
2.64601272024e-23
-5.20490493451e-22
3.78609704328e-24
3.14632832473e-24
-3.74182435686e-23
2.74341787316e-25
2.29243555204e-25
-5.61012599066e-25
1.58047974799e-26
1.50347188282e-26
1.70587169793e-27
7.93077044602e-28
9.58658400904e-28
2.21124809976e-28
3.24428374489e-29
5.77911263288e-29
1.77065561385e-29
1.03883065413e-30
3.71391281836e-30
1.28934501383e-30
-1.27922859279e-33
5.0933450062e-31
1.83303433637e-31
-7.55694228923e-31
5.34254342282e-31
1.86509776876e-31
-1.30269179664e-29
2.71930989211e-30
8.60794531108e-31
-1.96233825986e-28
2.43555713843e-29
6.35005409082e-30
-3.21216963537e-27
2.58982958244e-28
4.63006408545e-29
-5.47466367819e-26
3.47129102152e-27
2.36430225844e-28
-8.06975929805e-25
5.41464552994e-26
-2.14857418403e-25
-6.91248235985e-24
8.28203770647e-25
-1.07345762429e-23
-1.7656374599e-23
8.83501677869e-24
-1.80823331928e-22
-4.31427322871e-25
4.00067391127e-23
-9.40108168811e-22
5.96395079383e-24
-1.3499364484e-22
7.95762760595e-25
4.03184611422e-24
-8.62726410509e-23
1.56154949495e-23
2.01508674603e-23
-5.65869565834e-22
5.39759275914e-24
4.24006915848e-24
-9.18181706148e-23
5.01381351632e-25
3.31050692257e-25
-2.92412029566e-24
2.90992284942e-26
1.93205917707e-26
1.6324539291e-27
1.44561600031e-27
1.09103146927e-27
3.11701121241e-28
5.81818935797e-29
5.57911173988e-29
2.38678529497e-29
1.79029782692e-30
2.53561656224e-30
1.31484258875e-30
4.08031369724e-32
1.168460874e-31
6.61189461824e-32
-9.56957081628e-35
1.20066231239e-32
6.94871066727e-33
-2.40331619198e-32
1.22731852908e-32
6.91365140929e-33
-4.8343703069e-31
6.78462143821e-32
3.54282843074e-32
-9.85100607338e-30
7.1784331819e-31
3.25364747169e-31
-2.17677881658e-28
1.04152875219e-29
3.67809055968e-30
-4.60088687482e-27
1.89991627088e-28
4.16828852225e-29
-8.98058198191e-26
3.70298453784e-27
1.8739964165e-28
-1.12492818622e-24
7.52990093217e-26
-6.79487845632e-25
-4.4462949402e-24
1.16800349691e-24
-2.35032380951e-23
-6.32508560181e-26
7.87413860344e-24
-1.89156145993e-22
4.89555395919e-25
-7.24956817538e-24
8.75953131965e-26
2.56417223803e-25
2.16999554975e-26
4.99145757456e-24
4.32414737594e-24
-1.6327760284e-22
9.44317019516e-25
5.09771340245e-25
-1.45663284374e-23
6.08361203933e-26
2.76836326475e-26
-1.58407819573e-25
3.10097576718e-27
1.41329162651e-27
3.82466748319e-28
1.34271984895e-28
6.92994519036e-29
3.85625158743e-29
4.49763072109e-30
2.9431217607e-30
2.23435050078e-30
1.04933965006e-31
1.01473444007e-31
9.01374003603e-32
1.53604632854e-33
3.01811426684e-33
2.87219521814e-33
-3.03783366107e-36
1.88285937022e-34
1.81808713786e-34
-6.00063758223e-34
1.80858659283e-34
1.69861762512e-34
-1.6834457388e-32
1.15140079426e-33
1.01005511573e-33
-5.20567644655e-31
1.72391888887e-32
1.33553782051e-32
-1.50776488752e-29
3.84576401314e-31
2.41898721414e-31
-3.70241172954e-28
9.31848000123e-30
4.09656802766e-30
-7.83737443354e-27
2.13880077998e-28
4.40712630663e-29
-1.31657927829e-25
4.76728215521e-27
-2.02971530323e-26
-7.27051506785e-25
9.92819547661e-26
-2.22694053288e-24
-3.20868686194e-27
9.12690484653e-25
-2.63626950194e-23
1.46498538474e-26
8.74672878617e-28
2.34714638833e-27
3.2153331426e-27
3.95067565918e-28
1.5321314468e-24
6.75540955873e-25
-4.89614541827e-23
2.01553509865e-25
5.58886670023e-26
-3.00691736354e-24
9.69133462112e-27
2.25186364108e-27
6.80270788079e-29
4.34844763443e-28
1.00219705168e-28
7.09481040506e-29
1.63445400345e-29
4.22455332857e-30
5.3694941346e-30
4.60292978974e-31
1.49711562634e-31
2.51215724019e-31
8.3967161937e-33
4.02135969608e-33
7.78190601648e-33
7.70219971215e-35
7.49893529809e-35
1.54491525366e-34
-4.73865818342e-38
1.69426209047e-36
3.51802716824e-36
-1.17895024492e-35
1.26023894179e-36
2.5224958508e-36
-5.96755029567e-34
1.1398497974e-35
2.10600128701e-35
-2.71162032282e-32
3.16380137777e-34
5.12289668383e-34
-9.43271332833e-31
1.06929552598e-32
1.4010470038e-32
-2.57992119662e-29
3.21104970205e-31
3.01136652001e-31
-5.92400195999e-28
8.48102939773e-30
4.30839699867e-30
-1.23468004411e-26
2.10662251756e-28
1.41269415794e-29
-9.6294099404e-26
5.53225317514e-27
-1.82581579172e-25
-9.69368988304e-29
7.14686123965e-26
-3.41765106249e-24
2.37863155206e-28
4.41847234341e-29
3.54013219374e-29
2.24599695521e-30
7.81770678024e-30
6.05181340551e-25
1.35076811924e-26
-2.05721927255e-23
6.49272498658e-26
7.20933505543e-28
-1.00421387093e-24
2.78917452964e-27
1.46195514358e-29
7.32226041843e-29
1.12155415061e-28
4.80661160445e-32
2.02360242034e-29
3.76778000678e-30
-1.22958173571e-32
1.3021649773e-30
9.39001064933e-32
-6.86653923581e-34
5.30413438305e-32
1.47898621714e-33
-2.08748185674e-35
1.40740374274e-33
1.06467422868e-35
-3.2679724056e-37
2.17971215593e-35
-2.76670007581e-40
-2.14231587328e-39
1.61758793788e-37
-3.11522951117e-37
-2.18778710973e-40
2.0046510487e-38
-3.32521054883e-35
4.91377192859e-40
5.69829646113e-37
-2.0239704571e-33
8.2105532436e-37
2.93673251614e-35
-8.37983930273e-32
8.01141739469e-35
1.08960680914e-33
-2.66070437694e-30
4.4929535307e-33
2.85049302992e-32
-7.09017299226e-29
1.88892734982e-31
5.03201796189e-31
-1.74086828419e-27
6.70421718142e-30
3.50126209693e-30
-1.89785393908e-26
2.35722223769e-28
-2.67232447724e-26
-1.48034079569e-30
4.52788512277e-27
-7.52800549011e-25
1.14999910008e-30
7.8101983907e-31
1.10853970638e-29
-1.5270073847e-27
2.33310094319e-30
5.18498830965e-25
-4.41275632576e-25
-1.84010075735e-23
5.40507490734e-26
-3.50403243872e-26
-8.81319394218e-25
2.22952481194e-27
-1.33044340983e-27
5.42801666345e-29
8.61062477497e-29
-5.55182948808e-29
1.53256593041e-29
2.77738082217e-30
-2.16068450369e-30
9.50542828267e-31
6.64416842571e-32
-6.9573507567e-32
3.71750553271e-32
1.00470998469e-33
-1.68162219859e-33
9.45219497183e-34
6.96937821401e-36
-2.87332079745e-35
1.39958522865e-35
-9.23625968957e-41
-8.69028406019e-37
9.90697537317e-38
-2.45315804577e-37
-9.53830134265e-37
1.49998523285e-38
-2.75600443069e-35
-6.72867449489e-36
4.50715243147e-37
-1.74932276597e-33
-1.22170573625e-34
2.42988622389e-35
-7.48899465015e-32
-3.83270713017e-33
9.38622997521e-34
-2.45156376794e-30
-1.1122649663e-31
2.53836108972e-32
-6.72549957849e-29
-2.75142270852e-30
4.62356756758e-31
-1.69655364183e-27
-6.35652154913e-29
3.32631690677e-30
-1.89759040316e-26
-1.59620882843e-27
-2.68479856424e-26
-6.51582697494e-32
-2.03587637533e-26
-7.65171174053e-25
-8.3531404565e-30
3.44870481979e-32
1.24390156172e-27
-1.8556739016e-25
1.72905856813e-28
1.11416701155e-24
-3.50988521293e-24
-3.88180990656e-23
1.37266646902e-25
-3.50027676855e-25
-2.29508753757e-24
5.99462401152e-27
-1.61356861896e-26
-2.70306827823e-31
2.41986287292e-28
-6.81700568242e-28
3.78030515944e-29
8.11129095152e-30
-2.74518513984e-29
2.5865014782e-30
2.02253223754e-31
-9.68530853615e-31
1.07253742239e-31
3.27089354218e-33
-3.00680640289e-32
2.92884869044e-33
2.77874062246e-35
-9.79519226636e-34
5.25764162893e-35
6.3378316243e-39
-9.86541533101e-35
1.6055737744e-36
-6.58760799771e-36
-1.29139458322e-34
1.74088158034e-36
-2.44064114987e-34
-7.47891368904e-34
1.19893465433e-35
-1.17315256011e-32
-5.93786239818e-33
2.0899894844e-34
-4.61059720449e-31
-8.80166448192e-32
6.01922898061e-33
-1.42662565846e-29
-2.00281108503e-30
1.46085364741e-31
-3.71230006273e-28
-4.70898629096e-29
2.37465680061e-30
-8.84177091405e-27
-1.08680312963e-27
9.31740106319e-30
-7.70765121014e-26
-2.4697331394e-26
-1.47414505073e-25
-1.02558206267e-29
-2.40229489943e-25
-2.99053964251e-24
-1.15711589624e-27
4.84688384992e-30
6.78871331703e-26
-2.6641579122e-24
-3.14637317719e-24
4.28980438038e-24
-1.97361231315e-23
-1.53012175362e-22
6.78033852937e-25
-2.57380634387e-24
-1.22338686335e-23
3.64474161431e-26
-1.5118804752e-25
-1.32862031938e-25
1.509733236e-27
-6.86306252751e-27
1.70614463601e-28
5.29191051172e-29
-3.16149017601e-28
1.44196569725e-29
1.46053390516e-30
-1.46797008342e-29
6.90706756466e-31
3.07346016969e-32
-7.39222636612e-31
2.48889938384e-32
5.09421295682e-34
-4.23073700522e-32
8.62617626179e-34
2.34655688035e-36
-6.37666418036e-33
8.79470241113e-35
-3.55086493063e-34
-8.53276060122e-33
1.12938428082e-34
-5.73702655391e-33
-4.76087794457e-32
6.25423738045e-34
-1.26651188873e-31
-3.0614068694e-31
4.57662405439e-33
-3.73311806178e-30
-2.53212279963e-30
5.86720895695e-32
-1.03047409824e-28
-3.42212561778e-29
1.01137976613e-30
-2.48133412701e-27
-6.43699396302e-28
1.24465762347e-29
-4.93520678622e-26
-1.3776509418e-26
-6.85269828211e-27
-3.0440532315e-25
-2.35345028973e-25
-9.56436910253e-25
-4.16522586428e-28
-1.70012630662e-24
-1.2543669756e-23
-4.09482533557e-26
1.40965943442e-28
5.61381154045e-25
-8.42928079849e-24
-7.70983342724e-23
1.59756720565e-23
-5.86408781191e-23
-6.304779601e-22
3.39399761345e-24
-1.20771677999e-23
-6.98186101776e-23
2.34941451473e-25
-1.05687499328e-24
-1.79066866675e-24
1.0505807077e-26
-6.55496007345e-26
4.64641246183e-28
4.23221837959e-28
-3.96876538654e-27
8.38104122886e-29
1.54705904445e-29
-2.72384774185e-28
5.89596115696e-30
5.33870646567e-31
-2.01499889356e-29
3.59639848111e-31
1.59495215947e-32
-1.49821757735e-30
2.23675040768e-32
2.19660254347e-34
-2.74634359906e-31
3.43716889383e-33
-1.46170090371e-32
-3.68190172595e-31
4.48665624652e-33
-1.95576244797e-31
-2.00546110973e-30
2.348765825e-32
-2.40533396638e-30
-1.21883765067e-29
1.34597336533e-31
-4.17184338718e-29
-8.01517324016e-29
9.05637070344e-31
-9.07132914398e-28
-6.92556621926e-28
8.0976649209e-30
-1.98802734038e-26
-9.03801458958e-27
4.1930743291e-29
-2.899410454e-25
-1.30513928353e-25
-1.70171243449e-25
-1.27162286695e-24
-1.30630997319e-24
-7.05683301602e-24
-7.08956033075e-27
-4.69429935048e-24
-6.36695164603e-23
-5.00290179025e-25
1.08732699313e-28
1.07616430393e-24
-2.19716018182e-23
-2.31430781849e-22
3.61099836328e-23
-8.59961873241e-23
-1.66809108339e-21
1.25517703592e-23
-4.02928644689e-23
-2.96736239624e-22
1.30822246098e-24
-6.45757580794e-24
-1.55231169301e-23
8.03659994744e-26
-7.08003130376e-25
-2.32430990562e-25
4.272781166e-27
-6.04056968055e-26
3.88261166428e-28
2.32303423117e-28
-5.49649623983e-27
5.79761567767e-29
1.19107980347e-29
-4.93881983886e-28
5.76184544622e-30
4.75250671811e-31
-4.2012306098e-29
4.85360427789e-31
1.2312100678e-32
-8.98301036606e-30
9.19050928445e-32
-4.51962890624e-31
-1.19760905375e-29
1.19269699476e-31
-5.92955753229e-30
-6.34116317799e-29
5.91498575565e-31
-5.83445571563e-29
-3.76472178697e-28
3.00724938669e-30
-6.46073658777e-28
-2.27127453642e-27
1.40125305204e-29
-9.68672555232e-27
-1.50970646478e-26
4.9846422858e-29
-1.41782440415e-25
-1.34354535469e-25
-4.10378922265e-26
-1.18884482455e-24
-1.12950074192e-24
-2.13775694721e-24
-2.46054984504e-24
-6.97952658677e-24
-3.52032379858e-23
-4.05245309165e-26
-1.57730315855e-23
-1.57366141649e-22
-2.95341672651e-24
-1.8863486916e-23
1.56004135338e-24
-3.74405897054e-23
-6.38334126892e-22
4.44120863666e-23
-1.67032590211e-22
-2.52103941456e-21
3.67989107339e-23
-7.22500174857e-23
-1.01963834942e-21
7.11763930265e-24
-2.86319731063e-23
-1.19246280672e-22
7.77032259707e-25
-6.4938248636e-24
-7.11759721053e-24
5.84243678118e-26
-8.620246232e-25
-1.60768374729e-25
4.23875205325e-27
-1.05733626955e-25
3.15921748644e-28
2.67328338132e-28
-1.06178352047e-26
6.32059468292e-29
1.25844890948e-29
-9.9632425893e-28
6.98662036899e-30
5.26446632383e-31
-2.47302095414e-28
1.60352082788e-30
-1.13787974533e-29
-3.25806941085e-28
2.02619965187e-30
-1.53973928918e-28
-1.66832802426e-27
8.94556716102e-30
-1.40666717401e-27
-9.73755077929e-27
3.53666799359e-29
-1.20174614714e-26
-5.68931538448e-26
5.63387319789e-29
-1.22603161681e-25
-2.65897362503e-25
-7.06285899749e-26
-1.03691001903e-24
-1.39061278761e-24
-1.66901882551e-24
-5.25682576712e-24
-5.31995164588e-24
-2.38961119969e-23
-6.36205997235e-24
-9.05742423731e-24
-2.0019595353e-22
-5.14511424637e-26
-1.18629633696e-23
-5.33306593105e-22
-3.30304327185e-24
-1.24232392098e-22
1.50893600428e-24
-2.22476646951e-23
-1.31350342664e-21
8.33314217748e-23
-1.16937277216e-22
-5.7635989835e-21
6.64347298104e-23
-1.40829210249e-22
-2.21975789574e-21
3.20923312969e-23
-6.8576226292e-23
-7.06476607268e-22
7.25907265849e-24
-3.47162959039e-23
-1.17266383494e-22
8.49520725915e-25
-6.92484658492e-24
-9.93884256246e-24
8.34056389181e-26
-1.37400771469e-24
-6.97506651739e-25
5.94460481554e-27
-1.89126853594e-25
-2.41948734202e-26
3.17455241889e-28
-2.19162055933e-26
1.76096170998e-29
1.93673167235e-29
-6.38246093511e-27
8.09653688677e-30
-2.63835025173e-28
-8.24595704734e-27
7.81144177174e-30
-3.76304042838e-27
-4.002981143e-26
-1.3128323157e-27
-3.38099297847e-26
-1.85272065601e-25
-5.02202805318e-26
-2.04484567222e-25
-8.41500484052e-25
-5.70876129018e-25
-1.2288619464e-24
-2.45477376289e-24
-4.07853808147e-24
-4.7126484724e-24
-7.80549952425e-24
-2.98101292619e-23
-6.45739730026e-24
-9.16564720773e-24
-1.49761199297e-22
-4.19039674396e-24
-1.62510365969e-23
-3.13350953259e-22
3.15690283798e-25
-4.67511491402e-24
-4.83748166497e-22
-1.12895134711e-24
-1.67996075986e-22
1.12782233868e-24
-7.70801393435e-24
-1.19841730973e-21
7.21647754346e-23
-3.55866146546e-23
-5.74114489615e-21
1.6236491933e-22
-2.57878870213e-23
-6.06708807451e-21
9.61913939782e-23
-6.85460966544e-23
-2.57757539247e-21
4.80509499244e-23
-4.5556366117e-23
-1.03898608156e-21
8.35719559382e-24
-1.25442018746e-23
-1.60068101564e-22
1.3216411352e-24
-5.455662962e-24
-2.73243934465e-23
1.29506094418e-25
-1.12742791321e-24
-3.17965934435e-24
8.70874058588e-27
-1.8149933632e-25
-3.46975550024e-25
7.23080995755e-28
-6.85015172084e-26
-1.1167437572e-25
-6.59559619572e-27
-8.12182423865e-26
-1.45855159857e-25
-8.06498436126e-26
-3.17169158258e-25
-7.5579886106e-25
-5.76348158101e-25
-1.09163145793e-24
-3.88791979617e-24
-2.20759709641e-24
-3.70864560502e-24
-2.09293544213e-23
-8.1758685911e-24
-5.5629498964e-24
-7.14809519141e-23
-9.70982678608e-24
-1.06902299934e-23
-2.73672527762e-22
-1.37696113973e-23
-8.6144996883e-24
-3.94364028945e-22
-1.8762679973e-24
-2.58951322882e-24
-7.96836109206e-22
2.27055228436e-25
-1.15676347118e-24
-2.74698933302e-22
-6.75989329766e-25
-8.3736694164e-23
1.32141316446e-24
-4.68019124405e-25
-7.95618465572e-22
4.34126191138e-23
-6.26591628016e-25
-3.75571068075e-21
5.89935327057e-23
-3.8520380047e-26
-2.70658476745e-21
1.86219823623e-22
-2.46653168541e-25
-5.52595709487e-21
1.15728478039e-22
-7.99584544609e-25
-2.83019032102e-21
2.63401278901e-23
-6.81080912844e-25
-6.091165337e-22
8.81773009392e-24
-1.18199443645e-25
-2.23664886033e-22
1.27172083514e-24
-5.33117690084e-27
-4.02431252231e-23
1.18984603458e-25
-1.50612929306e-28
-6.60119028864e-24
1.39402952733e-26
-2.12442715073e-30
-2.83557295319e-24
-7.47464260602e-26
-1.65902127991e-30
-3.28723873882e-24
-7.38254495304e-25
-1.63027684e-28
-1.28294579868e-23
-4.11245398403e-24
-4.7098811661e-27
-4.61451278088e-23
-8.47163688856e-24
-8.16548639201e-26
-1.8253498714e-22
-2.0041306203e-23
-1.77730477852e-25
-3.37488640693e-22
-1.72102531079e-23
-1.96575859585e-25
-7.92773314314e-22
-4.22781003066e-24
-3.57031107329e-26
-8.12944361131e-22
-8.97229349857e-25
-2.95977841561e-27
-3.0170354725e-22
2.45074156406e-26
-4.77008297698e-26
-1.47540648326e-22
-2.42712008547e-26
-8.06425877252e-23
6.09424715553e-25
-1.80742906794e-22
9.46251720054e-24
-8.13973500971e-22
2.61211414391e-23
-1.22140516684e-21
4.35075306308e-23
-1.36230564552e-21
2.1376550055e-23
-5.35504126502e-22
7.87260736327e-24
-1.80915409547e-22
7.89801755499e-25
-1.46794221076e-23
2.1256857278e-26
9.15013881339e-28
3.24893988811e-28
4.80322345055e-29
1.4726216406e-30
7.65263885434e-31
-1.11624985975e-28
5.50040811877e-31
-1.08675866361e-26
3.90306349113e-29
-3.71232827906e-25
3.33741491755e-28
-1.51317876671e-24
-1.9450865774e-23
-3.94918671558e-24
-6.34422588452e-23
-4.64781363823e-24
-1.72978226741e-22
-1.04159929993e-24
-2.66869685395e-22
-5.69319581809e-25
-8.50191433084e-23
-1.76012599829e-26
-8.26756388051e-23
-1.04922269819e-23
1.61628272191e-22
1.55567317462e-22
-1.8715211269e-20
1.79397964553e-21
9.67777715504e-22
-9.19284297658e-20
5.56155627292e-21
2.35994030842e-21
-1.71518774367e-19
5.07264039972e-21
2.02249036499e-21
-1.13142557161e-19
4.55261352108e-21
1.90027548912e-21
-8.29509081648e-20
2.1038045692e-21
1.00171994502e-21
-3.77321307299e-20
1.18677343369e-21
7.06669183636e-22
-2.45163406672e-20
3.29929711526e-22
2.81435588987e-22
-9.32653931991e-21
5.61947326448e-23
9.16082433765e-23
-3.08180544485e-21
1.56591974044e-24
4.59516758064e-23
-1.77334356034e-21
-4.10424605073e-23
3.3411880608e-23
-1.23966197941e-21
-2.52735594846e-22
7.64758260816e-23
-2.76373088161e-21
-7.17666265947e-22
2.371044034e-22
-8.62548474215e-21
-1.37410842233e-21
4.69965435376e-22
-1.82201752479e-20
-3.70447005652e-21
7.27561444441e-22
-2.93899747213e-20
-4.30057157043e-21
1.74727240323e-21
-8.15394489355e-20
-3.32337418247e-21
1.97703582291e-21
-1.1095946157e-19
-1.02556344773e-21
1.65545962535e-21
-1.23025685645e-19
-1.46040345131e-22
6.49354175237e-22
-5.4830837821e-20
1.59082025083e-22
-1.97586202885e-20
1.21822685603e-21
1.98015719591e-21
-1.0664614855e-19
4.92478720719e-21
4.56645562687e-21
-2.09552090057e-19
6.77980990712e-21
4.97152042595e-21
-1.83486085084e-19
5.83862941959e-21
4.01727283442e-21
-1.22339646366e-19
4.25804543003e-21
3.0741425897e-21
-7.38723717273e-20
3.6855816066e-21
3.05215274514e-21
-6.89782341415e-20
1.12336560574e-21
1.17172369083e-21
-2.34156386091e-20
1.79037415682e-22
2.68935558738e-22
-5.02906356456e-21
2.12810211278e-23
6.10101431841e-23
-1.1896147454e-21
6.11658775374e-25
2.41037267128e-23
-5.36636571599e-22
-1.73263825829e-23
2.19430994568e-23
-4.71822322349e-22
-1.33291664496e-22
5.92822593365e-23
-1.24951802818e-21
-6.75396050815e-22
2.25906448961e-22
-4.88705260964e-21
-2.29699398323e-21
7.92502443732e-22
-1.85270842906e-20
-3.57289797782e-21
2.16383524679e-21
-5.61992040696e-20
-3.05146532545e-21
2.98585925128e-21
-8.5628149622e-20
-4.22304142949e-21
2.48063170164e-21
-8.47407573902e-20
-1.07829424798e-21
3.72582351625e-21
-1.32220161792e-19
-7.33234710136e-22
1.20873566626e-21
-5.1065131388e-20
1.41236673825e-21
-7.23781569078e-20
2.03643090963e-21
4.14914384223e-21
-1.37209407975e-19
6.16032960453e-21
7.21507392045e-21
-2.17286921042e-19
1.22974813815e-20
1.14100820457e-20
-2.93172837994e-19
7.64680734862e-21
6.64823315351e-21
-1.44689736212e-19
3.39243322867e-21
3.09708420859e-21
-5.47105465561e-20
8.71686636701e-22
9.15988280009e-22
-1.32465745559e-20
1.44550846959e-22
1.92275156173e-22
-2.21265826778e-21
1.56816223526e-23
3.01614316727e-23
-2.70302444189e-22
1.34687526707e-24
4.93673378963e-24
-3.62690945651e-23
3.5467500374e-26
1.53638577659e-24
-1.08426813582e-23
-1.14270037739e-24
1.5342258999e-24
-1.16550399169e-23
-1.15060745288e-23
5.16239231238e-24
-4.84791243392e-23
-7.85436752458e-23
2.54812324582e-23
-2.98963472992e-22
-4.07882268305e-22
1.19623528249e-22
-1.71164516169e-21
-1.44566422913e-21
4.96558642086e-22
-8.5188419982e-21
-3.39702830991e-21
1.55762785034e-21
-3.12164684198e-20
-3.49334999665e-21
3.55932752044e-21
-8.34181070004e-20
-4.08529013607e-21
3.97598572072e-21
-1.06245863841e-19
-1.10172443898e-21
5.89984406768e-21
-1.75250991407e-19
2.71980549526e-21
-9.02853430446e-20
3.30023939465e-21
7.17356167318e-21
-1.61930375331e-19
8.19845424615e-21
1.03016621858e-20
-2.53411867122e-19
4.62023889222e-21
4.60349146386e-21
-9.21594911599e-20
3.0447995288e-21
2.83953616999e-21
-4.70608129687e-20
6.89108689145e-22
6.74931317889e-22
-8.09454557077e-21
9.26756666838e-23
1.04747891429e-22
-7.40546592544e-22
9.31206492034e-24
1.33682132857e-23
-3.06154932709e-23
7.68841627303e-25
1.60181330386e-24
1.07978011514e-25
5.79595291386e-26
2.29824657753e-25
3.36405967916e-26
1.50708135763e-27
6.30471326728e-26
1.10495722183e-26
-4.54960065288e-26
6.48664395493e-26
1.03463053331e-26
-4.88148931691e-25
2.28829084085e-25
2.34052353563e-26
-4.58690366417e-24
1.19221871827e-24
5.26660297878e-27
-3.62526771552e-23
7.65772246908e-24
-3.7476109509e-23
-2.35490940762e-22
4.82647237137e-23
-4.54779635323e-22
-1.15727619631e-21
2.77063430878e-22
-3.80097381617e-21
-2.79549797095e-21
1.32416976997e-21
-2.38240447925e-20
-3.31942606248e-21
3.47611363711e-21
-7.50645915635e-20
-1.70049268367e-21
5.22896035315e-21
-1.2377877475e-19
4.55394399579e-21
-9.9099870519e-20
2.24205231087e-21
4.68207756895e-21
-9.20243649943e-20
4.85758409541e-21
5.86132343744e-21
-1.12380669251e-19
3.87727077642e-21
3.70205751292e-21
-6.44061520321e-20
8.50076353727e-22
7.57693521911e-22
-9.66577739908e-21
9.30118390292e-23
8.69621582376e-23
-5.35256994424e-22
7.06607600299e-24
7.62899811207e-24
1.68775618889e-25
5.38034635479e-25
7.39400677368e-25
1.69703309392e-25
3.77234879141e-26
7.53325289267e-26
2.75919787546e-26
2.48013707819e-27
9.40947218441e-27
4.15615038207e-27
6.29202867746e-29
2.29195305603e-27
1.06846648264e-27
-1.77354980207e-27
2.39455760453e-27
1.07076547854e-27
-2.02767059044e-26
8.77459966357e-27
3.40396482285e-27
-2.11141000615e-25
4.83144829145e-26
1.38794006114e-26
-2.23329097664e-24
3.43581695227e-25
4.89051185636e-26
-2.62595547565e-23
2.89320847981e-24
-4.40521959271e-24
-2.51141856145e-22
3.00734006755e-23
-2.32743608697e-22
-1.4524706423e-21
2.80194270304e-22
-3.81777988125e-21
-3.32615796776e-21
1.76508066895e-21
-3.19396361552e-20
-1.14746954868e-21
5.12939223159e-21
-1.04119146829e-19
3.01193671122e-21
-5.61661079117e-20
1.96007390226e-21
3.60829499127e-21
-6.78628725204e-20
2.29294895928e-21
2.42693204598e-21
-4.58931455546e-20
1.21768728582e-21
1.01457925313e-21
-1.64392697333e-20
1.57010345042e-22
1.21503924188e-22
-1.10874939164e-21
1.05242248868e-23
8.51662256963e-24
1.32578992902e-25
6.14601253356e-25
5.73900763305e-25
1.87717328243e-25
3.35875555271e-26
3.99440884057e-26
2.22710169468e-26
1.79624113284e-27
3.10527243339e-27
2.18806144619e-27
9.76968458578e-29
3.19898083166e-28
2.49985172164e-28
2.38795581337e-30
6.86909413983e-29
5.5119129679e-29
-6.1955526635e-29
7.1957414437e-29
5.5948993796e-29
-7.67766981367e-28
2.7274118031e-28
1.93808814981e-28
-9.61087289225e-27
1.61760761073e-27
9.69148312443e-28
-1.42701637777e-25
1.38249559604e-26
6.05414893399e-27
-2.45208619487e-24
1.63639287804e-25
3.65556469451e-26
-4.04528252002e-23
2.49376320314e-24
-3.12316264972e-24
-4.03348908894e-22
4.02527840947e-23
-3.87399700639e-22
-1.67884287357e-21
4.39346704057e-22
-7.07094595319e-21
-7.47496549479e-22
2.33180652931e-21
-4.43471680463e-20
1.77602137116e-21
-3.22806169989e-20
1.12942238961e-21
1.67136135402e-21
-3.60385884456e-20
1.34510183215e-21
1.13420988452e-21
-2.64274198858e-20
2.95336953815e-22
1.94598497994e-22
-3.39276083487e-21
2.36055556709e-23
1.43652277257e-23
-7.30062939983e-23
1.31736771462e-24
8.34260436719e-25
2.55965233491e-25
6.21321224806e-26
4.52950389014e-26
3.18337746433e-26
2.45900267277e-27
2.28135460057e-27
2.24557548492e-27
8.75619997546e-29
1.18049677631e-28
1.36735061105e-28
3.37465055088e-30
8.58735901245e-30
1.06764627563e-29
7.56030954515e-32
1.54846327518e-30
1.95170320904e-30
-1.78870129652e-30
1.60807852785e-30
1.96820513392e-30
-2.57950770641e-29
6.34061608073e-30
7.22301756338e-30
-4.64486643182e-28
4.35574049181e-29
4.36290740843e-29
-1.06926167533e-26
5.36677899173e-28
4.3136608256e-28
-2.48432262053e-25
9.89461003736e-27
5.35224533587e-27
-5.13756777373e-24
2.05210282693e-25
4.46685904976e-26
-7.5988637004e-23
4.18406058336e-24
-1.98261662567e-23
-4.62766561464e-22
6.82336203723e-23
-1.02456260729e-21
-2.12445164589e-22
5.33521647681e-22
-1.04294233817e-20
4.21514072103e-22
-8.22225929764e-21
5.02557922298e-22
5.19301101237e-22
-1.56330849008e-20
4.9905670657e-22
2.91489672713e-22
-9.18790693586e-21
6.46837556568e-23
2.92716636816e-23
-6.23056746341e-22
3.62016494588e-24
1.50083410996e-24