/*--------------------------------*- C++ -*----------------------------------*\
| =========                 |                                                 |
| \\      /  F ield         | OpenFOAM: The Open Source CFD Toolbox           |
|  \\    /   O peration     | Version:  3.0.1                                 |
|   \\  /    A nd           | Web:      www.OpenFOAM.org                      |
|    \\/     M anipulation  |                                                 |
\*---------------------------------------------------------------------------*/
FoamFile
{
    version     2.0;
    format      ascii;
    class       volVectorField;
    location    "1.2";
    object      ddt0(U);
}
// * * * * * * * * * * * * * * * * * * * * * * * * * * * * * * * * * * * * * //

dimensions      [0 1 -2 0 0 0 0];

internalField   nonuniform List<vector> 
7968
(
(0.000343359361549 0.000350850442585 -0.000672033446106)
(0.00101556663618 0.000235099561367 -0.000647223579463)
(0.00182021934651 0.000183791290172 -0.000584462526503)
(0.00247265677403 0.000198085700861 -0.000499123539465)
(0.00287804068346 0.000268473446023 -0.000411605063936)
(0.00295429933651 0.000370365278102 -0.000329617107723)
(0.00270428592971 0.000470371707147 -0.000259477471669)
(0.00215975796365 0.000559429359932 -0.000204071709981)
(0.00140071810034 0.000619882325717 -0.000166774222556)
(0.000515363166689 0.000649463099418 -0.000147533150472)
(-0.000412494661241 0.000648985853142 -0.000145553288942)
(-0.00130220236391 0.000618676679245 -0.000161513863114)
(-0.00206976974049 0.000557324908153 -0.000195836128116)
(-0.00262569621481 0.000467446927252 -0.000249253935979)
(-0.0028887402611 0.000367451809858 -0.000317907989641)
(-0.00282511734182 0.000264652766036 -0.000400117693552)
(-0.00243181335815 0.000194123377031 -0.000488948807876)
(-0.00179057695171 0.000179790177333 -0.000574768863714)
(-0.000995278082163 0.000233231007101 -0.00063740259981)
(-0.000339603898243 0.000352104321263 -0.000661804986019)
(0.000227025509729 0.00103886113698 -0.000649151076287)
(0.000889485729607 0.000914609363992 -0.00101182737395)
(0.00182636112353 0.000925697523877 -0.00114066394017)
(0.0025807704326 0.00108537938301 -0.00115869086614)
(0.00304794642645 0.00136104823953 -0.00113931466913)
(0.00314829499874 0.0016891702879 -0.00110426936216)
(0.00287768137763 0.00200260326894 -0.00106878377806)
(0.00229001142792 0.00225829570299 -0.00104373181884)
(0.00147732688651 0.00243066177973 -0.00103174532367)
(0.000538621916173 0.00251526766728 -0.00102843809511)
(-0.00044091574745 0.00251467625375 -0.00102679712785)
(-0.00138382760398 0.00242910050698 -0.00102735171712)
(-0.00220499885435 0.00225551472421 -0.00103690634521)
(-0.00280363329179 0.00199829965003 -0.00106037739294)
(-0.00308684636093 0.00168329225222 -0.00109558492873)
(-0.00299834976336 0.00135426696046 -0.00113154247313)
(-0.00254278479866 0.00107822750769 -0.00115097989463)
(-0.00179897231131 0.000918884583929 -0.00113399599351)
(-0.00087033734372 0.000909542333107 -0.00100391904743)
(-0.000222578111579 0.00103558179647 -0.00063680086964)
(0.000176155062575 0.00186201077447 -0.000589040687991)
(0.000900451964268 0.0018704310372 -0.00114171165214)
(0.00200984405228 0.00205527696648 -0.00133974672261)
(0.00289561323868 0.002446879753 -0.00134766157538)
(0.00343586157026 0.00298861475309 -0.00128328062333)
(0.00354297582025 0.00358561905429 -0.00118954795736)
(0.00321939349059 0.00413953511005 -0.00110161546733)
(0.0025417368469 0.00458286499243 -0.00104228454313)
(0.00162649711677 0.0048809972819 -0.00101655350352)
(0.000586868680266 0.00502778717034 -0.00100967019666)
(-0.000490889640061 0.00502759394503 -0.00100832618983)
(-0.00153481176746 0.00488066118693 -0.00101143319908)
(-0.00245893793851 0.00458177415475 -0.00103487361546)
(-0.0031480089095 0.0041369004044 -0.00109306450468)
(-0.00348356852572 0.00358102824568 -0.00118186330799)
(-0.0033880503862 0.00298276704579 -0.00127535448616)
(-0.00285910081496 0.00244006584633 -0.00134123704648)
(-0.00198298780955 0.00204882193491 -0.00133436785475)
(-0.000881167129162 0.00186507600311 -0.00113499733036)
(-0.000170473489956 0.00185711133485 -0.000576739661742)
(0.000190705411345 0.00252847432862 -0.00050358303329)
(0.0010604316977 0.00263940127478 -0.00116065384078)
(0.00240124109958 0.00295624692156 -0.00134785685057)
(0.00346034431107 0.00352224059705 -0.00125854286413)
(0.00408492883497 0.00425605722848 -0.00105711933638)
(0.00417948071297 0.00504001858363 -0.000818008390001)
(0.00376093539399 0.00575477350934 -0.000605655411707)
(0.00293787577804 0.00632039369878 -0.000460423358396)
(0.00186055898295 0.00669765239887 -0.000389262144469)
(0.000663560756154 0.00688272001856 -0.000366210841591)
(-0.000567059872669 0.00688335162212 -0.000364200413373)
(-0.00176871706569 0.00669962796802 -0.000383851782742)
(-0.00285591126196 0.00632288295496 -0.000452138546176)
(-0.00369151215032 0.00575599997066 -0.000596479614489)
(-0.00412248308202 0.00503875285157 -0.000809231025512)
(-0.00403947697284 0.00425256296972 -0.00104974980545)
(-0.00342582527107 0.00351733720466 -0.00125286930466)
(-0.0023754906069 0.00295084390731 -0.00134394394901)
(-0.00104150555104 0.00263414940979 -0.00115479938545)
(-0.000184712408162 0.00252287278996 -0.000491437332681)
(0.000262194158855 0.0029406914316 -0.000416907950122)
(0.00133753059568 0.0031140764278 -0.00114133904259)
(0.00294409873916 0.00350458956723 -0.0012830223201)
(0.00419451722359 0.00415578706577 -0.00105596979902)
(0.0049018036636 0.00497355306571 -0.000671953521821)
(0.00496474987804 0.00583132428956 -0.000246541984164)
(0.00442311936872 0.00660158624777 0.000117904331388)
(0.00342061963603 0.00720585227205 0.000367178103696)
(0.00214628239722 0.00760652479007 0.00049188913624)
(0.00075782653574 0.0078022532622 0.00053413809623)
(-0.000658383443086 0.00780401532733 0.000535489308416)
(-0.00205207278615 0.00761191609889 0.000498398736729)
(-0.00333844607129 0.00721338525309 0.000376334169391)
(-0.00435569893941 0.00660831122991 0.000126922167307)
(-0.00491063063501 0.00583521683569 -0.000241186917439)
(-0.00485902266852 0.00497450313993 -0.000667483514814)
(-0.00416221578193 0.00415445341536 -0.00105303862121)
(-0.00291996755407 0.00350173303021 -0.00128161870722)
(-0.00131971532077 0.00311002136745 -0.001137551603)
(-0.00025641193961 0.00293543472179 -0.000405932597606)
(0.000365229675458 0.00301597778038 -0.00033556899012)
(0.00166765596361 0.00321362399506 -0.00110607097155)
(0.00354298092317 0.00361121542104 -0.00118962228959)
(0.00498006092737 0.00425036433858 -0.000816262049827)
(0.0057600960487 0.00503720715257 -0.000245033731988)
(0.00577417604125 0.005846699311 0.000361858275884)
(0.00509437462261 0.00655663150736 0.000873488563858)
(0.0039037688909 0.00710850849034 0.00121426651)
(0.00242728408211 0.00746768158862 0.00137644323749)
(0.000850526908 0.00764136517327 0.00142522315186)
(-0.000745260740199 0.00764583176415 0.0014264187022)
(-0.00232845561681 0.00747816074855 0.00138090619411)
(-0.00381969953895 0.00712322724282 0.0012220283109)
(-0.00502839420774 0.00657179463676 0.000878855270156)
(-0.00572317225296 0.0058590544081 0.000363456696879)
(-0.00572081544333 0.00504523135551 -0.000246481894332)
(-0.00495106714734 0.0042548249867 -0.000818473081843)
(-0.00352181707811 0.00361283428552 -0.00119253441618)
(-0.00165240992821 0.00321270874477 -0.00110778854088)
(-0.000360427033764 0.00301215164419 -0.000327547648236)
(0.000465590537827 0.00275569875232 -0.000266272196017)
(0.00198282354018 0.00293275421817 -0.00107150670484)
(0.00409934442142 0.00327743563687 -0.00110104524699)
(0.00569686942656 0.00382129587333 -0.000602656645599)
(0.00653146941486 0.00448488178547 0.000121959094771)
(0.00648397477039 0.00515664396881 0.000874817885005)
(0.00567670273534 0.00573895866397 0.00149131150842)
(0.00431322924347 0.00619389717143 0.00189113255818)
(0.00266057300025 0.00648684574716 0.0020745384674)
(0.000928918729521 0.00663002834792 0.00212311021648)
(-0.000812718774186 0.00663733153338 0.00212430964647)
(-0.00255453881621 0.00650489446414 0.00207725150639)
(-0.00422562532607 0.00621892733927 0.00189400396354)
(-0.00561125296338 0.00576570700368 0.00149086016206)
(-0.00643687323994 0.00518064776334 0.000869425867178)
(-0.00649716811541 0.00450370069569 0.00011326532441)
(-0.00567238614649 0.00383467709711 -0.000612033735999)
(-0.00408228052021 0.00328611457714 -0.0011097352705)
(-0.00197184735978 0.00293734750075 -0.00107700898565)
(-0.000463296141098 0.00275591906611 -0.000262424707727)
(0.00055551621616 0.00219273792692 -0.000212017766876)
(0.00224025573667 0.00232662149377 -0.00104650020429)
(0.00454441900905 0.00258032043455 -0.00104133069888)
(0.00626388100716 0.00297772271345 -0.000456484039335)
(0.00713645067063 0.00346097448898 0.00037106702137)
(0.0070371151108 0.00394450609393 0.00121834076292)
(0.00613149135994 0.00435430416756 0.00189247630366)
(0.00464131188759 0.00468358191075 0.00229527445366)
(0.00285178945498 0.00489456698316 0.00244426951245)
(0.000996409605593 0.00499720354779 0.00247508358834)
(-0.000863827665512 0.00500981377131 0.00247780779753)
(-0.00273375802742 0.00491821038564 0.00244610740154)
(-0.00454705123956 0.00471903077534 0.00229692203888)
(-0.00606633829148 0.00439483149609 0.00188441299394)
(-0.00699374430669 0.00398225473977 0.00120421064913)
(-0.00710823081904 0.00349173516905 0.000354491983835)
(-0.00624627160848 0.00300180672336 -0.00047379623471)
(-0.00453348520434 0.00259731101907 -0.00105693643334)
(-0.00223491496064 0.00233758628745 -0.00105764051413)
(-0.000555638653548 0.00219834365431 -0.000213097609487)
(0.000616491885032 0.00140945958026 -0.000175436159918)
(0.00241306772636 0.00148884985179 -0.00103522370067)
(0.0048431593971 0.00163907846234 -0.00101603557337)
(0.00664161001531 0.00187324605227 -0.000385731499353)
(0.00753790372647 0.00215865530547 0.00049564230818)
(0.00739627474925 0.0024398518589 0.00137605420611)
(0.00642674769002 0.00267529212287 0.00207376924934)
(0.00485417290707 0.00287124734476 0.00244401842014)
(0.00297325618713 0.00299632616981 0.0025866223981)
(0.0010448154582 0.00305848797284 0.00260690040595)
(-0.000890660913921 0.00306935312182 0.00261654558484)
(-0.00284222164933 0.00302664584958 0.00258345255751)
(-0.00474837066861 0.00291492724572 0.00244115730691)
(-0.00635932205765 0.00272740172156 0.00206252724816)
(-0.00735849730686 0.00248970471992 0.00135810433709)
(-0.00751740122087 0.002200714776 0.000470131611009)
(-0.00663157935973 0.00190656803727 -0.000410477306802)
(-0.00484051357776 0.00166360693134 -0.00103741003716)
(-0.00241475099034 0.00150566101711 -0.00105222231385)
(-0.00061963155645 0.00141975938918 -0.00018189854019)
(0.000646186292353 0.000496481934503 -0.000156699002739)
(0.00249761135423 0.000522105485169 -0.00103227783309)
(0.00498964731121 0.000571032594464 -0.00100996807182)
(0.00682602620596 0.000647857287323 -0.000364126173324)
(0.00773385958432 0.000742075493024 0.000532069020966)
(0.00757368855519 0.000836720880949 0.00142069354564)
(0.00657608963349 0.000917426881825 0.00211620545063)
(0.00496502786912 0.000988871103182 0.00247848212691)
(0.00303979555953 0.00103922305775 0.00262030148291)
(0.00107011646665 0.00106708339165 0.00263025289605)
(-0.000895073712657 0.00107487938383 0.00263095470533)
(-0.00288761004447 0.00107007507107 0.00262067215225)
(-0.00484801498848 0.00103283711715 0.00247619847907)
(-0.00650320924607 0.000968949448238 0.00211287777754)
(-0.00753946194908 0.000887572953043 0.00140301707019)
(-0.00772177574602 0.000787397205024 0.000506020170575)
(-0.00682685358101 0.000684486051245 -0.000393385956285)
(-0.004996226417 0.000598980164891 -0.00103631584691)
(-0.00250710075053 0.000542414554456 -0.00105399701687)
(-0.000652786580291 0.000509998282302 -0.000167677768973)
(0.000645788122791 -0.000459206624618 -0.00015559133809)
(0.00249708142227 -0.000485618788142 -0.00103130430676)
(0.00499005987453 -0.000534737683335 -0.00100903447747)
(0.00682799607221 -0.000609650271755 -0.000363131608842)
(0.00773784435625 -0.000698569027292 0.000532985890915)
(0.00758021113615 -0.000783305626793 0.00142182221536)
(0.00658552741791 -0.000848956999422 0.00211677912023)
(0.00497651811426 -0.000899808170301 0.0024790755163)
(0.00305167798622 -0.000927365777447 0.00262082627243)
(0.00108067443209 -0.000933004261127 0.00263043875989)
(-0.00088751805328 -0.00092167889296 0.00263045326146)
(-0.00288408504839 -0.000905042855351 0.00261888600206)
(-0.00484946111927 -0.000865874866261 0.0024742903116)
(-0.0065093440365 -0.000809911529462 0.0021100808839)
(-0.00754818378686 -0.000743151466522 0.00139997952517)
(-0.00773163800929 -0.000661395692406 0.000502682057088)
(-0.00683605435373 -0.000576963212551 -0.000396246431504)
(-0.00500399114698 -0.000507937506869 -0.00103930450271)
(-0.00251291617343 -0.000464822938907 -0.00105669417678)
(-0.000655237073101 -0.000443914717214 -0.000170268631183)
(0.000615549377268 -0.00137378099925 -0.000172151824921)
(0.00241185377624 -0.00145361816751 -0.00103235670709)
(0.00484452360759 -0.00160363739458 -0.00101324952219)
(0.00664722157613 -0.00183544104515 -0.000382876346698)
(0.00754917717782 -0.00211560892472 0.000498278093213)
(0.00741480641509 -0.00238805275741 0.00137721355113)
(0.00645319698076 -0.00261019594766 0.00207489094456)
(0.0048862375535 -0.00278866259562 0.00244496876023)
(0.00300646409523 -0.00289446677714 0.00258648834024)
(0.00107556714312 -0.00293786424421 0.00260481381967)
(-0.000867428651044 -0.00293269822665 0.00261443655334)
(-0.00283218647785 -0.00288031979396 0.00258070361346)
(-0.00475312491324 -0.00276744724953 0.00243577506718)
(-0.00637606023364 -0.00258645505274 0.00205532399203)
(-0.00738327797205 -0.00236102093597 0.00134981463836)
(-0.00754521901738 -0.00208750284693 0.00046164207878)
(-0.00665822021947 -0.00180946775835 -0.000418692892202)
(-0.00486282656339 -0.0015807205288 -0.00104553995542)
(-0.00243134817059 -0.00143440900145 -0.00106007336575)
(-0.000626405737486 -0.00135849518016 -0.000188898142412)
(0.00055420080387 -0.00216040244185 -0.000206536304924)
(0.00223889097293 -0.00229423998866 -0.00104212017748)
(0.00454753882311 -0.0025469553428 -0.00103691740043)
(0.00627353569312 -0.0029414531099 -0.000451529433693)
(0.00715491827014 -0.00341972477294 0.000375890442177)
(0.00706577915791 -0.00389558545661 0.0012213320856)
(0.00617163381287 -0.00429482183062 0.001893382893)
(0.00468982454906 -0.00461220122355 0.00229607977522)
(0.00290177093612 -0.00480941605495 0.00244332577824)
(0.00104175847521 -0.00489911517443 0.00247152095367)
(-0.000830602897621 -0.00490205853428 0.00247239707466)
(-0.00271953292666 -0.00480511971505 0.00243859194705)
(-0.00455420038116 -0.00460537656291 0.00228660797519)
(-0.00609145149174 -0.00428526460936 0.0018719612781)
(-0.00703060802237 -0.00388126603545 0.00119102419708)
(-0.00715028686133 -0.00340194173461 0.000341735610544)
(-0.00628675188634 -0.00292361859851 -0.000486423889139)
(-0.00456747071076 -0.00252938982394 -0.00106956554407)
(-0.00226003300114 -0.00227805848806 -0.00106985549638)
(-0.000565837195806 -0.00214649232989 -0.000224083160092)
(0.000464386698764 -0.00272779010518 -0.000259374038716)
(0.00198200361258 -0.00290432827278 -0.00106550277189)
(0.00410465941702 -0.00324736791163 -0.00109543181146)
(0.00571080706137 -0.00378814007954 -0.000596358888577)
(0.00655570516634 -0.00444665176059 0.000127412480879)
(0.00652057225188 -0.00511238905444 0.000877666013329)
(0.00572587883707 -0.00568806887634 0.00149311216828)
(0.00437114002134 -0.00613657305001 0.00189058992716)
(0.00272043472734 -0.0064226442399 0.0020724099578)
(0.000982340845795 -0.00656053069354 0.00211536007223)
(-0.000774564374137 -0.00656423858306 0.00211330727846)
(-0.00253853605202 -0.00642956516099 0.00206601327172)
(-0.00423403729902 -0.00614438799905 0.00187917395522)
(-0.00564101711086 -0.00569355507857 0.00147471898096)
(-0.00648167751784 -0.00511339372624 0.000853336111662)
(-0.00654855153489 -0.00444271898182 9.72385732761e-05)
(-0.00572192394973 -0.00378005651013 -0.000627761000766)
(-0.00412372111165 -0.00323675102985 -0.00112564648053)
(-0.00200234927649 -0.00289241492471 -0.00109226894372)
(-0.000475705780329 -0.00271599994071 -0.000276351000602)
(0.00036427782812 -0.00299334395785 -0.000327554300929)
(0.00166806994577 -0.00318997629879 -0.0011004708576)
(0.00355115593975 -0.00358537265071 -0.00118338291355)
(0.00499827369472 -0.00422139371314 -0.000809490360405)
(0.00578970834897 -0.00500433270641 -0.00023757875376)
(0.00581574711137 -0.00580973721981 0.000366625558742)
(0.0051478671677 -0.00651636229538 0.000875196790768)
(0.0039653758667 -0.00706650148268 0.00121310600293)
(0.00248998429355 -0.0074252895258 0.00137164301064)
(0.000905500757007 -0.00759947202845 0.00141665322368)
(-0.000706910146986 -0.0076054056138 0.00141409165409)
(-0.00231329496045 -0.00743969382571 0.0013655762892)
(-0.00382970870249 -0.0070862312818 0.00120440580907)
(-0.00506089017656 -0.00653641789447 0.000860578856853)
(-0.00577160348262 -0.00582536357142 0.000345328837972)
(-0.00577621773695 -0.00501288990334 -0.000264567712025)
(-0.00500435999871 -0.0042236598398 -0.000836240426843)
(-0.00356604246345 -0.00358209310848 -0.00121042834984)
(-0.00168486565242 -0.00318283495038 -0.00112490419804)
(-0.000373903143383 -0.00298443510128 -0.000342716266693)
(0.000261991817832 -0.00292349188148 -0.00040858637747)
(0.00133992940554 -0.00309544356075 -0.00113404885115)
(0.00295513972769 -0.00348378912409 -0.00127618256817)
(0.00421609923952 -0.00413242950754 -0.00104882899078)
(0.00493445421171 -0.00494766229436 -0.000665547919117)
(0.00500890002335 -0.00580363199888 -0.000242609147491)
(0.00447755112686 -0.00657381063019 0.000119735951553)
(0.00348106737137 -0.00718008568479 0.00036518792879)
(0.00220636679241 -0.00758476234086 0.000485690740232)
(0.000809413064312 -0.0077856169457 0.000523798609839)
(-0.000623554745353 -0.00779261151477 0.000521478514061)
(-0.00203961752795 -0.00760477159429 0.000481406782468)
(-0.00335007380858 -0.00720857496576 0.000357621509039)
(-0.00438889790821 -0.00660416335673 0.00010768739265)
(-0.00495875887446 -0.00582982706605 -0.000260634533912)
(-0.00491367925414 -0.00496662852468 -0.000686691658928)
(-0.0042145234305 -0.00414326109177 -0.00107214596928)
(-0.00296324931241 -0.00348704957055 -0.00130043094867)
(-0.00135134987351 -0.0030931136781 -0.00115563844745)
(-0.000269266391292 -0.00291841733954 -0.000421706759006)
(0.000191125100431 -0.00251617399172 -0.000495869988342)
(0.0010647599606 -0.00262614465914 -0.00115370786626)
(0.00241474998391 -0.00294082576826 -0.00134131685752)
(0.00348429871012 -0.0035049003657 -0.0012520434841)
(0.00411924318602 -0.00423753105777 -0.00105086439351)
(0.00422337663485 -0.00502145576972 -0.000814068045646)
(0.00381285413955 -0.00573857507925 -0.000605104888399)
(0.00299376475636 -0.00630861939572 -0.000463166812991)
(0.00191445532337 -0.00669228848109 -0.000396649283194)
(0.000708431939008 -0.00688487710675 -0.00037771326345)
(-0.000538002207905 -0.00689269680735 -0.000379610705587)
(-0.00175998503849 -0.00671432694747 -0.00040205554876)
(-0.00286876112021 -0.00634024851378 -0.000472046186351)
(-0.00372329753777 -0.00577294848365 -0.000617522596855)
(-0.00416723747697 -0.00505264094131 -0.000830106455002)
(-0.00408953985989 -0.00426142663026 -0.00107009155732)
(-0.0034732709878 -0.00352015829343 -0.00127259614536)
(-0.00241433143345 -0.00294801787909 -0.00136287714267)
(-0.00106970353777 -0.00262754138538 -0.00117244283948)
(-0.000196020416591 -0.00251525880496 -0.000506648545578)
(0.000176928548646 -0.00185406183255 -0.000581011485362)
(0.000906338162823 -0.00186177203299 -0.00113537762785)
(0.00202557446973 -0.00204461995027 -0.00133365173259)
(0.00292094983955 -0.00243488495795 -0.0013418827066)
(0.00347028794912 -0.00297637140848 -0.00127843788324)
(0.00358517322038 -0.00357441290986 -0.00118673613179)
(0.00326727887748 -0.00413154304491 -0.00110198771925)
(0.00259156910417 -0.00458009428288 -0.00104673917532)
(0.00167292944619 -0.0048851352924 -0.00102502618516)
(0.000624061966497 -0.00503966033415 -0.00102284605075)
(-0.000468205086277 -0.00504666813168 -0.0010251432756)
(-0.00152997922042 -0.00490496324381 -0.00103136943645)
(-0.00247239324129 -0.00460847683144 -0.00105664214726)
(-0.00317722624884 -0.00416280825017 -0.00111546964717)
(-0.00352330215348 -0.00360335437702 -0.0012036857459)
(-0.00343180454745 -0.00299951038207 -0.00129638226595)
(-0.0029003123593 -0.00245050288381 -0.00136099136004)
(-0.00201675483697 -0.00205327930297 -0.00135285816383)
(-0.000905336612072 -0.0018656543033 -0.00115175252252)
(-0.000179565795206 -0.00185730655415 -0.000590602050895)
(0.000229769184127 -0.00103368742643 -0.000641570596236)
(0.00089706031876 -0.000909425627394 -0.00100492095482)
(0.00184325898452 -0.000919226815541 -0.0011343764056)
(0.0026063239681 -0.00107846166545 -0.00115272553196)
(0.00308149574955 -0.00135443236691 -0.00113478683625)
(0.00318783866654 -0.00168430019012 -0.00110175369488)
(0.0029209899575 -0.00200110097461 -0.00106949113332)
(0.00233369668296 -0.00226158059078 -0.00104833251197)
(0.00151657257163 -0.00244015221419 -0.00104090637983)
(0.000568670276652 -0.0025312631704 -0.00104204822418)
(-0.000424116361402 -0.00253670590204 -0.00104446259506)
(-0.00138249207248 -0.00245529721529 -0.00104794340364)
(-0.00221906463419 -0.00228365987834 -0.00105910304741)
(-0.00283060382881 -0.00202580211715 -0.00108302823449)
(-0.00312215654449 -0.00170789176243 -0.00111766198852)
(-0.00303672175209 -0.0013742550775 -0.00115172530181)
(-0.00257862874896 -0.00109308014729 -0.00117025822484)
(-0.0018280193079 -0.000928912455545 -0.00115093720214)
(-0.000891580893867 -0.000916387641511 -0.00101921503028)
(-0.00023042415876 -0.00104256344697 -0.000650442303679)
(0.000347434440109 -0.000351971654304 -0.000664638996937)
(0.00102258760851 -0.000235819176927 -0.000639537337375)
(0.00183575592972 -0.000183335263467 -0.000577278474565)
(0.00249622440642 -0.000197565784896 -0.000492997178216)
(0.00290862585041 -0.000268187911101 -0.000406331277152)
(0.00298952437701 -0.000371418789713 -0.000326357225761)
(0.00274243641487 -0.000473018181915 -0.000259685641122)
(0.00219728060892 -0.000564066873649 -0.000208772230731)
(0.00143326348651 -0.00062742977195 -0.000175895083179)
(0.000539160651743 -0.000659931173643 -0.000161024445832)
(-0.000400619986717 -0.000661990739377 -0.000163013261603)
(-0.00130388285513 -0.000633305193829 -0.00018182453465)
(-0.00208467697962 -0.000572756565366 -0.000217585410043)
(-0.00265134902672 -0.000482630450793 -0.00027113162066)
(-0.00292094475481 -0.000381341266532 -0.000339387099938)
(-0.00285956974887 -0.000276458028209 -0.000419835762883)
(-0.0024642128854 -0.000203713978312 -0.00050639548172)
(-0.00181779779106 -0.000187205202967 -0.000590150555084)
(-0.00101634953006 -0.000238752846671 -0.000650999414184)
(-0.000347773445759 -0.000356955480249 -0.000674392876106)
(0.00047751496465 0.000484391237574 -0.00214137654262)
(0.00130202172254 0.000563951245255 -0.0021605539512)
(0.00216740667722 0.000654440756568 -0.00209119336355)
(0.00285643084976 0.00080775152896 -0.00195517158607)
(0.00326586268706 0.000998785913514 -0.0017885879353)
(0.00332049332626 0.00119951927052 -0.00161395401213)
(0.00301867908499 0.00137841960158 -0.00145155444791)
(0.00240084031838 0.00152443564664 -0.00132088064016)
(0.00155143725983 0.00162294830879 -0.00123412799496)
(0.000567863034764 0.0016718526652 -0.00119056449785)
(-0.000460524676773 0.00167182220185 -0.00118568501852)
(-0.00144902883969 0.00162296354491 -0.00122069915096)
(-0.00230814838927 0.0015242293175 -0.00129967842265)
(-0.00293902041101 0.00137780082125 -0.00142463503302)
(-0.00325583582545 0.00119895877285 -0.00158433321488)
(-0.00321550991814 0.000997613238546 -0.00175897945479)
(-0.0028196334541 0.00080612538226 -0.00192712005265)
(-0.00214249712666 0.000652560405875 -0.00206483800616)
(-0.0012870871426 0.000563813252887 -0.00213539169751)
(-0.00047581780428 0.000487412635705 -0.00211711437125)
(0.000553811582215 0.00132506642605 -0.00216432744534)
(0.00140217862159 0.00142980784501 -0.00264744885378)
(0.0022603304812 0.00160417569629 -0.00277490330724)
(0.00294198582776 0.00190134066227 -0.00271989218744)
(0.00333329760586 0.00227137110369 -0.0025747374811)
(0.00337536341864 0.00265747679333 -0.00238688639876)
(0.00306008727506 0.00300724947906 -0.00220076369981)
(0.0024307462781 0.0032865478656 -0.00205236512257)
(0.00156991241114 0.00347598160335 -0.00195902732187)
(0.000573606041649 0.0035702622797 -0.00191564032859)
(-0.000468055179935 0.00357031532017 -0.00191131398516)
(-0.0014693618506 0.00347586879677 -0.00194630107091)
(-0.00234005811646 0.00328605099317 -0.00203251703702)
(-0.00298269280939 0.00300596245454 -0.00217616646354)
(-0.00331295755584 0.00265522678379 -0.00236023016314)
(-0.00328597085942 0.00226824491328 -0.00254840010638)
(-0.00290900022804 0.00189768987673 -0.00269469218334)
(-0.00224009460164 0.00160055970463 -0.00275179595951)
(-0.00139230507877 0.00142745383443 -0.00262454572117)
(-0.000554484438724 0.00132504095647 -0.00213696586761)
(0.000643073782022 0.00220825343297 -0.00209856442386)
(0.00157473496805 0.00230553238379 -0.00277751670155)
(0.00250129055995 0.00254852389624 -0.00293292424262)
(0.00321674708777 0.00295198817737 -0.0027986438291)
(0.00360483264185 0.00344555914523 -0.00251732258667)
(0.00361718485535 0.00395502458606 -0.00217501029712)
(0.00325413055449 0.00441457197805 -0.00185082256098)
(0.00256908342268 0.00478119005342 -0.00160315523533)
(0.00165152759702 0.0050301634721 -0.00145366139655)
(0.000600580860863 0.00515479968502 -0.00138640769094)
(-0.00049470883522 0.00515499568733 -0.0013816803864)
(-0.00155096191311 0.00503069839266 -0.00143929129392)
(-0.00247894494694 0.00478152351858 -0.0015812526886)
(-0.00317795581339 0.0044136482057 -0.0018249845199)
(-0.00355635437683 0.00395240832191 -0.00214826902841)
(-0.00355940397411 0.00344175640158 -0.002491153263)
(-0.00318602907827 0.00294750583004 -0.00277482627496)
(-0.00248342155597 0.00254384235484 -0.00291157379993)
(-0.0015672267316 0.00230149717644 -0.0027560076021)
(-0.000644305734045 0.00220492425258 -0.00207154546495)
(0.000796703921816 0.00291038315479 -0.00196460337146)
(0.00187179756 0.00299985624565 -0.00272469654393)
(0.00290407822361 0.00327676595619 -0.00280009255404)
(0.00367207549282 0.00373321624366 -0.00247210135061)
(0.00405452327202 0.00428230404166 -0.00194206262174)
(0.00401553075219 0.00484000287959 -0.00134920460775)
(0.00357335719329 0.00533710359448 -0.00081244461913)
(0.00279648166055 0.00573093601874 -0.000415109322679)
(0.00178571722234 0.00599775766554 -0.000182131162077)
(0.000645418306965 0.00613110256601 -7.88991928502e-05)
(-0.000537327606214 0.00613180859886 -7.33756167271e-05)
(-0.00168341738734 0.00600005483598 -0.000165749029606)
(-0.0027060751373 0.00573373769337 -0.00039051414207)
(-0.00349847101297 0.00533823177488 -0.000784456505684)
(-0.00395661184541 0.00483837688905 -0.00132227812492)
(-0.00401116657746 0.00427882732051 -0.00191723248501)
(-0.00364367919491 0.00372861738629 -0.00245033612438)
(-0.00288863955999 0.00327138514682 -0.00278198150365)
(-0.00186666621465 0.00299399920099 -0.00270608970592)
(-0.000799193323269 0.0029035291103 -0.00193952461327)
(0.000988222137955 0.00332722482777 -0.00180130126303)
(0.00224265992961 0.00339766818631 -0.002581574151)
(0.0033980732817 0.00367121550567 -0.00252040747597)
(0.00422111649506 0.00412252167815 -0.00194257706667)
(0.00458902322475 0.004657683585 -0.00111688878166)
(0.00448306272623 0.00519337061337 -0.000238988070032)
(0.00394315356783 0.00566708031442 0.00052434656863)
(0.00305831516233 0.00604065462975 0.0010712940133)
(0.00194002240284 0.00629296317908 0.00138646042156)
(0.000697250138932 0.00641884089699 0.00152100594604)
(-0.000584972096092 0.00642057529087 0.00152692130808)
(-0.00183433309504 0.00629757206215 0.00140483998112)
(-0.00296691916683 0.0060471147586 0.00109837447585)
(-0.00387007989507 0.0056722533862 0.000550961692719)
(-0.00442692637919 0.00519490970146 -0.000217375015419)
(-0.00454814101202 0.00465572140699 -0.00109857837893)
(-0.00419525028854 0.00411866056844 -0.00192729968952)
(-0.00338523777651 0.00366576127674 -0.00250845592534)
(-0.00224035277904 0.00339062551438 -0.00256935105328)
(-0.000992006564251 0.00331769828207 -0.00178123733034)
(0.00118985473708 0.00338145076681 -0.00162896145568)
(0.00263013872992 0.00343839920304 -0.00239509146524)
(0.00390906235829 0.00368213151594 -0.00217892644129)
(0.00477994941861 0.00408230162921 -0.00134935903334)
(0.00512523610848 0.00455079215482 -0.000237239207616)
(0.00494903687554 0.00501705502631 0.000899615925087)
(0.00431324059054 0.00542834178793 0.00185314645937)
(0.00332029721305 0.00575230911415 0.00251805675931)
(0.00209443844147 0.00596977832511 0.00288733851157)
(0.000749869362991 0.00607788404205 0.00303822197664)
(-0.000631507089345 0.00608113322853 0.00304230938665)
(-0.00198378753275 0.00597867070155 0.00290308087737)
(-0.00322650550197 0.00576478065102 0.00254176932314)
(-0.00424158475417 0.00544034141816 0.00187413526903)
(-0.00489687831977 0.00502514406655 0.000910576854783)
(-0.00508829235839 0.00455399424719 -0.000232752489694)
(-0.00475709967848 0.00408144636899 -0.00134670169418)
(-0.00389938500225 0.00367839632362 -0.00217808943718)
(-0.0026314469948 0.00343166231573 -0.00239410902475)
(-0.00119575060467 0.00337080140729 -0.00161856110207)
(0.00136916108133 0.00306947280209 -0.0014681270762)
(0.00298140758809 0.00311283069625 -0.00221092606015)
(0.00437053710675 0.00330825673995 -0.00185504517978)
(0.00527889256568 0.00362928656134 -0.000810187123271)
(0.00560025705894 0.0039992440415 0.000528756352755)
(0.0053613186154 0.00436996820971 0.00185644749335)
(0.00463967835472 0.00469604828942 0.0029407233891)
(0.00355108185257 0.0049582062907 0.0036772756611)
(0.00223012312298 0.00513386755877 0.00406427867409)