/*--------------------------------*- C++ -*----------------------------------*\
| =========                 |                                                 |
| \\      /  F ield         | OpenFOAM: The Open Source CFD Toolbox           |
|  \\    /   O peration     | Version:  3.0.1                                 |
|   \\  /    A nd           | Web:      www.OpenFOAM.org                      |
|    \\/     M anipulation  |                                                 |
\*---------------------------------------------------------------------------*/
FoamFile
{
    version     2.0;
    format      ascii;
    class       volScalarField;
    location    "1.2";
    object      p;
}
// * * * * * * * * * * * * * * * * * * * * * * * * * * * * * * * * * * * * * //

dimensions      [1 -1 -2 0 0 0 0];

internalField   nonuniform List<scalar> 
7968
(
4647.60258045
4647.57585251
4647.50086355
4647.38602472
4647.24170912
4647.08390681
4646.93102858
4646.80019055
4646.7048575
4646.65397844
4646.6519579
4646.69892238
4646.79073951
4646.91865563
4647.06927444
4647.22541912
4647.36851268
4647.4824159
4647.55661404
4647.58261172
4647.57714325
4647.5694169
4647.50354522
4647.39159009
4647.2449919
4647.08192622
4646.92288166
4646.78666126
4646.68760881
4646.63482847
4646.63270344
4646.68137991
4646.77679371
4646.91005494
4647.06689426
4647.2283963
4647.37386201
4647.48496889
4647.55001781
4647.55681207
4647.50432731
4647.5056085
4647.4364547
4647.31159316
4647.14414413
4646.95653871
4646.77350916
4646.61730074
4646.50430184
4646.44435132
4646.44203735
4646.49751805
4646.60664879
4646.75983597
4646.94074628
4647.12691127
4647.29341812
4647.41757939
4647.48599596
4647.48369628
4647.39211639
4647.39633215
4647.31423781
4647.16340266
4646.96055475
4646.73382888
4646.51402432
4646.32782316
4646.19411921
4646.12358088
4646.1210214
4646.18667427
4646.31622553
4646.49933403
4646.71710149
4646.94260517
4647.14474721
4647.29505915
4647.37650648
4647.37117677
4647.25091797
4647.25272874
4647.1498498
4646.96355848
4646.71584491
4646.44198437
4646.17894296
4645.95827198
4645.80102584
4645.71851669
4645.71575242
4645.7929904
4645.94586408
4646.163413
4646.4245642
4646.69742332
4646.94463421
4647.13054059
4647.2328369
4647.22980697
4647.09638742
4647.09298399
4646.96549964
4646.74007139
4646.44519841
4646.12283219
4645.81678653
4645.56212412
4645.38187888
4645.28774538
4645.28486134
4645.37356202
4645.54931936
4645.80091795
4646.10524013
4646.42675568
4646.72129301
4646.94641038
4647.07335213
4647.07536557
4646.94673458
4646.93714301
4646.78564678
4646.52343943
4646.18531408
4645.81999917
4645.47610971
4645.19228647
4644.99267251
4644.88885446
4644.88595563
4644.98441005
4645.17964457
4645.46052727
4645.80288467
4646.16752164
4646.50531746
4646.76716376
4646.91799474
4646.92606761
4646.81880712
4646.80381439
4646.63232956
4646.34015095
4645.96765284
4645.56836001
4645.19537351
4644.89029868
4644.67703931
4644.56645031
4644.56363512
4644.6691452
4644.87826096
4645.18065649
4645.55230018
4645.95096759
4646.3231022
4646.61478443
4646.78542049
4646.79866317
4646.72577833
4646.7070768
4646.52167987
4646.20889473
4645.8129167
4645.3907518
4644.99843864
4644.67970903
4644.45768801
4644.34279327
4644.3400856
4644.45047236
4644.66872359
4644.98499672
4645.37615244
4645.79773934
4646.19316286
4646.50523678
4646.68954188
4646.70624905
4646.67634527
4646.65576761
4646.46326428
4646.13998725
4645.7321512
4645.29834563
4644.89636402
4644.57076905
4644.34434721
4644.22747573
4644.22515304
4644.33795598
4644.56110761
4644.88446164
4645.2854337
4645.71853436
4646.12560956
4646.44792743
4646.63906859
4646.65742247
4646.67474172
4646.65407313
4646.46139789
4646.13791447
4645.72989386
4645.29598734
4644.89404467
4644.56863542
4644.34253303
4644.22605497
4644.22412618
4644.33723088
4644.56055995
4644.88399064
4645.2849392
4645.71794027
4646.12487909
4646.44706026
4646.63807526
4646.65630723
4646.72104551
4646.70208436
4646.51620743
4646.20285184
4645.8063519
4645.38392811
4644.99172651
4644.67354213
4644.4524306
4644.33865503
4644.33699344
4644.44821285
4644.66699919
4644.98349487
4645.37457208
4645.79587105
4646.19090513
4646.50260291
4646.68655385
4646.70290258
4646.81116728
4646.79579316
4646.62359033
4646.33056696
4645.95728687
4645.55761481
4645.18482319
4644.88053774
4644.66862584
4644.55968005
4644.5584424
4644.66523311
4644.87517159
4645.17789947
4645.54941203
4645.9476298
4646.3191942
4646.61032614
4646.78044313
4646.79314911
4646.93655798
4646.92649058
4646.77413928
4646.51091194
4646.1719131
4645.80620438
4645.46251629
4645.17964887
4644.98161506
4644.87973282
4644.87871529
4644.97870522
4645.17493705
4645.45619512
4645.79837929
4646.16250067
4646.49964022
4646.76086865
4646.91110238
4646.91854349
4647.08412449
4647.08025474
4646.95186858
4646.72540245
4646.4296416
4646.1068884
4645.80110277
4645.54742729
4645.36880197
4645.27663455
4645.27569641
4645.36599161
4645.5427741
4645.79475599
4646.09891683
4646.41993048
4646.71383793
4646.93835362
4647.06469893
4647.06606797
4647.23706704
4647.23843337
4647.13477345
4646.94755787
4646.69908121
4646.42491439
4646.16211226
4645.94236992
4645.78663227
4645.70593897
4645.70496148
4645.78365667
4645.93745624
4646.15536215
4646.41639425
4646.68883352
4646.93552276
4647.12091321
4647.22268298
4647.21901315
4647.37716182
4647.3810251
4647.29831855
4647.14676479
4646.9433131
4646.71636333
4646.4968258
4646.31142864
4646.17902503
4646.11003108
4646.10897837
4646.17584651
4646.30616638
4646.4895912
4646.70728544
4646.93247855
4647.13422569
4647.28412111
4647.36511896
4647.35918483
4647.48864224
4647.48970673
4647.42012564
4647.2947674
4647.12692031
4646.93920083
4646.75643553
4646.600919
4646.48896973
4646.43025757
4646.42913015
4646.48556528
4646.59529489
4646.74872611
4646.92958768
4647.1155368
4647.28175223
4647.4055954
4647.47365472
4647.47077232
4647.56103596
4647.55312584
4647.48700219
4647.37473608
4647.22791104
4647.06482069
4646.90605644
4646.77042028
4646.67221213
4646.62039423
4646.61917991
4646.66856927
4646.7644176
4646.89784768
4647.05465302
4647.21598727
4647.36126376
4647.47212388
4647.53689184
4647.54317925
4647.58632823
4647.55943931
4647.48424537
4647.3691609
4647.22466033
4647.06685143
4646.91420572
4646.78383408
4646.68917358
4646.63905424
4646.63773922
4646.68524087
4646.77738378
4646.90543139
4647.05603951
4647.21208286
4647.35503718
4647.46875401
4647.54269398
4647.56819151
4158.03112812
4157.99355436
4157.90744578
4157.78135818
4157.62712579
4157.4608149
4157.30074398
4157.16407655
4157.06462043
4157.01156961
4157.00951946
4157.0585773
4157.15442775
4157.28807885
4157.44586822
4157.61050873
4157.76353183
4157.88872132
4157.97398273
4158.01073739
4157.99495024
4157.97605074
4157.89826597
4157.77619712
4157.625408
4157.46236105
4157.30461955
4157.16949686
4157.07083147
4157.01798166
4157.01574967
4157.06426452
4157.15907017
4157.291053
4157.44646171
4157.60788338
4157.75766027
4157.87901596
4157.9560676
4157.97402076
4157.91089502
4157.90026248
4157.81618172
4157.67948134
4157.51079917
4157.32864416
4157.15306509
4157.00298725
4156.89359127
4156.83499062
4156.83245573
4156.88620836
4156.99137246
4157.13816413
4157.31144148
4157.49222263
4157.66013772
4157.79638858
4157.87993645
4157.88948362
4157.78758965
4157.78079111
4157.68210024
4157.51886289
4157.31875224
4157.10465215
4156.89985947
4156.72559226
4156.59886027
4156.53100056
4156.52813749
4156.59047273
4156.7125353
4156.88337258
4157.08604381
4157.29900531
4157.49862591
4157.66171003
4157.76005189
4157.76568068
4157.63648022
4157.63320646
4157.5164443
4157.32184299
4157.08612128
4156.83646354
4156.60045825
4156.4003088
4156.25511167
4156.17743891
4156.17431571
4156.24578692
4156.38585684
4156.58249011
4156.81654615
4157.06532105
4157.30084147
4157.49556669
4157.61215312
4157.6141924
4157.47343068
4157.4733226
4157.33749949
4157.110906
4156.83966377
4156.55627485
4156.28859854
4156.06268749
4155.8993918
4155.8121551
4155.80875906
4155.88953931
4156.04736405
4156.26963635
4156.53548247
4156.81829638
4157.0895108
4157.31638688
4157.45208233
4157.45096541
4157.31649895
4157.31878708
4157.16514574
4156.90930044
4156.60696432
4156.29190417
4155.99554254
4155.74656718
4155.56717612
4155.4713816
4155.4678169
4155.55697372
4155.73097822
4155.97627587
4156.2707974
4156.58537528
4156.88794739
4157.14414572
4157.29772818
4157.29407652
4157.18276033
4157.1866374
4157.01808799
4156.73812123
4156.41004916
4156.06925057
4155.74994912
4155.48166346
4155.28887525
4155.18623121
4155.1825011
4155.27860928
4155.466051
4155.73091937
4156.04855759
4156.38875741
4156.71719566
4156.99748024
4157.16588853
4157.16051713
4157.08564948
4157.0904299
4156.91128093
4156.61410563
4156.26776524
4155.90913488
4155.57387692
4155.29204975
4155.09047074
4154.98302415
4154.97849077
4155.08068535
4155.2769743
4155.55519176
4155.88912129
4156.24735162
4156.59386854
4156.89120784
4157.07010085
4157.06366165
4157.03411734
4157.03920998
4156.85444362
4156.54821101
4156.19253824
4155.82435957
4155.48047065
4155.19143245
4154.98437812
4154.87479669
4154.87142504
4154.97458812
4155.17691801
4155.46238432
4155.80502156
4156.17270416
4156.52879511
4156.8349914
4157.01930224
4157.01237086
4157.03256094
4157.03756661
4156.85261848
4156.54615322
4156.19019804
4155.82182901
4155.47796414
4155.18909723
4154.9823264
4154.87309474
4154.87005268
4154.97347275
4155.17592265
4155.46142507
4155.80408111
4156.17174344
4156.52772124
4156.83382057
4157.01802877
4157.01098647
4157.08105998
4157.08558871
4156.90593908
4156.60813474
4156.26107023
4155.90189598
4155.56666045
4155.28527069
4155.08450494
4154.9781441
4154.97436123
4155.07711956
4155.2738208
4155.55227516
4155.88624893
4156.24435378
4156.59061724
4156.88769347
4157.06630704
4157.05955338
4157.17535069
4157.1788467
4157.00957047
4156.72870871
4156.3995569
4156.05801402
4155.73857572
4155.47087559
4155.27923034
4155.17797939
4155.17554221
4155.27266829
4155.46078426
4155.7260448
4156.04373292
4156.38370577
4156.71175732
4156.99167222
4157.15968689
4157.15383421
4157.30661577
4157.30842543
4157.15385653
4156.89689522
4156.59336536
4156.27745409
4155.98100575
4155.73266453
4155.55447727
4155.460274
4155.45826188
4155.54871428
4155.72362921
4155.96937956
4156.26392655
4156.5782219
4156.88038075
4157.13616944
4157.28930489
4157.28508597
4157.46150796
4157.4608737
4157.32411789
4157.0963157
4156.82391624
4156.5397207
4156.27190549
4156.04659377
4155.88449512
4155.7988158
4155.79702947
4155.87916315
4156.03795392
4156.26068381
4156.5265701
4156.80910601
4157.07997007
4157.30649958
4157.44176593
4157.44003923
4157.62304011
4157.61931957
4157.5016689
4157.30598271
4157.06921062
4156.81877507
4156.58266879
4156.38305128
4156.23894423
4156.16268044
4156.16099332
4156.23369563
4156.37460192
4156.57166791
4156.80576796
4157.05436599
4157.2896426
4157.48410565
4157.60031723
4157.60176109
4157.77311183
4157.7659617
4157.66656345
4157.5024519
4157.30154184
4157.08683498
4156.88187707
4156.70798903
4156.58214581
4156.51542585
4156.51372949
4156.57706714
4156.69980224
4156.8710139
4157.07377571
4157.2866696
4157.48615334
4157.64907079
4157.74711649
4157.75217553
4157.8957681
4157.88486786
4157.80031309
4157.66300043
4157.49375089
4157.31117729
4157.13551542
4156.98572093
4156.87699211
4156.81922969
4156.81755081
4156.87201329
4156.97765525
4157.12471755
4157.29810352
4157.47888401
4157.64674927
4157.782887
4157.86621484
4157.87525144
4157.97935843
4157.96029125
4157.88225358
4157.75980856
4157.60865062
4157.44534155
4157.28754327
4157.15264048
4157.05443016
4157.00215662
4157.00049264
4157.04947502
4157.1445915
4157.27675558
4157.43225662
4157.59374277
4157.74350127
4157.86481443
4157.94175009
4157.95920959
4158.0154048
4157.97770612
4157.89138534
4157.76497693
4157.61041327
4157.44384058
4157.28366528
4157.14709134
4157.04791917
4156.99524722
4156.99357311
4157.04293675
4157.13900287
4157.27279892
4157.43068695
4157.59542214
4157.74852781
4157.87374174
4157.9589452
4157.99529838
3668.55954683
3668.51691213
3668.42489072
3668.29193904
3668.13081446
3667.95769607
3667.79103209
3667.64866592
3667.54512288
3667.48998331
3667.48792387
3667.53900747
3667.6388151
3667.77804179
3667.94236763
3668.11386889
3668.27386981
3668.40595434
3668.49714948
3668.53888934
3668.51838015
3668.50000812
3668.4203351
3668.29472787
3668.14216627
3667.97808683
3667.81935095
3667.68296456
3667.58326412
3667.52983589
3667.52750561
3667.57639357
3667.67200859
3667.80507658
3667.96143027
3668.12397569
3668.2756536
3668.40072343
3668.47980189
3668.49714286
3668.42841518
3668.42224845
3668.33637953
3668.19264677
3668.01856823
3667.83231869
3667.65343585
3667.50149705
3667.39192384
3667.33354307
3667.33075997
3667.38379846
3667.48875253
3667.63717532
3667.81375888
3667.99877344
3668.1723931
3668.31607702
3668.40163104
3668.40657252
3668.29811425
3668.29910305
3668.19502282
3668.01472804
3667.7975289
3667.56737304
3667.34876698
3667.16634778
3667.03834038
3666.97110559
3666.96776734
3667.02864462
3667.15134903
3667.33005017
3667.54652551
3667.77582652
3667.99306378
3668.17385392
3668.27793162
3668.27558735
3668.13992796
3668.14941412
3668.02373887
3667.80031175
3667.53135929
3667.24684827
3666.97604116
3666.75966412
3666.6161493
3666.54104447
3666.53737149
3666.60563744
3666.75099357
3666.96505555
3667.22396764
3667.50790514
3667.77727393
3668.00167589
3668.12768229
3668.11679916
3667.9698188
3667.98836276
3667.84048208
3667.5730512
3667.24971661
3666.89456461
3666.5596775
3666.31765604
3666.16689634
3666.0861148
3666.08338932
3666.15912011
3666.33253865
3666.59532976
3666.89877354
3667.22511872
3667.5490242
3667.81766271
3667.96613004
3667.9462359
3667.80615234
3667.83267249
3667.66463175
3667.35718848
3666.98144994
3666.54398528
3666.15988024
3665.90632329
3665.75444591
3665.67108062
3665.6706267
3665.75359344
3665.95151792
3666.26245174
3666.61376837
3666.96676117
3667.33284262
3667.64139139
3667.81011457
3667.78223876
3667.66663747
3667.69924153
3667.51559519
3667.17731266
3666.75779908
3666.2661313
3665.85808911
3665.59135148
3665.4349752
3665.34999629
3665.35134827
3665.43965959
3665.65501547
3666.00027119
3666.387735
3666.76150475
3667.15331969
3667.49219347
3667.67647122
3667.6424662
3667.56548852
3667.60209202
3667.40878437
3667.05245361
3666.60930433
3666.09666208
3665.67720018
3665.40208956
3665.2440847
3665.15842629
3665.15999882
3665.25033082
3665.47130927
3665.8302167
3666.23228448
3666.62104507
3667.02808695
3667.38514815
3667.57911254
3667.54105613
3667.51191084
3667.55040341
3667.35235533
3666.98726205
3666.53626466
3666.01699392
3665.59258325
3665.31375786
3665.15452849
3665.06961359
3665.07069507
3665.16108075
3665.38386717
3665.74575825
3666.15283232
3666.54843247
3666.96326919
3667.32869041
3667.52724664
3667.48719616
3667.51045859
3667.54886421
3667.35059795
3666.9852148
3666.53398259
3666.01464066
3665.58992709
3665.31062245
3665.15108214
3665.06587883
3665.06792277
3665.1585781
3665.38128598
3665.74337713
3666.150727
3666.54666907
3666.96158384
3667.32700343
3667.52552569
3667.48540453
3667.56119609
3667.59755176
3667.40366169
3667.04660327
3666.6025549
3666.08959411
3665.66951791
3665.3934878
3665.23555254
3665.15010665
3665.15219493
3665.24304468
3665.46416364
3665.82337038
3666.22603939
3666.6157532
3667.02305286
3667.38014095
3667.57402434
3667.53577781
3667.65972475
3667.69194933
3667.5075046
3667.16847733
3666.74690779
3666.25422778
3665.84491697
3665.57674832
3665.42055106
3665.3369328
3665.33901009
3665.42806495
3665.64381703
3665.98961473
3666.37800578
3666.75304365
3667.1451146
3667.484088
3667.66827465
3667.63398342
3667.79690312
3667.82293035
3667.65373589
3667.34477752
3666.96692
3666.52769834
3666.14177703
3665.88682072
3665.73521733
3665.65343662
3665.65448883
3665.73893033
3665.9376683
3666.24908684
3666.60141292
3666.95554625
3667.32184422
3667.63056949
3667.79922298
3667.77098626
3667.95870108
3667.97669506
3667.82754996
3667.55839587
3667.23318482
3666.87608379
3666.53930845
3666.29593419
3666.14545399
3666.06624505
3666.06507965
3666.14235265
3666.31677729
3666.58019731
3666.8845799
3667.21159686
3667.53577188
3667.80466282
3667.95309265
3667.93280151
3668.12741675
3668.13642861
3668.00960071
3667.78456306
3667.51389358
3667.22788407
3666.95602567
3666.7389073
3666.59557442
3666.52134409
3666.51866621
3666.58794363
3666.73397602
3666.94869312
3667.20833138
3667.49264688
3667.76241327
3667.9871381
3668.11312565
3668.10183712
3668.28467126
3668.28530126
3668.18033964
3667.99876071
3667.78016418
3667.54873171
3667.32911938
3667.14594946
3667.01826809
3666.95147744
3666.9487515
3667.01031389
3667.13344633
3667.31285376
3667.52985181
3667.75959374
3667.97726308
3668.15838527
3668.26245897
3668.25969147
3668.41441512
3668.40802233
3668.32159249
3668.17698114
3668.00189677
3667.81466347
3667.63498391
3667.48253083
3667.37293452
3667.31472619
3667.31224673
3667.36563238
3667.47088086
3667.61969813
3667.79668057
3667.98211487
3668.15613325
3668.30010617
3668.38566945
3668.39018722
3668.50399447
3668.48552904
3668.40557316
3668.27941154
3668.12615625
3667.96134257
3667.80195394
3667.66510934
3667.56518587
3667.51168567
3667.5093851
3667.5583725
3667.65411498
3667.78740208
3667.94405632
3668.10697499
3668.25901912
3668.3843827
3668.46354689
3668.48047064
3668.54498797
3668.50233078
3668.4100561
3668.2766028
3668.11483179
3667.94100495
3667.77365296
3667.63075418
3667.52685063
3667.47147869
3667.46928298
3667.520329
3667.62018068
3667.75958106
3667.92419786
3668.09608846
3668.25650946
3668.38894291
3668.48032324
3668.52183993
3179.1852831
3179.14115645
3179.04761916
3178.91255444
3178.74806602
3178.5699024
3178.39681895
3178.24789533
3178.13936576
3178.08170631
3178.07963025
3178.13311944
3178.23756191
3178.38297021
3178.55364357
3178.73030265
3178.89381995
3179.02811755
3179.12086299
3179.16424567
3179.14265865
3179.12571016
3179.0487122
3178.92468883
3178.77218333
3178.60582506
3178.4426827
3178.30106056
3178.19750569
3178.14223928
3178.13979715
3178.19023372
3178.28930511
3178.42724024
3178.5879072
3178.75287881
3178.90474258
3179.02846346
3179.10497988
3179.12089524
3179.05111546
3179.05050177
3178.96947528
3178.82419846
3178.64258607
3178.44381997
3178.25009345
3178.08711088
3177.97299648
3177.91344674
3177.91029273
3177.96384767
3178.0728439
3178.23194057
3178.42329094
3178.62105217
3178.80266944
3178.94841258
3179.0293875
3179.02871308
3178.91847238
3178.92867063
3178.82625778
3178.63098179
3178.3840197
3178.10397664
3177.83243053
3177.63124988
3177.50801772
3177.4431433
3177.44014405
3177.49956152
3177.63560054
3177.8510136
3178.09838227
3178.35969924
3178.60738413
3178.80405459
3178.90694271
3178.89534575
3178.75657961
3178.77865064
3178.64702757
3178.38634635
3178.02999725
3177.61698015
3177.25970284
3177.02958776
3176.90040455
3176.83411757
3176.83476815
3176.90330583
3177.07958243
3177.37665272
3177.71848599
3178.04527738
3178.36075
3178.62353904
3178.75622397
3178.73274199
3178.5810279
3178.61491569
3178.45077108
3178.10855947
3177.595426
3177.05729994
3176.63537021
3176.37489435
3176.24298904
3176.18311022
3176.19242084
3176.27081366
3176.4785984
3176.85071151
3177.31260321
3177.74259514
3178.10018789
3178.42610807
3178.59178014
3178.55658842
3178.41051036
3178.45450539
3178.25982248
3177.82050955
3177.17186467
3176.56826287
3176.08645903
3175.80179745
3175.67387503
3175.62427311
3175.64363199
3175.72939628
3175.95405333
3176.36903678
3176.91821795
3177.46770648
3177.87077445
3178.23443921
3178.43075694
3178.38563809
3178.26446485
3178.31584184
3178.09934767
3177.5798888
3176.86992352
3176.22967391
3175.71492628
3175.43630237
3175.32593114
3175.28600373
3175.31139067
3175.40138403
3175.62252939
3176.037792
3176.62324726
3177.24111275
3177.69250935
3178.07368814
3178.29149908
3178.23905458
3178.15844608
3178.21498211
3177.98835117
3177.44371148
3176.70832953
3176.05186805
3175.5313331
3175.26325035
3175.16219438
3175.12884603
3175.15742577
3175.24284787
3175.45864101
3175.86521361
3176.45727113
3177.09482433
3177.57021392
3177.96148039
3178.18997012
3178.13243914
3178.1023787
3178.16157664
3177.93104187
3177.38114025
3176.63920494
3175.97989239
3175.46020857
3175.19522456
3175.10049243
3175.06919266
3175.09587419
3175.18224252
3175.39156408
3175.79520627
3176.38546123
3177.02468016
3177.50578335
3177.90338674
3178.13583992
3178.0756704
3178.10103266
3178.16014812
3177.92931879
3177.37932086
3176.63737632
3175.9778831
3175.45770794
3175.19112505
3175.09597794
3175.06453345
3175.09134493
3175.17777335
3175.38709506
3175.79110943
3176.38181621
3177.02131714
3177.50310343
3177.90112579
3178.13367693
3178.07350205
3178.15445514
3178.21073848
3177.98335133
3177.43870096
3176.70256026
3176.04406623
3175.52164761
3175.25124992
3175.14925117
3175.11540611
3175.1444711
3175.23017622
3175.44607925
3175.85310082
3176.44624237
3177.08471141
3177.56220338
3177.9548463
3178.18359111
3178.12605432
3178.25803613
3178.30904286
3178.09171582
3177.57445343
3176.85948374
3176.21545704
3175.69832524
3175.4163448
3175.30462434
3175.26482945
3175.29064984
3175.38139655
3175.60333257
3176.02010526
3176.60631488
3177.22533296
3177.67985322
3178.06308298
3178.28132508
3178.22884905
3178.40194727
3178.44540541
3178.2491241
3177.80734665
3177.15545091
3176.54730762
3176.06266039
3175.77529628
3175.6464392
3175.59870479
3175.61829256
3175.70497264
3175.93106862
3176.34580789
3176.89644568
3177.44824852
3177.85526922
3178.2205563
3178.41740799
3178.37222518
3178.57078621
3178.60409008
3178.43820633
3178.09302017
3177.57599195
3177.03273113
3176.60661384
3176.3435669
3176.21097931
3176.15290777
3176.16362304
3176.24362359
3176.45254126
3176.82504107
3177.2887218
3177.72174922
3178.08257702
3178.40980601
3178.57604486
3178.54072921
3178.74516311
3178.76670824
3178.63350628
3178.37040338
3178.0108016
3177.5932837
3177.23112481
3176.99771181
3176.86836782
3176.80340095
3176.8055967
3176.87599577
3177.0531923
3177.35117926
3177.69494777
3178.02437197
3178.34178042
3178.60576662
3178.73895216
3178.71529043
3178.9063019
3178.91613289
3178.81254167
3178.61535935
3178.36615585
3178.08377491
3177.80922995
3177.60339778
3177.48138382
3177.41710646
3177.4146418
3177.47460872
3177.60980917
3177.82708685
3178.07614606
3178.33905987
3178.58797938
3178.78566834
3178.88890944
3178.87707083
3179.03852215
3179.03773243
3178.95600516
3178.80948027
3178.62629524
3178.42579405
3178.23050766
3178.0661176
3177.95141332
3177.89135968
3177.88794212
3177.94141602
3178.05042234
3178.21008192
3178.40218502
3178.60092745
3178.78347771
3178.92994964
3179.01115673
3179.01018051
3179.12980226
3179.11283798
3179.03549805
3178.91070017
3178.75712247
3178.58951131
3178.4250844
3178.2823587
3178.17793297
3178.12195139
3178.11899406
3178.16915235
3178.26814117
3178.40631476
3178.56747635
3178.73313023
3178.88569777
3179.00999353
3179.0867584
3179.10240061
3179.1723148
3179.12821966
3179.0343819
3178.89861546
3178.73311653
3178.55373607
3178.3793561
3178.22930098
3178.11983608
3178.06136062
3178.05865781
3178.1117621
3178.2160683
3178.3616652
3178.53278502
3178.71009826
3178.87432629
3179.00923068
3179.10235923
3179.14573766
2689.91342325
2689.86960843
2689.77950487
2689.64868934
2689.48657727
2689.30717424
2689.12898099
2688.97238675
2688.85762945
2688.79696894
2688.79501024
2688.85152498
2688.96141958
2689.11334369
2689.28919348
2689.46735561
2689.62873606
2689.75892185
2689.84826198
2689.89130218
2689.87106502
2689.84830133
2689.77335624
2689.65414442
2689.50360024
2689.33340607
2689.16186793
2689.00958742
2688.89845079
2688.84003146
2688.8375872
2688.89085817
2688.99683092
2689.14460083
2689.31343548
2689.48249474
2689.63273311
2689.75194298
2689.8265905
2689.84846657
2689.78283513
2689.77495573
2689.69588309
2689.55251113
2689.36417059
2689.13640801
2688.90579744
2688.73180257
2688.61798298
2688.55729296
2688.55475819
2688.61051033
2688.73687173
2688.92519679
2689.13112387
2689.33998132
2689.52897103
2689.67354534
2689.7530311
2689.75980817
2689.65414165
2689.65757888
2689.55418059
2689.34811041
2689.02794333
2688.66117467
2688.33883985
2688.12682192
2688.00908382
2687.95222518
2687.95541936
2688.01888123
2688.18342795
2688.45630552
2688.77798778
2689.07494243
2689.3226538
2689.53045985
2689.63521137
2689.63062413
2689.4941643
2689.50898242
2689.36775301
2689.028529
2688.51316805
2687.99339737
2687.5648249
2687.30306658
2687.1905703
2687.15211017
2687.17085938
2687.2464161
2687.44440638
2687.81106586
2688.28619005
2688.74432311
2689.07718473
2689.34241532
2689.48616142
2689.47021477
2689.3166542
2689.34079861
2689.14208841
2688.60618628
2687.93729227
2687.28013348
2686.74601986
2686.44910001
2686.35928947
2686.34759633
2686.38658044
2686.47662793
2686.69331739
2687.12507302
2687.71388003
2688.34372775
2688.83717205
2689.13394419
2689.31753389
2689.29248534
2689.1398262
2689.17143609
2688.89502507
2688.20356187
2687.42915175
2686.65585496
2686.08876481
2685.81734978
2685.7581782
2685.77309023
2685.83010842
2685.92954221
2686.15140532
2686.58417861
2687.21384868
2687.94777123
2688.59604137
2688.94519865
2689.14754535
2689.11605926
2688.98674919
2689.02255714
2688.68430236
2687.92786021
2687.08117889
2686.25324885
2685.70116182
2685.45383625
2685.41994646
2685.45224383
2685.51948105
2685.62096604
2685.83800939
2686.26066911
2686.88163166
2687.6652465
2688.38739354
2688.79343399
2688.99808866
2688.96263417
2688.87494312
2688.9143727
2688.55399024
2687.77457733
2686.91520718
2686.08726015
2685.54824851
2685.31580191
2685.30378989
2685.35027947
2685.42114439
2685.51370587
2685.71353398
2686.12273695
2686.73301625
2687.51564113
2688.25259592
2688.68167902
2688.88947078
2688.85045131
2688.81576044
2688.85782512
2688.49483332
2687.71280306
2686.85556801
2686.03294043
2685.5023453
2685.27404616
2685.27509417
2685.32627771
2685.39659277
2685.48446849
2685.67180304
2686.07375439
2686.67621584
2687.45308657
2688.18856537
2688.62103797
2688.8319881
2688.79056985
2688.81452475
2688.85654875
2688.49323459
2687.71088585
2686.85278721
2686.02885709
2685.4970961
2685.26764405
2685.26840531
2685.31919975
2685.3888111
2685.4766849
2685.66421611
2686.06687345
2686.67045162
2687.44865712
2688.18448082
2688.6180368
2688.82959644
2688.7882241
2688.87125383
2688.91036945
2688.54909818
2687.76838682
2686.90676643
2686.0750115
2685.53271525
2685.29761337
2685.28395229
2685.32854747
2685.39933035
2685.49159748
2685.69206123
2686.10279964
2686.71579159
2687.50133108
2688.24031129
2688.67278167
2688.88224102
2688.84352883
2688.98080359
2689.01599128
2688.675341
2687.91306446
2687.06473438
2686.23158862
2685.67499123
2685.42395863
2685.38674368
2685.41717512
2685.48452769
2685.58715725
2685.80512443
2686.22952166
2686.85429829
2687.64218961
2688.36852473
2688.77979118
2688.98672717
2688.95158744
2689.13198447
2689.16291068
2688.8831898
2688.18797565
2687.40662577
2686.62531508
2686.05294883
2685.77778496
2685.71623384
2685.73013213
2685.78709088
2685.88770669
2686.11071971
2686.54578247
2687.18021559
2687.91908961
2688.5727549
2688.92844992
2689.13270611
2689.10157251
2689.30734264
2689.33082277
2689.12912849
2688.58855482
2687.91212657
2687.24657643
2686.70542393
2686.40483435
2686.31344895
2686.30143431
2686.34089725
2686.43279333
2686.65072321
2687.08495826
2687.67776678
2688.31304646
2688.81264244
2689.11501901
2689.30017413
2689.27534916
2689.48386787
2689.49812678
2689.3546709
2689.0107531
2688.48905823
2687.96161115
2687.52661075
2687.26125183
2687.1475072
2687.108726
2687.1281916
2687.20612003
2687.40489963
2687.77299076
2688.25190533
2688.71516559
2689.05380239
2689.32228306
2689.46722871
2689.45135292
2689.64329885
2689.64636489
2689.54139453
2689.33258149
2689.00857038
2688.63521557
2688.30687803
2688.09312559
2687.97208473
2687.91523057
2687.91927225
2687.98457574
2688.15154165
2688.42457759
2688.74886484
2689.04917665
2689.30037761
2689.51016969
2689.61554744
2689.61090056
2689.77173585
2689.76372422
2689.6838033
2689.53881528
2689.34837859
2689.11842189
2688.88485134
2688.70781147
2688.59200652
2688.53064851
2688.52785635
2688.58388213
2688.71055097
2688.89923014
2689.1068633
2689.31749568
2689.50793277
2689.6536094
2689.73339239
2689.73995243
2689.85986273
2689.83713392
2689.76182
2689.64171013
2689.48988936
2689.31817759
2689.14493277
2688.99138288
2688.87897386
2688.81937501
2688.81598864
2688.86876641
2688.97442402
2689.12233764
2689.29171821
2689.46152805
2689.61254102
2689.73235535
2689.80720727
2689.82888085
2689.90235677
2689.85852007
2689.76808445
2689.63647776
2689.47318446
2689.29228538
2689.11243736
2688.95452964
2688.83870037
2688.77690137
2688.77398302
2688.82985548
2688.93942937
2689.09142996
2689.26761807
2689.44642529
2689.60849602
2689.73925
2689.82896483
2689.87211615
2200.74289177
2200.69954111
2200.61737988
2200.49800718
2200.34539941
2200.16934326
2199.98650625
2199.81764584
2199.69332063
2199.62891401
2199.62757788
2199.68899001
2199.8067668
2199.96709097
2200.1490174
2200.32448374
2200.47659985
2200.59534849
2200.67661237
2200.71901375
2200.7009112
2200.6644715
2200.5906439
2200.47991423
2200.33513367
2200.16229967
2199.97104359
2199.80069956
2199.68080976
2199.61761424
2199.61561019
2199.67435883
2199.79580977
2199.96144199
2200.13952693
2200.31186026
2200.45674961
2200.56772467
2200.64140997
2200.67717416
2200.62045021
2200.59201998
2200.51477888
2200.3830642
2200.17006858
2199.8928291
2199.63091138
2199.43063727
2199.31191582
2199.25290106
2199.25452965
2199.31681447
2199.46360301
2199.69456832
2199.96029974
2200.18497739
2200.3569967
2200.49092401
2200.56921287
2200.59701805
2200.50284157
2200.48270579
2200.38426345
2200.13945569
2199.74593198
2199.29178241
2198.90050232
2198.65359316
2198.54491664
2198.50852285
2198.52728386
2198.60159649
2198.78339292
2199.11186178
2199.52991168
2199.91378465
2200.18544706
2200.35898136
2200.46005527
2200.47975998
2200.35187217
2200.33913335
2200.17221794
2199.71272355
2199.10805836
2198.4704113
2197.9521864
2197.67312377
2197.59482662
2197.59955188
2197.64690437
2197.73748898
2197.94469517
2198.34506894
2198.89611211
2199.48342645
2199.9488994
2200.18840363
2200.31715182