/*--------------------------------*- C++ -*----------------------------------*\
| =========                 |                                                 |
| \\      /  F ield         | OpenFOAM: The Open Source CFD Toolbox           |
|  \\    /   O peration     | Version:  3.0.1                                 |
|   \\  /    A nd           | Web:      www.OpenFOAM.org                      |
|    \\/     M anipulation  |                                                 |
\*---------------------------------------------------------------------------*/
FoamFile
{
    version     2.0;
    format      ascii;
    class       volScalarField;
    location    "1.2";
    object      p_rgh;
}
// * * * * * * * * * * * * * * * * * * * * * * * * * * * * * * * * * * * * * //

dimensions      [1 -1 -2 0 0 0 0];

internalField   nonuniform List<scalar> 
7968
(
4892.41172682
4892.38443646
4892.30948671
4892.19457693
4892.05028663
4891.89257761
4891.73957942
4891.60874688
4891.51341945
4891.46253272
4891.46050936
4891.50747259
4891.59928956
4891.72721698
4891.8778921
4892.03397729
4892.17714116
4892.29098535
4892.36524483
4892.39180197
4892.38573385
4892.37820524
4892.31213049
4892.2001401
4892.05414993
4891.89047791
4891.73148081
4891.59523492
4891.49617658
4891.44342504
4891.44125882
4891.48993222
4891.58534371
4891.71862565
4891.87546081
4892.03774756
4892.18241255
4892.29356145
4892.3588435
4892.36539815
4892.31340933
4892.31419464
4892.24500476
4892.12038555
4891.95271245
4891.76516144
4891.58206667
4891.42589628
4891.31292662
4891.25294361
4891.25069718
4891.30609658
4891.41524795
4891.56839211
4891.74960393
4891.93549593
4892.1021885
4892.22615573
4892.29458915
4892.29280023
4892.20069898
4892.20520135
4892.12284697
4891.97195277
4891.76961868
4891.54243355
4891.32265007
4891.13637819
4891.00267473
4890.93215239
4890.92957875
4890.99532815
4891.12486549
4891.30807116
4891.52565654
4891.75158646
4891.95329721
4892.10372635
4892.18542264
4892.17974685
4892.0596141
4892.06133537
4891.95840783
4891.77228073
4891.52439691
4891.25087319
4890.98754606
4890.76682475
4890.60957732
4890.52707053
4890.52430702
4890.60154623
4890.75451649
4890.97204918
4891.23359038
4891.50597341
4891.7533838
4891.93915956
4892.04143498
4892.03847348
4891.90493745
4891.90156764
4891.7741267
4891.54862142
4891.25420579
4890.93143793
4890.62539686
4890.3706821
4890.19043025
4890.0962986
4890.09341201
4890.18212533
4890.3578769
4890.60958351
4890.91381603
4891.23555388
4891.52984301
4891.75502611
4891.88235565
4891.88391802
4891.75534399
4891.74569738
4891.59419678
4891.33215312
4890.99387274
4890.62880378
4890.28467614
4890.00083987
4889.80122404
4889.69740455
4889.69450673
4889.79296461
4889.98821807
4890.26908063
4890.61170359
4890.97607164
4891.31392626
4891.57574727
4891.72654652
4891.7346703
4891.62735712
4891.61237371
4891.44090279
4891.14870096
4890.77650305
4890.37691246
4890.00398922
4889.69885078
4889.48559066
4889.37500339
4889.37218512
4889.4776986
4889.68681617
4889.98926949
4890.36085018
4890.75960943
4891.1316523
4891.42333601
4891.59408214
4891.60721317
4891.53437167
4891.51562686
4891.33023033
4891.01746962
4890.62146671
4890.19966787
4889.80698864
4889.48826505
4889.26625402
4889.15134328
4889.14863733
4889.25902236
4889.47727457
4889.79354752
4890.18475018
4890.60628934
4891.00175743
4891.31379249
4891.49809188
4891.51482812
4891.48489561
4891.46431799
4891.27181528
4890.94855244
4890.54078096
4890.10689564
4889.70491421
4889.37931906
4889.15290043
4889.03604495
4889.03371081
4889.1465121
4889.36965802
4889.69303451
4890.0939837
4890.52720286
4890.93415992
4891.25647743
4891.44762598
4891.46597247
4891.48329648
4891.46262319
4891.26995167
4890.94646468
4890.53856161
4890.10453756
4889.70259594
4889.37718577
4889.15108734
4889.03462738
4889.03269076
4889.14578307
4889.36911003
4889.69255915
4890.09348931
4890.52655941
4890.9334299
4891.25561026
4891.44663115
4891.46485723
4891.5296243
4891.51063531
4891.32475848
4891.01141521
4890.61490336
4890.19307692
4889.80028606
4889.48211169
4889.2609967
4889.14720503
4889.14554512
4889.25676285
4889.47554996
4889.79204487
4890.18313797
4890.60442105
4890.99947568
4891.31115798
4891.49510385
4891.51146663
4891.61971709
4891.60440391
4891.43214033
4891.13911697
4890.76604316
4890.36616481
4889.9937104
4889.68909176
4889.47717615
4889.36823401
4889.3669924
4889.47378632
4889.68372145
4889.98650667
4890.35796228
4890.7562136
4891.12774437
4891.41887774
4891.58905411
4891.60169911
4891.7451261
4891.73504104
4891.58275964
4891.31951015
4890.98046465
4890.61542254
4890.27108523
4889.988227
4889.79017284
4889.68828287
4889.68726576
4889.78725495
4889.98349777
4890.26474848
4890.60712014
4890.97105067
4891.30819142
4891.56946374
4891.71965385
4891.72713409
4891.89269581
4891.88907859
4891.76044007
4891.53395441
4891.23852764
4890.91551975
4890.60982402
4890.35598354
4890.17735346
4890.08518692
4890.08424641
4890.174548
4890.35133054
4890.60339518
4890.90747275
4891.22868936
4891.52238793
4891.74692191
4891.87362226
4891.87461797
4892.0457181
4892.04702125
4891.94336581
4891.75621328
4891.50763121
4891.23410623
4890.97077784
4890.75093633
4890.59518462
4890.51449434
4890.51351273
4890.59220845
4890.74606719
4890.96394102
4891.22531889
4891.49738352
4891.74424144
4891.92951732
4892.03126736
4892.02769673
4892.18571693
4892.18982746
4892.10692525
4891.9553208
4891.75224427
4891.52497315
4891.30558836
4891.11998417
4890.9875822
4890.91858836
4890.91752927
4890.98445595
4891.11475032
4891.29828823
4891.51584776
4891.74143669
4891.94277569
4892.09275926
4892.17398818
4892.16774762
4892.29756267
4892.29830035
4892.22867583
4892.1035752
4891.93547338
4891.74789913
4891.56500922
4891.40955656
4891.29754904
4891.2388326
4891.23774111
4891.29412674
4891.40388298
4891.55729524
4891.73838953
4891.92409011
4892.09044383
4892.21414607
4892.28224316
4892.27973036
4892.36964556
4892.36188549
4892.29559651
4892.18328618
4892.03708334
4891.87337105
4891.71470703
4891.57898748
4891.48076737
4891.42896298
4891.42773322
4891.47712459
4891.57296762
4891.70641196
4891.86320712
4892.02516171
4892.16981376
4892.28071182
4892.34568399
4892.35176692
4892.39545275
4892.36802877
4892.29285288
4892.17771375
4892.03321288
4891.8754952
4891.72275572
4891.59239545
4891.49773423
4891.44760912
4891.44628922
4891.49381558
4891.58594134
4891.7139877
4891.86468832
4892.0206527
4892.1636404
4892.27731304
4892.35128125
4892.37730886
4892.45687373
4892.41959386
4892.33310185
4892.2070559
4892.05277951
4891.88647789
4891.72641061
4891.58978169
4891.49027851
4891.43728961
4891.43517015
4891.48422736
4891.58007712
4891.713727
4891.87154624
4892.03616874
4892.1891853
4892.31437358
4892.39984813
4892.43649037
4892.42100392
4892.40170977
4892.32391599
4892.20185221
4892.0510663
4891.88802066
4891.73031314
4891.59515701
4891.49649466
4891.44363238
4891.44140303
4891.48991452
4891.58472034
4891.71671829
4891.87211531
4892.0335348
4892.1833118
4892.30472226
4892.3817252
4892.39983554
4892.33674631
4892.32595284
4892.24183578
4892.10513201
4891.93645166
4891.75429647
4891.57873563
4891.42864818
4891.31924317
4891.2606478
4891.25810612
4891.3118594
4891.41702583
4891.56381455
4891.73711136
4891.91787313
4892.08579897
4892.22204157
4892.30566926
4892.31527969
4892.21333585
4892.20644256
4892.10775109
4891.94451383
4891.74440224
4891.53030316
4891.32551067
4891.15125283
4891.02451674
4890.95665144
4890.95379084
4891.01612797
4891.13818676
4891.3090226
4891.51169413
4891.72468158
4891.92428399
4892.08737284
4892.18570985
4892.19146659
4892.06215903
4892.05908986
4891.94209657
4891.74749308
4891.51177185
4891.26211354
4891.026114
4890.82596055
4890.68077686
4890.60309735
4890.59996753
4890.67143874
4890.81152862
4891.0081412
4891.24225113
4891.49097292
4891.72654307
4891.92123189
4892.03797649
4892.03986364
4891.89933405
4891.8989726
4891.76319431
4891.53655822
4891.26531378
4890.9819263
4890.71425297
4890.48835586
4890.32504581
4890.23782353
4890.23440156
4890.31520961
4890.4730167
4890.69532497
4890.96113247
4891.24409482
4891.51516398
4891.7423049
4891.87773234
4891.87670197
4891.7421435
4891.74464166
4891.59079664
4891.3350361
4891.03261488
4890.71755871
4890.42121312
4890.17222144
4889.99285288
4889.89703159
4889.89346707
4889.98262525
4890.15666582
4890.40192587
4890.69655171
4891.01102528
4891.31387932
4891.56980596
4891.72377478
4891.71972652
4891.60859447
4891.6122874
4891.44381877
4891.16377242
4890.83569917
4890.49493763
4890.17560125
4889.90732395
4889.71450831
4889.61188309
4889.60815578
4889.70427695
4889.89170373
4890.15668015
4890.47420759
4890.81460164
4891.14284596
4891.4234057
4891.59153853
4891.58626874
4891.51129929
4891.5160799
4891.33693099
4891.03989962
4890.69343108
4890.33478536
4889.99953831
4889.7176962
4889.51613874
4889.40870814
4889.40414088
4889.50633615
4889.70267432
4889.98084277
4890.31484029
4890.67300162
4891.01967978
4891.3168579
4891.49586514
4891.48931165
4891.45978163
4891.46486006
4891.28012448
4890.97386126
4890.61818825
4890.2500105
4889.90612065
4889.61709465
4889.41008412
4889.30044676
4889.29710952
4889.40035633
4889.60261844
4889.88817368
4890.23067156
4890.5985017
4890.95444515
4891.26071968
4891.44495224
4891.43803474
4891.458212
4891.46321712
4891.27827679
4890.97180389
4890.61584829
4890.24747978
4889.90361468
4889.61475598
4889.40801471
4889.29874497
4889.29573815
4889.39929809
4889.60159263
4889.88721401
4890.22973111
4890.597535
4890.9533715
4891.25953839
4891.44367877
4891.43670869
4891.50671084
4891.51123974
4891.33158986
4891.03391888
4890.68674158
4890.32754711
4889.99230965
4889.71102177
4889.51016299
4889.40381593
4889.40001125
4889.5027717
4889.69953541
4889.97792548
4890.31196443
4890.67000378
4891.01641456
4891.31334356
4891.49204867
4891.48519986
4891.60099954
4891.60449567
4891.43540289
4891.15436076
4890.8252069
4890.48369517
4890.16422783
4889.89653859
4889.70488512
4889.60362946
4889.60119677
4889.69838979
4889.88643796
4890.1518564
4890.46938292
4890.80955832
4891.13740786
4891.4175649
4891.58533689
4891.57949155
4891.73226455
4891.73423584
4891.57950684
4891.32265351
4891.01901586
4890.703106
4890.40667168
4890.15832287
4889.98014471
4889.88593391
4889.88392387
4889.97436505
4890.14943617
4890.39502956
4890.68971467
4891.00387234
4891.30636829
4891.56181951
4891.7152441
4891.71073597
4891.88716906
4891.88652482
4891.75000029
4891.52196782
4891.24956624
4890.96537596
4890.69755655
4890.4722611
4890.31014839
4890.22447718
4890.22269289
4890.30492359
4890.46360999
4890.68645577
4890.9522201
4891.2350297
4891.50562399
4891.73249661
4891.86742651
4891.86576641
4892.04869035
4892.04506397
4891.92732052
4891.73163274
4891.49486276
4891.2444251
4891.00832567
4890.80870406
4890.664599
4890.58833642
4890.58667138
4890.6593497
4890.80035545
4890.99731791
4891.23162955
4891.48001945
4891.71541593
4891.90977315
4892.02622218
4892.02743038
4892.19887112
4892.1916235
4892.09221445
4891.92810374
4891.72719184
4891.51248996
4891.30752872
4891.13364657
4891.00781992
4890.94108253
4890.93939405
4891.00273771
4891.12545253
4891.29676215
4891.49942809
4891.71234208
4891.91181232
4892.07473241
4892.17277529
4892.17795371
4892.32146319
4892.31054623
4892.22596648
4892.08865088
4891.91940184
4891.73682916
4891.56118183
4891.41138979
4891.30264332
4891.24492052
4891.24320306
4891.29766454
4891.40333366
4891.55036805
4891.72376314
4891.90453623
4892.07240258
4892.20855979
4892.29201866
4892.30097768
4892.40527729
4892.38595029
4892.30791057
4892.18545884
4892.0343062
4891.87099301
4891.71323481
4891.57829824
4891.48008782
4891.42780703
4891.42614641
4891.47512505
4891.57024217
4891.70240826
4891.85790935
4892.01939644
4892.16919321
4892.29051052
4892.36740776
4892.38516469
4892.44116235
4892.40363746
4892.31704199
4892.19072993
4892.03606501
4891.86949801
4891.70932161
4891.57280773
4891.47357756
4891.42096188
4891.41929727
4891.46858677
4891.5646528
4891.69844374
4891.85636143
4892.02108983
4892.17419709
4892.29940179
4892.38485535
4892.42101359
4892.60255958
4892.55985709
4892.46773772
4892.33470321
4892.17359073
4892.00046403
4891.83416335
4891.69147141
4891.58800997
4891.53275716
4891.5306745
4891.58175747
4891.6815595
4891.82078637
4891.9851192
4892.15663436
4892.3166199
4892.44882191
4892.54032211
4892.5817732
4892.56117401
4892.54276098
4892.46308521
4892.33747839
4892.18491814
4892.02083689
4891.86210134
4891.72571562
4891.62601501
4891.57258755
4891.57025619
4891.61914383
4891.71475859
4891.84782659
4892.00418027
4892.16672526
4892.31840401
4892.44347382
4892.5227482
4892.5400426
4892.47122415
4892.46499848
4892.37912952
4892.23539679
4892.06131814
4891.87506566
4891.69618843
4891.54424806
4891.43467619
4891.37629381
4891.37351231
4891.42654846
4891.53150269
4891.67992521
4891.85651044
4892.04153558
4892.2151447
4892.35882732
4892.44446298
4892.44947233
4892.3409021
4892.34185305
4892.23777282
4892.05747927
4891.84027492
4891.61012101
4891.39152297
4891.20909972
4891.08109136
4891.01385931
4891.01051811
4891.07139688
4891.19409903
4891.37280108
4891.58927373
4891.81858436
4892.03584084
4892.21660623
4892.32071187
4892.31838577
4892.18298751
4892.19216434
4892.06649097
4891.84306446
4891.57410931
4891.28959862
4891.0257904
4890.79436392
4890.63954523
4890.56503795
4890.56681962
4890.62677572
4890.77480794
4891.00272721
4891.26672249
4891.55065355
4891.82004077
4892.04445165
4892.17043244
4892.15975313
4892.01257287
4892.03111276
4891.88323331
4891.61580118
4891.2924674
4890.9389094
4890.55002485
4890.21671467
4890.02924998
4889.95653818
4889.95372202
4890.02287365
4890.19722139
4890.52644516
4890.91450748
4891.26787478
4891.59176808
4891.86042037
4892.00888003
4891.98907193
4891.84888821
4891.87542249
4891.70738177
4891.39993868
4891.03084562
4890.55581293
4889.9851632
4889.53987261
4889.32566506
4889.24849576
4889.2443594
4889.31356167
4889.52829309
4889.96284928
4890.52833366
4891.00579958
4891.37559367
4891.68414141
4891.85286457
4891.82501398
4891.70938725
4891.74199153
4891.55834529
4891.22006199
4890.80792573
4890.22091554
4889.54451164
4889.04452401
4888.81240224
4888.73553733
4888.73505511
4888.79774916
4889.02435638
4889.52888319
4890.19966682
4890.77625387
4891.19606936
4891.53494347
4891.71922122
4891.68521363
4891.60823826
4891.64483958
4891.45153431
4891.09520362
4890.64970047
4890.04714555
4889.34063789
4888.81528165
4888.60839337
4888.51159157
4888.45213337
4888.619671
4888.80500538
4889.31165473
4890.02102107
4890.63253214
4891.07083815
4891.42789808
4891.62186281
4891.58380611
4891.55465543
4891.59315337
4891.39510542
4891.03001223
4890.59584303
4889.98417078
4889.27320652
4888.73389013
4888.46497033
4888.37296457
4888.38591541
4888.43809677
4888.71324738
4889.22676078
4889.94368225
4890.55818578
4891.00601935
4891.37144047
4891.56999663
4891.52993516
4891.55320318
4891.59161421
4891.39334803
4891.02796499
4890.59165809
4889.97827365
4889.26934665
4888.73281249
4888.46388238
4888.37182042
4888.38448879
4888.43787097
4888.71395135
4889.2251793
4889.94209341
4890.55735738
4891.00433384
4891.36975343
4891.56827569
4891.52814808
4891.60394631
4891.64030227
4891.44641193
4891.08935403
4890.64230598
4890.03730926
4889.33193951
4888.80826973
4888.60190216
4888.51354973
4888.44669227
4888.61203203
4888.79868881
4889.3056867
4890.01532401
4890.6275423
4891.06580295
4891.42289085
4891.61677434
4891.57852551
4891.70247452
4891.73469946
4891.55025566
4891.21122681
4890.79607352
4890.20829401
4889.53036319
4889.03039855
4888.80095188
4888.72518361
4888.72564221
4888.78885699
4889.01469152
4889.51962985
4890.19160661
4890.76809264
4891.18786421
4891.52683803
4891.71102465
4891.67672952
4891.83965111
4891.86568051
4891.69648586
4891.38752824
4891.01694374
4890.54099747
4889.96733071
4889.52310106
4889.3078181
4889.23307376
4889.23031742
4889.29972658
4889.51569849
4889.95171851
4890.51688627
4890.99540777
4891.36459514
4891.67331951
4891.84197298
4891.81373637
4892.00145365
4892.01944672
4891.87030136
4891.60114566
4891.27593839
4890.9211123
4890.53110066
4890.19761373
4890.01079104
4889.93723846
4889.93671031
4890.00665696
4890.18302516
4890.51223615
4890.90137761
4891.25435051
4891.57851987
4891.84741597
4891.99584266
4891.97564162
4892.17023588
4892.17918075
4892.05235544
4891.82731471
4891.55664344
4891.27063833
4891.00581508
4890.77435107
4890.62009153
4890.54631985
4890.54853382
4890.60973532
4890.7580407
4890.98700481
4891.25108482
4891.53539351
4891.8051735
4892.02990222
4892.15587568
4892.14482438
4892.32747283
4892.32805178
4892.22308973
4892.04151394
4891.82291554
4891.59148244
4891.37187448
4891.18870151
4891.06101884
4890.9942304
4890.99150159
4891.05306572
4891.17619632
4891.35560498
4891.57259909
4891.80235184
4892.02003993
4892.20113737
4892.30522012
4892.3025321
4892.45722101
4892.45077294
4892.36434301
4892.21973116
4892.0446489
4891.85741636
4891.67773658
4891.5252815
4891.4156858
4891.35747651
4891.35499807
4891.40838241
4891.5136317
4891.66244801
4891.8394326
4892.02487679
4892.19888326
4892.34285619
4892.42846887
4892.43307972
4892.54684243
4892.5282839
4892.44832198
4892.32216154
4892.1689063
4892.00409257
4891.84470415
4891.70786006
4891.60793623
4891.55443686
4891.55213515
4891.6011237
4891.69686502
4891.83015224
4891.98680636
4892.14972562
4892.30176919
4892.42713301
4892.50642578
4892.52337712
4892.58788137
4892.54549224
4892.45286461
4892.31937241
4892.15773007
4891.98381289
4891.8169167
4891.67356115
4891.56977069
4891.51432501
4891.51203343
4891.563079
4891.66292225
4891.8023308
4891.96694801
4892.13886561
4892.29928567
4892.43183622
4892.52378023
4892.56473101
4892.85404147
4892.8010065
4892.70746916
4892.57240542
4892.40791646
4892.22981902
4892.05672889
4891.90774547
4891.79921609
4891.74155503
4891.73948107
4891.79296147
4891.89740416
4892.04281487
4892.21349486
4892.39015265
4892.55366999
4892.68810827
4892.78099412
4892.83210574
4892.8025087
4892.78556017
4892.70856847
4892.58453927
4892.43203624
4892.26568732
4892.10253287
4891.96091131
4891.85735638
4891.80208298
4891.79964472
4891.85008353
4891.94914916
4892.08709216
4892.24773841
4892.41272739
4892.5645942
4892.68831355
4892.76559182
4892.78111739
4892.71096546
4892.71035999
4892.62932528
4892.48405096
4892.302428
4892.10367007
4891.90994949
4891.74696477
4891.63284682
4891.57329688
4891.57014273
4891.62369787
4891.73269391
4891.89179081
4892.08314094
4892.28086479
4892.46252172
4892.60826502
4892.68929938
4892.68916963
4892.57832684
4892.58852063
4892.48610347
4892.2908022
4892.04386415
4891.75353779
4891.39289827
4891.07553179
4890.90906187
4890.84332501
4890.83861075
4890.89554487
4891.05246992
4891.36831061
4891.72850357
4892.01954903
4892.267246
4892.46390777
4892.56679407
4892.55543166
4892.41643081
4892.43850019
4892.30686044
4892.04619643
4891.64343572
4890.96217161
4890.15793381
4889.58183184
4889.35198491
4889.28788372
4889.28310671
4889.33627195
4889.55930153
4890.13299051
4890.93593008
4891.61679072
4892.02061262
4892.28339834
4892.41607773
4892.39266824
4892.24087826
4892.27474643
4892.11062109
4891.75731744
4890.96412978
4889.69868157
4888.46565701
4887.73766886
4887.48428095
4887.42136911
4887.41518738
4887.46461015
4887.71058266
4888.44257414
4889.67634874
4890.93775596
4891.7300828
4892.08596335
4892.25161139
4892.21643803
4892.07035654
4892.11435586
4891.91967251
4891.39421134
4890.15806626
4888.4626812
4887.09202768
4886.35968507
4886.126426
4886.06301632
4886.05332985
4886.10526982
4886.33196864
4887.06755126
4888.44775081
4890.13623403
4891.36757824
4891.89428921
4892.09060828
4892.04548132
4891.92431446
4891.97568597
4891.75919727
4891.07485979
4889.58169929
4887.72941647
4886.35718743
4885.28733735
4884.8857085
4884.82606276
4884.81553954
4884.86220874
4885.20736598
4886.33605919
4887.71904179
4889.56355879
4891.05226018
4891.73353747
4891.95131886
4891.89890047
4891.81829555
4891.87482876
4891.64820117
4890.91961248
4889.35443366
4887.48093187
4886.12485081
4884.91163502
4884.585852
4884.52166682
4884.47296259
4884.55707486
4884.83821981
4886.1036239
4887.46760614
4889.33671041
4890.89131607
4891.62133039
4891.84981591
4891.79226606
4891.76222356
4891.82142664
4891.59089187
4890.85650189
4889.29516966
4887.42455242
4886.06878054
4884.85272648
4884.5036903
4884.51700879
4884.4679923
4884.45759851
4884.79524815
4886.03883021
4887.40804118
4889.2752136
4890.8268046
4891.56323674
4891.79568145
4891.73550502
4891.76088261
4891.81999812
4891.58916879
4890.85405799
4889.29269149
4887.42119077
4886.06103632
4884.84112499
4884.48063722
4884.46833514
4884.46098603
4884.45040135
4884.78257963
4886.0335879
4887.40491069
4889.272731
4890.82468179
4891.56097579
4891.79352203
4891.73335141
4891.81430514
4891.87058848
4891.64320133
4890.91412701
4889.34719575
4887.47146334
4886.11336671
4884.89419489
4884.57747834
4884.50198651
4884.4437778
4884.53278548
4884.81803277
4886.09294454
4887.45826188
4889.32913342
4890.88444539
4891.6146963
4891.84343957
4891.78588505
4891.91788613
4891.96889286
4891.75156582
4891.06916259
4889.57030837
4887.71602625
4886.33834925
4885.2555396
4884.86109533
4884.81993633
4884.79329569
4884.83108191
4885.17321146
4886.31718199
4887.70619734
4889.5514359
4891.04045316
4891.72293249
4891.9411537
4891.88869745
4892.06179727
4892.10525541
4891.90897412
4891.38185599
4890.14265851
4888.44551419
4887.07082759
4886.3357548
4886.10170093
4886.0341091
4886.0274661
4886.08179851
4886.30855642
4887.04950372
4888.43091835
4890.12041601
4891.3521367
4891.8804063
4892.07725875
4892.03207083
4892.23063674
4892.263945
4892.09805633
4891.74262625
4890.94653091
4889.67832625
4888.44395074
4887.71412045
4887.46002681
4887.39780316
4887.39171284
4887.44120755
4887.68910255
4888.42190651
4889.65682905
4890.91919169
4891.7122099
4892.06965601
4892.23587288
4892.20057906
4892.40501497
4892.42656162
4892.29334563
4892.03025338
4891.62553583
4890.9415421
4890.1358658
4889.55771351
4889.3276745
4889.26383946
4889.25929124
4889.31287262
4889.53617434
4890.11098566
4890.91485994
4891.59644384
4892.00163171
4892.26561076
4892.3988057
4892.37534336
4892.56615439
4892.57598546
4892.47239555
4892.27517544
4892.02600572
4891.73496408
4891.37297004
4891.05010448
4890.88501883
4890.82015185
4890.81557102
4890.87250893
4891.02757586
4891.34671295
4891.7076357
4891.99891108
4892.24783386
4892.44551991
4892.54876016
4892.53718784
4892.69841684
4892.69758917
4892.61585949
4892.46933682
4892.28614685
4892.08564719
4891.89036276
4891.7259701
4891.61126345
4891.55120968
4891.54779211
4891.60126602
4891.71027234
4891.86993197
4892.06203478
4892.26071601
4892.44332785
4892.5898008
4892.67107066
4892.67068133
4892.78965909
4892.77268807
4892.69535801
4892.57055274
4892.41697717
4892.2493646
4892.08494219
4891.94220876
4891.83778336
4891.78179363
4891.77881389
4891.82899568
4891.92799162
4892.06616471
4892.2273
4892.39297951
4892.54555086
4892.66984359
4892.74740694
4892.76262253
4892.83992665
4892.78806967
4892.6942319
4892.55846769
4892.39296765
4892.21387043
4892.03932059
4891.88931776
4891.77968613
4891.72121082
4891.71850089
4891.77160415
4891.87591599
4892.0215145
4892.19263676
4892.36994826
4892.5341764
4892.66919519
4892.76246505
4892.8132257
4893.19418039
4893.14655865
4893.05645487
4892.92563989
4892.76352744
4892.58412663
4892.40593124
4892.24933944
4892.13457951
4892.07391921
4892.07196075
4892.12847652
4892.23836966
4892.39029369
4892.56614348
4892.74430508
4892.90568629
4893.03587197
4893.12521396
4893.17654349
4893.14801516
4893.12525146
4893.05030625
4892.93109717
4892.78055296
4892.61035941
4892.43882518
4892.28653926
4892.1754019
4892.11698173
4892.11453791
4892.16780895
4892.27378233
4892.42155092
4892.59038977
4892.75937856
4892.9096832
4893.02889366
4893.10361198
4893.12541657
4893.05978513
4893.05190573
4892.97283335
4892.82946196
4892.64112416
4892.41102541
4892.02221845
4891.68696993
4891.51435485
4891.45403233
4891.44770348
4891.50117089
4891.66823497
4892.00141387
4892.38721311
4892.61693278
4892.80592584
4892.95049566
4893.02998112
4893.03681025
4892.93109165
4892.93452888
4892.83113059
4892.62585095
4892.15279859
4891.2444966
4890.23982234
4889.57696879
4889.33051878
4889.27204861
4889.26622516
4889.31363798
4889.55315593
4890.21578238
4891.21816684
4892.12402031
4892.5992697
4892.80741618
4892.91216214
4892.90798129
4892.7711175
4892.78593282
4892.64469667
4892.15168232
4890.84395744
4889.01919727
4887.48142352
4886.60937105
4886.33362168
4886.27817302
4886.27035638
4886.30992795
4886.57923378
4887.4619378
4889.00595887
4890.82013948
4892.12145546
4892.61937129
4892.76311606
4892.74716599
4892.59360423
4892.61775673
4892.40758063
4891.244454
4889.01207482
4886.65381452
4884.8900165
4883.83901472
4883.44143909
4883.40356132
4883.39467305
4883.40868826
4883.77556601
4884.87805104
4886.67478993
4889.01538212
4891.21994252
4892.37848148
4892.59449607
4892.56943588
4892.4167762
4892.44838612
4892.03038668
4890.23595386
4887.44989038
4884.84462709
4882.44327226
4881.1360303
4880.58374068
4880.53983765
4880.57181972
4880.4887207
4880.98697263
4882.46410474
4884.91782465
4887.49622988
4890.22606784
4892.00245147
4892.42449546
4892.39300803
4892.26367129
4892.29950715
4891.69324824
4889.57189172
4886.55808856
4883.77410456
4881.07202205
4880.27958062
4880.22020676
4880.17908132
4880.17289761
4880.20109338
4880.2533926
4881.00616305
4883.89672729
4886.62948481
4889.56756547
4891.66596745
4892.27503865
4892.23954062
4892.15189316
4892.19132271
4891.52458286
4889.3239758
4886.27990361
4883.37102764
4880.60849261
4880.22016507
4880.18172342
4880.15188991
4880.14646101
4880.16286891
4880.19396357
4880.50776017
4883.51306097
4886.35653339
4889.32446687
4891.49596999
4892.16642069
4892.12738496
4892.09271044
4892.13477512
4891.46470451
4889.26929944
4886.2317626
4883.32421106
4880.57745644
4880.18041021
4880.15516826
4880.13004026
4880.12402716
4880.13571804
4880.15439215
4880.5427038
4883.4912072
4886.30538616
4889.26818364
4891.43672898
4892.1089381
4892.06751985
4892.09147475
4892.13349875
4891.46312718
4889.26689732
4886.22997331
4883.3502985
4880.62703361
4880.17591325
4880.15058095
4880.12508787
4880.11841994
4880.1301023
4880.14909251
4880.54477866
4883.49435707
4886.30225758
4889.26499419
4891.43246262
4892.10654644
4892.0651741
4892.14820385
4892.18731945
4891.52015344
4889.31671123
4886.27359931
4883.3660634
4880.61125446
4880.20787986
4880.16826532
4880.13658796
4880.13109214
4880.14730113
4880.17918673
4880.48379681
4883.50587176
4886.34681412
4889.31543549
4891.48760884
4892.15919102
4892.12047769
4892.25775812
4892.2929416
4891.68468882
4889.55667486
4886.54562163
4883.76829652
4881.10506176
4880.26011499
4880.19813685
4880.15493727
4880.14869922
4880.17784275
4880.23102651
4881.05218063
4883.89987757
4886.61319892
4889.55368737
4891.65369457
4892.2636774
4892.22849079
4892.40893536
4892.43987005
4892.01827539
4890.22089911
4887.43196508
4884.82679583
4882.46501049
4881.15409573
4880.58060898
4880.60777646
4880.58884225
4880.48422958
4881.03090025
4882.43597258
4884.89328936
4887.47484937
4890.20768959
4891.98699347
4892.40965633
4892.37852137
4892.58429673
4892.60777723
4892.39653419
4891.22851746
4888.99219609
4886.62860636
4884.8611457
4883.82167918
4883.40453332
4883.38908229
4883.38316264
4883.38481626
4883.75869863
4884.84883328
4886.648189
4888.9915137
4891.1989187
4892.36044754
4892.57713435
4892.55229916
4892.76082068
4892.77508201
4892.63162473
4892.13623142
4890.82369141
4888.9954703
4887.45346566
4886.58050833
4886.30355568
4886.24704937
4886.23931851
4886.27990215
4886.55011633
4887.43375232
4888.97911919
4890.79531249
4892.10014523
4892.59923864
4892.74418151
4892.72830351
4892.92024904
4892.92332162
4892.81835111
4892.6103415
4892.13349569
4891.22221441
4890.21573775
4889.55423609
4889.30427701
4889.24421363
4889.23803538
4889.28590751
4889.52759004
4890.18828848
4891.19158148
4892.10042947
4892.57698414
4892.78712004
4892.89249783
4892.88829458
4893.0486912
4893.04067427
4892.96076182
4892.81577144
4892.62533744
4892.38816386
4892.00174258
4891.66753236
4891.49139135
4891.42787319
4891.42249082
4891.47502773
4891.64395077
4891.97441249
4892.35928155
4892.59444545
4892.78488417
4892.93055946
4893.01034239
4893.01692899
4893.13681273
4893.11408704
4893.03877005
4892.91866472
4892.76684308
4892.59514588
4892.42188795
4892.26833546
4892.15592404
4892.09632525
4892.09293872
4892.14571664
4892.25137415
4892.39928787
4892.56865612
4892.73839863
4892.88949111
4893.00930771
4893.08419903
4893.10583122
4893.17965765
4893.13547031
4893.04503582
4892.91342797
4892.75013815
4892.56923752
4892.38939144
4892.23148256
4892.11563269
4892.05385142
4892.05093316
4892.10680678
4892.21637949
4892.36837988
4892.54456807
4892.72337451
4892.88544678
4893.01620012
4893.10591777
4893.15588838
4893.63729781
4893.59359266
4893.51142988
4893.3920572
4893.23944986
4893.06339331
4892.88055839
4892.71169606
4892.58737199
4892.52296402
4892.5216279
4892.58304006
4892.70081739
4892.86114099
4893.0430674
4893.21853373
4893.37064986
4893.48939921
4893.5706638
4893.613492
4893.59496333
4893.55852177
4893.4846939
4893.37396465
4893.22918409
4893.05635339
4892.87045555
4892.61600624
4892.46973092
4892.43427725
4892.43710698
4892.46373875
4892.60615496
4892.85251712
4893.03357766
4893.20588298
4893.35079965
4893.46177469
4893.53546108
4893.57122486
4893.51450039
4893.48606999
4893.40882889
4893.27711537
4892.95444351
4892.20332491
4891.3986519
4890.85669784
4890.63058009
4890.57027741
4890.56609353
4890.61714306
4890.83648049
4891.37450652
4892.1761727
4892.92640366
4893.25104685
4893.38497414
4893.46326326
4893.49106809
4893.39689158
4893.37675579
4893.27831346
4892.80153409
4891.55427249
4889.85411131
4888.37687195
4887.54594075
4887.25439556
4887.19172938
4887.18443064
4887.23153504
4887.51312197
4888.35411254
4889.83493423
4891.52591537
4892.77000532
4893.25303189
4893.35410543
4893.37381082
4893.24592259
4893.23318503
4892.95173648
4891.55335204
4889.17443889
4886.7938946
4884.90850307
4883.72433758
4883.26918094
4883.2400047
4883.24268917
4883.19428468
4883.66734238
4884.87770632
4886.81934628
4889.18243239