/*--------------------------------*- C++ -*----------------------------------*\
| =========                 |                                                 |
| \\      /  F ield         | OpenFOAM: The Open Source CFD Toolbox           |
|  \\    /   O peration     | Version:  3.0.1                                 |
|   \\  /    A nd           | Web:      www.OpenFOAM.org                      |
|    \\/     M anipulation  |                                                 |
\*---------------------------------------------------------------------------*/
FoamFile
{
    version     2.0;
    format      ascii;
    class       volVectorField;
    location    "1.2";
    object      U_0;
}
// * * * * * * * * * * * * * * * * * * * * * * * * * * * * * * * * * * * * * //

dimensions      [0 1 -1 0 0 0 0];

internalField   nonuniform List<vector> 
7968
(
(0.000267178595903 0.000271643869116 -0.000559917296077)
(0.000847827433161 0.000211415610632 -0.00059246603964)
(0.00155358379114 0.000216331446372 -0.000586551290095)
(0.00213175963937 0.000286844049398 -0.000561694444591)
(0.00248696371042 0.000410746127011 -0.000538858190616)
(0.00255098173382 0.000564021796507 -0.000523565613555)
(0.00231624649815 0.000712460774874 -0.000513667662445)
(0.00181964676361 0.000837067209067 -0.000510504735933)
(0.0011367809017 0.000922060866773 -0.000511540327297)
(0.000348986344478 0.000964041571085 -0.000513730668007)
(-0.000470764322519 0.000963759013018 -0.000514477242399)
(-0.00125492806334 0.000921087628678 -0.000513719883869)
(-0.00193060886546 0.000835453768095 -0.000514023652776)
(-0.00241667952437 0.000710122455956 -0.000518478635758)
(-0.00263784374108 0.00056104451659 -0.000529432140347)
(-0.00255804207526 0.000407351637428 -0.000545488306412)
(-0.00218534242722 0.000283875780484 -0.000568636930365)
(-0.00158926442968 0.000213816304213 -0.000593326290248)
(-0.000868181980945 0.000208578032492 -0.000600342538989)
(-0.000270323553362 0.000269426491167 -0.000567427627671)
(0.000206176450285 0.00086024212082 -0.000592759994465)
(0.000803099788301 0.000818003852178 -0.000903982813723)
(0.00163865078753 0.000929362002694 -0.00103678633)
(0.00232310045849 0.00120561890374 -0.00108473044554)
(0.00274667810609 0.00161189851212 -0.00111314940943)
(0.00283084978603 0.00207883503604 -0.00113113083174)
(0.00256538749586 0.00252700386222 -0.00115226549487)
(0.00200585319599 0.00289283535097 -0.00117673988477)
(0.00124642023565 0.00314005013506 -0.001202516513)
(0.000382415601892 0.0032615990937 -0.00121984110261)
(-0.000511567760952 0.00326094656331 -0.00122068581225)
(-0.00137181083687 0.00313809757342 -0.001205237215)
(-0.002123740275 0.00288947503811 -0.00118120738941)
(-0.00267237759533 0.0025221915633 -0.00115824534522)
(-0.00292363863848 0.00207266087771 -0.00113857082637)
(-0.00282251727837 0.00160471083694 -0.00112212201428)
(-0.00238000497789 0.00119826334496 -0.00109395571972)
(-0.00167555013283 0.000922611875228 -0.0010463622011)
(-0.000821694850314 0.000813245859198 -0.000913316738886)
(-0.000208758743512 0.000860309258078 -0.000598523237548)
(0.000211579108889 0.00157830776466 -0.000590222160286)
(0.00091454647211 0.00166631949307 -0.00103724372492)
(0.00195045851305 0.00197932083089 -0.00122652062058)
(0.00280518458124 0.00254496781681 -0.00126643678551)
(0.00333310634146 0.00330352299907 -0.00124550009019)
(0.00343291283789 0.00414268565221 -0.00120268526229)
(0.00309487197966 0.00493385697882 -0.00116280700558)
(0.00239998057458 0.00557104105676 -0.00114768529947)
(0.00148099187475 0.0059980139673 -0.00115746917325)
(0.000458345349653 0.00620695693585 -0.0011720733618)
(-0.000590634765148 0.00620582692903 -0.00117307219321)
(-0.00160953657778 0.00599476518466 -0.00116010479008)
(-0.00252118607835 0.00556553781968 -0.00115226099879)
(-0.00320512434993 0.00492600909869 -0.00116910152004)
(-0.00352853916483 0.00413292207892 -0.00121117900826)
(-0.00341127871389 0.00329232909218 -0.00125485203799)
(-0.00286407747896 0.00253330311548 -0.00127655236291)
(-0.00198875330746 0.00196831730996 -0.00123728211529)
(-0.000933213385137 0.00165778145336 -0.00104654611732)
(-0.000214860260383 0.00157540674001 -0.000594349242575)
(0.000281917555914 0.00216952443278 -0.000563350480761)
(0.00119066168286 0.00236441947715 -0.00108571976736)
(0.00251597109082 0.00284762274934 -0.00126501097213)
(0.00361152414647 0.00365482672001 -0.00121315339652)
(0.00427958601874 0.00470053071523 -0.00105142081358)
(0.00438532295866 0.00583559658042 -0.000841966748342)
(0.00392095125258 0.00689056860342 -0.000653768982946)
(0.00300933965587 0.00772897503412 -0.000536332900052)
(0.00184150874812 0.00828357139705 -0.000496970829237)
(0.000575301974479 0.00855217910761 -0.000496405520548)
(-0.000710399715102 0.00855040323762 -0.000497382985873)
(-0.00197286622383 0.00827886096696 -0.000499616706991)
(-0.0031335401047 0.00772114828526 -0.00054071554445)
(-0.004034027976 0.00687963374235 -0.000660437003922)
(-0.00448338192561 0.00582206843077 -0.000850287282576)
(-0.00435965382553 0.00468526403877 -0.00106126532416)
(-0.00367152150375 0.00363920811331 -0.00122447425656)
(-0.00255464957961 0.00283307839916 -0.00127679233555)
(-0.00120872956792 0.00235283888613 -0.00109554196862)
(-0.000284913067777 0.0021639294635 -0.000566396922449)
(0.000406437323586 0.00253562979847 -0.000540449535182)
(0.00159743571823 0.00279935506268 -0.00110986165343)
(0.00327455682301 0.00338744405914 -0.00124353386085)
(0.00465739471964 0.0043354033858 -0.00104915501775)
(0.00548219079117 0.00553877516664 -0.000677669511776)
(0.00557712066567 0.00682670167262 -0.000239578512439)
(0.00494258928039 0.00800872403598 0.000149019434578)
(0.0037548633287 0.00893571396964 0.000400721145674)
(0.00227849568434 0.00954044095895 0.000501261115559)
(0.000716043900041 0.00983015121993 0.000518549719718)
(-0.000854831962363 0.0098279899077 0.00051694257299)
(-0.00241316601804 0.00953390813384 0.00049866123807)
(-0.0038825500082 0.00892514525957 0.000396308599955)
(-0.00505897826192 0.00799428177972 0.000142129413049)
(-0.00567774627034 0.00680920369074 -0.000249472504441)
(-0.00556365151325 0.00551981411523 -0.000689097344754)
(-0.00471782880184 0.00431647833488 -0.0010618491887)
(-0.00331305577801 0.00336995865129 -0.00125641526738)
(-0.00161471406674 0.00278482064449 -0.0011199364807)
(-0.000409022852704 0.00252710902624 -0.000543092780112)
(0.000559671726941 0.00260858515339 -0.000523868928145)
(0.00206510139918 0.00289253412311 -0.0011292320762)
(0.00411508060404 0.00349724173341 -0.00119943286069)
(0.00579357231969 0.0044516712675 -0.000838736754057)
(0.00677060587965 0.00564523599433 -0.000237870908189)
(0.00683758295396 0.00690599507527 0.000448847122108)
(0.00600895055151 0.00804611219346 0.00105413303857)
(0.00452158320485 0.00892608782103 0.00144138556671)
(0.00272139320511 0.00949028436068 0.00159304027764)
(0.00085756079358 0.0097575203593 0.00161839395961)
(-0.00100082447589 0.00975527025195 0.00161708772211)
(-0.00286071944503 0.00948266919897 0.00158949068642)
(-0.00465346233587 0.00891324327912 0.00143579225608)
(-0.00612889956369 0.00802904822923 0.0010451594311)
(-0.00694038026088 0.00688590678074 0.000436906788061)
(-0.00685281558041 0.00562376938891 -0.000251236024674)
(-0.00585385894061 0.00443091971935 -0.00085306160115)
(-0.00415307835347 0.00347841737078 -0.00121375984047)
(-0.00208136694821 0.00287694431288 -0.00114140142658)
(-0.000561395332121 0.00259886125142 -0.000526663116623)
(0.000708662977281 0.00238081859321 -0.00051356775689)
(0.00251456116995 0.0026346499359 -0.0011489414922)
(0.00490796494772 0.00316683402765 -0.0011578567391)
(0.0068504946108 0.00399547869601 -0.00064881139268)
(0.00795391726933 0.00501924379843 0.000154011494676)
(0.00797799694479 0.00608708901919 0.00105662650281)
(0.00695940878377 0.00703802580031 0.00183934610742)
(0.00519230746952 0.0077655995985 0.00232309873449)
(0.00310340993224 0.00822868016049 0.00249710676678)
(0.000978693303496 0.00844746301663 0.00251772845683)
(-0.00112656170055 0.00844482085612 0.00251679941321)
(-0.00324799673515 0.00822044330342 0.00249378664346)
(-0.00532905285308 0.00775231228493 0.00231531875649)
(-0.00708286334779 0.00702073556276 0.00182740831007)
(-0.00808303651277 0.00606709793764 0.00104121816255)
(-0.00803653514223 0.00499814442826 0.000137224864211)
(-0.00690983770179 0.00397536928206 -0.000665408725294)
(-0.00494480743579 0.00314890624692 -0.00117374637683)
(-0.00252988132837 0.00262010724027 -0.00116153052813)
(-0.000709790038441 0.00237162942033 -0.000517315785905)
(0.000833854523558 0.00188886609351 -0.000509425948522)
(0.00288175664548 0.00207962622287 -0.0011721839464)
(0.00554726760652 0.00247641410038 -0.00114115357333)
(0.00769107304871 0.00308840614734 -0.000528499512796)
(0.00888314111681 0.00383648918445 0.000407376740235)
(0.00885979402877 0.00460508625829 0.00144775185744)
(0.00768754276731 0.00527792469455 0.00232661879425)
(0.00570539265299 0.00579249260705 0.00284134922916)
(0.00339461784399 0.00611428579184 0.00301228378056)
(0.00107028925748 0.00626608945623 0.00302429640713)
(-0.00122340577683 0.00626440129392 0.00302283727069)
(-0.0035437886042 0.00610585086977 0.00300714515796)
(-0.00584587195333 0.00578001153479 0.00283225559728)
(-0.00781407688409 0.00526376924776 0.00231145786668)
(-0.00896631326957 0.00458900725719 0.00142887955093)
(-0.00896584265498 0.00381902530759 0.000388113281228)
(-0.00774961186877 0.0030720515817 -0.000547707831247)
(-0.00558301642323 0.00246205672682 -0.00115872374379)
(-0.00289617410513 0.00206827170044 -0.00118621697292)
(-0.0008346624611 0.00188235736948 -0.000513685042392)
(0.000919390350054 0.00120774140479 -0.000509576184638)
(0.00313035696028 0.00132159402284 -0.00119645558121)
(0.00597627308346 0.00155853143199 -0.00114900067013)
(0.00824830589712 0.00192145985351 -0.000487423123542)
(0.00949016238031 0.0023609902703 0.000511285983998)
(0.00942650911916 0.00280656520108 0.0015999353686)
(0.00815402317916 0.0031923569537 0.00250283065702)
(0.00602898941192 0.00348806117638 0.00301678461562)
(0.00357663240039 0.00367232394279 0.00316791574596)
(0.00112906566757 0.00375796111816 0.00316916290288)
(-0.00128622913159 0.00375550298585 0.00317078832333)
(-0.00373123004561 0.00366706466566 0.00315872134538)
(-0.00617084514053 0.00347966383067 0.00300279311774)
(-0.00828086305872 0.00318436022755 0.0024872705485)
(-0.00953460043769 0.00279772032041 0.0015802161643)
(-0.00957327894871 0.00235099507462 0.000488309514833)
(-0.00830585306247 0.00191193803896 -0.000508715747591)
(-0.00601107850086 0.00155040009171 -0.00116798629989)
(-0.00314403045415 0.00131592252816 -0.00121121939918)
(-0.000920013762107 0.00120610361598 -0.000514193688602)
(0.000961844429565 0.000418818652485 -0.000510697678328)
(0.00325309250409 0.000455878733431 -0.00121249156122)
(0.0061871895837 0.000533882511353 -0.00116227371701)
(0.00851912945645 0.000653300282549 -0.000485140702533)
(0.00978306298171 0.00079692032652 0.000528393083404)
(0.00969818077347 0.000942217987907 0.00162684182682)
(0.00837825171044 0.00106740642474 0.00252529349118)
(0.00618641341358 0.00116406276693 0.00303452136097)
(0.0036648221805 0.0012261997865 0.00317965118738)
(0.00115378831247 0.00125358218136 0.00316954988398)
(-0.00131406036081 0.00125151920025 0.00316492442682)
(-0.00381935389672 0.00122542481116 0.00317146904477)
(-0.00632912469941 0.0011621260249 0.00302006827098)
(-0.0085049636136 0.0010658021225 0.00251077899226)
(-0.00980644489264 0.000940672456238 0.00160773171768)
(-0.00986658005812 0.000795556725113 0.00050610286333)
(-0.00857689709503 0.000652121292918 -0.000507149800445)
(-0.00622165478842 0.000533637102353 -0.00118212549472)
(-0.00326641885714 0.000457457564408 -0.00122777404749)
(-0.000962236242293 0.000423532989393 -0.000515766498627)
(0.000962109347828 -0.000404639052022 -0.000510741399746)
(0.00325373272733 -0.000442485009779 -0.00121257868161)
(0.00618830336371 -0.000519736657277 -0.00116228992533)
(0.00852062307924 -0.000636962792071 -0.000484987149733)
(0.00978472738283 -0.000777564374562 0.000528834649325)
(0.00969981472959 -0.000919670064956 0.00162754752198)
(0.00837985584393 -0.00104157097957 0.00252590172419)
(0.00618803004731 -0.00113507003415 0.00303531348727)
(0.00366619721304 -0.00119453157186 0.00318112196753)
(0.00115448461053 -0.00122037804553 0.00317142990724)
(-0.00131428133438 -0.00121743130736 0.00316694675182)
(-0.00382049010771 -0.00119242715376 0.00317305528713)
(-0.00633051711354 -0.00113135516552 0.0030206988738)
(-0.0085062142912 -0.00103746342442 0.00251110831601)
(-0.00980758397231 -0.000914664260227 0.00160802901525)
(-0.00986765176803 -0.00077156481423 0.00050656644388)
(-0.00857789763086 -0.00062980336351 -0.000506892698137)
(-0.00622247405845 -0.000511782207335 -0.00118185407137)
(-0.00326693936915 -0.000433303942359 -0.00122768475168)
(-0.000962396907095 -0.000393329681142 -0.000515750976333)
(0.000919960123505 -0.00119423657487 -0.000509630849391)
(0.00313217064729 -0.00130897408611 -0.00119669507113)
(0.00597951814633 -0.00154529981833 -0.0011490471897)
(0.00825258174309 -0.00190625946894 -0.000486911617511)
(0.00949487189307 -0.00234306671369 0.000512330125706)
(0.00943137782982 -0.00278577542058 0.00160114158381)
(0.00815889267752 -0.00316860992796 0.00250493064453)
(0.00603317614864 -0.00346148295008 0.00301941711662)
(0.00357943673712 -0.00364398438559 0.00317105576792)
(0.00113075895137 -0.00372879491528 0.00317210344562)
(-0.00128623539197 -0.00372584290208 0.0031749772382)
(-0.00373340975242 -0.00363776488598 0.00316228620471)
(-0.00617408982849 -0.00345138493665 0.00300523130613)
(-0.00828442716024 -0.0031578892795 0.0024889173484)
(-0.00953797891239 -0.00277318777367 0.00158156063037)
(-0.00957656586524 -0.00232835716322 0.000489472541283)
(-0.00830899806926 -0.00189094351761 -0.000507701726682)
(-0.00601360944254 -0.00152982984627 -0.00116742121871)
(-0.00314557967264 -0.0012929454466 -0.00121092016233)
(-0.000920568253796 -0.00117696511845 -0.000514001107276)
(0.000834640519552 -0.00187673875348 -0.000509352162185)
(0.00288455316211 -0.00206843349195 -0.00117260455841)
(0.00555233811982 -0.00246494152283 -0.00114117297746)
(0.00769781846349 -0.00307532977738 -0.000527796427101)
(0.00889056496414 -0.00382124425657 0.000409225270971)
(0.00886728284245 -0.00458748581032 0.00145018638594)
(0.00769491283721 -0.00525795598264 0.00232930015414)
(0.0057115908707 -0.00577058486792 0.00284551202852)
(0.00339855949305 -0.00609096164995 0.00301676204231)
(0.00107228453226 -0.00624201612011 0.00302854732345)
(-0.00122350882687 -0.00624036331889 0.00302747852275)
(-0.0035463146126 -0.00608174372841 0.00301130549301)
(-0.00585008858017 -0.00575636301182 0.00283560941594)
(-0.0078190760475 -0.00524097456598 0.00231410473407)
(-0.00897147183998 -0.00456753406679 0.00143106479543)
(-0.00897113301 -0.0037992533968 0.000390237757413)
(-0.00775469938078 -0.00305366078737 -0.000546210792068)
(-0.00558705719404 -0.00244386941672 -0.0011578291435)
(-0.00289858904199 -0.00204743474377 -0.00118559555103)
(-0.000835547862967 -0.00185504845161 -0.000513132931492)
(0.000709654025625 -0.00237069245654 -0.000513794761264)
(0.00251817755783 -0.00262563020574 -0.00114944984852)
(0.00491447719551 -0.00315780325159 -0.0011582357247)
(0.00685911865469 -0.00398540627781 -0.000647785372587)
(0.00796334660559 -0.00500761733499 0.000155906947642)
(0.00798762185202 -0.0060735781423 0.00105849648877)
(0.00696854891421 -0.00702278399113 0.00184310690119)
(0.00519981345381 -0.00774919596678 0.00232764062328)
(0.003108359012 -0.00821129201438 0.00250202389529)
(0.000981087106263 -0.00842926877716 0.00252212086075)
(-0.00112655275869 -0.00842643350544 0.00252116130147)
(-0.00325057202988 -0.00820185725841 0.00249805891456)
(-0.00533358451514 -0.00773374031161 0.00231914798731)
(-0.00708859812727 -0.00700251171028 0.00183084303363)
(-0.00808962138138 -0.00604985085612 0.00104448539073)
(-0.00804361442269 -0.00498231520282 0.000139850121849)
(-0.00691664645097 -0.00396057820096 -0.000663484918877)
(-0.00495022971973 -0.0031339982538 -0.00117285290194)
(-0.00253305471082 -0.00260223328971 -0.00116101242418)
(-0.000710896283009 -0.00234684280769 -0.000516688723973)
(0.000560616189042 -0.00260022448434 -0.000524237557043)
(0.00206923346668 -0.00288536343689 -0.00113065285501)
(0.00412258133977 -0.00349063780551 -0.00120000648143)
(0.00580353095986 -0.00444474799021 -0.000838394005316)
(0.00678172759388 -0.00563745040116 -0.000236183401721)
(0.0068487773 -0.00689702606851 0.000451764761957)
(0.00601923126893 -0.00803604315951 0.00105790169843)
(0.00452995879522 -0.00891506734464 0.00144587683142)
(0.0027271839096 -0.0094785133919 0.0015978214967)
(0.000860583317187 -0.00974488874848 0.00162320353733)
(-0.0010005620305 -0.00974220279006 0.00162177086112)
(-0.00286312142343 -0.00946933714815 0.00159389070404)
(-0.00465805243128 -0.00889980552405 0.0014398934427)
(-0.00613524643974 -0.00801593038008 0.00104906471134)
(-0.00694815178314 -0.00687365116675 0.000440429046978)
(-0.00686132845355 -0.0056125442618 -0.000248414567566)
(-0.00586205354421 -0.00442034059737 -0.000851300226048)
(-0.00415961489404 -0.00346725147181 -0.00121294677469)
(-0.00208517363886 -0.0028623881135 -0.00114089892863)
(-0.000562371586315 -0.00257683856696 -0.000526236307675)
(0.000407753894377 -0.00252908162402 -0.000541054016354)
(0.0016017673141 -0.00279383144132 -0.00111099853704)
(0.00328228210492 -0.0033828739813 -0.00124484715742)
(0.00466791424847 -0.0043311014856 -0.00104926971263)
(0.00549401391352 -0.00553429099817 -0.000676612047784)
(0.00558921366305 -0.00682184512494 -0.000237897983749)
(0.00495387479311 -0.00800335044809 0.000152167440208)
(0.00376415824798 -0.0089296911664 0.000404757963716)
(0.00228512536231 -0.00953380466349 0.000505680499172)
(0.000719801694426 -0.00982286696221 0.000523166839969)
(-0.000854056297728 -0.00982019976956 0.000521648370008)
(-0.0024153058683 -0.00952577204982 0.00050314976476)
(-0.00388725184342 -0.00891687552495 0.000400588918127)
(-0.00506587937003 -0.00798631019605 0.000146127409973)
(-0.0056863961639 -0.00680178570676 -0.00024607826216)
(-0.00557314854156 -0.00551294676575 -0.000686695943409)
(-0.00472693304446 -0.00430984027077 -0.00106048823145)
(-0.00332032885986 -0.00336242485826 -0.0012559813845)
(-0.00161884927525 -0.00277378325614 -0.00111984251371)
(-0.000410303313171 -0.00250825693624 -0.000542588788263)
(0.000283573660077 -0.00216433301874 -0.000564060318626)
(0.00119524013599 -0.00236001205946 -0.00108725260227)
(0.00252385278227 -0.00284424570457 -0.00126674474866)
(0.00362233632326 -0.00365213517286 -0.0012141958401)
(0.00429185779522 -0.00469813202339 -0.00105101860834)
(0.00439782097864 -0.00583327489457 -0.000840781631827)
(0.0039327099597 -0.00688822973133 -0.000651949803785)
(0.0030192547949 -0.00772652834781 -0.000533502051066)
(0.00184881760739 -0.00828077114858 -0.00049366405496)
(0.000579711324569 -0.00854896668204 -0.000492793922655)
(-0.000709075005359 -0.00854681811495 -0.000493636717159)
(-0.00197458735827 -0.00827499109847 -0.000495950886738)
(-0.00313809073001 -0.00771708752535 -0.000537235370022)
(-0.00404103474106 -0.00687560093827 -0.000657409602991)
(-0.00449223656483 -0.00581816643634 -0.000847950205497)
(-0.00436949526507 -0.00468153106827 -0.00105964612382)
(-0.00368115221681 -0.00363545508912 -0.0012237979057)
(-0.00256265180412 -0.00282840409797 -0.00127678667213)
(-0.00121343840306 -0.00234479658526 -0.00109550149029)
(-0.00028675197872 -0.00214791360082 -0.00056565660908)
(0.000213383810977 -0.0015743153992 -0.00059051244936)
(0.000919383420015 -0.00166197777898 -0.00103921966023)
(0.00195853301351 -0.00197617050173 -0.00122865245463)
(0.00281630510838 -0.0025426589968 -0.0012680425187)
(0.00334579843085 -0.00330185078716 -0.00124608592783)
(0.00344597611665 -0.00414136266373 -0.00120275526556)
(0.00310715931754 -0.00493275800412 -0.0011618695579)
(0.0024104987539 -0.00557014290843 -0.00114625365691)
(0.00148906922602 -0.00599700687585 -0.00115551064287)
(0.000463512706502 -0.00620574849188 -0.00116986554431)
(-0.000588598338359 -0.00620438716271 -0.00117067435155)
(-0.00161060036048 -0.00599310852475 -0.00115780073123)
(-0.00252510413421 -0.00556365373168 -0.00115008916691)
(-0.00321152358131 -0.00492392600449 -0.00116728347503)
(-0.00353692118835 -0.00413075890801 -0.00120970651944)
(-0.00342084549418 -0.00329013717488 -0.001254058026)
(-0.00287368144352 -0.00253117827276 -0.00127631849785)
(-0.00199708793247 -0.00196563307491 -0.00123787715662)
(-0.000938229006676 -0.00165253724502 -0.00104712539047)
(-0.000217474724154 -0.00156348817097 -0.000592736853225)
(0.000207084499509 -0.000859471457528 -0.000595068715089)
(0.000808668123817 -0.000815167763905 -0.000906692268517)
(0.00164767719481 -0.000927059321208 -0.00103921014031)
(0.00233550081994 -0.00120374708407 -0.00108643612822)
(0.0027606652714 -0.0016104629676 -0.00111392741732)
(0.00284522184189 -0.00207762179697 -0.00113117416669)
(0.00257891361734 -0.00252597736341 -0.00115196213242)
(0.00201760687694 -0.00289199856408 -0.00117582910056)
(0.00125578509587 -0.00313918509645 -0.00120121873404)
(0.00038888407012 -0.00326067030189 -0.00121829487592)
(-0.000508206283675 -0.00325989311311 -0.00121910088865)
(-0.0013714712708 -0.00313692919313 -0.00120371969567)
(-0.00212615677561 -0.00288810532715 -0.00117983388936)
(-0.00267721136019 -0.0025205905501 -0.00115706711477)
(-0.00293033060373 -0.00207096834019 -0.00113771931612)
(-0.00283052543905 -0.00160300287167 -0.00112134349838)
(-0.00238844095296 -0.00119654286172 -0.00109430703829)
(-0.00168325900537 -0.000920629466169 -0.00104744146537)
(-0.000826528021932 -0.000809959561101 -0.000913908277425)
(-0.000211934787175 -0.000853041824696 -0.000597321287236)
(0.000267351511782 -0.000267439229111 -0.000562694411317)
(0.000855816787562 -0.000206914547276 -0.000595113948269)
(0.00156578436199 -0.000213043140254 -0.000588025144054)
(0.00214733114698 -0.000284027107626 -0.000561886481742)
(0.00250384397784 -0.00040822374069 -0.000538220505367)
(0.00256816535976 -0.000561378305174 -0.000522448166061)
(0.00233233995553 -0.000709875047181 -0.000512037068055)
(0.00183380773125 -0.000834841392741 -0.000508202714502)
(0.00114851311574 -0.000919734214764 -0.000508975823979)
(0.00035777103936 -0.000961623017675 -0.000511059383541)
(-0.000465006257031 -0.000961274576042 -0.000511815373706)
(-0.00125202921621 -0.000918646103783 -0.000511134644233)
(-0.00193019624033 -0.000832855964393 -0.000511580563347)
(-0.00241838484089 -0.000707350249956 -0.000516260032846)
(-0.00264112445083 -0.000558258481121 -0.000527407301556)
(-0.00256214471511 -0.000404759547125 -0.000543958680146)
(-0.00218940453358 -0.000281169888701 -0.00056771736129)
(-0.00159267544799 -0.000211331143446 -0.00059294342333)
(-0.000869020914744 -0.000206407729311 -0.000599292540898)
(-0.000271428131809 -0.00026641673955 -0.000563030799705)
(0.00034766301511 0.000352075417761 -0.00169838298606)
(0.00101984634682 0.000443128470467 -0.00183784293771)
(0.00175051607109 0.000556894334138 -0.00189808256327)
(0.00234782375502 0.000737033911477 -0.00191705544466)
(0.0027062085125 0.000965371887133 -0.00192921087219)
(0.00275621374955 0.00121240008457 -0.00194482325827)
(0.00248794792608 0.00144311508142 -0.00196563844465)
(0.00194449961861 0.00163056429188 -0.00199425759233)
(0.00120908581888 0.00175686367835 -0.00202527332148)
(0.000369856115087 0.00181892712528 -0.00204685857022)
(-0.00049994003254 0.00181867797329 -0.00204888615029)
(-0.00133527645201 0.00175607996064 -0.00203132774841)
(-0.00206304737244 0.00162918264321 -0.00200409594118)
(-0.00259540249897 0.00144099759364 -0.00197866737817)
(-0.00284948232296 0.00120975814121 -0.00196070874067)
(-0.00278260003342 0.000962003185881 -0.00194712913246)
(-0.0024055424702 0.000733316866014 -0.00193648285635)
(-0.0017883422988 0.000553450717866 -0.00191757969355)
(-0.00103924949403 0.000440113922317 -0.00185677443825)
(-0.000350443357086 0.00035099614321 -0.00171281616627)
(0.000435487362598 0.00103352957623 -0.00183822536955)
(0.0011536797016 0.00117202632396 -0.00229975290336)
(0.00191100878739 0.00142549610937 -0.00251382906387)
(0.00253767436091 0.00184004886852 -0.00260675279855)
(0.002911283543 0.00236819895618 -0.00264379844526)
(0.00295827157834 0.00293889940241 -0.002651237923)
(0.00266280131852 0.00347207888387 -0.00265685911846)
(0.0020743679028 0.00390160510111 -0.00267770479339)
(0.00128615725394 0.00419126498593 -0.00271318118372)
(0.000393693519428 0.00433408987714 -0.00274213619426)
(-0.000528399763727 0.00433364924921 -0.0027443306844)
(-0.00141696278684 0.00418989332151 -0.0027197819467)
(-0.00219759415766 0.00389907127047 -0.002688468812)
(-0.00277490798089 0.00346805983838 -0.00267135925446)
(-0.00305608596673 0.00293341608414 -0.00266914739399)
(-0.00299241150394 0.00236129296504 -0.00266451508512)
(-0.00260040758332 0.00183232465007 -0.00262893077952)
(-0.00195427849454 0.00141803706593 -0.00253657374057)
(-0.00117861142746 0.00116664594178 -0.00232098054131)
(-0.000443625594763 0.00103402989273 -0.00185214823448)
(0.000548144262887 0.00177700829574 -0.00190279572325)
(0.00140536693619 0.00194170242454 -0.00251441393763)
(0.00229699799362 0.00232965053792 -0.00275235974774)
(0.00302550276924 0.0029589902287 -0.00276893283963)
(0.00344899492008 0.00375498160277 -0.0026564409903)
(0.00348302668661 0.00460884365236 -0.00248100240814)
(0.00311240845575 0.00540061368898 -0.0023124486538)
(0.00240587321124 0.00603399701786 -0.00220885807864)
(0.0014835368158 0.00645872027475 -0.00217954522003)
(0.000458128159355 0.00666738566595 -0.00218542338758)
(-0.000594355237419 0.00666649300033 -0.00218753612486)
(-0.00161610541234 0.00645613682103 -0.00218562829285)
(-0.00253131244494 0.00602942420878 -0.00221913919459)
(-0.00322715546802 0.0053936753315 -0.00232689019838)
(-0.0035837727318 0.00459954438795 -0.00249956246695)
(-0.00353319106117 0.00374382342889 -0.00267779510534)
(-0.00309144350437 0.00294695339014 -0.00279240137742)
(-0.00234366750299 0.0023178647331 -0.00277673560993)
(-0.00143333240683 0.00193196772723 -0.00253645690652)
(-0.000559051835822 0.00177265845335 -0.00191575409335)
(0.00072850469776 0.00238716054394 -0.00191943610398)
(0.00181958317701 0.00258084867246 -0.00260649097451)
(0.00292551812175 0.00307090601059 -0.00276723589167)
(0.003814388639 0.00386094314144 -0.00256897226676)
(0.00430951045532 0.00485066510563 -0.002144161831)
(0.00431183885541 0.00590104063691 -0.0016149857473)
(0.00381428403753 0.00686338066336 -0.00112742072114)
(0.00291872137411 0.00762477931029 -0.000799188193849)
(0.00178693239199 0.00813014991448 -0.000653600470659)
(0.000557051168999 0.00837648874759 -0.000617833197261)
(-0.000694733183173 0.00837486325672 -0.000619871464909)
(-0.00192109574807 0.0081258415715 -0.000659062894765)
(-0.00304634651763 0.00761753626433 -0.000808533216896)
(-0.00393177172702 0.00685288890584 -0.00114159319256)
(-0.00441540548353 0.00588750506414 -0.00163360956754)
(-0.00439626708616 0.00483518846585 -0.00216640476107)
(-0.00388271702396 0.00384476984385 -0.00259397433864)
(-0.00297433107083 0.00305519539506 -0.00279334573571)
(-0.00184897019013 0.00256725121919 -0.00262973964127)
(-0.000740089840909 0.00237858590871 -0.00193184281991)
(0.000956491235389 0.0027579671449 -0.00193013476123)
(0.0023480086321 0.0029665040296 -0.00263988978113)
(0.0037216660181 0.00350649313912 -0.00265215166798)
(0.00480382213032 0.0043686319548 -0.00214077861941)
(0.00537592154211 0.00543586570731 -0.00128544463537)
(0.00532469391361 0.00655344410034 -0.000289743135371)
(0.00465984533211 0.00756564054132 0.000601751699012)
(0.00352883207679 0.00835559961109 0.00120223013132)
(0.00214428716586 0.00887331102316 0.00147883028595)
(0.00067264239758 0.00912322879116 0.0015558744183)
(-0.000812742503675 0.00912103482043 0.00155247380435)
(-0.00228066889801 0.0088668325184 0.00147355671732)
(-0.00365918310448 0.00834510929458 0.00119314161005)
(-0.00478043738693 0.00755106619044 0.000586984968669)
(-0.00543103579704 0.00653549689074 -0.000310895706751)
(-0.00546470243503 0.00541608320372 -0.00131042913683)
(-0.00487370434663 0.00434865434834 -0.00216833901579)
(-0.00377171755861 0.00348745448961 -0.0026806603188)
(-0.00237807587235 0.00294969519568 -0.00266485673238)
(-0.000968371660211 0.00274562153554 -0.00194293327197)
(0.00120445713076 0.00281839781845 -0.00194313011912)
(0.0029196393053 0.00302382957123 -0.00264544909031)
(0.00457656409777 0.00355082101623 -0.00247354641801)
(0.0058550695936 0.00438187914643 -0.00160772153779)
(0.00649377433921 0.00539625933955 -0.000285017405791)
(0.00637367627895 0.00644575456903 0.00120133365976)
(0.00552590171809 0.00738462890474 0.00251066020763)
(0.00414561394619 0.00810657204185 0.00337286126465)
(0.00250191092579 0.00857340519398 0.00375781082421)
(0.000787603088116 0.00879679634497 0.00386012513082)
(-0.000931210158523 0.00879427247968 0.00385746155078)
(-0.00264192839303 0.00856533856545 0.00375054854748)
(-0.00427950654685 0.00809326084543 0.00336186284248)
(-0.00564993285987 0.00736679060498 0.00249188566937)
(-0.00648258052787 0.00642457246798 0.00117512388766)
(-0.00658388628415 0.00537355864098 -0.000315028114329)
(-0.00592545334415 0.00435945947442 -0.00163932528833)
(-0.00462688631842 0.0035298812064 -0.00250546741106)
(-0.00294986416738 0.00300521600635 -0.00267383979294)
(-0.00121639647033 0.00280410201307 -0.00195737297104)
(0.00143556045953 0.00255759673029 -0.00196159255142)
(0.00345394334166 0.0027357035949 -0.0026480703188)
(0.00537014329816 0.0031876518628 -0.00230098377368)
(0.00681935192119 0.00389206784576 -0.00111488892582)
(0.00750738808265 0.00473963702843 0.000613481855791)
(0.00731319101833 0.00560723842962 0.00251718028555)
(0.00629008151885 0.0063717139725 0.00416340112015)
(0.00468284282223 0.00695373040413 0.0052134779793)
(0.00281080923849 0.00732551991804 0.00565789207675)
(0.000886265131822 0.00750162015201 0.00576638850319)