/*--------------------------------*- C++ -*----------------------------------*\
| =========                 |                                                 |
| \\      /  F ield         | OpenFOAM: The Open Source CFD Toolbox           |
|  \\    /   O peration     | Version:  3.0.1                                 |
|   \\  /    A nd           | Web:      www.OpenFOAM.org                      |
|    \\/     M anipulation  |                                                 |
\*---------------------------------------------------------------------------*/
FoamFile
{
    version     2.0;
    format      ascii;
    class       volVectorField;
    location    "2.7";
    object      ddt0(U);
}
// * * * * * * * * * * * * * * * * * * * * * * * * * * * * * * * * * * * * * //

dimensions      [0 1 -2 0 0 0 0];

internalField   nonuniform List<vector> 
7968
(
(-0.000394013365072 -0.000396476587309 0.000910352500208)
(-0.000996713136406 -0.000608910082467 0.000817750733812)
(-0.00116890013264 -0.000715077001299 0.0007400177919)
(-0.00122830121544 -0.000734268880743 0.000682876567004)
(-0.00117860926957 -0.000660636096046 0.000602394268253)
(-0.0011855362274 -0.000519435053528 0.000481625157216)
(-0.00103155204889 -0.000394145589644 0.000307422729074)
(-0.000829254583508 -0.000240326889451 0.000153252399049)
(-0.000548246618285 -0.000118641081627 2.09854930326e-05)
(-0.000190966056999 -5.31412023263e-05 -5.56450682256e-05)
(0.000193918250298 -5.32111994234e-05 -5.55838668859e-05)
(0.000551035071069 -0.000118853963044 2.11749838055e-05)
(0.000831728191239 -0.000240687596766 0.00015353107796)
(0.00103360775479 -0.000394665907983 0.000307809380045)
(0.00118694158565 -0.000520151900065 0.000482079866989)
(0.00117925045233 -0.000661469680283 0.000602808882807)
(0.00122860364044 -0.000735253077675 0.000683038711428)
(0.0011688553352 -0.000716161473546 0.000739932522353)
(0.000996673842536 -0.000609924398137 0.000817510701691)
(0.000393383389845 -0.000397703633005 0.000910232783082)
(-0.000606322413608 -0.00100296554915 0.000817577015605)
(-0.00112572567491 -0.0011321840739 4.32934054754e-05)
(-0.00105198687658 -0.00109738532524 -0.000321434613323)
(-0.000933992039597 -0.000904964287309 -0.000467096635597)
(-0.000811111047521 -0.000563073145695 -0.000549120473537)
(-0.000769186381267 -0.000156010133625 -0.000631954008041)
(-0.000678147213173 0.000202459743756 -0.000739167308937)
(-0.000556590813174 0.000539010726155 -0.000839780951077)
(-0.000378502642677 0.000785482971839 -0.000931013823217)
(-0.000132931464444 0.000913886012325 -0.000987440626808)
(0.000138800480549 0.000913501952196 -0.000987230210255)
(0.000384118268941 0.000784344805651 -0.000930409683707)
(0.000561702262277 0.000537232331914 -0.000838824582114)
(0.000682399649322 0.000200115494597 -0.000737909197055)
(0.000772442816538 -0.000158793530712 -0.000630606295341)
(0.000813153235895 -0.000566115760454 -0.000547778507445)
(0.000934985976484 -0.000908265874024 -0.000466032746297)
(0.0010519692979 -0.00110085448106 -0.000320890137356)
(0.00112493224481 -0.00113591151271 4.35319834354e-05)
(0.000605302987665 -0.00100768531145 0.000817589234904)
(-0.000712522490408 -0.0011786286098 0.00073915439955)
(-0.0010911975978 -0.00106184470636 -0.000321941467311)
(-0.000812676862621 -0.0008219002383 -0.000740282582572)
(-0.000552350636494 -0.000408321644889 -0.000841226003357)
(-0.000364571442273 0.000157172896348 -0.000850620459327)
(-0.000298936005594 0.000777657788968 -0.000864576429406)
(-0.000263083690322 0.00133351540733 -0.000915388932159)
(-0.000227159890074 0.00182858154557 -0.000980348297382)
(-0.000165863215388 0.00219612085116 -0.00104820339898)
(-5.91955465491e-05 0.00238921630456 -0.00109341064802)
(6.62561076313e-05 0.00238855614698 -0.00109315847008)
(0.000172644010166 0.00219399874278 -0.00104741033462)
(0.000233331101602 0.00182520892497 -0.00097889323315)
(0.000268245275373 0.00132897643639 -0.000913448344972)
(0.000302884342117 0.000772289999877 -0.000862284136053)
(0.000367149009867 0.00015115309388 -0.000848348440487)
(0.00055374599493 -0.000414824231025 -0.000839254010552)
(0.000813040204077 -0.000828678873209 -0.000738890265801)
(0.00109047308 -0.0010690109801 -0.000321198587705)
(0.000711629793235 -0.00118673606292 0.000739391398821)
(-0.000731810945287 -0.00123906723895 0.000681107064521)
(-0.000899059436445 -0.000945055741704 -0.000468491127773)
(-0.000399540635963 -0.000562755925526 -0.000842094862211)
(2.61872165609e-05 1.61049243685e-05 -0.000847216006896)
(0.0002969398657 0.000754778321275 -0.000750086845971)
(0.000365921786228 0.0015449949979 -0.000670276057585)
(0.000327175974905 0.00225198020554 -0.000645031436972)
(0.000238515486839 0.00286703640517 -0.000651990768539)
(0.000127779854851 0.0033224522496 -0.00068311024688)
(4.0413725543e-05 0.00355920792384 -0.000707550493782)
(-3.32810365728e-05 0.00355849225356 -0.000707370267974)
(-0.000120984795277 0.00331970230145 -0.000682322280171)
(-0.000232398712357 0.00286247011591 -0.000650050851924)
(-0.000322092354978 0.00224577990724 -0.000642335805028)
(-0.00036207533207 0.00153774038566 -0.000667222453969)
(-0.000294492201609 0.000746465762646 -0.000747087088508)
(-2.4741488187e-05 6.97231141048e-06 -0.000844590027064)
(0.000400142927449 -0.000572417851257 -0.000840098034219)
(0.000898525937653 -0.000955452785079 -0.000467181200146)
(0.000731031096155 -0.00125037669829 0.000681754458117)
(-0.000658169149869 -0.00118807997355 0.000599735725864)
(-0.000557361878538 -0.000821104390719 -0.000551546875198)
(0.000165674926005 -0.000374058976824 -0.000852572889552)
(0.000764714844516 0.000287392640301 -0.000751240686419)
(0.00112850676469 0.00111841446643 -0.000529709950152)
(0.00119282337587 0.00200565193113 -0.000306420487577)
(0.00107151260828 0.00280458202672 -0.000162048301273)
(0.000825097414601 0.00348890340094 -5.19240920143e-05)
(0.000499574004289 0.00399338688029 6.59413792204e-06)
(0.000166574002679 0.00425562237362 2.35636323487e-05)
(-0.000160309199457 0.00425459997121 2.38151997478e-05)
(-0.000494123959496 0.00398997475147 7.81427022791e-06)
(-0.000820058102839 0.00348285605833 -4.97090038932e-05)
(-0.00106715651808 0.00279635032976 -0.000158986818699)
(-0.00118974144895 0.00199595041107 -0.000302293079068)
(-0.00112683995404 0.00110771355961 -0.000526406819748)
(-0.000763664515262 0.000275626974005 -0.00074838986746)
(-0.000165083632746 -0.000386562393399 -0.00085030191569)
(0.000556971127619 -0.000834546611682 -0.000549934883097)
(0.000657388532129 -0.00120240536827 0.000600744883527)
(-0.000517289718989 -0.00119076455834 0.00047800658627)
(-0.000150722961297 -0.000775318957377 -0.0006356070559)
(0.000785670690629 -0.0003048728416 -0.000867736195439)
(0.00155417394876 0.000359370900033 -0.000672794608568)
(0.00201529890703 0.00118477113848 -0.000308680902231)
(0.00206407381109 0.00205514721078 5.42266512981e-05)
(0.00184378359556 0.00280422371591 0.000334195894471)
(0.0014292294602 0.00343119671576 0.00054970291969)
(0.000877478776927 0.00388967119809 0.000676010726262)
(0.000293149067195 0.00412504843789 0.000724953499948)
(-0.000288692733718 0.00412359492036 0.000725598873691)
(-0.000873936026733 0.00388588409532 0.000677485149263)
(-0.00142622274021 0.00342475594131 0.000551029543775)
(-0.00184106633329 0.00279464721705 0.000336428784076)
(-0.00206196838401 0.00204306830551 5.73296781095e-05)
(-0.00201434423506 0.00117139517426 -0.000305278648366)
(-0.00155364851904 0.000344883479201 -0.000670202278447)
(-0.000785116303524 -0.000320187906118 -0.000865601236099)
(0.000150646755174 -0.000791645392607 -0.000633926304116)
(0.000516758220491 -0.00120778612101 0.000479045076391)
(-0.000392030854014 -0.00103031550458 0.000303318898862)
(0.00020760909021 -0.000678031280909 -0.000743691090964)
(0.00134123342915 -0.000263251616524 -0.000919397034763)
(0.00226021297463 0.000325790008241 -0.000648577180968)
(0.00281296661944 0.00106704633034 -0.000165391819508)
(0.00281258411437 0.0018353218484 0.000331901884454)
(0.00248796645448 0.00247677481212 0.000696277711442)
(0.00191444213815 0.00301696757321 0.000971935986943)
(0.00116930082232 0.0034126299718 0.00116143274306)
(0.000386686915485 0.00361507933988 0.00125239617752)
(-0.000384764878374 0.00361338377688 0.00125278322645)
(-0.00116790374668 0.00340801826211 0.00116281465985)
(-0.00191422050339 0.00300929799728 0.000974406574941)
(-0.0024883551923 0.00246610046749 0.000698100008023)
(-0.0028128303914 0.00182169858566 0.000334125459624)
(-0.00281350401293 0.00105130772879 -0.000162779372689)
(-0.00226056520159 0.000308829381063 -0.000646569452114)
(-0.00134101658249 -0.000281085920716 -0.000917697557015)
(-0.000207580021958 -0.000696786527003 -0.000742088146416)
(0.000391469944269 -0.00104966765197 0.000304535944629)
(-0.00023832622263 -0.000819651223428 0.000148978695131)
(0.000544113381911 -0.000548312192581 -0.000844724672661)
(0.00183576720035 -0.000219580996338 -0.000984591130488)
(0.00287286152737 0.000245042401297 -0.000655746115537)
(0.00349255681734 0.000827777051413 -5.76500323045e-05)
(0.00343415582865 0.00142650288902 0.000540498310271)
(0.00302594882673 0.00190549083942 0.000963246205462)
(0.0023365818301 0.00232800279528 0.00127733118964)
(0.00146147813527 0.00269513919381 0.00129943830088)
(0.000488146242134 0.00288233100261 0.00132960247078)
(-0.000490844296826 0.002879845494 0.00132959305499)
(-0.00146427196587 0.00268879238844 0.00130012700623)
(-0.00233992305408 0.00231907523621 0.0012777598022)
(-0.00302927532066 0.00189377314481 0.000964418861598)
(-0.00343723832453 0.00141152150399 0.00054157004987)
(-0.00349519412945 0.000810031241183 -5.62404433803e-05)
(-0.00287460376447 0.000225821422924 -0.00065485304822)
(-0.00183618370259 -0.000239754149468 -0.000983621721731)
(-0.000544035942931 -0.000569353505796 -0.000843471684338)
(0.000237911990396 -0.00084122929579 0.000150196199049)
(-0.000116589735812 -0.00052988088016 1.7118458852e-05)
(0.000791030246011 -0.000361526623084 -0.000935574920595)
(0.00220351791843 -0.00014992201793 -0.00105166469772)
(0.00332696771244 0.00014356523663 -0.000685130358502)
(0.0039932840741 0.00051352977887 7.89340924228e-07)
(0.00388698128288 0.000889050467492 0.000666116468276)
(0.00341876580237 0.00117681818443 0.0011478681643)
(0.00270449080182 0.00146887438407 0.00129608214565)
(0.00169652554495 0.00170224781588 0.00140327232118)
(0.000559662852247 0.00181395486409 0.00147017002719)
(-0.00056811271495 0.0018121335625 0.00146898794169)
(-0.00170314880187 0.00169625927822 0.00140214730948)
(-0.00271098784821 0.00145956381825 0.00129695195454)
(-0.00342579170788 0.00116431102772 0.00114857277559)
(-0.00389350568553 0.000873147251418 0.000666363780716)
(-0.00399844572208 0.000494210049239 6.31640490595e-07)
(-0.00333021916358 0.000122583276122 -0.000685484616965)
(-0.0022046970948 -0.000171879903801 -0.00105168897751)
(-0.000790985042157 -0.000384200477898 -0.000934917221261)
(0.000116374585349 -0.000553133156996 1.81557230795e-05)
(-5.07499769086e-05 -0.000164719131098 -5.89779190313e-05)
(0.000919924540402 -0.000108273143557 -0.000991090758063)
(0.0023970759154 -3.6049611776e-05 -0.0010957711579)
(0.00356387707415 6.35431476605e-05 -0.000708344444916)
(0.00425507517657 0.000189205100268 2.09772871509e-05)
(0.00412056169968 0.000314425621471 0.000721063440123)
(0.00361823446632 0.000406038391309 0.00124594722196)
(0.00288756700514 0.000505037831481 0.00133094728095)
(0.00180586620675 0.000573238983494 0.00147068309917)
(0.000590294382823 0.000602978412171 0.00153839140196)
(-0.000601843272197 0.000601545161001 0.00153868146106)
(-0.00181723149958 0.000568507199022 0.00147086606394)
(-0.00289878361667 0.000495739619263 0.0013320443379)
(-0.00362911717854 0.000392881328655 0.00124552328662)
(-0.00413034021862 0.00029775557805 0.000720543971431)
(-0.00426285530575 0.000169173401253 1.90613500988e-05)
(-0.00356856008087 4.17017908091e-05 -0.0007101918627)
(-0.00239898463513 -5.87757856117e-05 -0.00109694527108)
(-0.000919905753376 -0.000131796977908 -0.000991256977756)
(5.0783411088e-05 -0.000188933169278 -5.8175824769e-05)
(-5.01255353466e-05 0.000225939753976 -5.81173304623e-05)
(0.00092002430623 0.00016900887641 -0.000989728780559)
(0.00239675604456 9.47484519973e-05 -0.00109384905385)
(0.00356281692812 -5.13344661458e-06 -0.000705670874221)
(0.0042522869823 -0.000132500908493 2.40564656763e-05)
(0.00411638819941 -0.000263526400732 0.000722855019917)
(0.00361335128937 -0.000361676357473 0.001246878856)
(0.00288182215621 -0.000468567120805 0.0013302957608)
(0.00180163190403 -0.000546877577523 0.00146761091227)
(0.000587972329224 -0.000582775680368 0.0015352979056)
(-0.00060291515066 -0.00058524959941 0.00153542240127)
(-0.00181643675389 -0.00055293824153 0.0014690900315)
(-0.00289756757424 -0.000478812850424 0.00133206872111)
(-0.00362837823913 -0.000375640615388 0.00124538004747)
(-0.00412931643612 -0.000280706648634 0.000721123686364)
(-0.00426228710144 -0.000152230318386 2.04806306697e-05)
(-0.00356879675643 -2.65548923453e-05 -0.000708916169954)
(-0.00239935185723 7.25553154145e-05 -0.00109627150654)
(-0.000920155244098 0.00014592007916 -0.000990786308384)
(5.03867932895e-05 0.000202004769754 -5.80515454005e-05)
(-0.00011491002009 0.000586612249538 1.89524269404e-05)
(0.000791740932313 0.000417651040667 -0.00093171647206)
(0.00220289286973 0.0002041187906 -0.00104648816207)
(0.00332419139316 -8.96632553818e-05 -0.000678161031964)
(0.00398586532087 -0.00046115372704 9.56938209478e-06)
(0.00387585914205 -0.000841033397372 0.000671762692012)
(0.0034062518197 -0.00113458035504 0.00115144412456)
(0.00269055704124 -0.00143240218876 0.00129724620005)
(0.0016847658918 -0.0016714562525 0.00140139901296)
(0.00055220068153 -0.00178881460294 0.00146748613381)
(-0.00057206521472 -0.00179112308588 0.00146682637749)
(-0.00170373962955 -0.00167838781327 0.00140181667601)
(-0.0027095832723 -0.00144330734684 0.00129826621223)
(-0.00342387040242 -0.00114850299523 0.00114892222729)
(-0.00389093085045 -0.000857405927305 0.000668430810742)
(-0.00399723318684 -0.000479234868348 4.59733633422e-06)
(-0.00333109651988 -0.000109391185552 -0.000682129106417)
(-0.00220594062354 0.000183736215566 -0.00104983382752)
(-0.000791826293163 0.000396445363066 -0.000933639247955)
(0.000115305357357 0.000564391847834 1.85167779891e-05)
(-0.000235965817728 0.00086874344118 0.000151662236727)
(0.000545693048076 0.000596428420092 -0.000839079167954)
(0.0018352445109 0.000265469709183 -0.000976833113787)
(0.00286877843655 -0.000199809667419 -0.000645181393386)
(0.00348128273815 -0.00078364063687 -4.48224164318e-05)
(0.0034168335359 -0.00138464809449 0.000549515477825)
(0.00300607123986 -0.00186850748642 0.000968721134899)
(0.00231778094331 -0.00229678012515 0.00127608500898)
(0.00144565141976 -0.00266774195299 0.00129958326067)
(0.000476041829747 -0.00285900579252 0.00133031580479)
(-0.000499410675697 -0.00286068684968 0.00133010215073)
(-0.00146842130695 -0.00267358217417 0.00129985048242)
(-0.0023390782455 -0.00230557861998 0.00127734218139)
(-0.00302569403065 -0.00188040281962 0.000965163048235)
(-0.00343354822898 -0.00139839120214 0.000545016888982)
(-0.00349376777607 -0.000798721416501 -5.04145323394e-05)
(-0.00287636324713 -0.000216451211038 -0.000649975979704)
(-0.00183845291879 0.000248151121571 -0.000980896206837)
(-0.000545594736108 0.000578310496573 -0.000841630033521)
(0.000236428148394 0.000849426228093 0.000150679469345)
(-0.000389270526273 0.00106946554625 0.000306529386071)
(0.000210065680447 0.000715570576628 -0.000737189762014)
(0.00134085551228 0.000298429053498 -0.000910319319766)
(0.0022552417934 -0.000291426777057 -0.000636207630369)
(0.00279964977311 -0.0010327070502 -0.000150484492915)
(0.00279121648091 -0.0018012418837 0.000343442732852)
(0.00246267018067 -0.00244525391149 0.000703095669104)
(0.00188935181937 -0.00298886470129 0.000973891956992)
(0.00114926682375 -0.0033890174423 0.00115784431504)
(0.000371270006197 -0.00359529667971 0.00124768360149)
(-0.000397024547561 -0.00359669905669 0.00124710938773)
(-0.00117468209369 -0.00339341839023 0.00115612852952)
(-0.00191352265397 -0.00299580066022 0.000970826187326)
(-0.0024839550771 -0.00245407594758 0.000698808378233)
(-0.00280910030794 -0.00181168634823 0.000338698829885)
(-0.00281302612541 -0.00104436324276 -0.000156242845722)
(-0.00226331635657 -0.000303985284301 -0.000641451087173)
(-0.00134423397648 0.000285140139473 -0.000914721113741)
(-0.000209903499242 0.00070158961314 -0.000740190442811)
(0.000389755173505 0.00105418815352 0.000304970436224)
(-0.00051447060427 0.00121923598439 0.000481205811673)
(-0.000147456985603 0.000801798033579 -0.000629166320402)
(0.000785942768443 0.000328840515294 -0.00085836561941)
(0.00154959120588 -0.000336380504092 -0.000660040949201)
(0.00200204035732 -0.00116186661604 -0.000291507804994)
(0.00204156888481 -0.00203024503976 6.79154785083e-05)
(0.00181647523491 -0.00277912563266 0.000343162037036)
(0.00140163875156 -0.0034065263027 0.000553350025642)
(0.000854117823339 -0.00386625282797 0.000676324385557)
(0.000274411277169 -0.00410406164385 0.000724895428743)
(-0.000303240572391 -0.00410507415291 0.000724683395155)
(-0.000882473723774 -0.00386913640626 0.000675177194643)
(-0.00142810561699 -0.00341105271429 0.000550213488231)
(-0.00183957751172 -0.00278485382556 0.000339081147838)
(-0.00206083982429 -0.00203717812469 6.26548025996e-05)
(-0.0020158399231 -0.00116918617351 -0.000298468099686)
(-0.00155774041508 -0.000344530285304 -0.000665332440476)
(-0.0007893891173 0.000320073369936 -0.000862976310258)
(0.00014762125883 0.000792375494135 -0.00063236400142)
(0.000514888156025 0.00120847049292 0.000479301619353)
(-0.000655269423489 0.00120603479186 0.00060242844466)
(-0.00055349913843 0.000836651501784 -0.000545839614072)
(0.000166172070921 0.000387106616242 -0.000843800053239)
(0.000759862681233 -0.000275665214985 -0.000739912023447)
(0.00111627314853 -0.00110716336061 -0.000516646206653)
(0.00117236658308 -0.00199213422732 -0.000292567813085)
(0.00104556236378 -0.00278902870233 -0.000151636420652)
(0.000797944189769 -0.00347181925846 -4.49995687954e-05)
(0.000474602854685 -0.00397590954202 1.06030180417e-05)
(0.000145157321917 -0.00423965326951 2.59529339184e-05)
(-0.000177192761588 -0.00424024531092 2.54233668822e-05)
(-0.000505471889204 -0.00397744480047 8.92105248892e-06)
(-0.000826281704258 -0.00347384694322 -4.79493589427e-05)
(-0.00107023257712 -0.00279156385026 -0.000155662342947)
(-0.00119226611805 -0.00199495543298 -0.000297917850096)
(-0.00113054447601 -0.00110999724615 -0.000521615822871)
(-0.000768755915518 -0.000279304336075 -0.000744801094489)
(-0.00017001460477 0.000382986161645 -0.000848257620609)
(0.000553412865821 0.000831913381161 -0.000548941579628)
(0.000655626189544 0.00119995041235 0.000600303851539)
(-0.000729129462824 0.00124840046026 0.000682739192403)
(-0.000895461278911 0.00095156394424 -0.000464090204978)
(-0.000399549128392 0.000567017067374 -0.000834981858967)
(2.06408204456e-05 -1.28941930167e-05 -0.000838207413489)
(0.00028445777099 -0.000751716117225 -0.000740294322287)
(0.000346511107433 -0.00154073768678 -0.000660812289514)
(0.000303093759246 -0.00224585847956 -0.000637166750311)
(0.000212852765282 -0.00285949751569 -0.000645997219406)
(0.000102953035078 -0.00331435597566 -0.000678255711209)
(1.79494151877e-05 -0.00355158473687 -0.000704343114064)
(-5.20746346798e-05 -0.003551711785 -0.000704875624264)
(-0.000135563046829 -0.00331463773428 -0.000679736762414)
(-0.000242546481029 -0.00285976491515 -0.000648344607949)
(-0.000328623584963 -0.00224597686722 -0.000640323899277)
(-0.000367229509518 -0.0015405134554 -0.00066463908695)
(-0.000299689014986 -0.000751416378706 -0.000744505013436)
(-3.02682558464e-05 -1.2815588242e-05 -0.000842703900736)
(0.000395125995421 0.000566792267707 -0.000839075003117)
(0.000894882122565 0.00095068463635 -0.000466985893925)
(0.000729284368446 0.00124611245711 0.000680747786788)
(-0.000710292682439 0.00118165943369 0.000739421043693)
(-0.00108833752259 0.00106196455013 -0.00031946185853)
(-0.000813565102504 0.000820346863706 -0.000735558926052)
(-0.000558837267844 0.000406131939607 -0.000835177735469)
(-0.000377671532599 -0.000159129797321 -0.000844302016209)
(-0.000317993866733 -0.000778430963963 -0.000859109837525)
(-0.000286324958803 -0.00133295572444 -0.000911104550851)
(-0.00025241032456 -0.00182705217794 -0.000977519218823)
(-0.000190886727147 -0.00219420553104 -0.00104662611127)
(-8.2195167566e-05 -0.00238736207334 -0.00109299863336)
(4.67198852231e-05 -0.00238713561623 -0.00109351041548)
(0.000157044020592 -0.00219351617536 -0.0010480449535)
(0.000221624645972 -0.00182583707866 -0.000979642128139)
(0.000259699495288 -0.00133125242876 -0.000913774439499)
(0.00029625473132 -0.000776157450762 -0.000862244187867)
(0.000361460251518 -0.000156404903692 -0.000847861032361)
(0.000548304890883 0.000408957940807 -0.000838894182898)
(0.000808259265289 0.000822915080921 -0.000738952555149)
(0.0010869638323 0.00106382530104 -0.0003218797983)
(0.000710144088517 0.00118196611741 0.000737684606295)
(-0.000604618362593 0.00100277066174 0.00081664475367)
(-0.00112421211058 0.00112909532647 4.385745879e-05)
(-0.00105437032732 0.00109286930418 -0.000319386456784)
(-0.000942086928611 0.00089990581146 -0.000464040245249)
(-0.000825531933661 0.000558362042405 -0.000545962424664)
(-0.000788960993904 0.000152540895863 -0.000629375246052)
(-0.000701635176122 -0.000204924611856 -0.000737342774121)
(-0.000581922677606 -0.00054046375769 -0.000839047835568)
(-0.000403527688455 -0.000786281082724 -0.000931203396882)
(-0.000156166406211 -0.000914282235461 -0.000988426922674)
(0.00011849042272 -0.000913938018795 -0.000988811390564)
(0.000367424809897 -0.00078522938925 -0.000932214684082)
(0.000548808349594 -0.000538697764729 -0.00084052800683)
(0.000672732957433 -0.000202484587391 -0.000739197773067)
(0.000764958467461 0.000155556210578 -0.000631539448845)
(0.000807253103332 0.000561989228906 -0.000548468731297)
(0.000929725781956 0.000903685693591 -0.000466664709831)
(0.0010474899434 0.00109632600448 -0.000321830547396)
(0.00112157632694 0.00113170470767 4.19989756376e-05)
(0.000604037164619 0.00100376361364 0.000815271758826)
(-0.000393102987697 0.0003951927116 0.000908563807818)
(-0.0009975671733 0.000606275402105 0.000816925036581)
(-0.00117392314396 0.000711895348806 0.000740140286483)
(-0.00123873173385 0.000730809618125 0.00068340322878)
(-0.00119473450994 0.000657182569596 0.000603195410597)
(-0.0012061476638 0.000516524591563 0.00048207933735)
(-0.00105547608118 0.000391464452125 0.000307698685399)
(-0.000854799763956 0.000238215919453 0.000153149273394)
(-0.000573567097411 0.000117102673624 2.0573413002e-05)
(-0.000214671146054 5.20309789292e-05 -5.63118242889e-05)
(0.000172845833594 5.22464560249e-05 -5.65878451294e-05)
(0.000533308172744 0.000117713353722 1.98933158787e-05)
(0.000817617056748 0.000239222909063 0.000152122621963)
(0.0010227554699 0.000392840327589 0.000306386681898)
(0.00117854384636 0.000518027415038 0.000480562965583)
(0.00117305252638 0.000659186894951 0.000601306329149)
(0.00122345824802 0.000732874099256 0.000681571608983)
(0.00116456870243 0.000713927269081 0.000738288604932)
(0.000993166494185 0.00060797828367 0.000815377565693)
(0.000391974078933 0.000396106030918 0.000907265940842)
(-0.00020450198566 -0.000207027186033 0.00226723388618)
(-0.000665549846735 -2.61560846977e-05 0.00188675939485)
(-0.000943393173415 0.000135964792569 0.00151282519001)
(-0.00113584517874 0.000325182273851 0.00113325125589)
(-0.00123282644765 0.000531942809135 0.000703311048155)
(-0.00129876841777 0.000727726688718 0.000181755996368)
(-0.00118942645379 0.000885730283229 -0.000388946469983)
(-0.000974998163032 0.00104025168401 -0.000900931387216)
(-0.00065038577651 0.00115831284145 -0.00131300510101)
(-0.000227148348669 0.00122132870425 -0.00154670723673)
(0.000232627693548 0.00122128197702 -0.00154672098898)
(0.000655680310748 0.00115818746896 -0.00131310130259)
(0.000979915874644 0.00104008767292 -0.000901109412823)
(0.00119361754879 0.000885556056808 -0.000389075974577)
(0.00130192653387 0.000727556544415 0.000181447940474)
(0.00123478600424 0.000531857222361 0.000702685018302)
(0.00113673727232 0.000325120273315 0.00113194357509)
(0.000943314454111 0.000135813795373 0.00151096192181)
(0.000664998487674 -2.66119034527e-05 0.00188435142712)
(0.000203655652418 -0.00020795176645 0.00226459250264)
(-2.30541075743e-05 -0.000672438557248 0.00188620584143)
(-0.000374210208734 -0.000381987419088 0.000856088223444)
(-0.00066726890077 -6.92713079451e-05 0.000289583124727)
(-0.000903490016109 0.000344823512268 -0.000116714653097)
(-0.00106373308279 0.000821190056132 -0.000510657177965)
(-0.0011348130132 0.00129573404064 -0.000942491320159)
(-0.00106815765008 0.00171987585897 -0.00139935764104)
(-0.000880119346894 0.00209178047181 -0.00181829436901)
(-0.000582434516552 0.00236761215456 -0.00215148128604)
(-0.000201438723963 0.00251435123692 -0.0023398008849)
(0.000208971052529 0.0025142340329 -0.00233960648839)
(0.000589737071596 0.00236727875336 -0.00215087536659)
(0.000886829935074 0.0020914386091 -0.00181729451919)
(0.00107382577292 0.00171960218199 -0.00139806348953)
(0.0011390767765 0.0012956691882 -0.000941234809079)
(0.00106630254129 0.000821363926406 -0.000509674729307)
(0.000904271795126 0.000345148981984 -0.000116420455684)
(0.000666446424297 -6.93466256048e-05 0.000288882368408)
(0.000372101359862 -0.000383320344355 0.000854625614398)
(2.1576693084e-05 -0.000676227234515 0.00188410123803)
(0.000138939130338 -0.00095401291289 0.00151041724065)
(-6.15531416219e-05 -0.000678675601926 0.000288123033)
(-0.000261024482078 -0.000272305476728 -0.000245736899245)
(-0.000467411065504 0.000291387001345 -0.00051380998917)
(-0.000638505193253 0.000957003191518 -0.00072944899435)
(-0.000735864845082 0.00163752156379 -0.000981889983074)
(-0.000727913280297 0.00226070444338 -0.00127545476703)
(-0.000614909734263 0.00279423104752 -0.0015611634553)
(-0.000409618270777 0.0031821958799 -0.00179154127571)
(-0.000140530391195 0.00339702613826 -0.00192333124846)
(0.000148652611534 0.0033967702963 -0.00192305155073)
(0.000417539695293 0.00318133271174 -0.00179052723715)
(0.000622240676407 0.00279340013058 -0.00155938505128)
(0.000734124714006 0.00225982703822 -0.00127315537318)
(0.000740572577728 0.00163690235925 -0.000979443675435)
(0.000641389530515 0.000956483926058 -0.000727145179047)
(0.000468382987777 0.000290747035413 -0.000512035316119)
(0.000260291078653 -0.000273780080778 -0.00024498243404)
(5.91952106358e-05 -0.000682111200349 0.000287837302104)
(-0.000140431717317 -0.000960901303443 0.00150914410466)
(0.000328030506733 -0.00114780797496 0.00112839515403)
(0.000352310449524 -0.000916453131795 -0.000120398955193)
(0.000302335575125 -0.000480379946729 -0.000516076952946)
(0.000166163923076 0.000153460219466 -0.000580742783517)
(7.19943125542e-06 0.000917778917931 -0.000569406574252)
(-0.000127162447316 0.00171281125342 -0.000602516207857)
(-0.000203313449643 0.0024454718907 -0.000702803787323)
(-0.000214383926987 0.00306928264422 -0.000829578692759)
(-0.000150342940198 0.00352170123264 -0.000931826542189)
(-4.61194662441e-05 0.0037572674099 -0.0010036611394)
(5.41243467123e-05 0.003757159065 -0.00100323949184)
(0.000158472200742 0.00352127978053 -0.000930007681938)
(0.000222157030435 0.00306863983945 -0.000826769538376)
(0.000209959188944 0.00244488848441 -0.000699594283258)
(0.000132186514181 0.00171304450588 -0.000599084556755)
(-4.06805316979e-06 0.000917524806455 -0.000565948250728)
(-0.000164736880279 0.000152565882751 -0.00057771722891)
(-0.000302495298062 -0.000482795555924 -0.00051395228223)
(-0.000354214292248 -0.00092186335021 -0.000119246253689)
(-0.000329252419336 -0.00115788032089 0.00112854220844)
(0.000534934431695 -0.00124373352978 0.000695519407206)
(0.00082864466263 -0.00107580474161 -0.000516893165146)
(0.000967765231301 -0.000650753708385 -0.000734236127406)
(0.000930307401221 -5.10560238292e-06 -0.000571860826775)
(0.000799243022471 0.000786472757574 -0.000307182189014)
(0.000622454086209 0.00161727445141 -9.45577246839e-05)
(0.000447895191734 0.00239508200349 3.5142632254e-05)
(0.000297167575076 0.00304773944237 0.000101618900361)
(0.000165743751644 0.00351975170712 0.00012227743424)
(5.55890163685e-05 0.00375439471377 0.00011852544554)
(-4.6750378586e-05 0.00375442155335 0.000118765214378)
(-0.000157209582933 0.00351987950742 0.000123724901879)
(-0.000289113169056 0.0030473054844 0.000104204436702)
(-0.000440252875924 0.00239449407531 3.86590677127e-05)
(-0.000616900440237 0.00161692899377 -9.12257276522e-05)
(-0.000796084011053 0.000786253542783 -0.000303135411068)
(-0.000928285870196 -6.4921354582e-06 -0.000568127842493)
(-0.000967052368913 -0.000654371518845 -0.000731204765589)
(-0.000829674637303 -0.00108334486631 -0.000514683831492)
(-0.000535793385848 -0.00125702831148 0.000696892464802)
(0.000730718032921 -0.00130539063606 0.00017148259508)
(0.00130309565804 -0.00114325833593 -0.000951306912805)
(0.00164807166539 -0.000745008350547 -0.000988847525524)
(0.00172457078563 -0.000136855644154 -0.000606930629008)
(0.00162939885583 0.000611711677413 -9.63450558866e-05)
(0.00142278887206 0.00141106652164 0.000375987947309)
(0.001153729245 0.00217275187069 0.000721110872215)
(0.000840598659698 0.00279069839974 0.000960244926757)
(0.000505501134065 0.00322732008194 0.00109200097079)
(0.00017065290697 0.00345304179743 0.00113814768197)
(-0.000161347412637 0.00345320891789 0.00113895653974)
(-0.000496781717696 0.00322768917785 0.00109393100894)
(-0.000832654826443 0.00279094148739 0.000961902263343)
(-0.0011463049277 0.00217242668986 0.000723564450693)
(-0.0014163576964 0.00140987661052 0.000379930572587)
(-0.00162521547532 0.000610670901161 -9.25290016796e-05)
(-0.00172205894033 -0.000139190305967 -0.000603114595705)
(-0.00164649001395 -0.000750136154543 -0.000985468485337)
(-0.00130319416961 -0.0011530044838 -0.000948382495923)