/*--------------------------------*- C++ -*----------------------------------*\
| =========                 |                                                 |
| \\      /  F ield         | OpenFOAM: The Open Source CFD Toolbox           |
|  \\    /   O peration     | Version:  3.0.1                                 |
|   \\  /    A nd           | Web:      www.OpenFOAM.org                      |
|    \\/     M anipulation  |                                                 |
\*---------------------------------------------------------------------------*/
FoamFile
{
    version     2.0;
    format      ascii;
    class       surfaceVectorField;
    location    "1.2";
    object      ddt0(Uf);
}
// * * * * * * * * * * * * * * * * * * * * * * * * * * * * * * * * * * * * * //

dimensions      [0 1 -2 0 0 0 0];

internalField   nonuniform List<vector> 
22672
(
(-0.00104334844747 -0.000666834947926 0.00110151146037)
(-0.000645212824304 -0.00108611929249 0.001102190555)
(-0.000377891003675 -0.000398800895905 0.00212242829577)
(-0.00163511387573 -0.000930517026733 0.00107788214853)
(-0.00158094919483 -0.00140009432089 0.000643276332426)
(-0.00122957044433 -0.000512430915867 0.0019786456866)
(-0.00192203655317 -0.00109210115525 0.00107370456518)
(-0.00175564694761 -0.00159321610549 0.000454106190664)
(-0.00158696387438 -0.000611464253836 0.00185448032634)
(-0.0020181822749 -0.00115489142489 0.00105358751929)
(-0.00180468983985 -0.00167813492504 0.00039404408386)
(-0.00178109469887 -0.000640146331518 0.00173250540537)
(-0.00199036807747 -0.00113883199512 0.000995561282148)
(-0.00175087317568 -0.00165127176253 0.000347437338798)
(-0.00183323641138 -0.000608395979534 0.00156454001162)
(-0.00185119551465 -0.00108697734757 0.000899851406874)
(-0.0016674755971 -0.0015573395009 0.000277523014575)
(-0.00180253479597 -0.000542976887069 0.00134308056712)
(-0.00156910581813 -0.00102526586006 0.000789044717144)
(-0.00147863856633 -0.0014552872611 0.00017751408598)
(-0.00161947195324 -0.000477050603791 0.00108422335211)
(-0.00115373392398 -0.000969722541012 0.000689051044565)
(-0.00119881811636 -0.00135470760168 7.43233944094e-05)
(-0.00131484369193 -0.000409864144797 0.00083952553948)
(-0.000612439671376 -0.000935968431463 0.000617182978337)
(-0.000791115522346 -0.00128860721167 -1.78366951821e-05)
(-0.000865450586323 -0.000363904465524 0.000640135190576)
(5.96396305066e-06 -0.000924914670547 0.000591058689095)
(-0.000273768801871 -0.00125701971086 -7.25937561029e-05)
(-0.000299213898763 -0.000341272907144 0.000527711407847)
(0.000624632401838 -0.000936269463262 0.000616937700972)
(0.000285917493967 -0.00125713383979 -7.2747449791e-05)
(0.000311222972311 -0.00034137553225 0.000527520759322)
(0.00116678773252 -0.000970372221947 0.000688493332789)
(0.000803607499307 -0.00128916320468 -1.8237121597e-05)
(0.000877660041955 -0.000364274123353 0.000639540401892)
(0.0015837835569 -0.00102643507794 0.000787653683334)
(0.00121229501711 -0.00135586037191 7.39192808716e-05)
(0.00132797299286 -0.000410612227696 0.00083787606766)
(0.00186869396282 -0.00108901117272 0.000896927667645)
(0.00149394667445 -0.00145768025813 0.000176056734483)
(0.00163442899652 -0.000478435757528 0.00108021878622)
(0.00201117529266 -0.00114215700353 0.000990925386349)
(0.00168531897436 -0.00156188496544 0.000274586520129)
(0.00181996765396 -0.000545341606775 0.00133568138624)
(0.00204004647172 -0.00115987561559 0.00104685727555)
(0.001770681204 -0.00165873913698 0.000342438671822)
(0.00185258951609 -0.000612103048035 0.00155376572939)
(0.0019415142228 -0.00109889127105 0.0010642907054)
(0.00182392945892 -0.00168874284919 0.000386616274791)
(0.00179980053495 -0.00064547140896 0.00171663123643)
(0.00164638556137 -0.00093829013966 0.00106643512379)
(0.00176947048328 -0.00160703540895 0.000444151597085)
(0.00160027453061 -0.000618474499414 0.00183368944467)
(0.00103889857164 -0.000673934894626 0.00108984573469)
(0.00158441601296 -0.00141613261315 0.000631972020702)
(0.00123247345128 -0.000519612576744 0.00195344122257)
(0.000640631602788 -0.00110237295566 0.00109161506333)
(0.000372746067783 -0.000404341156072 0.00209643671235)
(-0.00135613091211 -0.00164489717507 0.00064395542705)
(-0.000908744198466 -0.00171965266397 0.00108053927269)
(-0.000491076795937 -0.00129113663429 0.00198180125406)
(-0.00182359798115 -0.00194069053313 1.95003745639e-05)
(-0.00187616343799 -0.00190965769305 2.08935571799e-05)
(-0.00135968244855 -0.00142138294794 0.000962154599987)
(-0.00187450640693 -0.00209923841628 -0.00022555429066)
(-0.0018022194783 -0.00203005676642 -0.000433376177185)
(-0.00157088351502 -0.00153337213564 0.000459952210612)
(-0.00179568426282 -0.00210493404865 -0.00031210609663)
(-0.00166787752881 -0.00201443511524 -0.000563198420661)
(-0.0016617924721 -0.00154425149407 0.000213813807825)
(-0.00168473506447 -0.00199312470394 -0.000370600928775)
(-0.00150571679875 -0.00185649625834 -0.000602136551217)
(-0.00166311066347 -0.0014613970628 3.42960287493e-05)
(-0.00153994294851 -0.00183792917029 -0.00044481430632)
(-0.00138004711655 -0.00162367251637 -0.000637422700255)
(-0.00161122009706 -0.00133239793121 -0.000153516685339)
(-0.00131919307622 -0.00168767929134 -0.000537207236755)
(-0.00122917800556 -0.00139852595339 -0.000700621678772)
(-0.00145874117535 -0.0012078704628 -0.000365363185383)
(-0.000986260875183 -0.00157021072391 -0.000632564345338)
(-0.00101663291747 -0.00120365015365 -0.000785234896469)
(-0.00119639811971 -0.00109737398069 -0.000581743199493)
(-0.000530354549388 -0.00150295962222 -0.000707613429622)
(-0.000686439970206 -0.00107825547371 -0.000874891173975)
(-0.000795996626869 -0.00102633786492 -0.000770642651318)
(6.51890394478e-06 -0.00148130283007 -0.000736399894989)
(-0.00023965783258 -0.0010180442676 -0.000933613878077)
(-0.000276539512675 -0.000992200127489 -0.000883331567958)
(0.000543314972642 -0.00150289919276 -0.00070792227236)
(0.000253461268528 -0.00101743252171 -0.000933676315178)
(0.000288942164159 -0.000991703801456 -0.000883374572705)
(0.000999890779729 -0.00157080966781 -0.000632811173515)
(0.000699888608339 -0.00107742029439 -0.000874924793776)
(0.000808286125467 -0.00102588688425 -0.000770983060144)
(0.0013336658358 -0.0016896325912 -0.000537677667979)
(0.00103024852326 -0.00120404265364 -0.000785174101653)
(0.00120910708547 -0.00109743010055 -0.000581016198711)
(0.00155645953411 -0.00184216429104 -0.000446284413034)
(0.00124351404022 -0.00140081862284 -0.000700699856026)
(0.00147256414118 -0.00120930416992 -0.000366038631016)
(0.00170356171973 -0.00200082781177 -0.000373900194397)
(0.00139569487097 -0.00162947269245 -0.000638781537729)
(0.0016267951886 -0.00133630495007 -0.000156798909919)
(0.00181560131733 -0.00211698882559 -0.000317802328933)
(0.00152231995958 -0.00186689512558 -0.000605437587674)
(0.00168005667671 -0.0014686878867 2.63669898137e-05)
(0.00189164273871 -0.00211591575511 -0.000233522833526)
(0.00168337485763 -0.00203092851866 -0.000568957742212)
(0.00167774324426 -0.00155585927785 0.000201629630344)
(0.00183216933818 -0.00196120922221 9.68849399752e-06)
(0.00181239575825 -0.00205243190416 -0.000441362706527)
(0.00158144441812 -0.00154946561884 0.000443025711623)
(0.00135055438428 -0.00166742798568 0.000633741349339)
(0.00187744924319 -0.0019361024048 1.17201327552e-05)
(0.00136067216961 -0.00144081539119 0.000941062624291)
(0.00090472677011 -0.00174645309399 0.00107180068898)
(0.00048690890291 -0.00131153037977 0.00195950345749)
(-0.00154942026419 -0.00185658448124 0.000457477402815)
(-0.00107043203483 -0.00203837948827 0.00108025451223)
(-0.000590080657106 -0.00168353981887 0.00186283783878)
(-0.00194327376935 -0.00190462536904 -0.000431982994569)
(-0.00203463568082 -0.00199292971127 -0.000220473015391)
(-0.00147195420314 -0.00166761784212 0.000466429647615)
(-0.001840605983 -0.00187430769222 -0.000771020307186)
(-0.00177080324117 -0.00196010392174 -0.00076886125862)
(-0.0015669358795 -0.00166365615626 -0.000193957806045)
(-0.00163762997706 -0.00170808035622 -0.000853228875248)
(-0.00149008474308 -0.00179426517881 -0.000879551931541)
(-0.00159227469388 -0.00157731361444 -0.000457388950963)
(-0.00146098745789 -0.00143888643613 -0.000868958322696)
(-0.00123918761321 -0.00149097707723 -0.00084957881868)
(-0.00155873586586 -0.00140651749686 -0.000589523732734)
(-0.00131376703978 -0.00114639660608 -0.000893230072706)
(-0.00108872400707 -0.00112682893109 -0.000802917138242)
(-0.00149584606433 -0.00119994929761 -0.00070358683588)
(-0.00113987055475 -0.000888633744067 -0.000948649338485)
(-0.000982701160678 -0.000796167767019 -0.000796505615848)
(-0.00136730938241 -0.00101193980305 -0.000846273047126)
(-0.000869809404682 -0.000697836954766 -0.00102756172511)
(-0.000845677899307 -0.000532409401897 -0.000839002548935)
(-0.00113614653564 -0.00086012282443 -0.00101970681819)
(-0.000473699456851 -0.000587190367665 -0.00110089162243)
(-0.000592321618948 -0.000366802658864 -0.000913241875627)
(-0.000764420980347 -0.000762100169295 -0.00119185140869)
(7.80868056711e-06 -0.000550283010561 -0.00113089029827)
(-0.000208870605286 -0.000285363080829 -0.000967836832849)
(-0.000266452580761 -0.000710563990181 -0.00130140109862)
(0.000488259059918 -0.00058616163408 -0.00110067883659)
(0.000224571274927 -0.000283711629452 -0.000966244050151)
(0.000279673733381 -0.000707920304639 -0.00130092860368)
(0.000883639526862 -0.000697465473272 -0.00102728772191)
(0.000606053506664 -0.000365721985277 -0.000912813333845)
(0.00077640042592 -0.000760403887553 -0.00118988935016)
(0.00115351596998 -0.000889960770045 -0.000948196289699)
(0.000858393910386 -0.00053215224136 -0.000838507224097)
(0.00114757999056 -0.000858752750486 -0.0010176282871)
(0.00132767129259 -0.00115086571647 -0.000893196980721)
(0.000994436714567 -0.000798614383058 -0.000795790276973)
(0.00137842368308 -0.00101253371432 -0.000843521459982)
(0.00147601151396 -0.0014477077631 -0.000870318931005)
(0.00110038765911 -0.00113390827777 -0.000802998980924)
(0.00150747321195 -0.00120426506191 -0.000702356375966)
(0.00165205325637 -0.00172247789495 -0.000856593000952)
(0.00125046220671 -0.00150291776278 -0.000851063725499)
(0.00157038688115 -0.00141450498556 -0.000591271884619)
(0.00185195962343 -0.00189519004701 -0.000776797615212)
(0.00149900006237 -0.00181277399369 -0.000882981911714)
(0.00160209464678 -0.00159099812938 -0.000464146024276)
(0.00194751708665 -0.00193107247812 -0.000439331067769)
(0.00177500017238 -0.00198585433472 -0.000774401792726)
(0.0015721337096 -0.0016836835429 -0.000204920746428)
(0.00154384517258 -0.00188540861697 0.000449779472395)
(0.0020334552135 -0.00202360906953 -0.00022674614734)
(0.00147087368479 -0.00169248953654 0.000451766576832)
(0.00106696094122 -0.00206868975731 0.00107452580015)
(0.000587021908528 -0.00170924391003 0.0018469398006)
(-0.00163485053463 -0.00193151883078 0.000402304094025)
(-0.00113333553843 -0.00215397704302 0.0010661270498)
(-0.000618714107303 -0.00190217880525 0.0017510970079)
(-0.00192675992977 -0.00179626142598 -0.000557351279442)
(-0.00204016246147 -0.00193339399761 -0.000301973614113)
(-0.00148275595018 -0.0017826454745 0.000230417481862)
(-0.00167311820437 -0.00161956439491 -0.000877392882975)
(-0.0016032361147 -0.00177585286676 -0.000846457874291)
(-0.00147984684882 -0.00171286424784 -0.000447219444506)
(-0.00135117152978 -0.00131342827656 -0.000875901874973)
(-0.00118231309566 -0.00149079661189 -0.000873705826937)
(-0.00144444456558 -0.00156580117636 -0.000644010844273)
(-0.00112450346516 -0.000916948754364 -0.000783537634226)
(-0.000852409781475 -0.00108302558257 -0.000717647046218)
(-0.0013844574618 -0.00134295085917 -0.000662840419014)
(-0.000999873760314 -0.00051838591071 -0.000706192681384)
(-0.000701169913014 -0.00063460918173 -0.000533767847332)
(-0.00133162324877 -0.0010951542851 -0.000654318834133)
(-0.000901225221276 -0.000184908882141 -0.000686858826297)
(-0.000663315302262 -0.000243951291129 -0.00042302368006)
(-0.0012469799055 -0.000883385730979 -0.000696770239963)
(-0.000721753648942 5.14783386441e-05 -0.000724682699456)
(-0.000630371598384 5.58190226355e-05 -0.000403367464575)
(-0.00106540646853 -0.000725394990242 -0.000820875092797)
(-0.000400666701321 0.000183473678242 -0.000780187086045)
(-0.000478123242405 0.000238907727591 -0.000457596406583)
(-0.000727128366502 -0.00063405507527 -0.000985572030713)
(9.70062986601e-06 0.000225282785324 -0.000803190584733)
(-0.000173890428916 0.000317606309805 -0.000510757729795)
(-0.000251050751353 -0.00059319305315 -0.00107535202187)
(0.000415060130764 0.000184002066858 -0.000778378547401)
(0.000190178557097 0.000316826139838 -0.000509063593184)
(0.000267194725926 -0.000592606779299 -0.00106808729349)
(0.000735225402542 5.17202639632e-05 -0.000724032836028)
(0.000491670190254 0.000238796447807 -0.000457750374683)
(0.000737721098358 -0.000633060791788 -0.000983616158877)
(0.000912390950565 -0.000186405280818 -0.000686101211371)
(0.000641482970891 5.51117330357e-05 -0.000403098831087)
(0.00107524257838 -0.000724715524103 -0.000817066681361)
(0.00100917664803 -0.00052380644295 -0.000705592277177)
(0.000671056790882 -0.000247365615322 -0.00042307691109)
(0.00125425637986 -0.000885163675792 -0.000692541059246)
(0.00113467309283 -0.000926881937569 -0.000783743775419)
(0.000708149116726 -0.000643564642249 -0.000537375914661)
(0.00133878619726 -0.00110494686668 -0.000651977716319)
(0.00135877013139 -0.0013284689241 -0.000877452636262)
(0.000858339923175 -0.00109476151251 -0.000718423549056)
(0.00139095095202 -0.00135195186833 -0.000661075079898)
(0.0016764384268 -0.00164131388244 -0.000880586089228)
(0.00118376008851 -0.00150852472333 -0.000875351389759)
(0.00144723458487 -0.00158003381205 -0.000644794016285)
(0.00192521087512 -0.00182395395037 -0.000561816872297)
(0.0016005264783 -0.00180030412579 -0.000849535882744)
(0.00147856147218 -0.00173379618241 -0.000452204883714)
(0.0016293546221 -0.00196131426995 0.000398000180418)
(0.00203619357813 -0.00196235381411 -0.000305204342678)
(0.00147905004754 -0.00180856583152 0.000222658339818)
(0.00113002326268 -0.00218164414034 0.00106409907142)
(0.000615889836402 -0.00192850031796 0.00174251110887)
(-0.00160820335392 -0.00189032575387 0.000361849341666)
(-0.00111737516886 -0.00213208199681 0.001014109976)
(-0.000586965540914 -0.00196663685642 0.00159601670509)
(-0.00176763428801 -0.00164597623065 -0.000591080208963)
(-0.00192789712091 -0.00182699417517 -0.000355098827837)
(-0.00139943035213 -0.0017955359755 6.30402475937e-05)
(-0.00136789505068 -0.00137997166799 -0.000842770818252)
(-0.00133257920731 -0.0016027114773 -0.000857573632202)
(-0.0013076995871 -0.00169040532107 -0.00056734992501)
(-0.000941363419213 -0.000994606915336 -0.000715450998182)
(-0.000784379600065 -0.00126686558049 -0.000777647702715)
(-0.00122012122913 -0.00151665580941 -0.000651449417666)
(-0.00068530294261 -0.000534855505345 -0.000467877259324)
(-0.000391260152248 -0.000829130666864 -0.000467877897378)
(-0.001145949072 -0.00127977678232 -0.00051826256711)
(-0.000606819868893 -9.47689300982e-05 -0.000250598846008)
(-0.000265862547987 -0.000373058101309 -0.000132621827645)
(-0.00112324463017 -0.00103235038464 -0.000355965026245)
(-0.000606115163314 0.000259461694712 -0.000139532318338)
(-0.000316187841464 -2.89007610354e-06 9.08156878548e-05)
(-0.0010983574266 -0.00083504148199 -0.000265278089317)
(-0.000540268355217 0.000503412755136 -0.000136281171702)
(-0.000402777122532 0.000272074776895 0.00017577537539)
(-0.000987034566363 -0.000697211620421 -0.000312769515569)
(-0.000321751732406 0.000634985797709 -0.000188167050333)
(-0.000362657230433 0.000431069956002 0.000138416680722)
(-0.00070375829463 -0.000628991702875 -0.000447458040332)
(8.86019535137e-06 0.000674582465114 -0.000216630738245)
(-0.000140980656212 0.000498428960737 8.06661088464e-05)
(-0.00025086774534 -0.000606205830464 -0.000552318792935)
(0.000336827990183 0.000634756860446 -0.000188435420466)
(0.000156690610755 0.000498502086643 8.08688587508e-05)
(0.000265019577439 -0.000608051390568 -0.000551582763369)
(0.000552991905007 0.000503151630771 -0.000136816369742)
(0.000375971228126 0.00043121543036 0.00013733280386)
(0.000715274859905 -0.000629177948696 -0.000448024928245)
(0.00061444438956 0.000258175581437 -0.000140074530805)
(0.000412682888732 0.000271907264062 0.000175191719531)
(0.000995217784702 -0.000697693541495 -0.000311990618666)
(0.000610275377915 -9.85428773097e-05 -0.000254860548574)
(0.000321246706681 -3.70740668752e-06 8.92828397845e-05)
(0.00109826918899 -0.00083658441567 -0.0002653825327)
(0.000692314516808 -0.000542501992716 -0.000472055688298)
(0.000268763722127 -0.00037449750096 -0.000137643395845)
(0.00112672572806 -0.00103582892872 -0.000368389506541)
(0.000942255033212 -0.00100763969875 -0.000716322302554)
(0.000391239405507 -0.000836915014752 -0.000468268435637)
(0.00115217247789 -0.00128678374262 -0.000516660318288)
(0.00136330569055 -0.00139923483466 -0.000844301183276)
(0.000778532820627 -0.00128113843755 -0.00077838798308)
(0.001216728666 -0.0015291876392 -0.000649249744457)
(0.00176016458088 -0.00167034453075 -0.000592923353126)
(0.00132344465328 -0.00162274795785 -0.000858842483949)
(0.00130038621027 -0.00170890147758 -0.000567096208881)
(0.00160340680497 -0.00191608434816 0.000360894548321)
(0.00192167875402 -0.00185031706333 -0.000355683549825)
(0.0013936498344 -0.00181817853974 6.13838957161e-05)
(0.00111437962677 -0.0021537089871 0.00101512696367)
(0.000584478586363 -0.001988911282 0.00159509056487)
(-0.00151413784912 -0.00180456209753 0.000297161806502)
(-0.00106512411876 -0.0019827561535 0.000923840252964)
(-0.000521767147044 -0.00193434229478 0.00138567448616)
(-0.0015335078979 -0.00151700678882 -0.000621592251077)
(-0.00177148232986 -0.00167126134375 -0.000424239725346)
(-0.00126961754887 -0.00174145019577 -0.000112940158767)
(-0.00100204375707 -0.00122515535403 -0.000792450516665)
(-0.00103810026623 -0.00144341010028 -0.000877937880626)
(-0.0010996707069 -0.00162488311744 -0.000670228656165)
(-0.000491671786038 -0.00083788657346 -0.000530074601912)
(-0.000383857799556 -0.00112795893864 -0.000698111782704)
(-0.000971505857806 -0.00146057809298 -0.00063431227048)
(-0.00022875766937 -0.000402649365908 -0.0001326224657)
(5.08057189402e-05 -0.000733873983279 -0.000250823480593)
(-0.000897947607604 -0.0012524538296 -0.000350256508987)
(-0.000222827322032 -1.18773311224e-05 0.000208792706217)
(0.000125779895154 -0.000347568706308 0.000208921374709)
(-0.000924123363272 -0.00105295498846 -3.14789830562e-05)
(-0.000329126883188 0.000284762036117 0.000406123381582)
(-1.75405539943e-05 -4.71467842806e-05 0.000530723946333)
(-0.000968110807294 -0.000910836488737 0.000142079817152)
(-0.000378238270192 0.0004744952425 0.000450473227813)
(-0.000225743067118 0.000164064350175 0.000693079739952)
(-0.000926058448357 -0.000825569697294 0.000140199749748)
(-0.000252265824913 0.00056592066333 0.000407249839901)
(-0.00028107960424 0.000269538518518 0.00062767592036)
(-0.000688434161641 -0.0008009780692 1.1085910008e-05)
(8.6132357448e-06 0.000591900589464 0.000378165705843)
(-0.000118971798206 0.000305642072074 0.00055292193283)
(-0.000249906818112 -0.000796243486896 -9.78780251369e-05)
(0.000267060697915 0.000565520462895 0.000406637083076)
(0.000134007075441 0.000305163201654 0.000552551369277)
(0.000263238541382 -0.000797002183473 -9.68219680125e-05)
(0.000390425826516 0.000473725529094 0.000449340893133)
(0.000293762199235 0.000268993001769 0.000625468251501)
(0.000699812543053 -0.000801651856965 9.12709619953e-06)
(0.000336601696094 0.000283406596402 0.000404549090121)
(0.000234873369673 0.000162499973061 0.000691180452022)
(0.000933976630771 -0.00082659479348 0.000139106424603)
(0.000225644867511 -1.40047205414e-05 0.000206499992513)
(2.15979450589e-05 -4.90171540905e-05 0.00052844142629)
(0.000971709832526 -0.000911697471815 0.000140354714392)
(0.000229041395436 -0.000407970635707 -0.000133856143184)
(-0.000126340866231 -0.000351067329296 0.000205845137587)
(0.0009250721054 -0.00105051343858 -3.29717232243e-05)
(0.000485234323492 -0.000848496610392 -0.000530334116164)
(-5.67632096715e-05 -0.000741725565403 -0.000252059571463)
(0.000894318374232 -0.00125796171023 -0.00034676533235)
(0.000990344478442 -0.00124060277382 -0.000792929283753)
(0.000372065383983 -0.00113985226954 -0.000699133586018)
(0.000961402667994 -0.00147101582828 -0.000630189671296)
(0.00152134685426 -0.00153580395652 -0.000621602680648)
(0.00102424944735 -0.00145832654625 -0.000878146213044)
(0.0010873077707 -0.00163942231508 -0.000666626368009)
(0.00151028484147 -0.00182360532886 0.00029854886552)
(0.0017640527484 -0.00168738639706 -0.000422880057761)
(0.0012627467556 -0.00175854014516 -0.000109686497563)
(0.00106271589165 -0.00199636031781 0.000926823708298)
(0.000520069108923 -0.00195040256067 0.00138943564108)
(-0.00141061026584 -0.00159820177109 0.000202438721117)
(-0.0010024500637 -0.0016766926135 0.00081847055069)
(-0.00045508470404 -0.00173495679641 0.00113726225294)
(-0.00130614229148 -0.00134755851563 -0.000680585354895)
(-0.00161903645494 -0.00142542163889 -0.00051181898054)
(-0.00114325923633 -0.00157260250202 -0.000313851182519)
(-0.000668109815752 -0.00109941780072 -0.000783599146665)
(-0.000777594265476 -0.00124335500694 -0.000930085629596)
(-0.000909276081239 -0.00147999382096 -0.000804538005904)
(-9.7781558899e-05 -0.000778074069278 -0.000418860661385)
(-4.68794140453e-05 -0.00100298111834 -0.000678417489057)
(-0.000756838768896 -0.00135892817449 -0.00066838468405)
(0.000144237684656 -0.000427810291501 9.0720359816e-05)
(0.000409547229054 -0.00070331722159 -0.000139691549433)
(-0.000697805362457 -0.00120792747653 -0.000254568494901)
(7.74478408276e-05 -0.000126646578333 0.000530852614825)
(0.000426482270574 -0.00042110538372 0.000408736821977)
(-0.000780416401872 -0.0010742255623 0.000148058864536)
(-0.000133977061487 8.78723206954e-05 0.000817680304703)
(0.000197751282123 -0.000223425298306 0.000821952108599)
(-0.000887292412253 -0.000992425552984 0.000384416267525)
(-0.000288537887693 0.000215844535391 0.000870282432499)
(-0.0001097592582 -9.81111373279e-05 0.00094292173496)
(-0.00091279924769 -0.000954094356891 0.000402574438976)
(-0.000216316017722 0.000269545415723 0.00077334801329)
(-0.000248366997052 -6.21122939624e-05 0.000829106672555)
(-0.000704727183521 -0.000973173089677 0.000235834058931)
(7.94757791973e-06 0.00028029984179 0.000727307596265)
(-0.000115389918801 -6.60671347969e-05 0.000720880274987)
(-0.000258640677812 -0.000999096286156 0.000117306328966)
(0.000230795472138 0.000268871087482 0.000771382537702)
(0.000129849167562 -6.62558061749e-05 0.000720175500532)
(0.000271065289712 -0.000999537074406 0.000115934073782)
(0.000299652086994 0.000214280862755 0.00086730781039)
(0.000260257475658 -6.30552006397e-05 0.000826399497263)
(0.000715678899584 -0.000974429702639 0.00023254635979)
(0.000140870977983 8.52714414364e-05 0.00081507278819)
(0.000117801719628 -0.000100415929136 0.000939379268953)
(0.000920488926088 -0.000955995365789 0.000397112943522)
(-7.63176801161e-05 -0.000130592041623 0.000527786571363)
(-0.000195265430416 -0.000227518197167 0.000819325879219)
(0.000890152284578 -0.000994903264191 0.000380416658448)
(-0.000148741240333 -0.00043440790999 8.76417093076e-05)
(-0.000430018689701 -0.000426888422077 0.000404480107)
(0.000778531522367 -0.0010780119418 0.000144868092927)
(8.64192873427e-05 -0.000787752126499 -0.000420859041317)
(-0.000419243262131 -0.000711642600457 -0.000143159077079)
(0.000690082545609 -0.00121495151322 -0.000254485233716)
(0.000652007934607 -0.00111145234095 -0.000784350515309)
(3.16241388214e-05 -0.00101261411174 -0.000680328549865)
(0.000743115827809 -0.00136808713841 -0.000665902444022)
(0.00129128581185 -0.00136063473753 -0.000679423590158)
(0.000761396475631 -0.0012540280406 -0.000930135577165)
(0.000894324043773 -0.0014908363056 -0.000798906034754)
(0.00140827853352 -0.00160998359405 0.000205394785016)
(0.00161190721341 -0.0014350010929 -0.00050937203218)
(0.00113639132751 -0.00158392775754 -0.000307186382153)
(0.00100101800039 -0.00168286165873 0.000822746012637)
(0.000454291207788 -0.00174453970353 0.00114419702489)
(-0.00130821989685 -0.00128879941214 0.000104212849032)
(-0.000945905307805 -0.0012273278291 0.000723151846425)
(-0.000386977169626 -0.0014016836703 0.000902697462209)
(-0.00110803852766 -0.0011045623231 -0.000761319255242)
(-0.00149900854787 -0.00105772604125 -0.000602811741295)
(-0.00103027574863 -0.00128249563537 -0.000520228334088)
(-0.000401260603013 -0.000931124971842 -0.000824903971989)
(-0.000583955316928 -0.000938167116452 -0.00100590333584)
(-0.000754871833028 -0.00122128927807 -0.000968591578628)
(0.000208329810971 -0.000712104803645 -0.000399248377105)
(0.000193732154112 -0.000787171059837 -0.000716305570208)
(-0.000595443623446 -0.0011500809855 -0.00079120872566)
(0.000425610865346 -0.000478937168672 0.000178324912728)
(0.000659378911198 -0.000600042094853 -0.000135192532939)
(-0.000554838149532 -0.00106694371965 -0.00029856554269)
(0.000291908011156 -0.000296455808746 0.000699836315751)
(0.000622003609244 -0.000432891017806 0.000456671060204)
(-0.000690722279735 -0.00100044454397 0.000153543109861)
(-7.93299047557e-06 -0.000177630730905 0.000947193538857)
(0.00032958993721 -0.000338447815291 0.000878898212373)
(-0.000846999971157 -0.000982576594005 0.000408571670489)
(-0.00024167326242 -0.000131577602267 0.000901745975016)
(-6.38316308351e-05 -0.00029090704864 0.000905429974432)
(-0.000933641127773 -0.00100350585616 0.000406737598979)
(-0.00021481400311 -0.000146589756458 0.000776638934253)
(-0.000267090772383 -0.00032058267643 0.000742065266901)
(-0.000763800513472 -0.0010894232277 0.000200636029815)
(7.58653387241e-06 -0.000159523313906 0.000713748179255)
(-0.000129760280992 -0.000355026481241 0.000589763366508)
(-0.000287400536477 -0.00115431585291 2.8216859054e-05)
(0.00022889532177 -0.000146943248572 0.000775192460093)
(0.000144116609728 -0.000355594698572 0.000590012520709)
(0.000299330434245 -0.00115431321497 2.70602653652e-05)
(0.000252104680056 -0.000133457893111 0.000898470955826)
(0.0002775641097 -0.000322406541528 0.000741287531684)
(0.000773876992058 -0.00109046678838 0.000197494244921)
(1.31283754677e-05 -0.000181744126728 0.000943632359982)
(6.98352135137e-05 -0.000294953825162 0.000901618179514)
(0.000940395953666 -0.00100658884141 0.000401759699545)
(-0.000292893892654 -0.000302522801847 0.000696019414857)
(-0.000329255601617 -0.000344449436899 0.000874184281481)
(0.000848369650969 -0.000987281969103 0.000402073692097)
(-0.000433033582377 -0.000486870989906 0.000173679320613)
(-0.000627742136424 -0.000440365896844 0.000451493138975)
(0.000686497836844 -0.00100660264905 0.000147176482629)
(-0.000221989305392 -0.000721356371745 -0.000402628585627)
(-0.000670989859345 -0.000608994694112 -0.00014097762451)
(0.000544810410341 -0.00107506646552 -0.000302219539659)
(0.000382849535771 -0.000940543400223 -0.000826113611721)
(-0.000210128232877 -0.000795760099025 -0.000719206132592)
(0.000580283468326 -0.00115849624615 -0.000789383004478)
(0.00109292191117 -0.0011129416118 -0.000760084019187)
(0.00056755695306 -0.000945451931948 -0.00100659472105)
(0.000739452936852 -0.00122936440228 -0.00096366483749)
(0.00130838876357 -0.00129460245075 0.000107979195441)
(0.00149349374238 -0.001062275598 -0.000600100500518)
(0.00102491669354 -0.00128912223616 -0.000512152189497)
(0.00094578636984 -0.00122821204962 0.000727963453335)
(0.000387505375119 -0.00140590280811 0.000911768537635)
(-0.0012401063064 -0.000843539867881 1.61272560973e-05)
(-0.000911282515664 -0.000645803173219 0.000654813470632)
(-0.000340029316179 -0.000915614831833 0.000711576025688)
(-0.000979915021316 -0.000736680443816 -0.000847395821891)
(-0.00142997619402 -0.000561396700063 -0.00067413832265)
(-0.000956650015935 -0.00084721349388 -0.000700490747765)
(-0.000232616225907 -0.000641030164097 -0.000897304934056)
(-0.000472511965477 -0.000503134794482 -0.00107631281812)
(-0.000654699758649 -0.000816636727173 -0.00113259109542)
(0.000397630392414 -0.000523260790682 -0.000452249726043)
(0.000328634925011 -0.000431348780514 -0.000775338398557)
(-0.000500100821863 -0.000786337099477 -0.000948506750021)
(0.000590376179645 -0.000402903210168 0.000143153614536)
(0.000795282632348 -0.00034496705018 -0.000185429211179)
(-0.00048098401218 -0.000751287341979 -0.00042604465433)
(0.000403120697548 -0.000317926874432 0.000635732956826)
(0.000716302693833 -0.000272766427017 0.000413212601385)
(-0.000660978578355 -0.000732262648057 3.15427954001e-05)
(2.95911774135e-05 -0.000282800665542 0.000837134647948)
(0.000386036553439 -0.000234280648557 0.000781661055249)
(-0.000863646746003 -0.000745021731729 0.000256556397992)
(-0.000272080649846 -0.000299864148315 0.000745749266317)
(-7.68589008784e-05 -0.000231681123875 0.000784543534071)
(-0.00102006123495 -0.000803348494306 0.000214167923714)
(-0.000250391724791 -0.00034068805723 0.000555189699156)
(-0.000307637785438 -0.000265832952777 0.000558932440635)
(-0.000864328680551 -0.000902646330796 -0.000116874193277)
(7.65340778031e-06 -0.000359688304414 0.000466027707961)
(-0.000148483872158 -0.000292749960819 0.000367217982021)
(-0.000327300589793 -0.000964887534412 -0.000368417214221)
(0.000263625783069 -0.000342895633197 0.000556107592299)
(0.000160683136472 -0.000294564936716 0.000366964176594)
(0.00033904289785 -0.000965790288711 -0.00036759966468)
(0.000280041852813 -0.000303868406511 0.000744434755371)
(0.000316398596063 -0.000270207722509 0.000558169916262)
(0.000872391806627 -0.000905241765487 -0.000116449047114)
(-2.67696754397e-05 -0.000288752016711 0.000832170101012)
(8.09876345092e-05 -0.000237530445896 0.000780533608017)
(0.00102426200252 -0.000807964821708 0.000209256479794)
(-0.000406217458213 -0.000325368673088 0.000629658005598)
(-0.000387405772681 -0.000241580099947 0.000774078887435)
(0.000863356139631 -0.000751537697434 0.000248729943421)
(-0.000599476299987 -0.000411274310968 0.000136836193851)