/*--------------------------------*- C++ -*----------------------------------*\
| =========                 |                                                 |
| \\      /  F ield         | OpenFOAM: The Open Source CFD Toolbox           |
|  \\    /   O peration     | Version:  3.0.1                                 |
|   \\  /    A nd           | Web:      www.OpenFOAM.org                      |
|    \\/     M anipulation  |                                                 |
\*---------------------------------------------------------------------------*/
FoamFile
{
    version     2.0;
    format      ascii;
    class       volScalarField;
    location    "1.2";
    object      epsilon;
}
// * * * * * * * * * * * * * * * * * * * * * * * * * * * * * * * * * * * * * //

dimensions      [0 2 -3 0 0 0 0];

internalField   nonuniform List<scalar> 
7968
(
0.00776769864771
0.00826480403207
0.00857635529369
0.00870985074612
0.0087535827823
0.0087597033046
0.00875191668285
0.00873991375926
0.00872807503964
0.00871948379876
0.00871939612912
0.00872790247241
0.00873974161861
0.00875177941604
0.00875961682218
0.00875354950736
0.00870985810144
0.00857639421188
0.00826490950418
0.00776776108744
0.00826481904035
0.0111805411316
0.0129798159423
0.0138229150191
0.0141427331232
0.0142187770754
0.0142018641835
0.0141635432639
0.0141327132829
0.0141168513435
0.0141167190302
0.0141323605249
0.0141630619187
0.0142013520744
0.0142183153473
0.01414237742
0.0138226799461
0.0129797055788
0.0111806666761
0.00826495452143
0.00857633747802
0.0129796399497
0.0159237888366
0.0174243220181
0.0180585517431
0.0182486945021
0.0182514482937
0.0182031183569
0.0181621947544
0.0181422781346
0.0181420840962
0.0181616536902
0.0182023436178
0.018250576911
0.0182478757646
0.0180578918776
0.0174238649125
0.0159235556731
0.0129796847306
0.00857648895114
0.00870968532632
0.0138221521094
0.0174237146477
0.0193466819095
0.0201927508909
0.020451473474
0.0204533652503
0.0203845304727
0.0203284323522
0.0203023946775
0.0203021328079
0.0203276720195
0.0203834225585
0.0204521121255
0.0204502317998
0.0201917132885
0.0193459165098
0.0174232626624
0.0138220560682
0.00870983629637
0.00875316908471
0.0141411783652
0.0180571589081
0.0201920605061
0.0211282091588
0.0213941394619
0.0214521405094
0.0214360582907
0.0214012853625
0.0213805346272
0.0213803393262
0.0214007216093
0.021435234052
0.0214511682165
0.0213925462814
0.0211267299235
0.0201909077989
0.0180563876793
0.0141408665742
0.00875328311662
0.00875899606019
0.0142164736722
0.0182466852618
0.0204504480529
0.0213940781073
0.021788542282
0.0218854576873
0.0218540088724
0.0218032460552
0.0217738208765
0.021773612441
0.021802632464
0.0218530870827
0.0218843807721
0.0217873766424
0.0213922992522
0.0204488944169
0.0182455817011
0.0142159141432
0.00875904631593
0.00875091118206
0.014198966543
0.0182490925767
0.020452455451
0.021451547919
0.0218852196479
0.021957608963
0.021892445379
0.0218154006483
0.0217722303311
0.0217720041358
0.0218147520115
0.0218914726627
0.0219564242812
0.0218840088928
0.0214503052366
0.0204506427953
0.0182477128465
0.0141981915169
0.00875088884643
0.0087386237613
0.0141602199933
0.0182005953288
0.0203838211932
0.0214353524475
0.0218534295935
0.0218915500881
0.0217902340455
0.0216848175212
0.0216260223391
0.0216257562226
0.0216841374165
0.0217892601475
0.0218903641956
0.02185218162
0.0214340793125
0.0203819095659
0.0181990577281
0.0141592736373
0.00873853186661
0.008726560538
0.0141291558407
0.0181595949273
0.0203279306097
0.0214007181717
0.0218028810625
0.0218146140068
0.0216846971567
0.021554663443
0.0214803002076
0.0214799820089
0.0215539305632
0.0216837858247
0.0218135440996
0.0218017001109
0.0213994675131
0.020326071771
0.0181580054849
0.0141281207664
0.00872640192969
0.00871793505675
0.0141133355767
0.018139782559
0.0203021991025
0.0213803188176
0.0217740837789
0.0217723792743
0.021626645289
0.021480817978
0.0213941668848
0.0213939258979
0.0214801903194
0.021625874874
0.0217714904914
0.0217730720538
0.0213791920008
0.0203005216657
0.0181382647267
0.0141122951592
0.00871773502296
0.00871823996698
0.0141136588158
0.0181400741964
0.0203024509652
0.021380545018
0.0217743579665
0.0217727829229
0.0216271707019
0.0214814250702
0.0213949027803
0.0213947220129
0.0214809854561
0.0216266273973
0.0217721429359
0.0217735898217
0.0213796272163
0.0203010666645
0.0181386971499
0.0141126762052
0.00871803835562
0.00872718977727
0.0141300432627
0.018160384835
0.0203286185887
0.0214013564528
0.0218037018776
0.0218158167982
0.0216862228129
0.0215564391335
0.0214823595336
0.021482213306
0.0215561434589
0.0216858725238
0.021815389798
0.0218031577551
0.0214006709305
0.0203275740218
0.0181592047384
0.0141291604121
0.00872702525752
0.00873936297126
0.0141615448348
0.0182018350163
0.0203849305502
0.0214363326097
0.0218546698351
0.0218933300821
0.0217924236767
0.021687411373
0.0216290257763
0.021628956865
0.0216872711042
0.0217922386271
0.0218930660259
0.0218543244107
0.0214358537571
0.0203841610927
0.0182008408646
0.0141608018381
0.00873924410537
0.00875166800681
0.01420063304
0.0182507393469
0.0204539642929
0.0214528221917
0.0218866946998
0.0219595625998
0.0218948277114
0.021818267719
0.021775573455
0.0217755562445
0.021818217997
0.0218947486135
0.0219594353729
0.0218864935263
0.021452469008
0.0204533158736
0.018249872978
0.0141999466271
0.00875157851316
0.00875971087912
0.0142183464473
0.018248631621
0.0204523484438
0.0213963103992
0.0217902224221
0.0218874289176
0.021856444616
0.021806205554
0.0217772384398
0.0217772521862
0.0218062214505
0.0218564334686
0.0218873772913
0.0217900672102
0.0213959783268
0.0204516337829
0.0182477535835
0.0142177306077
0.00875965418695
0.00875379034111
0.0141430914731
0.0180592471871
0.0201940907851
0.0211304515311
0.0213970739261
0.0214540576362
0.0214383566489
0.0214040668347
0.0213837398321
0.0213837717838
0.0214041241007
0.0214383948447
0.0214540331764
0.0213968387787
0.0211298765144
0.020193229971
0.0180583662932
0.0141425539894
0.00875376530167
0.00871015329516
0.0138238640541
0.0174256279019
0.0193485097313
0.0201945514321
0.0204535850145
0.0204561100402
0.020388025771
0.0203325785797
0.0203070971937
0.0203071382744
0.0203326462787
0.0203880375268
0.0204560062262
0.0204532547934
0.0201939192453
0.0193476689756
0.017424840685
0.0138234236705
0.00871015233475
0.00857662045947
0.0129809257131
0.015925273901
0.0174256841703
0.0180597115672
0.0182497850079
0.0182527275438
0.018204720704
0.0181641437225
0.0181445494858
0.0181446213456
0.0181643043491
0.018204868117
0.0182527396813
0.0182495844405
0.0180592338297
0.0174250158864
0.0159246247249
0.0129805810268
0.0085766225988
0.00826498001239
0.0111813524167
0.012980747667
0.0138237440091
0.0141433191513
0.0142191354523
0.0142021314011
0.0141638654057
0.0141331814116
0.0141175188783
0.0141176012497
0.0141334094406
0.0141641325685
0.0142023274601
0.0142191492532
0.014143097655
0.0138233368695
0.0129802812013
0.011181082714
0.00826495826229
0.00776772467602
0.00826492357458
0.0085764796556
0.00870995049421
0.00875362048486
0.00875965121138
0.0087517919054
0.00873975213775
0.00872791562764
0.00871937465274
0.00871937102559
0.00872793700594
0.00873979299226
0.00875181966642
0.00875964003923
0.0087535643361
0.0087098606835
0.00857638148541
0.0082648699474
0.0077677006848
0.0082344188327
0.0109741686576
0.0127145447329
0.0135551333494
0.0138960273206
0.0140001103616
0.0140083342956
0.0139871408999
0.0139645325829
0.0139510195183
0.0139509290906
0.0139642969593
0.0139868344614
0.0140080221432
0.0139998326469
0.0138958141563
0.0135549899612
0.0127144731066
0.0109742044057
0.00823447143238
0.0109739261573
0.0120511406114
0.013493898991
0.0142631151035
0.0145979822587
0.01471326054
0.0147355232691
0.0147275528078
0.0147158062389
0.0147089142243
0.014708849046
0.0147156298811
0.0147273046856
0.0147352477411
0.0147129963714
0.0145977549755
0.0142629329323
0.0134937627144
0.0120510513406
0.0109738491045
0.0127142461407
0.0134937482748
0.0150381701393
0.0159263372929
0.0163424405444
0.0164997686483
0.016538542925
0.01653489207
0.0165235415944
0.0165164773273
0.0165164078787
0.0165233490741
0.0165346146049
0.0165382279516
0.0164994587284
0.0163421661305
0.0159261080785
0.0150379866083
0.0134936107242
0.0127141622693
0.0135546065337
0.0142627388651
0.0159261009038
0.01692346483
0.0174117090721
0.0176064240592
0.017660990879
0.0176620884947
0.0176515163334
0.0176443798674
0.0176443053855
0.0176513035326
0.0176617770956
0.0176606314775
0.0176060553015
0.0174113697928
0.0169231711314
0.0159258587694
0.0142625581448
0.0135545178503
0.0138950689136
0.0145972891609
0.0163419119845
0.0174114374291
0.017946742894
0.0181681093045
0.0182464120078
0.0182625867824
0.0182582207742
0.0182527796284
0.0182527171774
0.0182580446033
0.0182623281193
0.0182460988704
0.0181676949161
0.0179463245861
0.017411056978
0.0163415866743
0.0145970392637
0.0138949140156
0.013998665758
0.0147122430409
0.0164989810339
0.0176059431843
0.0181679171354
0.0184253972633
0.018519828228
0.0185393889419
0.0185343367215
0.0185278048656
0.0185277390567
0.0185341507395
0.0185391173378
0.0185195054237
0.0184250251339
0.0181674425591
0.0176054720925
0.016498564221
0.0147119081964
0.0139984022547
0.014006457222
0.0147342349398
0.0165375716721
0.017660385741
0.0182459744681
0.0185196173499
0.018616549323
0.0186325645188
0.018623097165
0.0186137943362
0.0186137227046
0.0186228933906
0.0186322673491
0.0186162004529
0.0185192302002
0.0182455454915
0.0176598523303
0.0165370780915
0.0147338221024
0.0140060753565
0.0139849177017
0.0147260687827
0.0165338033704
0.0176614166947
0.0182620080951
0.0185390390325
0.0186325228967
0.0186421286825
0.0186264371521
0.0186133485899
0.0186132772284
0.0186262323278
0.0186418252802
0.0186321577982
0.0185386267471
0.0182615589963
0.0176608503497
0.0165332636295
0.0147255974031
0.013984441686
0.0139621023101
0.0147142180039
0.0165224034076
0.0176508277641
0.0182575875315
0.0185339085723
0.0186229746223
0.0186263645726
0.0186047392695
0.0185881185675
0.0185880589851
0.0186045604809
0.0186260667476
0.0186226094884
0.0185334972111
0.0182571353912
0.0176502650166
0.0165218512743
0.0147137172431
0.0139615620594
0.0139486186377
0.0147073533992
0.0165153890172
0.0176437628167
0.0182521995148
0.0185274022728
0.0186136259017
0.0186133011826
0.0185881931624
0.018569412319
0.0185693309412
0.0185879963672
0.0186130144201
0.0186132826432
0.0185270194792
0.0182517739686
0.0176432393242
0.0165148591853
0.0147068588325
0.0139480707521
0.0139488969373
0.0147074943429
0.0165155088068
0.0176438648507
0.0182522944558
0.0185275063121
0.0186137517353
0.0186134638069
0.0185884197847
0.0185696505975
0.0185695892643
0.0185882338879
0.0186132061835
0.0186134588782
0.0185271799138
0.0182519243567
0.0176434119054
0.0165150271765
0.0147070326964
0.0139483869211
0.0139628317368
0.0147146132476
0.01652274043
0.0176511148468
0.0182578492455
0.0185341781272
0.0186232797186
0.0186267412537
0.0186052276772
0.0185886585419
0.0185886315744
0.0186051145716
0.0186265707487
0.0186230757285
0.0185339288985
0.0182575503573
0.0176507481807
0.0165223256312
0.0147142004385
0.013962389982
0.0139859536019
0.0147266722129
0.0165343296976
0.0176618613793
0.0182623900762
0.0185394043569
0.0186329155087
0.0186426201107
0.0186270272772
0.0186140091947
0.0186139949556
0.0186269708809
0.0186425286579
0.0186327906918
0.0185392300622
0.0182621627647
0.0176615750295
0.0165339805644
0.0147263178206
0.0139855966076
0.0140076852472
0.0147350049485
0.0165382614932
0.017660968023
0.0182464528457
0.0185200330172
0.0186169831667
0.0186331073135
0.0186237490749
0.0186145232525
0.0186145222982
0.0186237382641
0.0186330780599
0.0186169237
0.0185199239448
0.0182462836279
0.0176607331616
0.0165379588039
0.014734694454
0.0140073841295
0.0139999858564
0.0147131356992
0.0164998094019
0.0176066576785
0.0181685606095
0.0184258861467
0.0185202818482
0.0185399152044
0.0185349646632
0.0185285317366
0.0185285435966
0.0185349925264
0.0185399397203
0.018520276691
0.0184258252484
0.0181684344622
0.0176064367601
0.0164995270841
0.0147128593382
0.0139997410638
0.0138963745005
0.0145982526173
0.0163428377864
0.0174122377772
0.0179474581846
0.0181688071883
0.0182469336491
0.0182631506739
0.0182588826794
0.0182535483482
0.0182535695157
0.0182589337168
0.0182632063635
0.0182469614916
0.0181687682558
0.0179473247518
0.0174120141976
0.0163425695246
0.0145980044143
0.0138961723535
0.0135557678532
0.0142637074544
0.0159270597495
0.0169242873739
0.0174124093659
0.0176070883337
0.0176616999393
0.0176629130194
0.0176524728944
0.0176454702243
0.0176454949422
0.0176525320085
0.0176629759443
0.0176617339454
0.0176070559954
0.0174122838312
0.0169240800859
0.015926814892
0.0142634799519
0.0135555872319
0.0127151623517
0.0134946650068
0.0150391006436
0.0159271249996
0.0163430678612
0.0165002970328
0.0165390651447
0.0165354746506
0.0165242190707
0.0165172643329
0.016517298217
0.0165243041821
0.0165355731528
0.016539133501
0.016500297005
0.0163429751865
0.0159269503187
0.015038879656
0.0134944394598
0.0127149529589
0.0109745266129
0.0120519520489
0.0134947259885
0.0142637927213
0.0145984752777
0.0147136058394
0.0147357998731
0.0147278371259
0.0147161517129
0.0147093549856
0.014709399201
0.0147162688291
0.0147279820362
0.0147359187897
0.0147136532082
0.0145984286455
0.0142636613151
0.0134945376825
0.0120517343296
0.0109742757867
0.00823442954497
0.0109748154578
0.0127152814552
0.0135557513685
0.0138964577302
0.0140003606527
0.0140084882802
0.0139872973596
0.0139647696069
0.0139513976237
0.01395146307
0.0139649491392
0.0139875272354
0.0140086898832
0.0140004732264
0.0138964592185
0.0135556630044
0.0127151584457
0.0109747240368
0.00823440072542
0.00852914945225
0.012611844777
0.0154208318865
0.0168947854491
0.0175552747313
0.0177931107862
0.0178426940921
0.0178265976972
0.0178003051047
0.0177842045713
0.0177841048702
0.0178000387337
0.0178262346686
0.0178423105071
0.0177927590191
0.0175549917771
0.0168945784084
0.0154207065449
0.0126118428268
0.00852922989246
0.0126114286905
0.0134224698988
0.014979870203
0.0158809284631
0.0163112888767
0.0164833139493
0.0165351069623
0.0165410657165
0.0165352921707
0.0165305560538
0.0165305077674
0.016535161342
0.016540880756
0.0165349008801
0.0164831130007
0.0163111116924
0.0158807797168
0.0149797474924
0.0134223519413
0.0126112538373
0.0154201966905
0.0149796591977
0.0162420762117
0.017054311645
0.0174706625861
0.0176506346413
0.0177122327456
0.0177246026285
0.0177220983562
0.0177186226828
0.017718584502
0.017721993275
0.0177244503881
0.0177120578428
0.0176504575132
0.0174704964659
0.0170541555418
0.0162419237855
0.014979490921
0.0154199521105
0.0168937442768
0.0158805019566
0.0170540959221
0.0178604131772
0.0182938178071
0.018491807824
0.018565665479
0.0185846453749
0.0185856566693
0.0185833743364
0.0185833436673
0.0185855696569
0.0185845119647
0.018565497066
0.0184916277242
0.0182936340733
0.0178602251236
0.0170539015548
0.0158802968388
0.0168934562222
0.0175535634942
0.016310565994
0.0174702045728
0.0182935956659
0.0187485048525
0.0189645167925
0.0190509722229
0.0190771122538
0.0190801696642
0.0190781325918
0.0190781053477
0.0190800861354
0.0190769854423
0.0190508154682
0.0189643368764
0.0187482922578
0.0182933624204
0.017469956339
0.0163103058595
0.0175531595212
0.0177906900235
0.0164822684564
0.0176499510722
0.0184913951684
0.0189643134547
0.0191953733628
0.0192923014224
0.0193235859759
0.0193275595371
0.0193251336403
0.0193251079484
0.0193274762117
0.019323455895
0.0192921398032
0.0191951756465
0.0189640779642
0.0184911120137
0.0176496435917
0.0164819393694
0.0177901244998
0.01783968502
0.0165337789822
0.0177113730863
0.0185651178633
0.0190506262618
0.0192921408241
0.019395984877
0.0194294348156
0.0194326692828
0.0194290935529
0.0194290625929
0.0194325779774
0.0194293049635
0.0193958178551
0.0192919250731
0.0190503576143
0.0185647903334
0.0177110134089
0.0165333823811
0.0178389528202
0.0178231546532
0.0165395216497
0.0177236117321
0.0185839635
0.0190766501355
0.0193233056489
0.0194293613967
0.0194623219155
0.0194640332817
0.0194592978988
0.0194592593119
0.0194639440981
0.019462191716
0.0194291902858
0.0193230732555
0.0190763612451
0.0185836149587
0.0177232186966
0.0165390721986
0.0178223001513
0.017796623454
0.0165336227918
0.0177210300812
0.0185848828581
0.0190796311
0.0193271690237
0.0194324654168
0.0194638899776
0.0194642789885
0.0194589335003
0.0194588917641
0.0194641882009
0.019463751603
0.019432286811
0.0193269346427
0.0190793400063
0.0185845310352
0.01772062636
0.0165331468659
0.0177957045536
0.017780570622
0.0165288923205
0.0177175667909
0.0185826143324
0.0190776007412
0.0193247109562
0.0194287894331
0.0194590819337
0.0194588390391
0.0194533418396
0.0194533125051
0.0194587440817
0.0194589345023
0.0194286047887
0.0193244900155
0.0190773235877
0.0185822735967
0.0177171738088
0.0165284192758
0.0177796578872
0.0177808901776
0.0165290126566
0.0177176532933
0.0185826831882
0.0190776582912
0.0193247633633
0.0194288468673
0.0194591582856
0.0194589453546
0.0194534422158
0.0194534254938
0.019458870676
0.0194590367858
0.0194286905844
0.0193245713406
0.0190774084799
0.0185823683124
0.0177172877169
0.0165285661869
0.0177800385795
0.0177975197028
0.0165339633914
0.017721274802
0.0185850732783
0.0190797780182
0.0193272974397
0.0194325946648
0.0194640586222
0.0194645022913
0.019459150595
0.0194591453503
0.0194644788065
0.0194640037202
0.0194325065496
0.0193271535569
0.0190795711682
0.0185847978537
0.0177209503122
0.0165335604902
0.0177967699257
0.0178245290841
0.0165400464206
0.0177239916426
0.0185842429355
0.019076852547
0.019323451447
0.0194294968942
0.0194625035786
0.0194642614554
0.0194595527789
0.0194595588986
0.0194642712899
0.0194624999878
0.0194294572712
0.01932335607
0.0190766932172
0.0185840201473
0.01772371166
0.0165396955198
0.0178238979059
0.0178414330964
0.0165344550449
0.0177118729258
0.0185654767817
0.0190508782756
0.019292304054
0.0193961173841
0.0194296108696
0.0194328965099
0.019429357561
0.0194293696393
0.0194329171415
0.0194296305688
0.0193961144907
0.0192922520674
0.0190507569998
0.0185652954704
0.017711627088
0.0165341498606
0.0178408938984
0.0177926979503
0.0164830699684
0.0176505694185
0.0184918501024
0.0189646378356
0.0191955933419
0.0192924697319
0.0193237714137
0.0193277911746
0.0193254155456
0.0193254363374
0.0193278375161
0.019323819741
0.0192924935838
0.019195565369
0.0189645339083
0.0184916850757
0.0176503453114
0.0164828051635
0.017792246729
0.0175556894157
0.0163114719557
0.0174709382947
0.0182941495103
0.0187489101204
0.0189648082517
0.0190512295796
0.0190773826437
0.019080480312
0.0190785009675
0.0190785238092
0.0190805361508
0.0190774469061
0.0190512721582
0.0189647995218
0.018748830558
0.0182940000604
0.0174707377631
0.0163112443113
0.0175553181388
0.0168958053589
0.0158814969913
0.0170549378649
0.017861058646
0.0182942980246
0.0184921855651
0.0185660213647
0.0185849945748
0.0185860257925
0.0185838002898
0.0185838281641
0.0185860966192
0.0185850791849
0.0185660870388
0.0184922055813
0.0182942483959
0.0178609411685
0.0170547697736
0.0158812987482
0.0168954984566
0.015421995878
0.0149807376001
0.0162430262379
0.0170550517773
0.0174712071631
0.0176510482859
0.0177126017266
0.0177249845313
0.0177225243655
0.0177191159824
0.0177191532475
0.0177226205889
0.0177251075621
0.017712712299
0.017651112471
0.0174712029347
0.0170549777872
0.0162428928037
0.014980548294
0.0154216894423
0.0126126566453
0.013423600283
0.0149809143316
0.0158817433444
0.0163118701582
0.0164837210407
0.0165354312653
0.016541387194
0.0165356665319
0.016531018818
0.0165310737112
0.0165358123063
0.0165415790645
0.0165356133552
0.0164838482694
0.0163119192857
0.0158817151081
0.014980819898
0.0134234293652
0.0126123496378
0.00852915921725
0.0126131617057
0.0154224914238
0.0168963227576
0.0175565377468
0.0177941217023
0.0178435949493
0.0178275418064
0.0178013994129
0.0177855138175
0.0177856507557
0.0178017673557
0.0178280369101
0.0178440871567
0.0177945025524
0.01755675114
0.0168963795298
0.0154224531626
0.0126131133746
0.00852915695426
0.00866839941502
0.0133842045976
0.0167928781402
0.0186749887583
0.0195684272164
0.0199170573789
0.020008261603
0.0200028926478
0.019977478803
0.0199607659352
0.0199606587881
0.0199771971123
0.0200025123123
0.0200078645182
0.019916704633
0.0195681580985
0.0186748067161
0.0167927757894
0.0133842726471
0.00866851313175
0.0133835801474
0.0141361573944
0.015819326375
0.0168367805578
0.0173492963604
0.0175701757918
0.0176471351337
0.0176644484231
0.0176630750593
0.0176596926919
0.0176596543537
0.0176629708431
0.0176643020691
0.0176469724063
0.0175700154946
0.0173491524593
0.0168366585043
0.0158192289651
0.014136062326
0.0133834118989
0.0167919431525
0.0158190607586
0.0170122080337
0.017830702328
0.0182742037771
0.0184812984778
0.0185627699793
0.0185871571908
0.0185904020549
0.0185889929048
0.0185889718942
0.0185903441687
0.0185870737967
0.0185626708347
0.01848119037
0.0182740958105
0.0178305894057
0.017012083375
0.0158188973044
0.0167916463949
0.0186734571185
0.0168362687394
0.0178304678553
0.0185824607369
0.0190130348373
0.0192274069696
0.0193207734546
0.0193552083287
0.0193625285281
0.0193621020427
0.0193620923582
0.0193624975959
0.0193551608904
0.019320705036
0.0192273142474
0.0190129235718
0.0185823239465
0.017830300863
0.0168360577298
0.0186730704812
0.0195659792291
0.0173484453965
0.0182737034161
0.0190127930496
0.0194518660715
0.0196831134462
0.0197912347148
0.0198332486223
0.0198429002393
0.0198424079997
0.0198424054343
0.0198428809176
0.0198332140506
0.019791182142
0.0196830265429
0.019451735054
0.019012618094
0.0182734854789
0.0173481739629
0.0195654106703
0.0199136552226
0.0175689282714
0.01848052793
0.0192269310172
0.0196828643549
0.0199306320285
0.0200517554247
0.0200994175993
0.0201091971295
0.0201074610657
0.0201074573644
0.0201091764023
0.020099378406
0.0200516983244
0.0199305381366
0.0196827102861
0.0192267083317
0.018480252639
0.0175685828168
0.0199128583866
0.0200040999543
0.0176455186892
0.0185617658317
0.0193200883942
0.0197907385797
0.0200514958508
0.0201805980703
0.0202294607652
0.0202368653175
0.020232877563
0.0202328650866
0.0202368345297
0.0202294106711
0.020180522334
0.0200513863294
0.0197905588825
0.019319821543
0.0185614360651
0.017645097639
0.0200030853178
0.0199981760689
0.0176625405046
0.0185859688271
0.0193543382497
0.0198325660387
0.0200989390834
0.0202290374631
0.0202758556043
0.0202814611575
0.0202767539347
0.0202767304808
0.0202814150695
0.0202757866457
0.0202289411173
0.0200988093099
0.0198323630983
0.0193540462155
0.0185855959374
0.0176620549732
0.0199970128426
0.0199724346234
0.0176609939798
0.0185891072603
0.0193615759148
0.0198420886436
0.0201085421882
0.0202361952381
0.0202811656156
0.020287324363
0.0202836321029
0.0202835859088
0.0202872328532
0.0202810751661
0.0202360759326
0.0201083952664
0.0198418704531
0.0193612637083
0.0185887107859
0.0176604709808
0.0199712058564
0.0199557433368
0.0176576035602
0.0185876882692
0.0193611380659
0.0198415520988
0.020106716483
0.0202321787956
0.0202763830463
0.0202835032077
0.0202808634024
0.0202808472825
0.0202834389846
0.020276284885
0.0202320359491
0.0201065589776
0.019841327714
0.0193608230005
0.0185872897139
0.0176570723424
0.0199545298029
0.0199561211905
0.0176577304793
0.0185877605616
0.0193611741323
0.0198415632074
0.0201066989554
0.0202321512047
0.0202763665638
0.0202834673009
0.0202808467479
0.0202808393284
0.0202834552566
0.0202763093344
0.0202320247381
0.0201065446608
0.0198413376845
0.0193608656854
0.018587375029
0.0176572180232
0.0199549926615
0.0199735067843
0.0176613539954
0.0185893116364
0.0193616689165
0.0198420882424
0.0201084545448
0.020236083829
0.020281101001
0.0202872800029
0.0202836329681
0.0202836239666
0.0202872847393
0.0202810887613
0.0202360183901
0.0201083400372
0.0198418852093
0.0193613795126
0.0185889531328
0.0176608826933
0.0199725222229
0.0199998395063
0.0176630929188
0.0185862879587
0.0193544766328
0.0198325215092
0.0200987380694
0.02022880125
0.0202756435721
0.0202813352589
0.0202767072569
0.0202767174078
0.0202813696293
0.0202756759492
0.0202287972604
0.0200986704701
0.0198323538945
0.0193542114682
0.0185859649051
0.0176626770576
0.0199990099597
0.0200062576833
0.0176462292178
0.018562190451
0.019320271156
0.0197906748829
0.020051217631
0.020180225375
0.0202290573824
0.0202365285757
0.0202326318447
0.0202326513386
0.0202365763022
0.0202291128354
0.0201802571892
0.0200511881819
0.019790535992
0.0193200417757
0.0185619034266
0.017645872152
0.0200055566731
0.0199162054482
0.0175697752404
0.0184810680701
0.0192272129708
0.0196828743763
0.0199303846715
0.0200513408779
0.0200989526504
0.0201087651715
0.0201070758742
0.0201071029809
0.0201088298705
0.0200990285153
0.0200513917658
0.0199303660878
0.0196827505708
0.0192270097699
0.018480817404
0.0175694803598
0.0199156150223
0.019568756736
0.0173494245723
0.0182743802328
0.0190132052265
0.0194520259838
0.0196830217883
0.0197909551065
0.0198329012807
0.0198425552865
0.0198420898738
0.0198421205336
0.0198426326781
0.0198329949305
0.0197910192577
0.0196830145672
0.0194519287205
0.0190130435401
0.0182741804002
0.0173491959339
0.019568288158
0.018676236355
0.0168373945672
0.0178313045605
0.0185830178612
0.0190133562366
0.0192275385608
0.0193207823981
0.0193551491538
0.0193624847316
0.019362099754
0.019362134411
0.0193625744695
0.0193552634317
0.0193208723518
0.019227571644
0.0190133185632
0.0185829203673
0.017831164074
0.0168372208872
0.0186758947304
0.0167944152456
0.0158203501088
0.0170132423685
0.0178314499558
0.0182746958682
0.0184816013802
0.0185629807193
0.0185873480555
0.0185906235945
0.0185892745456
0.0185893227397
0.0185907476355
0.0185875112212
0.018563132939
0.0184817066593
0.0182747383531
0.017831427357
0.0170131602883
0.0158202077002
0.0167941301482
0.0133853239905
0.0141375827965
0.0158205848935
0.0168377478426
0.0173499795361
0.0175706439974
0.0176474919844
0.0176647935336
0.0176634793744
0.017660199441
0.0176602717553
0.0176636725107
0.0176650545364
0.0176477532869
0.0175708529977
0.0173501121937
0.0168378009171
0.0158205692102
0.0141374833995
0.0133850513052
0.00866835229034
0.0133859885192
0.0167952435189
0.0186773292641
0.0195704915073
0.0199188711809
0.0200100294623
0.0200048160591
0.0199796689582
0.0199632656782
0.0199634789346
0.0199802374669
0.0200056025491
0.0200108562453
0.0199195806996
0.019570989309
0.0186776104432
0.0167953806935
0.0133860530069
0.00866837450413
0.00873781480905
0.013721523307
0.0174236284109
0.0195283315392
0.020559650982
0.0209790901704
0.0210994813121
0.0211035044562
0.0210806279861
0.021064594596
0.021064487283
0.0210803539521
0.0211031444858
0.0210991196074
0.0209787902951
0.0205594578446
0.019528242288
0.0174236521225
0.0137217271306
0.00873795643105
0.0137208318833
0.0144529037356
0.0162198714744
0.0173169315254
0.0178883235566
0.0181459016451
0.018242601507
0.0182691596542
0.0182714298701
0.0182691438613
0.0182691176278
0.0182713592941
0.0182690635712
0.0182424996066
0.0181458044857
0.0178882359621
0.017316860282
0.0162198293335
0.0144528761588
0.0137207633547
0.0174224831997
0.0162195646455
0.017413021919
0.0182623688516
0.0187406099166
0.018976852133
0.0190795590007
0.0191166835003
0.0191253847912
0.0191255283268
0.0191255220546
0.0191253677433
0.0191166606102
0.0190795320728
0.0189768067731
0.0187405587032
0.0182623044656
0.017412940183
0.0162194400286
0.0174222446308
0.0195264187786
0.0173163405557
0.0182621148679
0.0190203067653
0.0194772783942
0.0197230778451
0.0198440132133
0.0198935813567
0.0199064927761
0.0199069516077
0.0199069608116
0.0199065131028
0.0198936090773
0.0198440454511
0.0197230539623
0.0194772257526
0.0190202148867
0.0182619837046
0.0173161532003
0.0195260187052
0.0205567809602
0.0178873714497
0.0187400664194
0.0194770114136
0.0199441251021
0.0202133567104
0.0203531195841
0.0204118494577
0.0204247373748
0.0204226025989
0.020422616879
0.0204247732325
0.0204119001193
0.020353165351
0.020213358902
0.0199440745607
0.019476880986
0.0187398809107
0.0178871212702
0.0205561731282
0.0209751610627
0.0181445002422
0.0189759932489
0.0197224905072
0.0202129897731
0.0205049575793
0.0206595714553
0.02071987659
0.0207259799931
0.0207173022317
0.0207173050459
0.0207260058841
0.0207199252397
0.0206596190374
0.0205049765745
0.0202129311118
0.0197223201127
0.0189757459832
0.0181441757215
0.0209742943102
0.0210947702217
0.0182407634186
0.0190784028081
0.019843041974
0.0203523704949
0.020659202156
0.0208175606512
0.0208695638964
0.0208623751009
0.0208445139202
0.0208445081267
0.0208623923315
0.0208696036163
0.0208176029311
0.0206592212462
0.0203523016628
0.0198428595447
0.0190780986335
0.0182403600013
0.0210936801622
0.0210982310142
0.018266983372
0.0191152986178
0.0198924026642
0.0204108523808
0.0207191801509
0.0208688857009
0.0209062468226
0.0208874809304
0.020863716074
0.0208636963272
0.0208874691978
0.0209062566475
0.0208689011533
0.0207191896183
0.0204107532527
0.019892166097
0.0191149319156
0.0182665022338
0.021097005335
0.0210749883149
0.0182690592763
0.0191238611041
0.0199051534416
0.0204235055838
0.0207249975092
0.0208612739702
0.0208869765291
0.0208647757971
0.0208413368849
0.0208412864443
0.0208646902568
0.0208869313514
0.0208612251476
0.0207249390073
0.0204233559959
0.0199048691816
0.0191234504089
0.0182685252166
0.0210737210096
0.0210589448214
0.0182667693532
0.0191239836146
0.0199055453696
0.0204211899125
0.0207160265905
0.0208432180762
0.0208629932049
0.0208411179264
0.020819995836
0.020819965002
0.0208410525677
0.0208629163619
0.0208431003129
0.0207159019364
0.0204209967984
0.0199052321657
0.0191235543338
0.0182662124757
0.0210577098334
0.0210593261832
0.018266887621
0.0191240156802
0.0199055002324
0.0204210583901
0.020715793789
0.0208429511627
0.0208627685249
0.0208409151104
0.0208198536065
0.0208198340737
0.0208409099838
0.0208627321838
0.0208428332487
0.0207156402942
0.0204208269438
0.0199051621955
0.01912358056
0.0182663350479
0.0210581895875
0.0210760590157
0.0182693944034
0.0191239526344
0.0199050009959
0.0204230621296
0.0207242317059
0.0208603934047
0.0208862143582
0.0208641834536
0.0208409266978