/*--------------------------------*- C++ -*----------------------------------*\
| =========                 |                                                 |
| \\      /  F ield         | OpenFOAM: The Open Source CFD Toolbox           |
|  \\    /   O peration     | Version:  3.0.1                                 |
|   \\  /    A nd           | Web:      www.OpenFOAM.org                      |
|    \\/     M anipulation  |                                                 |
\*---------------------------------------------------------------------------*/
FoamFile
{
    version     2.0;
    format      ascii;
    class       surfaceScalarField;
    location    "1.1";
    object      phi;
}
// * * * * * * * * * * * * * * * * * * * * * * * * * * * * * * * * * * * * * //

dimensions      [0 3 -1 0 0 0 0];

internalField   nonuniform List<scalar> 
22672
(
1.19928023611e-06
1.22052147962e-06
-2.41979005108e-06
2.72372931527e-06
1.09129138048e-06
-2.61572782021e-06
4.18557653785e-06
1.21947005571e-06
-2.6813084746e-06
5.26125466085e-06
1.6079802715e-06
-2.68365604878e-06
5.74392475939e-06
2.2039338468e-06
-2.68661016959e-06
5.54596526225e-06
2.90381279873e-06
-2.70587032963e-06
4.70367927327e-06
3.57910468069e-06
-2.73684839979e-06
3.3513511456e-06
4.1342926333e-06
-2.78200758766e-06
1.67116031047e-06
4.5102059106e-06
-2.83007040847e-06
-1.60629492328e-07
4.69503101303e-06
-2.8633057218e-06
-1.98756799232e-06
4.69382547083e-06
-2.86695600823e-06
-3.65326864111e-06
4.50637910428e-06
-2.8407464971e-06
-4.98200453175e-06
4.12791170839e-06
-2.79923731476e-06
-5.79240383726e-06
3.57016438335e-06
-2.75981525654e-06
-5.95138297169e-06
2.89253641825e-06
-2.73359274782e-06
-5.42479790024e-06
2.19111835571e-06
-2.71772237966e-06
-4.30346730624e-06
1.5957170941e-06
-2.71704983273e-06
-2.79758670615e-06
1.20858859841e-06
-2.71445501507e-06
-1.23000899344e-06
1.08225953675e-06
-2.64980758795e-06
1.21815760082e-06
-2.44814015212e-06
1.0665350086e-06
2.77031954735e-06
-2.61631924155e-06
2.7917021995e-06
2.84587218263e-06
-3.47973468983e-06
4.51855492516e-06
3.36258444347e-06
-3.86995956519e-06
5.79690775843e-06
4.36650684495e-06
-4.03688118126e-06
6.38140129632e-06
5.75165043948e-06
-4.13222452457e-06
6.16862194625e-06
7.30364668051e-06
-4.18708483799e-06
5.21466940722e-06
8.77913942571e-06
-4.24613088388e-06
3.69664900233e-06
9.97442153291e-06
-4.32217612591e-06
1.83754679525e-06
1.07785935622e-05
-4.40937010578e-06
-1.69311223842e-07
1.11728111027e-05
-4.47101939287e-06
-2.17110678968e-06
1.11703099657e-05
-4.47479273512e-06
-4.0151929598e-06
1.07714448032e-05
-4.42108273107e-06
-5.50854549391e-06
9.96242504551e-06
-4.34125628368e-06
-6.42927708305e-06
8.76240068089e-06
-4.27158606697e-06
-6.60138627166e-06
7.28301720154e-06
-4.21843373486e-06
-5.96994905009e-06
5.72853993485e-06
-4.16889834231e-06
-4.6418795083e-06
4.34302017653e-06
-4.07538820049e-06
-2.86441209266e-06
3.34072382537e-06
-3.9095947977e-06
-1.09377011274e-06
2.82921230775e-06
-3.51756665245e-06
2.76607938782e-06
-2.64166611873e-06
1.19565011351e-06
4.26621793026e-06
-2.69153509693e-06
3.30693050137e-06
4.60559441907e-06
-3.87099114456e-06
5.46565175779e-06
5.55572628302e-06
-4.35186030044e-06
7.07301431898e-06
7.18695779835e-06
-4.42782486133e-06
7.79896606724e-06
9.32977830056e-06
-4.30411030392e-06
7.51762751272e-06
1.16787051917e-05
-4.09377477168e-06
6.31350061939e-06
1.38777619628e-05
-3.89457765299e-06
4.44228032403e-06
1.56370925032e-05
-3.79156001232e-06
2.20470961459e-06
1.6807561985e-05
-3.79153110901e-06
-1.7338334058e-07
1.73768517701e-05
-3.8260989696e-06
-2.54610670124e-06
1.73730163536e-05
-3.83014406061e-06
-4.76882122576e-06
1.67968376902e-05
-3.80284021511e-06
-6.61530828437e-06
1.56194488873e-05
-3.8106903118e-06
-7.78572532103e-06
1.38533860964e-05
-3.92070472276e-06
-8.02458271964e-06
1.16493693802e-05
-4.12760593419e-06
-7.25102601227e-06
9.2967970541e-06
-4.34189352034e-06
-5.59255007508e-06
7.15325011313e-06
-4.46875072501e-06
-3.38156658183e-06
5.5243805755e-06
-4.39465062977e-06
-1.22367730641e-06
4.58079612135e-06
-3.90945506105e-06
4.25610323015e-06
-2.71368101997e-06
1.58369763231e-06
5.37053538751e-06
-2.68800320006e-06
4.31099372472e-06
5.91637991735e-06
-4.03807380195e-06
7.09585765356e-06
7.19468651292e-06
-4.42382970986e-06
9.15881844988e-06
9.28339322101e-06
-4.15942329334e-06
1.00613794969e-05
1.19607399171e-05
-3.53357884674e-06
9.63563700868e-06
1.48460181692e-05
-2.74166193348e-06
8.02036080252e-06
1.75142141668e-05
-2.02130567755e-06
5.59210188082e-06
1.96196897513e-05
-1.5545048154e-06
2.76927288018e-06
2.10017517627e-05
-1.37155836448e-06
-1.77177207105e-07
2.16668356272e-05
-1.34375379268e-06
-3.11812069921e-06
2.16615894142e-05
-1.34786205228e-06
-5.92595583157e-06
2.09870544143e-05
-1.38261621261e-06
-8.32955818297e-06
1.95957665473e-05
-1.57294141361e-06
-9.90977492833e-06
1.74818926953e-05
-2.04849617499e-06
-1.02919054105e-05
1.4806999609e-05
-2.77567478201e-06
-9.34009313888e-06
1.19181790969e-05
-3.57332789481e-06
-7.22390243892e-06
9.24085845284e-06
-4.20388486397e-06
-4.38519996543e-06
7.15549542319e-06
-4.46985535539e-06
-1.61052598657e-06
5.88467977322e-06
-4.07855769337e-06
5.35378085554e-06
-2.70819442042e-06
2.18108686897e-06
5.87868015349e-06
-2.68922248708e-06
5.69552945964e-06
6.52466170375e-06
-4.12272266586e-06
9.23941256776e-06
7.94776638187e-06
-4.29698107481e-06
1.1835457505e-05
1.02140639005e-05
-3.52676486823e-06
1.29132276402e-05
1.3068893449e-05
-2.18601387914e-06
1.22728601404e-05
1.61091680135e-05
-6.22920103133e-07
1.01209999007e-05
1.88805689703e-05
7.85318847429e-07
6.99318572443e-06
2.10383245939e-05
1.70894863991e-06
3.45182440189e-06
2.24338948124e-05
2.10895283095e-06
-1.82211070628e-07
2.30983766968e-05
2.20220544814e-06
-3.80971158712e-06
2.30926080316e-05
2.19618017837e-06
-7.33576060414e-06
2.24155192906e-05
2.09727944565e-06
-1.04384046701e-05
2.1008421508e-05
1.6896917056e-06
-1.25540072816e-05
1.88408104071e-05
7.56407310893e-07
-1.31481298144e-05
1.60625524082e-05
-6.6167314643e-07
-1.20185367075e-05
1.30194506544e-05
-2.23105803413e-06
-9.367469603e-06
1.01656295274e-05
-3.57597180268e-06
-5.76847679203e-06
7.90349247624e-06
-4.34706265762e-06
-2.2063803237e-06
6.48778488876e-06
-4.16522723141e-06
5.85680767558e-06
-2.709413899e-06
2.88151475734e-06
5.70080659881e-06
-2.70363673168e-06
7.25055109625e-06
6.33380248606e-06
-4.1781844806e-06
1.15909283462e-05
7.68885619756e-06
-4.08150206051e-06
1.47227170022e-05
9.81214212384e-06
-2.7299438573e-06
1.59535103274e-05
1.24542358068e-05
-6.1626571136e-07
1.50456489452e-05
1.52289552186e-05
1.78788588913e-06
1.23022020818e-05
1.77256087539e-05
3.8981631645e-06
8.42745798587e-06
1.96443912787e-05
5.26838780243e-06
4.14301972336e-06
2.08694647643e-05
5.84854678937e-06
-1.87835168e-07
2.14484396287e-05
5.98045146832e-06
-4.51282365873e-06
2.14421209433e-05
5.9751252678e-06
-8.78102211524e-06
2.08493731188e-05
5.83399060954e-06
-1.26292224358e-05
1.9611194528e-05
5.24507653457e-06
-1.53335597453e-05
1.76826397613e-05
3.86217232473e-06
-1.61914640149e-05
1.51793791853e-05
1.74077470688e-06
-1.49062400049e-05
1.24019411001e-05
-6.6796448391e-07
-1.17178100204e-05
9.76241542535e-06
-2.78539793246e-06
-7.32177843161e-06
7.64433766277e-06
-4.13698773475e-06
-2.90433904679e-06
6.2976513002e-06
-4.22736233519e-06
5.67793509529e-06
-2.72549260885e-06
3.55898468296e-06
4.87344055873e-06
-2.73162095382e-06
8.72956307076e-06
5.3950500228e-06
-4.23184507233e-06
1.37940992394e-05
6.50013426849e-06
-3.87586934296e-06
1.73950470846e-05
8.21342318658e-06
-2.0023365486e-06
1.87265497123e-05
1.03193070579e-05
8.03255212403e-07
1.75420736664e-05
1.25051826045e-05
3.90801287136e-06
1.42330294646e-05
1.44389993987e-05
6.59536166261e-06
9.67674375522e-06
1.59142534463e-05
8.28609206657e-06
4.73941027658e-06
1.68455573873e-05
8.96088788896e-06
-1.93494578971e-07
1.72848043347e-05
9.09617849481e-06
-5.12165459089e-06
1.72786327329e-05
9.09128231595e-06
-1.00429572353e-05
1.68247144697e-05
8.94559009101e-06
-1.45699961012e-05
1.58821269281e-05
8.25573073219e-06
-1.78368059398e-05
1.43996601843e-05
6.54941865713e-06
-1.89674546582e-05
1.24607546655e-05
3.84892732614e-06
-1.75773989926e-05
1.02726300021e-05
7.38959605766e-07
-1.39182896101e-05
8.16917275197e-06
-2.06609152667e-06
-8.7978487064e-06
6.46110781533e-06
-3.93735876583e-06
-3.5798988421e-06
5.36364748526e-06
-4.28403482721e-06
4.85522344384e-06
-2.75723344698e-06
4.11642151406e-06
3.52945720383e-06
-2.77244863362e-06
9.92903277175e-06
3.88510276253e-06
-4.30269627359e-06
1.55588485785e-05
4.63666281273e-06
-3.76642038348e-06
1.95054915964e-05
5.79240125937e-06
-1.52575855119e-06
2.08895593735e-05
7.20020210424e-06
1.73482962463e-06
1.94635419223e-05
8.63935244577e-06
5.2915738525e-06
1.57076129781e-05
9.89586215325e-06
8.29874252536e-06
1.06287206918e-05
1.08546987787e-05
1.01380967154e-05
5.19176620954e-06
1.14528188515e-05
1.08293374715e-05
-2.00090452162e-07
1.17343413007e-05
1.09419691473e-05
-5.58706863654e-06
1.17293483536e-05
1.09359138804e-05
-1.10051142607e-05
1.14348555693e-05
1.08075470815e-05
-1.60528077256e-05
1.08277899349e-05
1.01016573448e-05
-1.97636361613e-05
9.86780088747e-06
8.24230537471e-06
-2.11319753736e-05
8.6083798199e-06
5.22034414441e-06
-1.9686757406e-05
7.16623924226e-06
1.66084575052e-06
-1.56804289e-05
5.76089562463e-06
-1.59830890975e-06
-9.99479022626e-06
4.60942099218e-06
-3.8341303788e-06
-4.13580104032e-06
3.86466820599e-06
-4.36012769662e-06
3.52058869091e-06
-2.80123033714e-06
4.49464926734e-06
1.85068500167e-06
-2.81589560926e-06
1.07375353832e-05
2.02614555671e-06
-4.3839735233e-06
1.67348803807e-05
2.39844365569e-06
-3.75922065709e-06
2.08940742969e-05
2.96900095174e-06
-1.33595628318e-06
2.22906042019e-05
3.65784668157e-06
2.14558958984e-06
2.06959568239e-05
4.35745608695e-06
5.87624472704e-06
1.6645491263e-05
4.96346619086e-06
8.98252315656e-06
1.12266863721e-05
5.42772158606e-06
1.08454333839e-05
5.47709823952e-06
5.72073292297e-06
1.14813374789e-05
-2.0457705653e-07
5.85468745966e-06
1.15610104512e-05
-5.88579500092e-06
5.84836942433e-06
1.15618842114e-05
-1.16113294249e-05
5.71311546455e-06
1.14469476592e-05
-1.69922066201e-05
5.41509312418e-06
1.07932190765e-05
-2.09983373784e-05
4.95159184827e-06
8.92196091944e-06
-2.25353818124e-05
4.34478952032e-06
5.80025556355e-06
-2.10739752288e-05
3.64435025557e-06
2.06013784153e-06
-1.68540526542e-05
2.95611787079e-06
-1.41542344483e-06
-1.08009530026e-05
2.38827054837e-06
-3.83214957562e-06
-4.51283351749e-06
2.02118750532e-06
-4.44477846986e-06
1.85480380082e-06
-2.84712561125e-06
4.68149460686e-06
1.3333569855e-08
-2.84416791227e-06
1.11357452557e-05
1.21419927626e-08
-4.44030098538e-06
1.73096402819e-05
1.27765654474e-08
-3.78833669022e-06
2.15656023241e-05
1.50829169525e-08
-1.30222459285e-06
2.29645647788e-05
1.83552054349e-08
2.24027461367e-06
2.12860751827e-05
2.18449229669e-08
6.01378817459e-06
1.70975966236e-05
2.54056915695e-08
9.12619765145e-06
1.15176088e-05
2.88069628563e-08
1.09785645888e-05
5.61051760061e-06
3.18202922703e-08
1.15956911162e-05
-2.09856898672e-07
3.35607399206e-08
1.16412143515e-05
-6.0213745776e-06
3.44796879888e-08
1.16251271851e-05
-1.19045864617e-05
3.31598186594e-08
1.15628669974e-05
-1.7444895351e-05
3.06071107755e-08
1.09244563722e-05
-2.15889345937e-05
2.80667898e-08
9.06719150569e-06
-2.32095920486e-05
2.56612188984e-08
5.93940447358e-06
-2.17459040768e-05
2.36783909855e-08
2.15663199068e-06
-1.74283384045e-05
2.20128392053e-08
-1.38374929657e-06
-1.11980222161e-05
2.18447912846e-08
-3.86410227597e-06
-4.69888994739e-06
2.50215731299e-08
-4.50311834585e-06
3.30099407611e-08
-2.87717962319e-06
4.68244336386e-06
-1.82474431697e-06
-2.84439296222e-06
1.11376529467e-05
-2.0024884819e-06
-4.44063744962e-06
1.73124695101e-05
-2.37376933338e-06
-3.78838662985e-06
2.15690108005e-05
-2.93995722009e-06
-1.30169100939e-06
2.29680943194e-05
-3.62269638382e-06
2.24170470471e-06
2.12895324595e-05
-4.31582454476e-06
6.01591330529e-06
1.710103028e-05
-4.91472002177e-06
9.12828715289e-06
1.15209439816e-05
-5.37292437418e-06
1.09814870402e-05
5.61290026757e-06
-5.66136192687e-06
1.16009249946e-05
-2.09279732059e-07
-5.79255897462e-06
1.16480254039e-05
-6.02295881187e-06
-5.78444531925e-06
1.16323336903e-05
-1.19075789683e-05
-5.65105255262e-06
1.15685374388e-05
-1.74476344227e-05
-5.35649820084e-06
1.09268238443e-05
-2.15913405976e-05
-4.8970305828e-06
9.06843038018e-06
-2.32117568217e-05
-4.29461842082e-06
5.94031398064e-06
-2.17480096259e-05
-3.59835543293e-06
2.15793463072e-06
-1.74301930037e-05
-2.91325887506e-06
-1.38283354203e-06
-1.11994292555e-05
-2.34588364892e-06
-3.86324797257e-06
-4.69956110679e-06
-1.97227004641e-06
-4.50273030645e-06
-1.7896749807e-06
-2.87695941272e-06
4.4970882798e-06
-3.50547620245e-06
-2.81638225178e-06
1.07430534424e-05
-3.86359627937e-06
-4.38491433093e-06
1.67430922471e-05
-4.61455764772e-06
-3.759365996e-06
2.09038201523e-05
-5.7665934363e-06
-1.33428170859e-06
2.2300844645e-05
-7.16900116904e-06
2.14901673263e-06
2.07065752249e-05
-8.60243798844e-06
5.88056480388e-06
1.66554072978e-05
-9.85345705715e-06
8.98956350647e-06
1.1234251499e-05
-1.08069765914e-05
1.08548740526e-05
5.48149290516e-06
-1.14015996742e-05
1.14926871625e-05
-2.02529963109e-07
-1.16814261742e-05
1.15726017008e-05
-5.88805977814e-06
-1.16762102212e-05
1.15770059379e-05
-1.1617177286e-05
-1.1381923774e-05
1.14596747559e-05
-1.69994158634e-05
-1.0776465465e-05
1.08018541614e-05
-2.10053972857e-05
-9.81909196834e-06
8.9276623313e-06
-2.25420671415e-05
-8.56295751832e-06
5.80462790652e-06
-2.10805596285e-05
-7.12434076838e-06
2.06413289466e-06
-1.68600074024e-05
-5.72207747203e-06
-1.41201235109e-06
-1.08052231994e-05
-4.57076876199e-06
-3.83010206762e-06
-4.51495758406e-06
-3.81904868246e-06
-4.44363214197e-06
-3.45823435777e-06
-2.84647462332e-06
4.1200635981e-06
-4.85286079552e-06
-2.77269881424e-06
9.93760098622e-06
-5.37694093118e-06
-4.30424249082e-06
1.55716898931e-05
-6.48221630571e-06
-3.76653747662e-06
1.95209241875e-05
-8.19265988918e-06
-1.5233486559e-06
2.09056248173e-05
-1.02947235134e-05
1.74076709602e-06
1.94795455295e-05
-1.24762077187e-05
5.29953699795e-06
1.57225396577e-05
-1.44051388901e-05
8.30834569165e-06
1.06395853488e-05
-1.5877116269e-05
1.0152749334e-05
5.19801376538e-06
-1.68058315308e-05
1.08454718394e-05
-1.97896493845e-07
-1.72433673822e-05
1.0957531014e-05
-5.59008236601e-06
-1.72369556254e-05
1.09526066122e-05
-1.10122960022e-05
-1.67825993513e-05
1.08225434674e-05
-1.60623373382e-05
-1.58403143805e-05
1.01135178947e-05
-1.97739788109e-05
-1.43589798846e-05
8.25114279345e-06
-2.11426102916e-05
-1.24224108056e-05
5.22771130266e-06
-1.96975573859e-05
-1.02376706871e-05
1.66794897448e-06
-1.56900259499e-05
-8.13672258224e-06
-1.59314453437e-06
-1.00015873912e-05
-6.42835377264e-06
-3.83103676687e-06
-4.1391328151e-06
-5.32343502163e-06
-4.3581954476e-06
-4.79755714172e-06
-2.79987408379e-06
3.56370502857e-06
-5.68369172418e-06
-2.73288431014e-06
8.7404213953e-06
-6.319751268e-06
-4.23394361088e-06
1.38107448592e-05
-7.67558910911e-06
-3.87704232209e-06
1.74146588929e-05
-9.79760355037e-06
-1.99913237653e-06
1.87469205296e-05
-1.24368733458e-05
8.09653342141e-07
1.75627774015e-05
-1.52078866831e-05
3.91552631788e-06
1.42511399157e-05
-1.77017124641e-05
6.607876328e-06
9.69028742638e-06
-1.96180788136e-05
8.30146441531e-06
4.74721661496e-06
-2.08412459542e-05
8.97813353795e-06
-1.90764948941e-07
-2.14182133737e-05
9.11247689192e-06
-5.12444666146e-06
-2.1411093478e-05
9.10746272882e-06
-1.0050457618e-05
-2.08177613667e-05
8.96080252268e-06
-1.45805508011e-05
-1.95793572124e-05
8.26875356884e-06
-1.78494308051e-05
-1.76515688965e-05
6.56108937825e-06
-1.89816567685e-05
-1.51504231559e-05
3.85988629535e-06
-1.75919510284e-05
-1.23756754749e-05
7.48000885823e-07
-1.39313204854e-05
-9.73805096747e-06
-2.05952878641e-06
-8.80687864681e-06
-7.61877780358e-06
-3.9341722583e-06
-3.58422959173e-06
-6.26375989546e-06
-4.2824258879e-06
-5.6260096372e-06
-2.75582459628e-06
2.88664367677e-06
-5.86462642421e-06
-2.70570757226e-06
7.26328453151e-06
-6.51336820707e-06
-4.1830458811e-06
1.16099190192e-05
-7.93858977931e-06
-4.08370381051e-06
1.47457565253e-05
-1.02047917108e-05
-2.72878320093e-06
1.5977725374e-05
-1.30585743423e-05
-6.10470473464e-07
1.50691670691e-05
-1.60972695203e-05
1.79767662973e-06
1.23226454572e-05
-1.88665303071e-05
3.91102892898e-06
8.44292339189e-06
-2.10223277409e-05
5.28363292768e-06
4.15264359169e-06
-2.24162278311e-05
5.86491021895e-06
-1.84074655616e-07
-2.30788744564e-05
5.99702085661e-06
-4.51489894731e-06
-2.30719038508e-05
5.99126985591e-06
-8.78821591583e-06
-2.23939771448e-05
5.84916260545e-06
-1.26404641261e-05
-2.09866250455e-05
5.25914781146e-06
-1.53482361866e-05
-1.88197846033e-05
3.87563700091e-06
-1.62085973342e-05
-1.60432672735e-05
1.75289284741e-06
-1.49240471251e-05
-1.30021423318e-05
-6.58337774613e-07
-1.17336242244e-05
-1.01493804601e-05
-2.77927858369e-06
-7.33275512157e-06
-7.88549574754e-06
-4.13426997758e-06
-2.90917032731e-06
-6.46121480923e-06
-4.22620099076e-06
-5.810382632e-06
-2.72482572775e-06
2.18692329126e-06
-5.35922264168e-06
-2.69231369987e-06
5.70844846152e-06
-5.90750322439e-06
-4.12739480517e-06
9.25947934565e-06
-7.18814766728e-06
-4.30151704054e-06
1.18600239133e-05
-9.27795394735e-06
-3.52748023815e-06
1.29391993268e-05
-1.19552192783e-05
-2.18268885863e-06
1.22986873965e-05
-1.48399625312e-05
-6.17011629451e-07
1.01436928577e-05
-1.75076737343e-05
7.95873240685e-07
7.01072661072e-06
-1.9612158909e-05
1.72249836537e-06
3.46333835772e-06
-2.09929772006e-05
2.12381715656e-06
-1.76987565109e-07
-2.16566957716e-05
2.21781465281e-06
-3.81096098971e-06
-2.16503453038e-05
2.21207662306e-06
-7.34272492733e-06
-2.09750826742e-05
2.11253240933e-06
-1.04504605753e-05
-1.95834829887e-05
1.70426815665e-06
-1.25704130412e-05
-1.74701169192e-05
7.69985636723e-07
-1.31675426023e-05
-1.47962225071e-05
-6.50171617963e-07
-1.20386263323e-05
-1.1908428227e-05
-2.22283040509e-06
-9.38523677594e-06
-9.23156923234e-06
-3.57133825141e-06
-5.7808181385e-06
-7.14422207129e-06
-4.34577202001e-06
-2.21189592796e-06
-5.86469768823e-06
-4.16547773176e-06
-5.31344217779e-06
-2.70884492067e-06
1.59028486498e-06
-4.25717855619e-06
-2.69230445098e-06
4.32457563542e-06
-4.59735710075e-06
-4.04442411079e-06
7.11651780722e-06
-5.54994054794e-06
-4.43016550783e-06
9.18442164308e-06
-7.18269989737e-06
-4.16321541313e-06
1.00886200422e-05
-9.32662259672e-06
-3.53290129185e-06
9.66243646949e-06
-1.16759806497e-05
-2.73795448783e-06
8.04451184034e-06
-1.38748800281e-05
-2.0150702776e-06
5.61134556577e-06
-1.5634275322e-05
-1.54495423233e-06
2.78248795888e-06
-1.68040256152e-05
-1.36035582502e-06
-1.70496138138e-07
-1.73724802947e-05
-1.33150794649e-06
-3.1181544545e-06
-1.73678578404e-05
-1.33511103877e-06
-5.93231592717e-06
-1.67911212272e-05
-1.37007740605e-06
-8.34173123714e-06
-1.56133437448e-05
-1.56098554968e-06
-9.92679810588e-06
-1.38472179544e-05
-2.03806512321e-06
-1.0312168104e-05
-1.16434467468e-05
-2.7675978575e-06
-9.36150572845e-06
-9.29132382692e-06
-3.56790890592e-06
-7.24345919233e-06
-7.1479507624e-06
-4.20175423413e-06
-4.39964764607e-06
-5.51774147757e-06
-4.47033356118e-06
-1.61748617341e-06
-4.56722020978e-06
-4.0796458543e-06
-4.22318214063e-06
-2.70773609064e-06
1.20280493751e-06
-2.76510180324e-06
-2.69484664404e-06
3.32123489326e-06
-2.83708000742e-06
-3.87867740533e-06
5.48716057321e-06
-3.35623931692e-06
-4.359615845e-06
7.09970665667e-06
-4.36158939128e-06
-4.4336741034e-06
7.82769671652e-06
-5.74797433728e-06
-4.30669198615e-06
7.54611039019e-06
-7.30041908423e-06
-4.09406898223e-06
6.33913607157e-06
-8.77640109551e-06
-3.8916376145e-06
4.46338070112e-06
-9.97203670981e-06
-3.78665025834e-06
2.21985005366e-06
-1.07758790063e-05
-3.78480878745e-06
-1.64863063791e-07
-1.11696512394e-05
-3.81832495272e-06
-2.54451516356e-06
-1.11666934787e-05
-3.82172727451e-06
-4.77375448926e-06
-1.07674582551e-05
-3.79463402868e-06
-6.62622409304e-06
-9.9580507798e-06
-3.8030181007e-06
-7.80168945726e-06
-8.75761919e-06
-3.91430169434e-06
-8.04433101955e-06
-7.27824700949e-06
-4.12269072736e-06
-7.27239477427e-06
-5.7239319113e-06
-4.33941886209e-06
-5.61283590954e-06
-4.33900802873e-06
-4.46854908584e-06
-3.39728570075e-06
-3.33617145535e-06
-4.39712882796e-06
-1.23204284975e-06
-2.82009653464e-06
-3.91234628371e-06
-2.74377276547e-06
-2.71142562003e-06
1.07353931338e-06
-1.21540317975e-06
-2.62319131409e-06
2.80790495112e-06
-1.08305527204e-06
-3.48834515864e-06
4.54306663806e-06
-1.21332965997e-06
-3.87803713814e-06
5.82708804445e-06
-1.60279738163e-06
-4.04279884145e-06
6.41384580284e-06
-2.19950401907e-06
-4.1352410626e-06
6.20031754304e-06
-2.89937155872e-06
-4.18756556925e-06
5.24360563537e-06
-3.57481775753e-06
-4.24495293761e-06
3.72104754669e-06
-4.13060532801e-06
-4.31898742845e-06
1.856036561e-06
-4.50626491679e-06
-4.40474346706e-06
-1.57502105082e-07
-4.69086478196e-06
-4.46540543329e-06
-2.16610175642e-06
-4.68939447948e-06
-4.46886398122e-06
-4.01652777664e-06
-4.50189929014e-06
-4.41529382325e-06
-5.51572296296e-06
-4.1230535897e-06
-4.33594861598e-06
-6.44145860128e-06
-3.56489626075e-06
-4.26711011946e-06
-6.61725760101e-06
-2.88725448328e-06
-4.21528497346e-06
-5.98836357846e-06
-2.18623499004e-06
-4.16664630492e-06
-4.66007688833e-06
-1.59078778325e-06
-4.07652536874e-06
-2.87945947428e-06
-1.2037819859e-06
-3.91299185445e-06
-1.10273622822e-06
-1.07636140042e-06
-3.52041680607e-06
-1.20603659283e-06
-2.64043605132e-06
1.20858014071e-06
-2.42394638739e-06
2.74722583194e-06
-2.6216649981e-06
4.21869693616e-06
-2.68477134094e-06
5.29966446703e-06
-2.68374769065e-06
5.78381565882e-06
-2.68365550751e-06
5.5851448999e-06
-2.70072238759e-06
4.73983366793e-06
-2.72955053117e-06
3.38215229081e-06
-2.77298851971e-06
1.69577301949e-06
-2.81996638506e-06
-1.42670780717e-07
-2.85251184033e-06
-1.97618358497e-06
-2.85597580658e-06
-3.64803781413e-06
-2.83013549881e-06
-4.98197625934e-06
-2.78919532159e-06
-5.79647232516e-06
-2.75046442456e-06
-5.95829964988e-06
-2.72547112463e-06
-5.4329905053e-06
-2.71156539062e-06
-4.3107491276e-06
-2.71302771118e-06
-2.80204122724e-06
-2.71246765031e-06
-1.23127114788e-06
-2.64709629725e-06
-2.43728657074e-06
1.48754598465e-06
1.50964287603e-06
-5.41696077092e-06
3.11660387802e-06
1.74493429278e-06
-5.98969997682e-06
4.6238264795e-06
2.15142990204e-06
-6.33994488177e-06
5.71677224257e-06
2.81849063554e-06
-6.59508313437e-06
6.18656387373e-06
3.67093909273e-06
-6.82734060672e-06
5.93727809335e-06
4.59472889674e-06
-7.05132456215e-06
5.00994068084e-06
5.4604405149e-06
-7.26997596259e-06
3.55241441511e-06
6.15960214012e-06
-7.48412187715e-06
1.76458222239e-06
6.63054201955e-06
-7.67283126265e-06
-1.70873150457e-07
6.86212307376e-06
-7.79003371075e-06
-2.10119985153e-06
6.86110378826e-06
-7.7977977603e-06
-3.87360132167e-06
6.6274858316e-06
-7.69589427027e-06
-5.30588448499e-06
6.15426891617e-06
-7.52127969354e-06
-6.1998522997e-06
5.45241536815e-06
-7.31830793496e-06
-6.40805213708e-06
4.58445041004e-06
-7.10987351408e-06
-5.89170278075e-06
3.65841912174e-06
-6.89250411916e-06
-4.74909857044e-06
2.80466133229e-06
-6.66431109809e-06
-3.19105404186e-06
2.13839188782e-06
-6.41086999384e-06
-1.51632289257e-06
1.73497581559e-06
-6.05947756798e-06
1.50986984147e-06
-5.4743012549e-06
1.71360477111e-06
3.1688318014e-06
-5.9890911045e-06
3.4674679321e-06
3.52946198716e-06
-7.0181036269e-06
5.03349681723e-06
4.29497440352e-06
-7.57951705135e-06
6.17204498392e-06
5.53639091092e-06
-7.89332340032e-06
6.6538955291e-06
7.11297059479e-06
-8.05611335301e-06
6.37233524457e-06
8.8146365161e-06
-8.12545525487e-06
5.36193798605e-06
1.0399425711e-05
-8.17476054413e-06
3.79203002816e-06
1.16712627371e-05
-8.26398944931e-06
1.88156193903e-06
1.25254180942e-05
-8.39385551101e-06
-1.76399667269e-07
1.29451560165e-05
-8.49618032069e-06
-2.22890476801e-06
1.29431468528e-05
-8.50442631335e-06
-4.12384703274e-06
1.2519314563e-05
-8.41806399688e-06
-5.66859487734e-06
1.16607186101e-05
-8.30304535457e-06
-6.64507269488e-06
1.03839414503e-05
-8.22670785319e-06
-6.88551655643e-06
8.79469604047e-06
-8.18829027375e-06
-6.35807590489e-06
7.08904102681e-06
-8.12699330961e-06
-5.17049799594e-06
5.51075654225e-06
-7.96906963581e-06
-3.55495595471e-06
4.27028389766e-06
-7.65701347333e-06
-1.75439122555e-06
3.50964526402e-06
-7.09276536324e-06
3.16283871908e-06
-6.04899515845e-06
2.11696292387e-06
4.70704485843e-06
-6.34668915744e-06
4.2286055469e-06
5.12681155365e-06
-7.57996305312e-06
6.07535281464e-06
6.17292604655e-06
-8.07654837315e-06
7.39409593469e-06
7.86583406396e-06
-8.07601519179e-06
7.92526483374e-06
1.00013019591e-05
-7.72363447932e-06
7.53978341707e-06
1.22820226796e-05
-7.17572759609e-06
6.29901687568e-06
1.43864933691e-05
-6.64095337363e-06
4.42630850727e-06
1.60596238444e-05
-6.30731319414e-06
2.19535516176e-06
1.71746008079e-05
-6.2098828545e-06
-1.78635655137e-07
1.77194984833e-05
-6.22658858984e-06
-2.54749963654e-06
1.77159624667e-05
-6.23424163287e-06
-4.76341891434e-06
1.71646932622e-05
-6.23244553226e-06
-6.61179085375e-06
1.60429324401e-05
-6.34467001568e-06
-7.81896486815e-06
1.43628072121e-05
-6.69251824767e-06
-8.16397190272e-06
1.22518075225e-05
-7.2398085904e-06
-7.5870081138e-06
9.96690581299e-06
-7.79679046119e-06
-6.21972254996e-06
7.82999126006e-06
-8.15530586156e-06
-4.32398759929e-06
6.13836043908e-06
-8.15846368422e-06
-2.1640588037e-06
5.0977462941e-06
-7.65745937428e-06
4.69093501976e-06
-6.40581074588e-06
2.78432330434e-06
5.83234841869e-06
-6.59760937607e-06
5.46835223771e-06
6.29455311165e-06
-7.88982768645e-06
7.7659454422e-06
7.52277839754e-06
-8.0712732197e-06
9.36520386564e-06
9.49678231747e-06
-7.38965037631e-06
9.94923705834e-06
1.19589910146e-05
-6.07535065488e-06
9.37730419046e-06
1.45602253866e-05
-4.4480152701e-06
7.75864182093e-06
1.69278649086e-05
-2.944133543e-06
5.40686517011e-06
1.87885494034e-05
-1.93180457702e-06
2.67834137898e-06
2.00146386131e-05
-1.48324876348e-06
-1.81166046255e-07
2.06086151155e-05
-1.37355650152e-06
-3.03526331815e-06
2.06031096213e-05
-1.38111403383e-06
-5.74945282956e-06
2.00000654546e-05
-1.50400152862e-06
-8.07764563658e-06
1.87647732785e-05
-1.96678438831e-06
-9.66338857191e-06
1.68949715441e-05
-2.99509553152e-06
-1.01939840402e-05
1.45199058369e-05
-4.51332828704e-06
-9.56342289946e-06
1.19145268709e-05
-6.15162364625e-06
-7.91527290129e-06
9.45149767561e-06
-7.4736112261e-06
-5.56766258313e-06
7.47952819895e-06
-8.15865946186e-06
-2.83342642611e-06
6.25680490469e-06
-7.97184390518e-06
5.80663970696e-06
-6.65731046916e-06
3.63623339327e-06
6.33036935628e-06
-6.8234587201e-06
7.04639050618e-06
6.80611852446e-06
-8.04443465548e-06
9.90077675284e-06
8.08200951474e-06
-7.71060911014e-06
1.18261813612e-05
1.01106544837e-05
-6.06608392855e-06
1.24465709819e-05
1.2610727046e-05
-3.45822124548e-06
1.16112811985e-05
1.52137027719e-05
-4.41232684254e-07
9.51160443453e-06
1.75629840042e-05
2.24971001232e-06
6.57114221746e-06
1.93823062281e-05
4.05545314221e-06
3.247038241e-06
2.05651234047e-05
4.88234693762e-06
-1.85199979184e-07
2.11326763337e-05
5.11014315855e-06
-3.61046263861e-06
2.11266943292e-05
5.09761221856e-06
-6.92062460079e-06
2.0545725602e-05
4.86153431141e-06
-9.83811448743e-06
1.93513439001e-05
4.02036905146e-06
-1.19044058061e-05
1.75213520332e-05
2.19609043802e-06
-1.26967129333e-05
1.51641984477e-05
-5.13859264281e-07
-1.20282060484e-05
1.25575578488e-05
-3.54275547733e-06
-1.00529916188e-05
1.00581136784e-05
-6.15791041034e-06
-7.14766582479e-06
8.03278456105e-06
-7.80569993838e-06
-3.68614491432e-06
6.76311500847e-06
-8.13307237936e-06
6.29796018186e-06
-6.88687824605e-06
4.56249393559e-06
6.10406173619e-06
-7.03980961267e-06
8.74983296432e-06
6.54591256695e-06
-8.10531602553e-06
1.21839743693e-05
7.71888036966e-06
-7.15254150632e-06
1.44285650715e-05
9.56221475529e-06
-4.42616306304e-06
1.50492408068e-05
1.18003987483e-05
-4.26729924645e-07
1.39204040299e-05
1.41119033459e-05
4.0183560291e-06
1.12986919485e-05
1.61664180885e-05
7.91623282883e-06
7.74406749606e-06
1.77359391013e-05
1.04691416159e-05
3.81522424539e-06
1.87439332063e-05
1.1598326962e-05
-1.89600772978e-07
1.92241991286e-05
1.18934948296e-05
-4.18912764904e-06
1.92172477746e-05
1.18838379278e-05
-8.1026361078e-06
1.87224930868e-05
1.15704685259e-05
-1.16341554895e-05
1.77002672907e-05
1.04274081027e-05
-1.42206409545e-05
1.61202496206e-05
7.84950169018e-06
-1.53037874334e-05
1.40586068193e-05
3.92927506086e-06
-1.4632271604e-05
1.1744493892e-05
-5.26614737337e-07
-1.23368113123e-05
9.50753513343e-06
-4.53042348849e-06
-8.85105619687e-06
7.66837987623e-06
-7.25842333436e-06
-4.61260522411e-06
6.50099488315e-06
-8.20373322135e-06
6.06981802394e-06
-7.10997056578e-06
5.42987524482e-06
5.19142471798e-06
-7.24885259463e-06
1.03380556237e-05
5.55068456406e-06
-8.14480748541e-06
1.42930683267e-05
6.49314355921e-06
-6.60519136085e-06
1.67999287107e-05
7.9585394398e-06
-2.90561693797e-06
1.7400915515e-05
9.71690908411e-06
2.28560827468e-06
1.59751091645e-05
1.15087395119e-05
7.93678340343e-06
1.28667643759e-05
1.30790039495e-05
1.27908853267e-05
8.76218812314e-06
1.42695241584e-05
1.58568316786e-05
4.30570806744e-06
1.5023688803e-05
1.71373611668e-05
-1.95073757549e-07
1.53797739401e-05
1.74411420838e-05
-4.69090336215e-06
1.53730395027e-05
1.74310808962e-05
-9.13285481657e-06
1.50013013009e-05
1.71084885438e-05
-1.32113924522e-05
1.42352306816e-05
1.57990480648e-05
-1.62817283697e-05
1.3035271015e-05
1.27044682075e-05
-1.76585567401e-05
1.14585385576e-05
7.8255673867e-06
-1.7004135797e-05
9.66565653771e-06
2.16315132651e-06
-1.44447764976e-05
7.90928413776e-06
-3.02737200193e-06
-1.0438671353e-05
6.44810519509e-06
-6.72330142963e-06
-5.47919320835e-06
5.51140146241e-06
-8.25398512655e-06
5.1615007198e-06
-7.32813966943e-06
6.13127898832e-06
3.74218987366e-06
-7.45449439048e-06
1.16140788864e-05
3.98803821208e-06
-8.22287250367e-06
1.59715796003e-05
4.62708902167e-06
-6.25793162071e-06