/*--------------------------------*- C++ -*----------------------------------*\
| =========                 |                                                 |
| \\      /  F ield         | OpenFOAM: The Open Source CFD Toolbox           |
|  \\    /   O peration     | Version:  3.0.1                                 |
|   \\  /    A nd           | Web:      www.OpenFOAM.org                      |
|    \\/     M anipulation  |                                                 |
\*---------------------------------------------------------------------------*/
FoamFile
{
    version     2.0;
    format      ascii;
    class       volScalarField;
    location    "8.7";
    object      ddt0(epsilon);
}
// * * * * * * * * * * * * * * * * * * * * * * * * * * * * * * * * * * * * * //

dimensions      [0 2 -4 0 0 0 0];

internalField   nonuniform List<scalar> 
7968
(
-9.25989591405e-06
-1.28356389721e-05
-1.68522444182e-05
-1.98909977926e-05
-2.18816838144e-05
-2.30177111876e-05
-2.35719625301e-05
-2.35526990401e-05
-2.30135402625e-05
-2.22709751176e-05
-2.22767857702e-05
-2.30268667067e-05
-2.35711474318e-05
-2.3592926675e-05
-2.30389707472e-05
-2.19019950046e-05
-1.99089627378e-05
-1.68673238453e-05
-1.28474616334e-05
-9.26681721783e-06
-1.28357302957e-05
-2.88255976687e-05
-4.31911997572e-05
-5.31256700097e-05
-5.8669398285e-05
-6.06450810957e-05
-6.04861415352e-05
-5.91158847288e-05
-5.74980318642e-05
-5.6429434921e-05
-5.64342732252e-05
-5.75065439774e-05
-5.91271852077e-05
-6.04996788991e-05
-6.06617184005e-05
-5.86880528647e-05
-5.31463418176e-05
-4.32105244955e-05
-2.8841324707e-05
-1.28428243586e-05
-1.68521333499e-05
-4.31909859267e-05
-6.54795618462e-05
-8.03939991979e-05
-8.8403521922e-05
-9.08401049791e-05
-9.01323539428e-05
-8.79113878966e-05
-8.5863402098e-05
-8.46661707165e-05
-8.46530714887e-05
-8.58647009243e-05
-8.7909144017e-05
-9.01285137166e-05
-9.08405579652e-05
-8.84093707e-05
-8.04040165315e-05
-6.54910803385e-05
-4.32021632271e-05
-1.68574192072e-05
-1.98901233083e-05
-5.3127593428e-05
-8.03975263266e-05
-9.79251057219e-05
-0.000106713458026
-0.00010866541424
-0.000106003340863
-0.000102300788464
-0.000100303665513
-9.95680192751e-05
-9.95690179278e-05
-0.000100298627534
-0.000102283711917
-0.000105919554578
-0.000108647049652
-0.000106701907744
-9.79197952751e-05
-8.03964009598e-05
-5.31298232919e-05
-1.98936535976e-05
-2.18804902846e-05
-5.86748614675e-05
-8.84147951527e-05
-0.000106723858075
-0.00011479068555
-0.000115289783589
-0.000115502113072
-0.000113712797787
-0.000112058954276
-0.000111317076739
-0.000111316222992
-0.000112049059808
-0.000113694133036
-0.00011547190816
-0.000115265797094
-0.000114759897549
-0.000106702287721
-8.84005321525e-05
-5.86677890166e-05
-2.18821705058e-05
-2.30171748712e-05
-6.06571497674e-05
-9.08644777604e-05
-0.000108693909067
-0.000115303183495
-0.000119623075576
-0.000120916204412
-0.000119696857958
-0.000117903433871
-0.000116894019395
-0.000116891636804
-0.000117890223187
-0.000119673952045
-0.000120888480355
-0.00011959513142
-0.00011527475167
-0.000108661628989
-9.08416664736e-05
-6.06455417745e-05
-2.30178648182e-05
-2.35700050939e-05
-6.05033252357e-05
-9.01713223142e-05
-0.000106067952762
-0.000115536708313
-0.000120935875508
-0.000122215603528
-0.000120553928461
-0.000118028828237
-0.000116503724711
-0.000116500656017
-0.000118014517113
-0.000120529594543
-0.000122186323965
-0.000120906003787
-0.000115502152839
-0.00010598397246
-9.01438813838e-05
-6.04888795193e-05
-2.35695049369e-05
-2.35465809259e-05
-5.91344467105e-05
-8.79602641992e-05
-0.000102351025086
-0.000113761519686
-0.000119739838531
-0.000120580701359
-0.000117973705703
-0.000114447724703
-0.000112143349262
-0.000112140687659
-0.000114435674347
-0.000117953762611
-0.000120556459314
-0.000119715629409
-0.000113739074753
-0.00010232582882
-8.79374627273e-05
-5.91214174546e-05
-2.35450685662e-05
-2.30001097641e-05
-5.75142858449e-05
-8.59123697753e-05
-0.000100355589171
-0.000112117791086
-0.000117963781045
-0.000118078467145
-0.000114474389868
-0.000109779442086
-0.00010650734151
-0.00010650658004
-0.000109773748185
-0.000114465163679
-0.000118068378664
-0.000117955026108
-0.000112110939449
-0.000100349374308
-8.59033690884e-05
-5.75062043206e-05
-2.29970794533e-05
-2.22529724298e-05
-5.6435873732e-05
-8.47538459767e-05
-9.96106777701e-05
-0.000111369914583
-0.000116954226482
-0.000116557769976
-0.000112180092366
-0.000106522878264
-0.000102416427725
-0.000102419302766
-0.000106527314889
-0.000112187011008
-0.000116568414065
-0.00011696842102
-0.000111385502409
-9.96248163888e-05
-8.47547691641e-05
-5.64359546984e-05
-2.22460618227e-05
-2.2262853804e-05
-5.64316490257e-05
-8.4710865457e-05
-9.95905432861e-05
-0.000111346381132
-0.000116930450279
-0.000116539677552
-0.000112172510113
-0.000106528247051
-0.000102432860023
-0.000102440421042
-0.000106544964115
-0.000112197782647
-0.00011657271654
-0.000116968671907
-0.000111384959736
-9.96252189179e-05
-8.47552253518e-05
-5.64399718328e-05
-2.2251895397e-05
-2.30179898388e-05
-5.75007776535e-05
-8.58675494343e-05
-0.000100302833237
-0.000112057079917
-0.000117903536849
-0.000118031682686
-0.000114452709391
-0.000109788836761
-0.000106541773491
-0.000106551754186
-0.000109812411785
-0.000114488227126
-0.000118076474205
-0.000117953664794
-0.000112107854237
-0.000100349449492
-8.59079010186e-05
-5.75165608887e-05
-2.30086429623e-05
-2.35669744997e-05
-5.91205549591e-05
-8.79037139613e-05
-0.000102274773766
-0.000113683737882
-0.000119664362667
-0.000120522450595
-0.000117948324207
-0.000114462073488
-0.000112188126421
-0.000112198989258
-0.000114487539014
-0.000117985393394
-0.000120567487919
-0.000119713668877
-0.000113734265907
-0.000102322396477
-8.79459278163e-05
-5.91389632145e-05
-2.35620226744e-05
-2.35931732858e-05
-6.04958706992e-05
-9.01202190589e-05
-0.000105906409313
-0.000115451039942
-0.000120864783644
-0.000122162320825
-0.000120533539628
-0.000118048806112
-0.000116555288989
-0.000116566335773
-0.000118073731796
-0.000120567333471
-0.000122200523089
-0.000120904902518
-0.000115492146103
-0.000105942510361
-9.0155721083e-05
-6.05127704409e-05
-2.35912717798e-05
-2.30439118002e-05
-6.06640725406e-05
-9.08359668474e-05
-0.00010863062565
-0.000115241798182
-0.000119568162187
-0.000120877171982
-0.000119687086449
-0.000117930174241
-0.000116951167325
-0.000116962203873
-0.000117953990151
-0.000119717086993
-0.000120908074277
-0.000119597942757
-0.000115270766344
-0.000108660844629
-9.08601141064e-05
-6.06759370013e-05
-2.30434257262e-05
-2.19104566417e-05
-5.86997161999e-05
-8.84150810956e-05
-0.000106695003857
-0.000114737038313
-0.000115251173771
-0.000115475639514
-0.000113715665534
-0.000112092303606
-0.000111374846581
-0.000111386086674
-0.000112115846989
-0.000113743682522
-0.000115499122832
-0.000115274320681
-0.000114754362278
-0.000106712901256
-8.84297022094e-05
-5.87070602617e-05
-2.19108870676e-05
-1.99206833481e-05
-5.3168336291e-05
-8.04241121212e-05
-9.79292691617e-05
-0.000106697630227
-0.000108644244429
-0.00010595435183
-0.000102311757481
-0.000100342327635
-9.96261721973e-05
-9.96377177439e-05
-0.000100366627978
-0.000102337914093
-0.00010594936709
-0.000108665612407
-0.000106715174632
-9.79439974173e-05
-8.04347718959e-05
-5.31736594691e-05
-1.9922481709e-05
-1.68814041861e-05
-4.32385236862e-05
-6.5521714848e-05
-8.04197046566e-05
-8.84128548867e-05
-9.08432543065e-05
-9.01404449997e-05
-8.79356154883e-05
-8.59055520593e-05
-8.47866423698e-05
-8.47987531045e-05
-8.59322869094e-05
-8.79680094151e-05
-9.01696108416e-05
-9.08675681879e-05
-8.84328912094e-05
-8.04352212337e-05
-6.55324369873e-05
-4.32448892748e-05
-1.68853610157e-05
-1.28615904345e-05
-2.88681254127e-05
-4.32348268783e-05
-5.31594189819e-05
-5.86911514273e-05
-6.06613400564e-05
-6.05024563985e-05
-5.91377764167e-05
-5.75280197105e-05
-5.64652473606e-05
-5.64747281933e-05
-5.7549727144e-05
-5.91658395437e-05
-6.0530152094e-05
-6.06858765204e-05
-5.8711744089e-05
-5.31756230887e-05
-4.32465083398e-05
-2.88767240007e-05
-1.28676151734e-05
-9.2808383648e-06
-1.28622935661e-05
-1.68799305696e-05
-1.99161204061e-05
-2.19032937347e-05
-2.3036579423e-05
-2.35882633916e-05
-2.3566452407e-05
-2.30230686214e-05
-2.22757169641e-05
-2.22803378589e-05
-2.30346850119e-05
-2.35829122471e-05
-2.36064790482e-05
-2.3054204633e-05
-2.19190207717e-05
-1.99292382988e-05
-1.6890770932e-05
-1.28712155554e-05
-9.28764602743e-06
-1.71278126114e-06
-1.0519770952e-05
-2.02528712237e-05
-2.84051424732e-05
-3.37306373788e-05
-3.62757395857e-05
-3.59341487565e-05
-3.29051901754e-05
-2.77873353614e-05
-2.31646037844e-05
-2.31766682375e-05
-2.78253617887e-05
-3.29634556617e-05
-3.6001506715e-05
-3.63381614556e-05
-3.37847472584e-05
-2.8447267689e-05
-2.02857958357e-05
-1.05437096412e-05
-1.72947918216e-06
-1.05134871479e-05
-1.95384146524e-05
-2.95844393253e-05
-3.8264099287e-05
-4.47005850201e-05
-4.91510753012e-05
-5.15803520853e-05
-5.1861277059e-05
-5.07388397939e-05
-4.93173510735e-05
-4.93288983717e-05
-5.07707057801e-05
-5.19095454811e-05
-5.16353799138e-05
-4.9203391572e-05
-4.47458076569e-05
-3.82992747853e-05
-2.96112353137e-05
-1.95590577108e-05
-1.05342782948e-05
-2.02485383215e-05
-2.95863150502e-05
-4.20996805325e-05
-5.31661763662e-05
-6.15771231233e-05
-6.74661820894e-05
-7.1122379222e-05
-7.27917243034e-05
-7.15194960226e-05
-7.08749164442e-05
-7.08810078576e-05
-7.1530119734e-05
-7.28178691247e-05
-7.11545704833e-05
-6.7499623924e-05
-6.16070193839e-05
-5.31895045852e-05
-4.21160295462e-05
-2.9597137221e-05
-2.02619292088e-05
-2.84002588525e-05
-3.82698419935e-05
-5.31717967893e-05
-6.60343606299e-05
-7.53817811455e-05
-8.14853369845e-05
-8.42953613676e-05
-8.61046262943e-05
-8.65976252795e-05
-8.6707270393e-05
-8.67108082063e-05
-8.66033412645e-05
-8.61148681872e-05
-8.43064377524e-05
-8.1502375032e-05
-7.53966457256e-05
-6.60454616345e-05
-5.31760993999e-05
-3.82683258492e-05
-2.84037991381e-05
-3.37296893701e-05
-4.47125100257e-05
-6.15892561152e-05
-7.53884178478e-05
-8.44582007833e-05
-9.05969753111e-05
-9.44472332776e-05
-9.65623128162e-05
-9.74192797287e-05
-9.778313938e-05
-9.7785741937e-05
-9.74219126796e-05
-9.65656941588e-05
-9.44508251752e-05
-9.06011196998e-05
-8.44596390853e-05
-7.53901258331e-05
-6.15847899349e-05
-4.47002566376e-05
-3.37209361241e-05
-3.62730060737e-05
-4.91649276686e-05
-6.74825903208e-05
-8.14973978687e-05
-9.06017579138e-05
-9.73793539506e-05
-0.000101711510242
-0.000103996035284
-0.000104908254051
-0.000105160113298
-0.000105161873786
-0.000104908342104
-0.000103995754059
-0.000101710852359
-9.73789303739e-05
-9.06006466079e-05
-8.14956525407e-05
-6.74746712308e-05
-4.91484148303e-05
-3.62582095572e-05
-3.59219726599e-05
-5.15882338619e-05
-7.11385893098e-05
-8.43082737894e-05
-9.44565400664e-05
-0.000101717607488
-0.000106253672711
-0.000108456545042
-0.000109007646095
-0.000109143681843
-0.000109145064749
-0.000109007803696
-0.000108454937703
-0.000106250957004
-0.000101715387658
-9.4454244509e-05
-8.43032527517e-05
-7.11306306678e-05
-5.15719857224e-05
-3.59017826837e-05
-3.28786167336e-05
-5.18544197649e-05
-7.28024150567e-05
-8.61181313456e-05
-9.65769940085e-05
-0.000104011423762
-0.000108467738921
-0.000110216990328
-0.000110435715525
-0.000110257142324
-0.000110258577231
-0.000110436242386
-0.000110216503414
-0.000108466368866
-0.000104010066758
-9.6575878195e-05
-8.611536235e-05
-7.27965612129e-05
-5.1838192552e-05
-3.28472856895e-05
-2.77292356428e-05
-5.07207660656e-05
-7.15273908479e-05
-8.66120771816e-05
-9.74390724691e-05
-0.000104934288245
-0.000109030350191
-0.000110449741871
-0.000110155882661
-0.000109480739756
-0.000109483058909
-0.000110158970174
-0.000110453009861
-0.000109033582984
-0.00010493655389
-9.74410298791e-05
-8.66111019575e-05
-7.15183033642e-05
-5.06980578927e-05
-2.76823993048e-05
-2.30933930359e-05
-4.92873356327e-05
-7.08694893216e-05
-8.67166593258e-05
-9.78013123777e-05
-0.000105188144528
-0.000109171925132
-0.000110278803522
-0.000109491403402
-0.000108389279354
-0.000108393287297
-0.000109499097056
-0.000110288530306
-0.00010918227141
-0.000105198262234
-9.78098040025e-05
-8.67212410866e-05
-7.08643744655e-05
-4.92568912234e-05
-2.30222504129e-05
-2.31131918537e-05
-4.92968601238e-05
-7.08703161485e-05
-8.67127292806e-05
-9.77959299839e-05
-0.000105181999499
-0.00010916791932
-0.00011027899114
-0.000109497512284
-0.000108400652062
-0.000108406622341
-0.000109510292285
-0.000110295794173
-0.000109186019464
-0.000105199845624
-9.78111966213e-05
-8.67230558664e-05
-7.08670156578e-05
-4.92616664587e-05
-2.30273190303e-05
-2.77796046466e-05
-5.07439819765e-05
-7.1521061736e-05
-8.65996457803e-05
-9.74233834067e-05
-0.000104916647862
-0.000109019489026
-0.000110448055939
-0.000110167622616
-0.0001095040164
-0.000109510759285
-0.000110182946069
-0.000110468655537
-0.000109041920437
-0.000104938910903
-9.74436732878e-05
-8.66155574942e-05
-7.15252557179e-05
-5.0712330459e-05
-2.76995274772e-05
-3.29340961826e-05
-5.18875978186e-05
-7.28052036728e-05
-8.6107146593e-05
-9.65613011062e-05
-0.000103994895629
-0.000108456265277
-0.000110216748809
-0.000110450710221
-0.000110284460448
-0.000110291103069
-0.000110465901496
-0.000110237617291
-0.000108479484286
-0.000104017731557
-9.65829662277e-05
-8.61251776649e-05
-7.28128590907e-05
-5.18629030754e-05
-3.28783438068e-05
-3.59824541913e-05
-5.16206452683e-05
-7.11450352261e-05
-8.42999622983e-05
-9.44460673026e-05
-0.0001017073035
-0.000106246731244
-0.000108459164699
-0.000109023522153
-0.000109171317568
-0.000109177566394
-0.000109037887337
-0.000108478835567
-0.000106267899368
-0.00010172839705
-9.44666200666e-05
-8.43181205461e-05
-7.11549299346e-05
-5.16050826014e-05
-3.59439129447e-05
-3.63309920844e-05
-4.9197431042e-05
-6.74965731193e-05
-8.1499728499e-05
-9.05991413251e-05
-9.73772373358e-05
-0.000101711694475
-0.000104002106883
-0.000104925913593
-0.000105187408054
-0.000105193405124
-0.000104938675732
-0.000104020351543
-0.000101731336722
-9.73967624592e-05
-9.06180706384e-05
-8.15184830658e-05
-6.75047087668e-05
-4.91856397387e-05
-3.63051884907e-05
-3.37854753477e-05
-4.47481966303e-05
-6.16123424071e-05
-7.54008111787e-05
-8.44619427009e-05
-9.06021868994e-05
-9.44540378476e-05
-9.65721856112e-05
-9.74353606515e-05
-9.78048728601e-05
-9.78111985244e-05
-9.7449419052e-05
-9.65911601528e-05
-9.44742322149e-05
-9.06223077347e-05
-8.44795980362e-05
-7.54163176582e-05
-6.16173106198e-05
-4.47371003129e-05
-3.37679457076e-05
-2.84544291098e-05
-3.83086420904e-05
-5.32030851964e-05
-6.60581031099e-05
-7.5398763928e-05
-8.15004349624e-05
-8.43074868375e-05
-8.61182611994e-05
-8.66142548104e-05
-8.67269048717e-05
-8.67337183108e-05
-8.66303332068e-05
-8.61407112399e-05
-8.43314125828e-05
-8.15269706988e-05
-7.54208103459e-05
-6.60728726515e-05
-5.32063466017e-05
-3.82989794879e-05
-2.84435579584e-05
-2.02953956879e-05
-2.96241056903e-05
-4.2135444871e-05
-5.31967624803e-05
-6.16021406597e-05
-6.74878647744e-05
-7.11418576796e-05
-7.28087804735e-05
-7.15358568057e-05
-7.08863888684e-05
-7.08939212052e-05
-7.15550889812e-05
-7.2840127102e-05
-7.11772052068e-05
-6.75212661438e-05
-6.16287170946e-05
-5.3213138007e-05
-4.21400575872e-05
-2.96188642045e-05
-2.02922158359e-05
-1.05473228191e-05
-1.95724884914e-05
-2.96217525619e-05
-3.82979678915e-05
-4.47287441786e-05
-4.91744777904e-05
-5.15993799787e-05
-5.18729458757e-05
-5.07412582427e-05
-4.93106949185e-05
-4.93208315528e-05
-5.0769175626e-05
-5.19143963274e-05
-5.16454822752e-05
-4.92161366106e-05
-4.47606615966e-05
-3.83180079934e-05
-2.96312194891e-05
-1.95741834921e-05
-1.05504801773e-05
-1.73354264667e-06
-1.05575406406e-05
-2.02993095922e-05
-2.84479083116e-05
-3.37659278573e-05
-3.63030334425e-05
-3.59528217515e-05
-3.29097654958e-05
-2.77674861101e-05
-2.31240839034e-05
-2.31339679307e-05
-2.77980588859e-05
-3.29564727622e-05
-3.60070489912e-05
-3.63535754974e-05
-3.38062159505e-05
-2.84769332669e-05
-2.03194167677e-05
-1.0570228641e-05
-1.74151391472e-06
2.35027303682e-06
-9.67545041403e-06
-2.09213109045e-05
-2.89377951008e-05
-3.11957974496e-05
-2.58472822559e-05
-1.39138108251e-05
6.38950688898e-07
1.25991695245e-05
1.88792149622e-05
1.88802450646e-05
1.25857979572e-05
6.05006785633e-07
-1.39735844764e-05
-2.59101800784e-05
-3.12560563292e-05
-2.89762823726e-05
-2.09465568548e-05
-9.68503580645e-06
2.33363166418e-06
-9.64391738199e-06
-2.18764523624e-05
-3.12457177725e-05
-3.88153931337e-05
-4.3895017102e-05
-4.58850432433e-05
-4.43392074886e-05
-3.95357780297e-05
-3.39914318712e-05
-3.05159631509e-05
-3.0525786361e-05
-3.40273605894e-05
-3.95939511675e-05
-4.44128202114e-05
-4.59526328621e-05
-4.39445654973e-05
-3.88415848014e-05
-3.12575427671e-05
-2.18834448912e-05
-9.67695554966e-06
-2.09025033212e-05
-3.12469218265e-05
-4.26344954715e-05
-5.3192852508e-05
-6.20660107152e-05
-6.88184140136e-05
-7.32111545522e-05
-7.24636519154e-05
-7.27768512849e-05
-7.22724126985e-05
-7.22829816501e-05
-7.28059041888e-05
-7.24990854056e-05
-7.3274492319e-05
-6.88763723942e-05
-6.21064566423e-05
-5.32110974507e-05
-4.26331187869e-05
-3.12339581858e-05
-2.09084380779e-05
-2.89163022779e-05
-3.88207678646e-05
-5.32014552056e-05
-6.68357744187e-05
-7.79538517593e-05
-8.50316094973e-05
-9.13648161364e-05
-9.4515587722e-05
-9.61574361797e-05
-9.67981370222e-05
-9.68064107738e-05
-9.61767605539e-05
-9.45399286843e-05
-9.14001260882e-05
-8.50641010789e-05
-7.79800446968e-05
-6.6842661992e-05
-5.31842051035e-05
-3.87826026489e-05
-2.88860876365e-05
-3.11812973109e-05
-4.3911497454e-05
-6.20851534733e-05
-7.79639083165e-05
-8.94336943748e-05
-9.78764668681e-05
-0.000104037701783
-0.000107836608697
-0.000109976909984
-0.000110953251943
-0.000110959486112
-0.000109989831795
-0.00010785339249
-0.000104057676442
-9.7893427002e-05
-8.94461035632e-05
-7.79623365691e-05
-6.20554678384e-05
-4.38434162722e-05
-3.10975056583e-05
-2.58201353988e-05
-4.59054952874e-05
-6.88427754921e-05
-8.50440867244e-05
-9.78822626475e-05
-0.000106738866398
-0.000112755214159
-0.000116457423164
-0.000118494857775
-0.000119473316432
-0.000119478297537
-0.00011850566597
-0.00011647228934
-0.000112773816743
-0.000106750704596
-9.78851083161e-05
-8.50355251358e-05
-6.88076871704e-05
-4.58143525923e-05
-2.56867974653e-05
-1.38921244344e-05
-4.43579027818e-05
-7.32317797473e-05
-9.13794987446e-05
-0.000104047554549
-0.000112759671626
-0.000118609698507
-0.000122037885071
-0.000123687222063
-0.000124345604424
-0.000124349119347
-0.000123693786799
-0.000122052432268
-0.000118633748547
-0.000112777503038
-0.00010404767473
-9.13675727747e-05
-7.31950713321e-05
-4.42443913589e-05
-1.36908634194e-05
6.35345761555e-07
-3.95485557692e-05
-7.24710066468e-05
-9.45262258174e-05
-0.000107847864966
-0.000116465512288
-0.000122043968409
-0.000125018188132
-0.000126048111211
-0.000126241992003
-0.000126244670914
-0.000126052962262
-0.000125033435813
-0.00012207246952
-0.000116490209622
-0.000107848820043
-9.45095684503e-05
-7.24208093539e-05
-3.940477261e-05
9.26891709359e-07
1.26027582469e-05
-3.39870500325e-05
-7.27688014208e-05
-9.61591294263e-05
-0.000109986654948
-0.000118504413524
-0.000123702530069
-0.000126060566242
-0.000126413005214
-0.000126115051416
-0.000126117989574
-0.000126419111862
-0.000126078913714
-0.000123735506908
-0.000118534367636
-0.000109990538356
-9.61445271137e-05
-7.27172823416e-05
-3.38200164333e-05
1.29615475684e-05
1.89090032848e-05
-3.04891860144e-05
-7.22518375529e-05
-9.679309651e-05
-0.000110960831208
-0.000119487520494
-0.000124366926523
-0.000126264506435
-0.000126128817376
-0.000125487760533
-0.000125491600746
-0.000126137628243
-0.000126287267181
-0.000124404377724
-0.000119519440901
-0.000110966297419
-9.67787312398e-05
-7.21971262802e-05
-3.03149262008e-05
1.92966481598e-05
1.8935044411e-05
-3.047758838e-05
-7.22515373967e-05
-9.67933733831e-05
-0.000110960081164
-0.000119486476736
-0.00012436699816
-0.000126268134829
-0.000126137084039
-0.000125499652989
-0.000125504477002
-0.000126148256676
-0.000126293949465
-0.0001244074624
-0.000119520701023
-0.000110966915376
-9.67799129392e-05
-7.21985273911e-05
-3.03135032813e-05
1.93094542907e-05
1.26566411987e-05
-3.39663085765e-05
-7.27690815128e-05
-9.61575673805e-05
-0.000109981947784
-0.000118501546883
-0.000123700561838
-0.000126067450237
-0.000126431823145
-0.000126142111547
-0.000126146893669
-0.000126443123192
-0.000126093953789
-0.00012374278084
-0.000118538262638
-0.000109991331235
-9.61473421528e-05
-7.27223486798e-05
-3.38221586921e-05
1.29845867767e-05
6.79208160627e-07
-3.95318711814e-05
-7.24639832258e-05
-9.4520090615e-05
-0.000107841990395
-0.000116460960687
-0.000122046017993
-0.000125032277503
-0.000126075699363
-0.000126277288917
-0.000126280885421
-0.000126084132562
-0.000125055111853
-0.000122085483483
-0.00011649685274
-0.00010785287381
-9.45154060266e-05
-7.24281964161e-05
-3.94125835686e-05
9.43963938688e-07
-1.39007328016e-05
-4.43545506744e-05
-7.32383398173e-05
-9.13818137156e-05
-0.000104048365722
-0.000112762465792
-0.000118619495902
-0.000122057534012
-0.000123716037589
-0.000124379124455
-0.000124381757374
-0.000123722202041
-0.000122075403728
-0.000118651662487
-0.000112789855957
-0.000104057659066
-9.13812495602e-05
-7.32149421567e-05
-4.425504119e-05
-1.36855093597e-05
-2.58487054806e-05
-4.59025021695e-05
-6.88461148758e-05
-8.50506861474e-05
-9.78887324461e-05
-0.000106746771169
-0.000112766288139
-0.000116472073285
-0.000118510149262
-0.000119490843418
-0.000119494351593
-0.000118518916013
-0.000116487895552
-0.000112789449511
-0.000106764258525
-9.78979704269e-05
-8.50496614346e-05
-6.88223195248e-05
-4.58176109906e-05
-2.56848741704e-05
-3.12050961173e-05
-4.39037136029e-05
-6.20815900793e-05
-7.79676111287e-05
-8.94428003582e-05
-9.78862463714e-05
-0.00010404460511
-0.000107838706977
-0.000109976002175
-0.000110950115659
-0.000110955532629
-0.000109988787614
-0.000107857680125
-0.000104065906485
-9.79036129305e-05
-8.94561746145e-05
-7.79693488444e-05
-6.20541790296e-05
-4.38290732032e-05
-3.10865578395e-05
-2.89338758739e-05
-3.88086779868e-05
-5.31905140352e-05
-6.68321596987e-05
-7.79583223118e-05
-8.50386986932e-05
-9.1369250657e-05
-9.45095152038e-05
-9.61440938727e-05
-9.67804651271e-05
-9.67879859311e-05
-9.61628678724e-05
-9.45351644089e-05
-9.13994420412e-05
-8.50638388477e-05
-7.79762957215e-05
-6.68301930996e-05
-5.31603249019e-05
-3.87460986755e-05
-2.88520368468e-05
-2.09057974977e-05
-3.1231030931e-05
-4.26158092148e-05
-5.31766656704e-05
-6.20538660385e-05
-6.88101025794e-05
-7.32015879517e-05
-7.2435271182e-05
-7.27374518964e-05
-7.22253179487e-05
-7.22356282053e-05
-7.27642917502e-05
-7.24706914999e-05
-7.32496048989e-05
-6.88481328723e-05
-6.2072518258e-05
-5.31715566511e-05
-4.25870705392e-05
-3.11844496095e-05
-2.08564878995e-05
-9.64465806843e-06
-2.18635687854e-05
-3.12224003697e-05
-3.87820242077e-05
-4.38501620813e-05
-4.58257877737e-05
-4.42614108254e-05
-3.94295460202e-05
-3.38568732558e-05
-3.03628602941e-05
-3.03763500204e-05
-3.38937012701e-05
-3.94794891587e-05
-4.43129029829e-05
-4.58634891357e-05
-4.38659067231e-05
-3.87765137571e-05
-3.12024106001e-05
-2.18347655068e-05
-9.61940787237e-06
2.35243018035e-06
-9.67132494072e-06
-2.09058459874e-05
-2.89026978827e-05
-3.1130021855e-05
-2.57307395638e-05
-1.37398414432e-05
8.87298779826e-07
1.29236032572e-05
1.92526765015e-05
1.92444969495e-05
1.28990769251e-05
8.48268951485e-07
-1.37904205607e-05
-2.57768879627e-05
-3.11593362365e-05
-2.89156333059e-05
-2.09063695988e-05
-9.66416523787e-06
2.36131272614e-06
9.80189370243e-07
-1.58566588947e-05
-2.89907088762e-05
-3.25790794377e-05
-2.77794688456e-05
-1.0794613494e-05
4.51301242742e-06
1.45231087497e-05
1.73026952495e-05
1.71256670736e-05
1.71612447115e-05
1.73764042561e-05
1.46220326255e-05
4.61905363566e-06
-1.06789598588e-05
-2.77109761136e-05
-3.25168583254e-05
-2.89428844523e-05
-1.58063832085e-05
9.80839265453e-07
-1.57696755254e-05
-2.87046986012e-05
-3.77451869911e-05
-4.31979890678e-05
-4.49911695056e-05
-4.17061602895e-05
-3.51895841318e-05
-2.89587406791e-05
-2.69618609545e-05
-2.75228469876e-05
-2.75149953296e-05
-2.69557702871e-05
-2.89463588563e-05
-3.51766406748e-05
-4.16884576723e-05
-4.496162411e-05
-4.31447858343e-05
-3.76853753826e-05
-2.86582631457e-05
-1.57894070552e-05
-2.89352622275e-05
-3.77345181498e-05
-4.97558601176e-05
-5.99433954023e-05
-6.81166577389e-05
-7.40700533567e-05
-7.7365870647e-05
-7.74498356045e-05
-7.85384221648e-05
-7.97031899796e-05
-7.97121054977e-05
-7.85668909846e-05
-7.74929517144e-05
-7.74116211302e-05
-7.40976051128e-05
-6.81075662541e-05
-5.98914971612e-05
-4.96709222784e-05
-3.7637059435e-05
-2.8866680686e-05
-3.25152794531e-05
-4.31931959748e-05
-5.99529630968e-05
-7.48357515537e-05
-8.70651532917e-05
-9.61202872209e-05
-0.000103538272775
-0.00010812536707
-0.000111116053822
-0.000112737309739
-0.000112748208921
-0.000111144161641
-0.000108167569065
-0.000103582175461
-9.61431406168e-05
-8.70592114009e-05
-7.47818368504e-05
-5.98400064849e-05
-4.30227780178e-05
-3.233086425e-05
-2.77480147457e-05
-4.50089996793e-05
-6.81462669704e-05
-8.70818443742e-05
-0.000101246517681
-0.000112332483625
-0.000120650993695
-0.000126029310151
-0.000129152070645
-0.000130641817621
-0.000130649708757
-0.000129171199889
-0.000126064738464
-0.000120698018879
-0.000112362493609
-0.000101236216631
-8.70247366618e-05
-6.80068177078e-05
-4.47490781034e-05
-2.73848023102e-05
-1.07893314142e-05
-4.17463050737e-05
-7.41164775619e-05
-9.6148796792e-05
-0.000112342599575
-0.000124040301184
-0.000132053889029
-0.000136819994913
-0.000139226307146
-0.000140287161993
-0.000140292089003
-0.000139238333323
-0.000136853375248
-0.000132113469407
-0.000124093909733
-0.000112351220909
-9.60856074823e-05
-7.39584119555e-05
-4.13951699224e-05
-1.02217924392e-05
4.38356788434e-06
-3.52748889402e-05
-7.74239112796e-05
-0.000103570020408
-0.000120661531275
-0.000132054853493
-0.000139177782822
-0.000142886544575
-0.000144327060623
-0.000144751588722
-0.000144754654271
-0.000144333864652
-0.000142921070855
-0.000139253734655
-0.00013213387437
-0.000120696697818
-0.000103517706789
-7.72508524219e-05
-3.48238561661e-05
5.20590888355e-06
1.43101776966e-05
-2.90881928809e-05
-7.75021362651e-05
-0.000108147126212
-0.000126033076404
-0.000136816126885
-0.000142883988948
-0.000145443892969
-0.000145818887231
-0.000145568000809
-0.000145569650088
-0.000145823308854
-0.000145481517829
-0.000142971925565
-0.000136913488547
-0.000126084944362
-0.000108106979242
-7.73116840488e-05
-2.85499150147e-05
1.53356209132e-05
1.70904582595e-05
-2.71048513625e-05
-7.8590954231e-05
-0.000111129458958
-0.0001291498947
-0.00013922139619
-0.000144329573095
-0.000145826734024
-0.000145255633348
-0.000144429723201
-0.000144431266603
-0.000145261102263
-0.000145870443012
-0.000144426754634
-0.000139327072952
-0.00012920841701
-0.000111093660359
-7.83884189234e-05
-2.65252791665e-05
1.82408338407e-05
1.69721312647e-05
-2.76213109659e-05
-7.97333167442e-05
-0.000112739080151
-0.000130635661513
-0.000140285012663
-0.000144762459841
-0.000145591263915
-0.000144448728891
-0.000143275001714
-0.000143277424434
-0.000144456176993
-0.000145640011808
-0.000144867193961
-0.000140393907827
-0.000130698132956
-0.000112709157591
-7.95417238193e-05
-2.70615686373e-05
1.81547220636e-05
1.70765678117e-05
-2.75525948683e-05
-7.97056374564e-05
-0.000112729428298
-0.000130630549955
-0.000140282280044
-0.000144764015883
-0.000145597880934
-0.000144460096976
-0.00014328941296
-0.000143292178606
-0.000144467858301
-0.000145646465505
-0.000144868661794
-0.000140393254858
-0.00013069690534
-0.000112706847855
-7.95349338618e-05
-2.70409646686e-05
1.8201955562e-05
1.73669998747e-05
-2.69261062129e-05
-7.85249006755e-05
-0.000111104474268
-0.00012913403936
-0.000139211327589
-0.000144328782241
-0.000145841028764
-0.000145283968465
-0.000144465350585
-0.000144466668052
-0.000145288364918
-0.000145885462377
-0.000144431183672
-0.00013932610266
-0.000129204960649
-0.000111087302766
-7.8372898215e-05
-2.64800998049e-05
1.83535297202e-05
1.46688008454e-05
-2.88735167139e-05
-7.74284290542e-05
-0.000108116508556
-0.000126016084012
-0.000136810947777
-0.000142895430242
-0.000145477145399
-0.000145870163027
-0.000145626744117
-0.000145624251484
-0.000145865170273
-0.00014550875873
-0.000142987932856
-0.000136920756532
-0.000126085018989
-0.000108098996046
-7.72893003456e-05
-2.84797359121e-05
1.54940735723e-05
4.71120430422e-06
-3.50804466717e-05
-7.73337242816e-05
-0.000103529377034
-0.000120647400411
-0.00013206467252
-0.000139210841068
-0.000142941502119
-0.000144395896091
-0.000144822853834
-0.000144816440657
-0.000144381294847
-0.000142957953455
-0.000139284446797
-0.000132153456333
-0.000120699286871
-0.000103502973929
-7.72179603297e-05
-3.47330197477e-05
5.38678995446e-06
-1.05746237411e-05
-4.15869444593e-05
-7.40189037491e-05
-9.60934533794e-05
-0.000112319078396
-0.000124050220909
-0.000132087470169
-0.000136869229724
-0.000139277454909
-0.000140331538197
-0.000140326354891
-0.000139264737194
-0.000136879042117
-0.000132139279038
-0.000124107208376
-0.000112339572298
-9.60504625146e-05
-7.38990250427e-05
-4.1283190116e-05
-1.00241835587e-05
-2.76041723938e-05
-4.48640698598e-05
-6.80305813037e-05
-8.70056833338e-05
-0.000101197078683
-0.000112313738428
-0.00012065330826
-0.000126039323209
-0.000129156932112
-0.000130638276927
-0.000130638544021
-0.000129157084144
-0.000126054548024
-0.000120688919439
-0.000112339735707
-0.000101189919097
-8.69574247169e-05
-6.79053345186e-05
-4.46105278571e-05
-2.72046212561e-05
-3.24133637148e-05
-4.30547799317e-05
-5.98162881769e-05
-7.47228455041e-05
-8.69805078112e-05
-9.60499437639e-05
-0.00010347939472
-0.000108065801392
-0.000111046938169
-0.000112659964604
-0.000112666225346
-0.000111062478961
-0.000108090986109
-0.000103508977039
-9.60598688028e-05
-8.69629243308e-05
-7.46602299285e-05
-5.96914644389e-05
-4.28554254223e-05
-3.21417323326e-05
-2.88473182705e-05
-3.76047969415e-05
-4.96008856701e-05