/*--------------------------------*- C++ -*----------------------------------*\
| =========                 |                                                 |
| \\      /  F ield         | OpenFOAM: The Open Source CFD Toolbox           |
|  \\    /   O peration     | Version:  3.0.1                                 |
|   \\  /    A nd           | Web:      www.OpenFOAM.org                      |
|    \\/     M anipulation  |                                                 |
\*---------------------------------------------------------------------------*/
FoamFile
{
    version     2.0;
    format      ascii;
    class       volScalarField;
    location    "8.7";
    object      epsilon;
}
// * * * * * * * * * * * * * * * * * * * * * * * * * * * * * * * * * * * * * //

dimensions      [0 2 -3 0 0 0 0];

internalField   nonuniform List<scalar> 
7968
(
6.92938951978e-05
9.19295123913e-05
0.000107855155123
0.00011567478786
0.000116250472078
0.000112764548251
0.000107105819267
0.000101062514127
9.61290128527e-05
9.29954634319e-05
9.29717530135e-05
9.60826982545e-05
0.00010100523347
0.000107047549675
0.000112714176547
0.000116212303971
0.000115652512526
0.000107846031982
9.19284267968e-05
6.92956409264e-05
9.19202977592e-05
0.000165803960278
0.000212285645253
0.000233103186581
0.000233769839812
0.000223005544872
0.000206057999026
0.000187672731998
0.00017240563578
0.000163463525184
0.000163421036047
0.000172309639605
0.000187546013221
0.000205925299621
0.000222885164445
0.000233670090967
0.000233037646107
0.000212252053885
0.000165795476388
9.1924055337e-05
0.000107838513768
0.000212269015165
0.000278388938835
0.000308556936137
0.000310770757783
0.000295949161438
0.000272049309431
0.000245565091745
0.000222908286625
0.000209251216637
0.000209196672476
0.000222783927755
0.000245399877192
0.000271874455165
0.00029578730183
0.000310632925314
0.000308461884918
0.000278336609352
0.000212252890303
0.000107842153709
0.000115650709322
0.000233068661035
0.000308535146889
0.000344744215928
0.000349641354672
0.000334500429658
0.000309126524923
0.000286827858505
0.000267256719687
0.00025450998154
0.000254459634705
0.000267148201231
0.000286681251131
0.000308943886353
0.00033431136728
0.000349478431595
0.000344627621907
0.000308466524262
0.000233042194529
0.000115650989322
0.000116222140386
0.000233725040332
0.000310735098874
0.000349626312218
0.000357479692229
0.000351126177541
0.000339690158331
0.000323533629595
0.000306410074546
0.000294180317991
0.000294128350637
0.000306300718774
0.000323393257003
0.000339533714855
0.000350968940341
0.000357302530136
0.000349492170319
0.000310648670193
0.000233682114116
0.000116214619177
0.000112744665943
0.000222974327027
0.000295925368236
0.000334495476045
0.000351128188371
0.00036008443164
0.000358754413938
0.000348192458108
0.000333377041905
0.000321644347005
0.00032158938998
0.000333262899121
0.000348051914654
0.000358609456903
0.000359944813377
0.000350988349094
0.000334350473768
0.000295824449738
0.000222915081966
0.000112727313823
0.000107104659492
0.000206056342877
0.000272056399719
0.000309148490697
0.000339712864186
0.00035877393481
0.000364417950259
0.000357908102427
0.0003447154302
0.000333288062835
0.000333231587645
0.000344599061289
0.000357767543072
0.000364278728861
0.000358644072562
0.000339586317503
0.000309014245515
0.000271946338878
0.000205983702728
0.000107077150564
0.000101083764538
0.000187710709185
0.000245617526685
0.000286872919934
0.000323585440359
0.000348249193313
0.000357951352725
0.000353716648544
0.000341192482777
0.000329496844504
0.000329442050335
0.000341082009958
0.0003535870834
0.000357826075067
0.000348137041937
0.000323482738898
0.000286772732201
0.000245511477441
0.000187635079573
0.000101050681718
9.6162700545e-05
0.000172472937336
0.000222997491542
0.000267328780939
0.00030649392969
0.00033347676443
0.000344811232484
0.000341253230558
0.000328199215975
0.000315305016979
0.000315257069859
0.000328108587759
0.000341154523315
0.00034472243155
0.000333401654856
0.000306427926207
0.000267265015801
0.000222921609092
0.000172417297521
9.6135703765e-05
9.30231967492e-05
0.000163528370745
0.000209340432521
0.000254586105879
0.000294271890673
0.000321759421748
0.000333409231207
0.000329595968125
0.000315356208803
0.000300691539568
0.000300657692382
0.000315303563445
0.000329552488285
0.000333383812073
0.000321748035654
0.00029426544122
0.000254578841399
0.000209327036186
0.000163521879442
9.30202435441e-05
9.2999288709e-05
0.000163464602658
0.000209254118269
0.000254501931672
0.000294178121147
0.000321655988618
0.000333306528361
0.000329509281368
0.000315301027956
0.00030067349322
0.000300663780289
0.000315302228324
0.000329537405151
0.000333360679455
0.000321724586081
0.000294247611405
0.000254568127511
0.000209321692766
0.000163524598833
9.30335043044e-05
9.61096129308e-05
0.000172333177632
0.000222809806462
0.000267153879124
0.000306302663592
0.000333269007359
0.000344608856458
0.000341090202234
0.000328110182003
0.000315300928354
0.00031530289241
0.000328131408283
0.000341139471663
0.000344682774092
0.000333355902696
0.000306390055766
0.000267239001345
0.00022290371442
0.000172415983948
9.6155459603e-05
0.000101025275144
0.000187548540055
0.000245394642153
0.000286655956688
0.000323357553776
0.000348011814511
0.000357726979326
0.000353547721896
0.000341120515256
0.000329532667346
0.000329538218306
0.0003411436435
0.000353591433267
0.000357788217731
0.000348082133512
0.000323428002109
0.000286724604624
0.000245472133708
0.000187618401917
0.000101062410646
0.000107053245504
0.000205905286089
0.000271840502856
0.00030889576261
0.00033947532631
0.000358546428088
0.000364216131303
0.000357769243434
0.000344679930461
0.000333366182408
0.000333372156658
0.000344699094431
0.000357799322066
0.000364254567985
0.000358587945904
0.000339514084424
0.000308930394448
0.000271881859061
0.00020594489623
0.000107071731436
0.000112702845555
0.000222845546518
0.000295732091858
0.000334245229473
0.000350899730604
0.000359878210523
0.000358584206408
0.000348090212214
0.000333375962935
0.000321752725079
0.000321758382389
0.000333391019706
0.000348108301272
0.000358601137147
0.00035989080062
0.00035090284484
0.000334240308353
0.000295739358938
0.000222855199867
0.000112702565981
0.000116184746205
0.000233616614476
0.00031056547651
0.000349405797109
0.000357230337401
0.000350929154993
0.000339541071334
0.000323458919184
0.000306431371903
0.000294301619956
0.000294306772192
0.000306442770435
0.00032346598966
0.000339536559107
0.000350912608073
0.000357188650849
0.000349377351523
0.000310548835739
0.000233603795774
0.000116170510908
0.000115608820472
0.000232973384412
0.000308388267969
0.000344557850186
0.000349435329278
0.000334304885921
0.000308984922358
0.000286770792475
0.000267293815832
0.000254640872559
0.000254644660444
0.000267299723013
0.000286764589966
0.000308953473901
0.000334254272196
0.000349383263196
0.000344516529441
0.000308356981794
0.000232946824085
0.000115586946244
0.00010779007083
0.000212182883535
0.00027826685163
0.000308409412882
0.000310612287977
0.000295802170566
0.000271938494765
0.00024552195475
0.000222960941417
0.000209400435641
0.000209402070355
0.000222958170045
0.00024550015666
0.000271898087966
0.000295751165665
0.000310556302643
0.00030836114737
0.000278227143748
0.000212149271589
0.000107765529183
9.18688125267e-05
0.000165733343454
0.000212199794484
0.000233006030452
0.000233666482525
0.000222907804588
0.000205982953248
0.000187645086944
0.000172447602318
0.000163577802208
0.000163577980451
0.000172442091515
0.000187621279754
0.00020594122979
0.000222855336475
0.000233608176632
0.000232953921049
0.000212156735107
0.000165698157242
9.18450469484e-05
6.92476306574e-05
9.18844057534e-05
0.00010781767213
0.000115641143246
0.000116217933886
0.00011273372052
0.000107082577506
0.000101057962905
9.61526434281e-05
9.3050167911e-05
9.30462940529e-05
9.61434567506e-05
0.000101036243187
0.000107048553269
0.000112692994464
0.000116175686759
0.000115603696451
0.000107787988089
9.18614331044e-05
6.92300393644e-05
0.000121756267086
0.000181094878133
0.000224320237372
0.000247875587432
0.000255346163994
0.00025248318691
0.000246109227334
0.000241966013246
0.000242884901243
0.000246350822821
0.000246299941038
0.000242752169525
0.000241778257766
0.000245905129001
0.000252299782281
0.000255204905222
0.000247784387873
0.000224270786766
0.000181072010535
0.000121744342501
0.00018109012087
0.000223910488108
0.000255462299833
0.00027142775987
0.000274782059991
0.000269220567249
0.000259774223479
0.00025076807398
0.000245168182359
0.000243065682575
0.000243020476794
0.000245052694881
0.00025060380547
0.0002595914556
0.000269049027305
0.000274643844224
0.000271332046477
0.00025540462925
0.000223878888322
0.000181080311729
0.000224306743087
0.000255457576997
0.000278975381947
0.000289405007768
0.000289673370275
0.000282788566713
0.000272218767001
0.000260950492754
0.000252697681687
0.000248341687015
0.000248310409727
0.000252620752771
0.000260828226757
0.000272078898912
0.00028265080739
0.000289554821166
0.000289316137527
0.000278917132973
0.00025542333235
0.000224294729533
0.000247850127733
0.000271416146421
0.00028939903593
0.000297212341206
0.000298011173342
0.000294251826444
0.000289600279868
0.000283339127958
0.00027665408902
0.000271991972166
0.000271966916243
0.000276597610694
0.000283262217637
0.000289512044391
0.000294148173869
0.000297911629193
0.000297127746182
0.000289335969224
0.00027137380318
0.000247828397959
0.000255318285525
0.000274772430412
0.000289667772417
0.000298009810797
0.000303371338095
0.000308652387031
0.000311129924245
0.000309525752364
0.000305099886197
0.000301007460858
0.000300985788762
0.000305054998324
0.000309471072961
0.000311071685913
0.000308588078169
0.000303297689183
0.000297927883285
0.000289594891163
0.000274713762722
0.000255277783652
0.000252490301957
0.000269238395213
0.000282799050051
0.000294258904861
0.000308656689936
0.000322126575077
0.000331004536957
0.00033362164039
0.000331219663898
0.000327727463188
0.000327706935037
0.000331179301777
0.00033357720009
0.000330962316971
0.000322081867249
0.000308600503984
0.000294180294328
0.000282715007592
0.000269157684645
0.000252420526246
0.000246197009113
0.000259848459163
0.000272261419342
0.00028962315653
0.000311144578522
0.000331014431839
0.000344888541792
0.000350576549007
0.000349580256999
0.00034646294916
0.000346443030272
0.000349542621575
0.000350535345903
0.000344853670119
0.000330980400322
0.000311100390571
0.000289559986993
0.00027217244445
0.000259751242696
0.000246099969242
0.000242153344887
0.000250910715613
0.00026103032018
0.000283381297274
0.000309556199753
0.000333650238131
0.00035059887794
0.000358179922625
0.000357951687304
0.00035471486749
0.000354695531875
0.000357917425402
0.0003581462915
0.000350570219654
0.000333625112709
0.000309523198121
0.0002833311537
0.000260951446722
0.000250819062397
0.000242057764605
0.000243138117852
0.000245352524272
0.000252789265386
0.000276708389695
0.000305144971938
0.000331269888592
0.000349627082863
0.000357981884584
0.000357521752381
0.000353482981463
0.000353466252433
0.000357495906859
0.000357962697516
0.00034961693189
0.000331262403694
0.000305131552483
0.000276682738094
0.000252750448603
0.000245305256774
0.000243097930357
0.000246587432143
0.000243237569025
0.000248423399371
0.000272041107589
0.0003010520807
0.000327782473122
0.00034652198637
0.00035476541117
0.000353510441431
0.000348425074995
0.000348416046065
0.000353504281747
0.000354773798997
0.000346543639076
0.00032780819524
0.000301072343884
0.000272053841699
0.000248435835783
0.000243270551074
0.000246656419301
0.000246453757626
0.000243130934329
0.000248354030493
0.000271986558193
0.000301002657053
0.000327733911274
0.000346477433289
0.000354729970931
0.000353491600225
0.000348427386569
0.000348432079075
0.00035351587522
0.000354777031866
0.000346540731745
0.000327802055261
0.000301065634533
0.00027204603694
0.000248424590441
0.000243251895741
0.000246637311019
0.0002428242073
0.000245096890514
0.00025262478362
0.000276586010163
0.000305040742182
0.00033117184874
0.000349541689187
0.000357920375786
0.000357499770315
0.000353508178287
0.000353519877386
0.000357537161175
0.000357981655225
0.000349618291497
0.000331253014587
0.0003051178569
0.000276662824586
0.000252718580673
0.000245252443088
0.000243043637549
0.000241781542081
0.000250587929017
0.000260797705085
0.000283223167364
0.000309432171986
0.000333543650709
0.000350508142503
0.000358124012471
0.000357946881043
0.000354767276357
0.000354781056456
0.000357985954918
0.000358183410128
0.000350579430773
0.000333618160818
0.000309503585236
0.000283295720113
0.000260889331383
0.000250729857315
0.000241967277288
0.000245852226543
0.000259522399803
0.000272009046789
0.000289447272691
0.000311014585484
0.000330914106438
0.000344812967999
0.000350535267021
0.000349591957061
0.00034653307575
0.000346546716953
0.000349627990276
0.000350585899984
0.000344872817927
0.000330975293733
0.000311071842177
0.000289503153639
0.000272077031156
0.000259623180955
0.000245971466358
0.000252201853789
0.000268936010593
0.000282545176253
0.000294058795802
0.000308515447458
0.000322024110099
0.000330934558655
0.000333588984533
0.00033123803097
0.000327801710201
0.000327814376969
0.000331269835501
0.000333632061044
0.000330982527573
0.00032207021309
0.000308554946732
0.00029409034502
0.000282585211353
0.000268993011223
0.000252256703117
0.000255073054017
0.000274497323393
0.000289419289566
0.000297798613896
0.000303209373192
0.000308532393645
0.000311048826504
0.000309486529481
0.000305111233955
0.00030107305034
0.000301084511597
0.000305138950563
0.000309520662988
0.000311082642176
0.000308559735885
0.000303226949443
0.000297808700863
0.000289433852531
0.000274517564362
0.000255080043964
0.000247629439345
0.000271165598458
0.000289159414286
0.000296994893499
0.00029782194756
0.000294097874411
0.000289495880898
0.000283284472691
0.000276655893344
0.000272049567585
0.000272059052484
0.000276676855475
0.000283305369591
0.000289509114233
0.000294094721356
0.000297810698839
0.000296982806128
0.000289150742337
0.000271157595611
0.000247606602127
0.00022410469604
0.000255232355058
0.000278750128209
0.000289189674631
0.000289472172265
0.000282610874279
0.000272081339341
0.000260873016013
0.000252689048564
0.000248394718574
0.000248401564464
0.000252700293931
0.000260871384683
0.000272062528694
0.000282577442803
0.000289431835859
0.000289150970097
0.000278716384821
0.000255199950354
0.000224063390307
0.000180917290999
0.000223717601637
0.000255260227769
0.000271224235789
0.000274578868138
0.000269027445958
0.000259613920719
0.000250671692317
0.000245156637932
0.000243135057491
0.000243138077608
0.000245152790697
0.00025064458807
0.000259560985177
0.000268957042909
0.000274503590937
0.000271155125653
0.000255200770904
0.000223664874932
0.00018086696804
0.000121624677591
0.000180933162195
0.000224147463306
0.000247697408393
0.000255162034119
0.000252300217381
0.000245950409208
0.000241869199187
0.000242878867993
0.000246433102283
0.000246434562358
0.000242863632745
0.000241818205645
0.000245865403061
0.000252197783231
0.000255059490919
0.000247608008469
0.000224074619306
0.00018087573232
0.000121580081088
0.000196487673242
0.000309755442418
0.000396286987353
0.000447676948478
0.000474514159806
0.000489547425458
0.000507883668631
0.000538762745591
0.000576913863897
0.00060438016143
0.000604310554246
0.00057670361455
0.000538421616469
0.000507471226721
0.00048916359877
0.000474220759726
0.000447499435246
0.000396197830356
0.000309717968546
0.000196458355882
0.000309790857057
0.000348451762473
0.000397066132216
0.000426789066759
0.000438950306442
0.000438868133193
0.00043576815698
0.00043783104688
0.000446432766664
0.000454643859859
0.000454574569682
0.000446234845806
0.000437529361788
0.000435418390439
0.000438547547387
0.000438710972223
0.000426644627514
0.000396993307296
0.000348412585572
0.0003097494066
0.000396317545341
0.000397079529561
0.000414341157922
0.000419880472213
0.000415154801498
0.000403232035726
0.000388642734192
0.000378155742952
0.000374584787043
0.000373734734394
0.000373687222938
0.000374457492654
0.000377972845371
0.000388390178082
0.000402993206421
0.000414965463747
0.000419756712042
0.000414274522153
0.000397043330966
0.000396281543966
0.000447698961179
0.000426802777136
0.000419879839605
0.000408918586549
0.000397313339361
0.000388355933409
0.000379244299342
0.000370269765004
0.000363672013172
0.00035994847378
0.000359915849406
0.000363589485643
0.000370152273515
0.000379103071546
0.000388223423255
0.000397173866428
0.000408809879196
0.000419811578993
0.000426764277104
0.000447666192513
0.000474551181062
0.000438972410681
0.000415158343937
0.000397314014527
0.00039116057215
0.000388713515009
0.000386029227152
0.00038168166017
0.000376578234297
0.000372817862518
0.00037279590503
0.000376526219544
0.000381611845775
0.000385950959042
0.000388634316678
0.000391073366842
0.000397217868514
0.000415077881108
0.000438920037455
0.000474510979053
0.000489693065895
0.00043894935263
0.00040326726525
0.000388372033553
0.000388721285298
0.000393504271297
0.000397590688782
0.000398324579187
0.000395874706502
0.000392899122919
0.000392884400002
0.000395842358577
0.000398284501861
0.000397548160814
0.000393460031919
0.00038866747475
0.000388304219327
0.000403168595237
0.000438868042415
0.00048962202369
0.000508230305228
0.000435968140095
0.000388743377454
0.000379291848711
0.00038605431344
0.000397604643389
0.000407604297678
0.000412353239211
0.00041168447929
0.000409223505208
0.000409213093739
0.000411662587223
0.000412328604959
0.000407580454081
0.00039757981915
0.0003860178664
0.000379227365158
0.000388633723464
0.000435870252005
0.000508153045926
0.00053930113045
0.000438158907257
0.000378316614363
0.00037035182101
0.000381729887696
0.000398360672797
0.000412377978427
0.00041922441836
0.000419187774808
0.000416669625505
0.000416661773937
0.000419172137972
0.000419208149868
0.000412365830823
0.000398350192456
0.00038171093595
0.000370310276976
0.000378254422197
0.000438103230578
0.000539317473326
0.000577510516875
0.00044682171746
0.000374786895522
0.000363777576317
0.000376646011996
0.000395934978456
0.000411740245394
0.000419222756116
0.000418895302974
0.000415750458945
0.000415745621979
0.000418887904182
0.00041921899553
0.000411743328796
0.000395943703048
0.000376652342511
0.000363772797211
0.000374781618672
0.000446880131907
0.000577735219512
0.000604883114945
0.000454993688344
0.000373916469352
0.000360044127306
0.000372883576028
0.00039296645168
0.000409293729483
0.00041672651718
0.000415778945439
0.000411899000223
0.000411900268131
0.000415787091159
0.000416744768999
0.000409323454068
0.000393006338695
0.000372929173952
0.000360095410054
0.00037400075477
0.000455205975053
0.000605357259969
0.00060463559084
0.000454806305922
0.000373794152232
0.000359962101994
0.000372824223812
0.00039291996402
0.000409257819178
0.000416703236226
0.00041577239418
0.000411909973422
0.000411920100607
0.000415801137787
0.00041674864582
0.00040931883549
0.000392996220183
0.000372914787282
0.000360074831643
0.000373968885951
0.000455155419712
0.000605299933804
0.000576849771585
0.000446329944212
0.000374477136448
0.000363576147957
0.000376506313855
0.000395831661213
0.00041166394255
0.000419177321689
0.00041889060919
0.000415786540074
0.000415800681556
0.000418927860897
0.000419233036258
0.000411735790153
0.000395920774857
0.000376615002553
0.000363715844051
0.000374691857563
0.000446735659268
0.000577568442427
0.000538411552218
0.000437494273134
0.000377906165646
0.000370080784109
0.00038154768387
0.000398234494045
0.000412291912688
0.000419178635613
0.000419194356733
0.000416726941494
0.000416741319404
0.000419231179716
0.000419232665019
0.000412361165123
0.000398320193019
0.000381652958502
0.000370215882784
0.000378109063618
0.00043787271176
0.000539046510349
0.000507331693328
0.000435268788297
0.000388244857001
0.000378975372908
0.000385846044278
0.000397466474394
0.000407516114439
0.000412311800681
0.000411698499146
0.000409291746703
0.00040930501243
0.000411732201598
0.000412361209056
0.00040757826397
0.000397541996859
0.000385936375244
0.000379088379303
0.000388409284314
0.000435566052723
0.000507796106735
0.000488925278766
0.000438305452612
0.000402770055374
0.000388039457682
0.000388486992638
0.000393345629156
0.000397488986358
0.00039827495053
0.000395883427579
0.00039296523815
0.000392977987382
0.000395915146517
0.000398319181007
0.000397541858299
0.000393406613777
0.000388555997042
0.000388124840683
0.000402889980729
0.00043851292692
0.000489213676768
0.000473922389421
0.000438404096814
0.00041467713814
0.000396931494836
0.000390878434526
0.000388512430116
0.000385891691579
0.00038160678716
0.000376570400362
0.000372872885355
0.00037288491932
0.00037659855992
0.000381641920929
0.000385928618799
0.000388551105509
0.000390916841257
0.000396976422764
0.00041475713275
0.000438536091292
0.000474069975926
0.000447173953623
0.00042630619032
0.000419422570763
0.000408513281304
0.000396969694834
0.000388095843086
0.000379046130433
0.000370151761776
0.000363637118056
0.000359988713521
0.00035999891965
0.000363657742932
0.000370169776405
0.000379053626885
0.000388101403039
0.000396965190363
0.000408526281644
0.000419465794777
0.000426376645547
0.000447224204252
0.000395881120122
0.000396655549742
0.000413917131283
0.000419468820531
0.000414763875948
0.000402877897683
0.000388352795119
0.000377980307515
0.000374513364487
0.000373755583236
0.000373761412668
0.000374518270828
0.000377969477555
0.000388305008201
0.000402819428534
0.000414714018497
0.000419443271345
0.00041391908317
0.000396671325647
0.000395866243261
0.000309463188295
0.000348102133191
0.000396681671141
0.000426382779726
0.000438530652936
0.000438456877698
0.000435411680256
0.000437587649421
0.000446326334664
0.000454655160192
0.000454651952441
0.000446300217894
0.00043752092665
0.000435305847324
0.000438337594799
0.000438425914093
0.000426307834277
0.000396633809202
0.000348068521189
0.000309409598612
0.000196283353882
0.000309435036141
0.000395899518321
0.00044725582086
0.000474065887503
0.000489100849809
0.000507498312807
0.000538518314391
0.000576839582846
0.000604444807043
0.000604443819677
0.000576805791573
0.000538417539209
0.000507330285912
0.000488906695917
0.000473886545851
0.000447111532491
0.000395791640214
0.000309355939636
0.00019622179327
0.000287390734096
0.000488652141859
0.000652812552625
0.000767755689008
0.000853995655916
0.000933526461827
0.00102261668572
0.00112072454526
0.00120895519636
0.00126246355498
0.00126240343851
0.00120878473477
0.00112043167101
0.0010222137251
0.000933113101068
0.000853663675097
0.000767590197526
0.000652760187034
0.000488662362203
0.000287358241532
0.000488791706098
0.000524740057829
0.000608929431103
0.000673154195471
0.000714427171567
0.000740891509721
0.000766697090554
0.000799785951759
0.000833545617469
0.000854908774098
0.000854833313166
0.000833319092212
0.000799428070258
0.000766261723316
0.000740494377488
0.000714164617602
0.000673048783063
0.000608924957109
0.0005247482645
0.000488711321895
0.000652953617943
0.000608980805134
0.000622961374401
0.000629515216196
0.000624270778697
0.000610559194646
0.000595232636242
0.000590692593386
0.00059155126638
0.000593792219557
0.000593725883138
0.000591364820496
0.000590406729192
0.000594862783666
0.000610229977055
0.000624051884684
0.000629426625624
0.000622973275902
0.000609020849821
0.000652927271119
0.000767919668838
0.000673212064833
0.000629523621461
0.000592222204026
0.00056185116014
0.000542715226303
0.000523956941987
0.000509140266709
0.000499073695896
0.000493969238769
0.00049392248613
0.000498948732285
0.000508956368607
0.000523739867744
0.000542519618698
0.000561692868987
0.000592144312698
0.000629541287426
0.000673299129933
0.000767972530535
0.000854198467965
0.000714500203661
0.000624282689993
0.000561851336638
0.000531348743744
0.000512889749248
0.00049870818933
0.000486267270596
0.000475821113685
0.000469440069936
0.000469414320319
0.000475752710965
0.000486167530845
0.00049859254854
0.000512783238286
0.000531262088062
0.000561786775923
0.000624293254091
0.000714624803445
0.000854368244207
0.00093390904815
0.000741050238748
0.000610612432681
0.00054273425982
0.00051289819293
0.000500431158232
0.000493458285184
0.000486182284985
0.000478169677301
0.000472424605873
0.000472416001005
0.000478143336986
0.000486140218721
0.000493405861751
0.000500379663052
0.000512853210416
0.000542698367559
0.000610604430646
0.000741198408951
0.000934191539684
0.0010231877695
0.000766995238859
0.000595373383208
0.000524018304666
0.000498739090944
0.000493475580421
0.000492940774625
0.000489913347906
0.000483849269951
0.000478685224895
0.000478687771921
0.000483848214252
0.000489904521223
0.000492924924491
0.000493457497871
0.000498718060071
0.000523994478631
0.000595361344657
0.000767203632583
0.00102368477268
0.00112137670411
0.00080018550387
0.000590912056033
0.000509249843025
0.000486329234282
0.000486226261316
0.000489941445286
0.000489261122264
0.000483934791094
0.000478815419005
0.000478823352748
0.000483946447091
0.000489269529037
0.000489946547481
0.0004862314953
0.000486333135952
0.000509261598481
0.000590985784093
0.000800549836735
0.00112224437657
0.00120952733454
0.000833945222858
0.000591802790109
0.000499213210172
0.0004759079484
0.000478240450326
0.000483909858962
0.000483970880227
0.000478360833966
0.000472771116746
0.000472782267072
0.000478380808754
0.000483992509924
0.000483932391852
0.00047826839251
0.000475943997412
0.000499277761878
0.000591981375679
0.000834523117843
0.00121083323394
0.00126285764564
0.000855229929101
0.000594008203226
0.000494094888765
0.000469523900892
0.000472501239174
0.000478760305197
0.000478873761379
0.000472798652269
0.000466738242437
0.000466753961074
0.000472830278755
0.000478911767926
0.00047880508561
0.000472559750489
0.000469605283563
0.000494231295938
0.000594307729408
0.000856007768426
0.00126453518955
0.00126259015206
0.000855016848454
0.000593841458279
0.00049397811567
0.000469446011263
0.000472450639318
0.000478730576972
0.000478860644811
0.000472802073647
0.000466756415626
0.000466777802615
0.000472847176416
0.000478916519086
0.000478798073938
0.000472542830275
0.000469577779178
0.000494190041983
0.00059424998062
0.000855935064004
0.00126445907265
0.00120876792175
0.000833348666421
0.000591355745138
0.000498909697814
0.000475709031268
0.000478112232609
0.000483833285101
0.000483936489704
0.000478368926961
0.000472815599167
0.000472839062191
0.000478419065481
0.000484000363249
0.000483911456848
0.000478221223073
0.000475867011877
0.00049916149542
0.000591816483613
0.000834310900333
0.00121062236266
0.0011202406098
0.000799296598998
0.000590266136528
0.00050881781499
0.000486048134172
0.000486045847104
0.000489832101612
0.000489210674384
0.000483943967996
0.000478872792949
0.000478894897493
0.000483992308546
0.000489275406334
0.000489914627936
0.000486160084107
0.000486211299259
0.000509073585284
0.000590717505583
0.000800206340561
0.00112189145942
0.00102186747876
0.000765967544834
0.00059459219225
0.000523500668404
0.000498398863056
0.000493254483368
0.000492803088237
0.000489844547393
0.00048384937791
0.000478740279972
0.000478759533335
0.00048389286677
0.000489907219682
0.000492885534101
0.000493365485781
0.00049855333499
0.000523735258919
0.000594981522317
0.000766747204684
0.00102319266019
0.00093264335531
0.000740055375087
0.000609824253986
0.000542175973842
0.000512507976719
0.000500163717147
0.000493281214303
0.000486081320479
0.000478143133192
0.000472462308002
0.000472480137894
0.000478184273517
0.000486139328313
0.000493355460107
0.000500261594257
0.000512645537919
0.000542380733085
0.000610158476544
0.000740671331306
0.000933595145785
0.000853117826462
0.000713620660361
0.00062353378507
0.000561247730469
0.000530892805413
0.000512550505718
0.000498463350297
0.000486114198486
0.000475759582494
0.000469458910592
0.000469473793621
0.000475793370781
0.000486158264162
0.000498516692648
0.000512624539854
0.000531001412386
0.000561407733724
0.000623813866374
0.000714078435184
0.000853724802264
0.000767031993856
0.000672462757326
0.000628832499329
0.000591596171295
0.000561307975869
0.000542274800119
0.000523613046801
0.000508916210753
0.00049897007957
0.000493969032199
0.000493979148314
0.000498990125338
0.000508934959139
0.000523628868549
0.000542307070096
0.000561367915775
0.000591723504483
0.000629053762565
0.000672773127375
0.000767362818266
0.000652259468283
0.000608355991455
0.000622341003127
0.000628897748176
0.000623668579614
0.000609998783776
0.000594762342919
0.000590394305361
0.000591409861358
0.000593778904024
0.000593783035673
0.000591410414159
0.000590376188527
0.00059471403631
0.000609965553903
0.000623685141037
0.000628982879363
0.00062248921996
0.000608531833152
0.000652387700535
0.000488298165291
0.000524229755686
0.000608373278716
0.00067256429227
0.000713819170926
0.000740315006778
0.000766232997048
0.000799511957191
0.000833465627409
0.000854981237511
0.000854981354442
0.000833450806815
0.000799464876358
0.000766152480536
0.000740235453529
0.000713780259414
0.000672578648856
0.000608424999228
0.00052428641377
0.000488299234314
0.000287127235362
0.000488163391657
0.000652208059099
0.000767101930398
0.000853333153139
0.000932964680463
0.00102225677588
0.00112066236665
0.00120917981068
0.00126289985082
0.00126292324462
0.00120921400727
0.00112064941702
0.00102216326098
0.000932819684152
0.000853194034102
0.000766996078324
0.000652140132935
0.000488116220324
0.000287077612841
0.000397312670765
0.000734744932899
0.00102974785161
0.0012670405895
0.00146842942648
0.00165501922825
0.00183606466933
0.00200521144568
0.00214161715762
0.00222023003092
0.00222026704963
0.00214167698166
0.00200524929431
0.00183605124633
0.00165499130713
0.00146846332113
0.00126721853602
0.0010299402784
0.00073493782885
0.000397307946835
0.000735097885034
0.000768194947143
0.000911739746375
0.00104094396782
0.0011419644642
0.00121962333499
0.00128589022181
0.00134620137475
0.00139434955959
0.00142140511549
0.00142135906002
0.00139419987566