/*--------------------------------*- C++ -*----------------------------------*\
| =========                 |                                                 |
| \\      /  F ield         | OpenFOAM: The Open Source CFD Toolbox           |
|  \\    /   O peration     | Version:  3.0.1                                 |
|   \\  /    A nd           | Web:      www.OpenFOAM.org                      |
|    \\/     M anipulation  |                                                 |
\*---------------------------------------------------------------------------*/
FoamFile
{
    version     2.0;
    format      ascii;
    class       volScalarField;
    location    "8.7";
    object      p;
}
// * * * * * * * * * * * * * * * * * * * * * * * * * * * * * * * * * * * * * //

dimensions      [1 -1 -2 0 0 0 0];

internalField   nonuniform List<scalar> 
7968
(
5117.28252758
5117.19498916
5116.97292883
5116.72927695
5116.51028983
5116.35585297
5116.26669823
5116.23043531
5116.22178593
5116.22108906
5116.22093291
5116.22131946
5116.22962722
5116.26549062
5116.3542408
5116.50841553
5116.72729076
5116.97087301
5117.19299517
5117.28059057
5117.1948832
5117.15442041
5116.95718895
5116.70940832
5116.4763054
5116.30433394
5116.19826336
5116.15260513
5116.13871941
5116.13580612
5116.13567176
5116.13833081
5116.15190706
5116.19717331
5116.3028489
5116.47456164
5116.70756622
5116.95529611
5117.15262102
5117.19316348
5116.9728065
5116.95714602
5116.76920452
5116.5194425
5116.28208541
5116.10005861
5115.98297704
5115.92898022
5115.90817408
5115.90383885
5115.9037091
5115.90788922
5115.92845454
5115.98211346
5116.09883415
5116.28060415
5116.51786538
5116.76758654
5116.95563049
5116.97136898
5116.72931572
5116.70945071
5116.51949457
5116.27044238
5116.04084238
5115.87074752
5115.76949353
5115.73413593
5115.73281595
5115.73804261
5115.73802287
5115.73274226
5115.73390817
5115.76896641
5115.86989195
5116.03973814
5116.26923024
5116.51822317
5116.70827136
5116.72816609
5116.5105297
5116.47650303
5116.28224112
5116.04092224
5115.83460108
5115.69600831
5115.6284797
5115.62444379
5115.64801671
5115.66711736
5115.66716051
5115.64810448
5115.62446362
5115.62827853
5115.69551188
5115.83386081
5116.04005493
5116.28129129
5116.47562987
5116.50965566
5116.35635535
5116.30476745
5116.10037468
5115.87093954
5115.69609521
5115.59778911
5115.57120639
5115.60318577
5115.6522513
5115.68589511
5115.6859813
5115.65245376
5115.60337848
5115.57124247
5115.59756952
5115.69566319
5115.87037033
5116.09970844
5116.30415963
5116.35573621
5116.26748932
5116.19895061
5115.98345331
5115.76977939
5115.62862251
5115.57124845
5115.58547097
5115.65214395
5115.72983801
5115.77873482
5115.77884752
5115.73012017
5115.65243853
5115.58565269
5115.57121209
5115.62840941
5115.76944809
5115.98302118
5116.19857752
5116.26710367
5116.23138398
5116.15341208
5115.92951175
5115.73442126
5115.62454143
5115.6031552
5115.65205942
5115.75330075
5115.85845667
5115.91932124
5115.91943133
5115.85875303
5115.75363884
5115.65226195
5115.60317514
5115.6244277
5115.73422111
5115.92923886
5116.15323659
5116.23120623
5116.22275097
5116.1395091
5115.90866671
5115.7330071
5115.64797543
5115.65202926
5115.72950055
5115.85819088
5115.98002332
5116.04709874
5116.04717688
5115.98023654
5115.85844268
5115.7296294
5115.65197756
5115.64781975
5115.73280615
5115.90845035
5116.13944759
5116.22271555
5116.22194884
5116.13652503
5115.90440833
5115.73813159
5115.6669181
5115.68546773
5115.77816357
5115.91880496
5116.04681316
5116.11652708
5116.11656213
5116.04689899
5115.9188683
5115.77809195
5115.68523256
5115.66661018
5115.73782546
5115.90414468
5116.13648532
5116.22197925
5116.22152396
5116.13614519
5115.90403253
5115.73793713
5115.66681108
5115.68540702
5115.77811256
5115.91869635
5116.0465953
5116.11621813
5116.11621445
5116.04656634
5115.9185805
5115.77783153
5115.68496881
5115.66632726
5115.73750461
5115.90377194
5116.13608821
5116.22155347
5116.22147706
5116.13838719
5115.90772718
5115.73237988
5115.64755462
5115.6517152
5115.7292206
5115.85779171
5115.97933641
5116.04615918
5116.04612871
5115.97923294
5115.85756703
5115.72882055
5115.65116197
5115.64696408
5115.73185037
5115.90735777
5116.13827737
5116.22146618
5116.22926274
5116.15148539
5115.92786654
5115.7331986
5115.6236133
5115.60237105
5115.65128683
5115.75239187
5115.85719002
5115.91770391
5115.9176611
5115.8570541
5115.7521201
5115.65084143
5115.60177799
5115.62298264
5115.73263542
5115.92745448
5116.15132969
5116.22918342
5116.26456064
5116.19620685
5115.98103367
5115.76780595
5115.62700027
5115.56982238
5115.58408476
5115.65056206
5115.72787641
5115.77639165
5115.77633903
5115.72770948
5115.65024583
5115.58362078
5115.56921709
5115.62634733
5115.76720838
5115.98056182
5116.19595806
5116.26436561
5116.35271296
5116.30128358
5116.09719895
5115.8681973
5115.69371182
5115.59562948
5115.56911726
5115.60093762
5115.6496426
5115.68292514
5115.68285871
5115.64943619
5115.60058161
5115.56861211
5115.59497632
5115.69299199
5115.86750075
5116.09658623
5116.30084042
5116.35231309
5116.5062395
5116.47236415
5116.27839184
5116.03748542
5115.83151412
5115.69318133
5115.62577471
5115.62164924
5115.64494793
5115.66377186
5115.66369081
5115.64470768
5115.62124742
5115.62519434
5115.69243255
5115.83066569
5116.03662682
5116.27756396
5116.47164257
5116.50555223
5116.72450748
5116.70474979
5116.51509719
5116.26644241
5116.03718352
5115.86736064
5115.76627244
5115.73091051
5115.72944027
5115.73453525
5115.73443745
5115.72915286
5115.73044212
5115.7655842
5115.86646366
5116.03614502
5116.26534615
5116.51397516
5116.70368472
5116.72347524
5116.96757186
5116.95199208
5116.7643759
5116.51499757
5116.27797558
5116.09623013
5115.97934984
5115.92543137
5115.90462743
5115.90053376
5115.90041598
5115.90428004
5115.92486684
5115.97853976
5116.09516132
5116.27671483
5116.51363603
5116.76293758
5116.95057403
5116.96617744
5117.18926803
5117.14896002
5116.9521191
5116.70475067
5116.47200952
5116.30033879
5116.19450705
5116.14899119
5116.13515364
5116.13228708
5116.1321461
5116.13474213
5116.14832466
5116.19355296
5116.29907736
5116.4705218
5116.70313734
5116.95039953
5117.14724144
5117.18756372
5117.276702
5117.18937837
5116.96775469
5116.72449842
5116.50586061
5116.35173028
5116.2628181
5116.22672126
5116.21815272
5116.21748342
5116.21732287
5116.21768457
5116.22597596
5116.26178528
5116.35038954
5116.50430224
5116.72280429
5116.9659362
5117.18753461
5117.27484076
4627.49830172
4627.39094746
4627.17375296
4626.956389
4626.78313492
4626.65903132
4626.59421775
4626.57504167
4626.57774374
4626.58052591
4626.5803655
4626.57726242
4626.5741986
4626.59295224
4626.6573719
4626.78122798
4626.95436238
4627.1716862
4627.38894298
4627.49634716
4627.3908853
4627.31506275
4627.11574674
4626.88889233
4626.70042526
4626.55922535
4626.48010324
4626.4542467
4626.45032692
4626.45001595
4626.44989765
4626.44995235
4626.45354837
4626.47900872
4626.55777007
4626.69873699
4626.88707442
4627.11390143
4627.31327665
4627.38912483
4627.17369211
4627.11574194
4626.89866867
4626.65456527
4626.45424272
4626.30302829
4626.2124595
4626.17349536
4626.16884667
4626.16664496
4626.16662248
4626.16866782
4626.17302475
4626.21169406
4626.30192209
4626.45292691
4626.65310528
4626.89715564
4627.114281
4627.1722403
4626.95651742
4626.88896996
4626.65463682
4626.40201113
4626.21022828
4626.07786396
4626.0147292
4626.00168082
4626.01154377
4626.02029464
4626.02030441
4626.01153435
4626.00154985
4626.01435463
4626.07708907
4626.20932679
4626.40095065
4626.65349323
4626.88786673
4626.95533962
4626.78348326
4626.70069049
4626.45443294
4626.2103239
4626.04553032
4625.95557341
4625.93301413
4625.95991679
4625.99718949
4626.02037507
4626.0204339
4625.99733503
4625.96004888
4625.93296947
4625.95524942
4626.04502353
4626.20962191
4626.45362877
4626.69989644
4626.78260506
4626.65966851
4626.55974096
4626.30335885
4626.07805351
4625.95565024
4625.91201455
4625.9360094
4626.00505627
4626.07398081
4626.1108712
4626.11096014
4626.07422492
4626.00538198
4625.93620156
4625.91196749
4625.95541278
4626.07756588
4626.30282698
4626.55920919
4626.65905567
4626.59510378
4626.48086203
4626.21292672
4626.01500571
4625.93313941
4625.93603519
4626.00699031
4626.11458728
4626.20421731
4626.25120122
4626.25130016
4626.20449764
4626.11501682
4626.00732632
4625.9361619
4625.93309505
4626.01478028
4626.21261466
4626.48055618
4626.59475248
4626.5760472
4626.45507049
4626.17400806
4626.00194002
4625.95998658
4626.00500041
4626.11449493
4626.24199226
4626.34392904
4626.3990557
4626.39915146
4626.34418487
4626.24234612
4626.11484
4626.00516102
4625.95999447
4626.00181294
4626.17381147
4626.45497247
4626.57593134
4626.57872396
4626.4510865
4626.16923016
4626.01170503
4625.99716409
4626.07383627
4626.20405474
4626.3438112
4626.45661698
4626.51845229
4626.51852879
4626.45681361
4626.34404203
4626.20421454
4626.07384737
4625.9970703
4626.01153991
4626.1691005
4626.45109576
4626.57875051
4626.58139499
4626.45062484
4626.16677521
4626.02033432
4626.02025135
4626.11062839
4626.25091054
4626.39876852
4626.51825634
4626.58357109
4626.58361232
4626.51835399
4626.39884848
4626.250872
4626.11042745
4626.01996483
4626.02002238
4626.16656413
4626.45062578
4626.58143999
4626.58102931
4626.4503234
4626.16663507
4626.02021913
4626.02018932
4626.11057855
4626.25083186
4626.39863832
4626.51805624
4626.58330073
4626.58330242
4626.51804222
4626.39855371
4626.2505963
4626.11016684
4626.01970183
4626.01973038
4626.1662296
4626.4502461
4626.58102052
4626.57756099
4626.45008978
4626.16854557
4626.01125517
4625.99690045
4626.07363678
4626.20378633
4626.34337322
4626.4559737
4626.51761662
4626.51758469
4626.4558668
4626.34315489
4626.20340629
4626.07308175
4625.9962838
4626.01066593
4626.16809478
4626.44996708
4626.57750802
4626.57399341
4626.45325868
4626.17256571
4626.00096138
4625.95933072
4626.0045111
4626.11398775
4626.241166
4626.34276632
4626.39761688
4626.39756036
4626.34259458
4626.24088174
4626.11356934
4626.00393361
4625.95868904
4626.00035714
4626.17212807
4626.45311865
4626.57390994
4626.59215853
4626.47818591
4626.21075062
4626.01332864
4625.93184104
4625.93492251
4626.00588083
4626.11322702
4626.20245367
4626.24911082
4626.24903703
4626.20224981
4626.11295407
4626.00547439
4625.93437492
4625.93123872
4626.0127322
4626.21029552
4626.47800063
4626.59201112
4626.65595544
4626.55632809
4626.30041136
4626.07551832
4625.95358778
4625.91015581
4625.93417362
4626.00300218
4626.07157059
4626.10813538
4626.10805297
4626.07134612
4626.00270334
4625.93375085
4625.90959468
4625.95296206
4626.07484732
4626.2998719
4626.55598279
4626.65565291
4626.77917975
4626.6966529
4626.4508214
4626.20718908
4626.04278853
4625.9530299
4625.93053305
4625.95729125
4625.99425645
4626.01714263
4626.01705706
4625.9940123
4625.95692361
4625.93004943
4625.95238747
4626.04207888
4626.20644276
4626.45012415
4626.69606534
4626.77862828
4626.95175772
4626.88441072
4626.65046051
4626.3982705
4626.2068304
4626.07462093
4626.01166335
4625.99855467
4626.00820545
4626.01671115
4626.0166184
4626.00794054
4625.99813583
4626.01108254
4626.07380197
4626.20596543
4626.39735714
4626.6495386
4626.88353447
4626.95090823
4627.16863973
4627.1107826
4626.89407162
4626.65033896
4626.4503362
4626.29936399
4626.20896832
4626.17002537
4626.16526729
4626.16271462
4626.16260307
4626.16494974
4626.16949832
4626.20824337
4626.29842368
4626.44926435
4626.64917336
4626.89285816
4627.10958538
4627.16744271
4627.38554884
4627.3098501
4627.11091043
4626.88440626
4626.69624784
4626.55532048
4626.47641895
4626.45067481
4626.44674816
4626.44635506
4626.44621425
4626.44634153
4626.45002416
4626.47549822
4626.55414923
4626.69489957
4626.88293958
4627.10939115
4627.30834924
4627.3840394
4627.49286523
4627.38559832
4627.16878126
4626.95170237
4626.77874356
4626.65491913
4626.59034748
4626.57133493
4626.57408169
4626.57684416
4626.57667526
4626.57360418
4626.57060398
4626.58936455
4626.65367243
4626.77730295
4626.95015131
4627.16713888
4627.38394268
4627.49116678
4137.55599583
4137.45187961
4137.24704893
4137.06957591
4136.93706565
4136.85341414
4136.81261783
4136.79386298
4136.77538398
4136.75875331
4136.75859527
4136.77497819
4136.79313999
4136.81148343
4136.85186727
4136.93522458
4137.06761645
4137.24508931
4137.44996414
4137.55414289
4137.45177372
4137.40481927
4137.22924523
4137.05914782
4136.9149328
4136.81116413
4136.75194919
4136.72103692
4136.68821986
4136.66274392
4136.66263174
4136.68788739
4136.72040498
4136.75090759
4136.80975587
4136.91329267
4137.05742338
4137.22754897
4137.40314099
4137.45014601
4137.24704484
4137.22932373
4136.97652488
4136.74938024
4136.56344824
4136.42025608
4136.3166312
4136.24402621
4136.19387473
4136.16700675
4136.16696303
4136.19370357
4136.24372018
4136.31602359
4136.41934865
4136.56229955
4136.74809653
4136.97518342
4137.22797829
4137.24570768
4137.06974356
4137.05923139
4136.74946503
4136.49291126
4136.30285506
4136.17550113
4136.09612954
4136.05996033
4136.04844585
4136.04592008
4136.04593072
4136.04844031
4136.05985822
4136.09583035
4136.17504653
4136.30210261
4136.49200431
4136.74847206
4137.05830621
4137.0687109
4136.93744196
4136.91519005
4136.56360288
4136.30292952
4136.13495538
4136.04279733
4135.83458764
4135.52848997
4135.41685742
4135.4371028
4135.43706996
4135.41672241
4135.52935493
4135.83575996
4136.04255348
4136.13450944
4136.30236823
4136.56295914
4136.91457724
4136.93675977
4136.85400669
4136.81166308
4136.42046826
4136.17564006
4136.04287613
4135.49164757
4133.99880654
4132.54143084
4132.09408474
4132.13255396
4132.13212097
4132.09274762
4132.5433242
4134.00482155
4135.49486963
4136.04267979
4136.17540969
4136.42014535
4136.81133722
4136.85366658
4136.81330892
4136.75258641
4136.31682095
4136.09630155
4135.83476655
4133.99796177
4130.323619
4127.45994839
4126.66752608
4126.72007564
4126.71906614
4126.66445784
4127.46198515
4130.33498501
4134.00845267
4135.83577155
4136.09615752
4136.31672419
4136.75254311
4136.81327374
4136.79445182
4136.72153115
4136.24415959
4136.06012425
4135.52816983
4132.53870572
4127.45759915
4123.85376401
4122.88311849
4122.94582184
4122.9444498
4122.87896402
4123.85556001
4127.47126919
4132.55436057
4135.53121391
4136.05998492
4136.24414219
4136.72175099
4136.79466534
4136.77589198
4136.68848174
4136.1939512
4136.04857805
4135.41610229
4132.09044996
4126.66402868
4122.8818769
4121.87336156
4121.94294364
4121.94146991
4121.86890172
4122.88349913
4126.67807273
4132.10716195
4135.41991345
4136.0483002
4136.19379815
4136.68876425
4136.77614848
4136.75922069
4136.66286716
4136.16701634
4136.04600428
4135.43636666
4132.12921942
4126.71707758
4122.94508602
4121.94338474
4122.01641799
4122.01490632
4121.93881551
4122.94645358
4126.73069528
4132.14548273
4135.43989692
4136.04550233
4136.16663386
4136.66299952
4136.75934498
4136.75903075
4136.66274716
4136.16695421
4136.04595509
4135.43632875
4132.12906746
4126.71654664
4122.94417161
4121.9422626
4122.01521764
4122.01366463
4121.93757541
4122.94527209
4126.72973472
4132.14489205
4135.43958804
4136.04523324
4136.16633066
4136.66265166
4136.75895061
4136.77520239
4136.68792402
4136.19361186
4136.04832375
4135.41589216
4132.08989967
4126.66234996
4122.87906744
4121.86995014
4121.93931531
4121.9377265
4121.86516378
4122.87994201
4126.67518198
4132.10538778
4135.41898488
4136.04748968
4136.19288796
4136.68773213
4136.77500858
4136.79303162
4136.72019837
4136.24336386
4136.05946408
4135.5281832
4132.53981422
4127.45868464
4123.8540841
4122.88283399
4122.94530603
4122.94385736
4122.87848071
4123.85521676
4127.47107522
4132.55411172
4135.53044303
4136.05862823
4136.24264465
4136.72003919
4136.79281259
4136.81091011
4136.7502586
4136.31524167
4136.09500742
4135.83437998
4134.00082816
4130.32962032
4127.46674402
4126.67414504
4126.72653445
4126.72555806
4126.67121808
4127.46862461
4130.34023476
4134.01039568
4135.83476479
4136.09424233
4136.31459979
4136.75014075
4136.81073784
4136.85069327
4136.80849052
4136.4180041
4136.17367914
4136.04107195
4135.4920154
4134.00348541
4132.54877793
4132.10174526
4132.14005169
4132.13965886
4132.10057579
4132.55065904
4134.00904195
4135.49464022
4136.04036096
4136.17300524
4136.41743372
4136.80828303
4136.8504758
4136.93338465
4136.91135282
4136.56033311
4136.30012107
4136.13242944
4136.04043207
4135.83291119
4135.52776819
4135.41630614
4135.43628204
4135.43615962
4135.4159496
4135.52823659
4135.83355916
4136.03979016
4136.13169542
4136.29940251
4136.55972092
4136.91095126
4136.93301286
4137.06517806
4137.05487314
4136.74555538
4136.48942729
4136.29969536
4136.1726068
4136.09320257
4136.05689965
4136.04513788
4136.04235877
4136.0422695
4136.04488072
4136.0564981
4136.09266019
4136.17198243
4136.29892459
4136.48863453
4136.74481711
4137.05422984
4137.06456255
4137.24219942
4137.2245578
4136.97216487
4136.7453624
4136.55973534
4136.41679201
4136.31329176
4136.24069809
4136.19039883
4136.16331496
4136.16321338
4136.19011406
4136.24027361
4136.31271013
4136.41604738
4136.55885949
4136.74442104
4136.97120059
4137.22365124
4137.2412846
4137.44675198
4137.39988216
4137.22465843
4137.05487504
4136.9109201
4136.80741683
4136.74843432
4136.71764819
4136.68481033
4136.65923896
4136.65911436
4136.68446164
4136.71708558
4136.74761049
4136.80635675
4136.90969035
4137.05355057
4137.22335657
4137.39864594
4137.44551896
4137.55092921
4137.44683313
4137.24226146
4137.06503453
4136.93283703
4136.84953274
4136.8090262
4136.79043732
4136.77197922
4136.75529311
4136.75512594
4136.77153641
4136.78977264
4136.80815495
4136.84845307
4136.93158371
4137.06368545
4137.24085981
4137.44543028
4137.54949866
3647.54336921
3647.43485017
3647.25595926
3647.07516294
3646.92071337
3646.79250762
3646.68564884
3646.592419
3646.50791285
3646.45637936
3646.45623488
3646.50748176
3646.59169563
3646.68461315
3646.79111044
3646.91897804
3647.07330824
3647.2541427
3647.43305768
3647.54168233
3647.43465558
3647.40342408
3647.25343916
3647.08592233
3646.91715241
3646.74014489
3646.55108237
3646.35982432
3646.20110486
3646.10539476
3646.10526068
3646.20076585
3646.35927786
3646.55030279
3646.73908751
3646.91584374
3647.0844814
3647.25198137
3647.40193946
3647.43324981
3647.25589896
3647.25351055
3646.98010905
3646.71711688
3646.47799433
3646.26518837
3646.07997079
3645.91931731
3645.80065705
3645.73684487
3645.73678336
3645.80044362
3645.91892837
3646.07941707
3646.26436507
3646.47694814
3646.71595774
3646.97893137
3647.25232648
3647.2547628
3647.07510612
3647.08591681
3646.71708311
3646.41970526
3646.18442409
3645.6861811
3644.54737107
3643.45004008
3643.07698148
3643.0527144
3643.05233302
3643.07580145
3643.45075827
3644.55112448
3645.68772865
3646.18366226
3646.41886076
3646.71625572
3647.08518307
3647.07437951
3646.9207419
3646.91703048
3646.47792175
3646.18442082
3645.25198458
3642.20499706
3637.36516522
3633.6162206
3632.4789858
3632.48671443
3632.4850983
3632.47409619
3633.61539499
3637.3748808
3642.21715911
3645.25602819
3646.1838203
3646.47742008
3646.91679364
3646.92039873
3646.7927057
3646.73984644
3646.265088
3645.68629311
3642.20399494
3633.61595889
3622.85772996
3615.48753215
3613.38434603
3613.41563258
3613.41204239
3613.37353276
3615.47946149
3622.8647734
3633.63726542
3642.22154947
3645.68774727
3646.26481641
3646.7400627
3646.79266685
3646.68579725
3646.55054212
3646.07982774
3644.54675138
3637.36130814
3622.85553335
3606.48095677
3595.88797112
3592.97787001
3593.02711545
3593.02143499
3592.9607792
3595.87046551
3606.47827118
3622.87398748
3637.39102566
3644.5542748
3646.07962615
3646.55104162
3646.68601976
3646.59239081
3646.35912218
3645.91916172
3643.44756238
3633.60958798
3615.48337657
3595.88639539
3583.60208478
3580.27619892
3580.33910707
3580.33215212
3580.25528208
3583.57861141
3595.87697968
3615.49673231
3633.64289891
3643.46117111
3645.91879042
3646.35959863
3646.59275844
3646.50783959
3646.20043888
3645.80056622
3643.07383178
3632.47172291
3613.38012712
3592.97684057
3580.27703153
3576.85796799
3576.93111523
3576.92382133
3576.83602515
3580.25186961
3592.96534023
3613.39161613
3632.50492354
3643.08907916
3645.79987674
3646.20059207
3646.5080847
3646.45641988
3646.10483961
3645.73684061
3643.04992889
3632.48053487
3613.41319806
3593.02853805
3580.34270669
3576.93390955
3577.01256911
3577.00524471
3576.91187727
3580.31730358
3593.0165467
3613.42397619
3632.51293622
3643.06465902
3645.7357896
3646.10454863
3646.45633897
3646.4563635
3646.1049178
3645.73684313
3643.04986275
3632.47994004
3613.41133078
3593.02524247
3580.33843243
3576.92927822
3577.00786285
3577.0004931
3576.90711481
3580.31273729
3593.01273953
3613.42142868
3632.51158878
3643.06413105
3645.7354999
3646.1042076
3646.45597006
3646.5075589
3646.20046868
3645.80045574
3643.07352749
3632.46983101
3613.37442754
3592.96686964
3580.26413635
3576.84401712
3576.91696121
3576.90954125
3576.82171443
3580.23815385
3592.95391085
3613.38397165
3632.50087904
3643.08748959
3645.79899896
3646.19960024
3646.50698768
3646.5915423
3646.35880384
3645.91870381
3643.4481752
3633.61019651
3615.47929198
3595.87595953
3583.5872095
3580.25976633
3580.32247217
3580.31543743
3580.23864257
3583.56301477
3595.86498859
3615.4904432
3633.64096438
3643.4603322
3645.917331
3646.35800204
3646.59099333
3646.68404348
3646.54944278
3646.07876235
3644.54836946
3637.36751767
3622.85996256
3606.47884055
3595.88090513
3592.96910327
3593.01825793
3593.01266815
3592.9523251
3595.86338402
3606.47531084
3622.87693152
3637.39543809
3644.55501609
3646.07762159
3646.5488687
3646.68363251
3646.78999308
3646.73768806
3646.26313842
3645.68580314
3642.21051816
3633.62819251
3622.86769966
3615.4935629
3613.38895166
3613.42027269
3613.41693655
3613.37894461
3615.48616426
3622.87463751
3633.6487806
3642.22717606
3645.68670959
3646.26223436
3646.73730322
3646.78964347
3646.9171613
3646.91380472
3646.47507051
3646.18186537
3645.25253918
3642.2139374
3637.38114906
3633.63372859
3632.49635078
3632.50423189
3632.50296923
3632.49256668
3633.63406585
3637.39127498
3642.22581696
3645.25615852
3646.18092997
3646.47431616
3646.91347103
3646.91678311
3647.07082761
3647.0818441
3646.71345185
3646.41643756
3646.18140818
3645.68459104
3644.54948727
3643.45546318
3643.08329236
3643.05897255
3643.05868953
3643.08244831
3643.4564112
3644.55296016
3645.68582726
3646.18054622
3646.41559134
3646.71273127
3647.08140117
3647.07031657
3647.25114039
3647.24889844
3646.97590164
3646.71327098
3646.4744583
3646.26188329
3646.07676518
3645.91601541
3645.79720481
3645.73325025
3645.73314357
3645.79689264
3645.91554316
3646.07618704
3646.26117823
3646.47365821
3646.71243489
3646.97509253
3647.24822764
3647.25041179
3647.42970344
3647.39864415
3647.24898731
3647.08181416
3646.91340087
3646.73672883
3646.5478714
3646.35665495
3646.1978618
3646.10206294
3646.10195464
3646.19756914
3646.3562604
3646.54739693
3646.73611029
3646.91259955
3647.08085648
3647.24794852
3647.39764763
3647.42871128
3647.5382543
3647.42991141
3647.25126091
3647.07080681
3646.91674425
3646.78897389
3646.68240368
3646.58929644
3646.50478921
3646.45320944
3646.4530702
3646.50440406
3646.58873322
3646.68166985
3646.7880691
3646.91566897
3647.06961749
3647.25003304
3647.42870476
3647.53706047
3157.58736035
3157.45633315
3157.26766443
3157.0126416
3156.75388686
3156.48402196
3156.22349484
3155.98192152
3155.78653905
3155.67445807
3155.67426968
3155.78595753
3155.98100966
3156.22229304
3156.48252425
3156.75210992
3157.01067408
3157.26584718
3157.45452224
3157.58566062
3157.45613261
3157.40003807
3157.20659203
3156.91324481
3156.56521493
3156.1727942
3155.75293034
3155.35358978
3155.03281776
3154.85465801
3154.85446304
3155.03222619
3155.3527749
3155.75192112
3156.17158998
3156.56381795
3156.91174938
3157.20512485
3157.39858805
3157.45471787
3157.26758221
3157.2064584
3156.89267008
3156.52471553
3156.1566764
3155.48005144
3154.1400821
3152.84951033
3152.33597185
3152.23866276
3152.23820118
3152.33454556
3152.84986975
3154.1434457
3155.48113612
3156.15545099
3156.52340415
3156.89142706
3157.2053581
3157.26639149
3157.01225848
3156.91277547
3156.52454091
3156.12779817
3154.4632947
3149.85674901
3143.19299453
3138.16878828
3136.63653039
3136.59163973
3136.58939505
3136.62974404
3138.16461782
3143.19823822
3149.86768905
3154.47032632
3156.12680857
3156.52356144
3156.91218499
3157.01161307
3156.75353679
3156.56444534
3156.15639111
3154.46332387
3147.09582502
3132.37854202
3115.76945845
3105.00783998
3101.99020667
3101.98771735
3101.98186715
3101.97260013
3104.98820874
3115.76179579
3132.38923881
3147.1163013
3154.47020039
3156.15557883
3156.56429116
3156.75321878
3156.48364763
3156.17174004
3155.47983789
3149.85426475
3132.37703366
3105.06944715
3078.35748992
3062.3074757
3057.98084011
3058.01088833
3058.00043746
3057.94942459
3062.2661012
3078.3245934
3105.05903717
3132.39560431
3149.87753242
3155.4807784
3156.17185733
3156.48360455
3156.22299238
3155.7517058
3154.13920325
3143.18773109
3115.76738088
3078.35773435
3044.35941116
3024.57432948
3019.33836634
3019.39321416
3019.37872123
3019.2947991
3024.51317625
3044.30203354
3078.32400653
3115.7708454
3143.21949856
3154.14570174
3155.75176358
3156.2231155
3155.9813373
3155.35240341
3152.84703004
3138.16197423
3105.00562499
3062.30904077
3024.57659067
3002.91226399
2997.23398531
2997.307389
2997.29062676
2997.18357861
3002.83969859
3024.50451065
3062.2605622
3104.99816543
3138.19265979
3152.85892934
3155.35202617
3155.98138509
3155.78607197
3155.03188803
3152.33305314
3136.62975483
3101.98933628
3057.98544367
3019.34506283
2997.23904086
2991.47597937
2991.56602578
2991.54871903
2991.42386478
2997.16352781
3019.26890913
3057.93253001
3101.97823016
3136.65887407
3152.34618862
3155.03085204
3155.78577806
3155.67425189
3154.85412201
3152.23626014
3136.58635181
3101.98971387
3058.02004366
3019.40585337
2997.31910364
2991.57284462
2991.67137087
2991.65407337
2991.52064966
2997.24346996
3019.32931638
3057.96631938
3101.9776304
3136.61444291
3152.24870505
3154.85240413
3155.67347898
3155.67427687
3154.85418483
3152.23616238
3136.5854743
3101.98659822
3058.01401476
3019.39719168
2997.30889075
2991.56216355
2991.66063036
2991.6432743
2991.50980344
2997.23294361
3019.32015443
3057.95960314
3101.97371024
3136.61272072
3152.24814247
3154.8520288
3155.67309118
3155.78602323
3155.03199719
3152.33270486
3136.62703262
3101.9798996
3057.96727154
3019.31899612
2997.20829375
2991.44380492
2991.53365505
2991.51619061
2991.3912512
2997.13191237
3019.24141514
3057.91238429
3101.96646831
3136.65369589
3152.34448572
3155.02973847
3155.78461674
3155.98090918
3155.35236489
3152.84764066
3138.16103483
3104.99508163
3062.28486688
3024.53976304
3002.86774754
2997.18712651
2997.26038228
2997.24349884
2997.13640102
3002.79434072
3024.4660817
3062.23411474
3104.9849004
3138.18872477
3152.85793103
3155.35031801
3155.97953931
3156.22179934
3155.75114102
3154.14090147
3143.19189601
3115.76347919
3078.33812551
3044.32429551
3024.52943567
3019.29048352
3019.34526478
3019.33082448
3019.24710989
3024.46808857
3044.26592535
3078.30279721
3115.76491901
3143.22120358
3154.14628987
3155.74952664
3156.22065897
3156.48144544
3156.17024785
3155.4793673
3149.86065553
3132.38349235
3105.06277563
3078.33605796
3062.27623484
3057.94656201
3057.976556
3057.96630924
3057.9158099
3062.23532325
3078.30285962
3105.05150786
3132.40079268
3149.88251848
3155.47954029
3156.16911595
3156.48057356
3156.75030381
3156.56180804
3156.15376294
3154.46582655
3147.10715826
3132.38868097
3115.76993468
3105.00092995
3101.98093521
3101.97852964
3101.97303306
3101.96443903
3104.98239644
3115.76265742
3132.39924117
3147.1270996
3154.47240854
3156.15247529
3156.5610379
3156.74963816
3157.0081403
3156.90906718
3156.52103134
3156.12461665
3154.4653621
3149.86873795
3143.20985732
3138.18461173
3136.65154659
3136.60690214
3136.60510716
3136.64615802
3138.18203479
3143.21619566
3149.88003363
3154.47209076
3156.12358245
3156.52004554
3156.90846573
3157.00752855
3157.26279398
3157.2019367
3156.88848171
3156.52084157
3156.1530688
3155.47784365
3154.14151323
3152.85405033
3152.34137942
3152.24409057
3152.24377164
3152.34042252
3152.85480526
3154.14478414
3155.47893298
3156.15214206
3156.51991769
3156.88763369
3157.20128395
3157.26206443
3157.45103471
3157.39518371
3157.20212482
3156.90914339
3156.56147354
3156.16933204
3155.74957995
3155.35020075
3155.02931942
3154.85112284
3154.85099659
3155.02893388
3155.34973191
3155.74909586
3156.16881771
3156.56085336
3156.90839194
3157.20123778
3157.39429186
3157.4501186
3157.58209585
3157.45129003
3157.26294791
3157.00822081
3156.7499284
3156.48048388
3156.22025215
3155.97881961
3155.78348791
3155.67143804
3155.67130995
3155.78311155
3155.97828553
3156.21960071
3156.47970432
3156.74901323
3157.00718546
3157.26180037
3157.45015132
3157.58098916
2667.85238237
2667.65995865
2667.38598151
2666.95608803
2666.49429963
2666.01498377
2665.56370815
2665.17849467
2664.89751388
2664.74847153
2664.7481622
2664.89653364
2665.17699741
2665.56179559
2666.01276648
2666.49187036
2666.95360046
2667.38356806
2667.65775553
2667.85032571
2667.6596745
2667.4996499
2667.16062963
2666.61000908
2665.9710022
2665.27933021
2664.42342014
2663.5130696
2662.93886717
2662.71289426
2662.71263478
2662.9371984
2663.51226445
2664.42272979
2665.27725803
2665.96884051
2666.60782647
2667.15856239
2667.49786665
2667.6579728
2667.38548142
2667.16011152
2666.75536771
2666.19327752
2664.88727131
2661.42602811
2656.17227627
2652.06687182
2650.68991735
2650.58104976
2650.57929236
2650.6845252
2652.06265479
2656.17335828
2661.43205807
2664.88987711
2666.19129695
2666.75360003
2667.15876722
2667.38411233
2666.95554736
2666.60907321
2666.19298785
2664.31076215
2656.73400751
2641.77913622
2624.9510616
2614.02067054
2610.89693086
2610.84344911
2610.83757778
2610.87921271
2613.99936413
2624.93869892
2641.78230594
2656.74513502
2664.31632786
2666.19127644
2666.60805163
2666.9544349
2666.4937522
2665.96981798
2664.88719135
2656.73266959
2634.34912015
2601.82965188
2571.29736776
2553.24097594
2548.37617804
2548.38084181
2548.36842545
2548.33880153
2553.18842879
2571.24807787
2601.80041975
2634.35045652
2656.75011671