/*--------------------------------*- C++ -*----------------------------------*\
| =========                 |                                                 |
| \\      /  F ield         | OpenFOAM: The Open Source CFD Toolbox           |
|  \\    /   O peration     | Version:  3.0.1                                 |
|   \\  /    A nd           | Web:      www.OpenFOAM.org                      |
|    \\/     M anipulation  |                                                 |
\*---------------------------------------------------------------------------*/
FoamFile
{
    version     2.0;
    format      ascii;
    class       volScalarField;
    location    "8.7";
    object      rAU;
}
// * * * * * * * * * * * * * * * * * * * * * * * * * * * * * * * * * * * * * //

dimensions      [-1 3 1 0 0 0 0];

internalField   nonuniform List<scalar> 
7968
(
1.05288499989e-05
1.05240904796e-05
1.05274513203e-05
1.05328789842e-05
1.05039793135e-05
1.04885484686e-05
1.05095438655e-05
1.05181652514e-05
1.05219513859e-05
1.05233304595e-05
1.05233328321e-05
1.05219607969e-05
1.05181888268e-05
1.05095868407e-05
1.04885938993e-05
1.05039927532e-05
1.05328739053e-05
1.05274526098e-05
1.05240917495e-05
1.05288488008e-05
1.05240966913e-05
1.05126061235e-05
1.05118893391e-05
1.0515804979e-05
1.04954822501e-05
1.04816340272e-05
1.04956233059e-05
1.05047071242e-05
1.05094709886e-05
1.05113064276e-05
1.05113102355e-05
1.05094849741e-05
1.05047366354e-05
1.04956623012e-05
1.04816114623e-05
1.0495431886e-05
1.05157991258e-05
1.05118920756e-05
1.05126066564e-05
1.05240929979e-05
1.05274559226e-05
1.05118877944e-05
1.05090034269e-05
1.05118098576e-05
1.04991945985e-05
1.04867343122e-05
1.04941972914e-05
1.0504082889e-05
1.0510582227e-05
1.05136256962e-05
1.05136334556e-05
1.05106020142e-05
1.05041187869e-05
1.04942365489e-05
1.04866833198e-05
1.04991234168e-05
1.05118097055e-05
1.05090061952e-05
1.05118858009e-05
1.05274487424e-05
1.0532878638e-05
1.05157985332e-05
1.05118067935e-05
1.05129664224e-05
1.05032515342e-05
1.04910994733e-05
1.04948497918e-05
1.05044563188e-05
1.05117826375e-05
1.05152773287e-05
1.05152839195e-05
1.05118030995e-05
1.05044898853e-05
1.04948905031e-05
1.04910441832e-05
1.05031861036e-05
1.05129639245e-05
1.05118082809e-05
1.05157916042e-05
1.05328697123e-05
1.05039888679e-05
1.04954537643e-05
1.04991685636e-05
1.05032344755e-05
1.04938254351e-05
1.04752800403e-05
1.04743011982e-05
1.04801538636e-05
1.04898856057e-05
1.04931246961e-05
1.04931334521e-05
1.04899121509e-05
1.0480201698e-05
1.04743297992e-05
1.04752093232e-05
1.0493727467e-05
1.05032304606e-05
1.04991685681e-05
1.04954621028e-05
1.05039823536e-05
1.04885769389e-05
1.04816244276e-05
1.04867271454e-05
1.04910993964e-05
1.04752929114e-05
1.0455758481e-05
1.04559808565e-05
1.04624405043e-05
1.04683832224e-05
1.04739107143e-05
1.04739286398e-05
1.04684567846e-05
1.04624828626e-05
1.04560214485e-05
1.04557112291e-05
1.0475209421e-05
1.04910935273e-05
1.04867304747e-05
1.04816389873e-05
1.04885709128e-05
1.05095723628e-05
1.04956478499e-05
1.0494229658e-05
1.04948842013e-05
1.0474332862e-05
1.04559925171e-05
1.04572475763e-05
1.04636176872e-05
1.04765419913e-05
1.04812834145e-05
1.04812978819e-05
1.04765997264e-05
1.04636556129e-05
1.04572879053e-05
1.04559697321e-05
1.04742784218e-05
1.04948861715e-05
1.04942374397e-05
1.04956497368e-05
1.05095651413e-05
1.05181789494e-05
1.0504720885e-05
1.05041084971e-05
1.0504486912e-05
1.04801967763e-05
1.04624375739e-05
1.04636125479e-05
1.04786370604e-05
1.04884268926e-05
1.0492017024e-05
1.04920271135e-05
1.04884605361e-05
1.04787178428e-05
1.04636461403e-05
1.04624238638e-05
1.04801700342e-05
1.05044838198e-05
1.05041180159e-05
1.05047239739e-05
1.05181751907e-05
1.05219541951e-05
1.05094734274e-05
1.05105959655e-05
1.05117972076e-05
1.04898764648e-05
1.04682829251e-05
1.04764726289e-05
1.04884022351e-05
1.04962279319e-05
1.04993621822e-05
1.04993687098e-05
1.04962501107e-05
1.04884423687e-05
1.04765286149e-05
1.04683080752e-05
1.04898526135e-05
1.05117962347e-05
1.0510606186e-05
1.05094784033e-05
1.05219540806e-05
1.05233296643e-05
1.05113051192e-05
1.05136287049e-05
1.0515282333e-05
1.04931030298e-05
1.04738312419e-05
1.04812252138e-05
1.04919851533e-05
1.04993504837e-05
1.05024094048e-05
1.05024136396e-05
1.04993646917e-05
1.04920103768e-05
1.04812501435e-05
1.04738184971e-05
1.04930717919e-05
1.05152780973e-05
1.05136378917e-05
1.05113091292e-05
1.05233306296e-05
1.05233280052e-05
1.05113053583e-05
1.05136340308e-05
1.05152868643e-05
1.0493115822e-05
1.04738669014e-05
1.04812544265e-05
1.04920038458e-05
1.04993595074e-05
1.05024133087e-05
1.05024164618e-05
1.04993698705e-05
1.04920213008e-05
1.04812667952e-05
1.04738371227e-05
1.04930767321e-05
1.05152778263e-05
1.05136371675e-05
1.05113055056e-05
1.0523327024e-05
1.05219463156e-05
1.05094721579e-05
1.05106022617e-05
1.05118049357e-05
1.04899051735e-05
1.04684163993e-05
1.04765785275e-05
1.04884586701e-05
1.04962576296e-05
1.04993774747e-05
1.04993807389e-05
1.04962685016e-05
1.04884775164e-05
1.04765939765e-05
1.04683904655e-05
1.04898717272e-05
1.05117988697e-05
1.05106069895e-05
1.0509471334e-05
1.05219456893e-05
1.05181650078e-05
1.05047195896e-05
1.05041184213e-05
1.05044926718e-05
1.0480213954e-05
1.04624857329e-05
1.04636724984e-05
1.047875018e-05
1.04884745972e-05
1.04920417473e-05
1.04920466146e-05
1.04884914551e-05
1.04787907799e-05
1.04636942921e-05
1.04624675742e-05
1.04802346597e-05
1.05044927513e-05
1.05041278131e-05
1.05047227506e-05
1.05181683666e-05
1.05095591343e-05
1.04956527889e-05
1.04942431627e-05
1.0494900895e-05
1.04743336881e-05
1.04560321989e-05
1.0457313917e-05
1.04636750599e-05
1.0476579476e-05
1.04812948718e-05
1.04813025088e-05
1.0476614727e-05
1.04637000943e-05
1.04573434585e-05
1.04560217925e-05
1.04743055355e-05
1.04949097495e-05
1.04942602009e-05
1.04956638117e-05
1.05095698298e-05
1.04885720532e-05
1.04816331677e-05
1.04867096408e-05
1.04910651976e-05
1.04752161872e-05
1.04557147364e-05
1.0455984963e-05
1.04624422736e-05
1.04683356842e-05
1.04738523731e-05
1.04738626896e-05
1.04683916236e-05
1.046247483e-05
1.0456027776e-05
1.04557141431e-05
1.04751962039e-05
1.04910907059e-05
1.0486741641e-05
1.04816503708e-05
1.04885941672e-05
1.05039881577e-05
1.04954489659e-05
1.04991377391e-05
1.05031948103e-05
1.04937297673e-05
1.04752037311e-05
1.04742698296e-05
1.04800601868e-05
1.04898211689e-05
1.04930476137e-05
1.04930540559e-05
1.04898486359e-05
1.04801738337e-05
1.04743068384e-05
1.04751905723e-05
1.0493695978e-05
1.05032145734e-05
1.04991585772e-05
1.04954582003e-05
1.050400416e-05
1.05328750382e-05
1.05157917632e-05
1.05118019296e-05
1.05129605933e-05
1.05032352949e-05
1.04910945024e-05
1.04948711225e-05
1.05044610941e-05
1.05117595176e-05
1.05152369084e-05
1.05152406883e-05
1.05117750411e-05
1.05044858265e-05
1.0494901702e-05
1.04910651411e-05
1.05031914758e-05
1.05129564897e-05
1.0511799635e-05
1.05157900743e-05
1.05328754498e-05
1.05274530654e-05
1.05118885572e-05
1.05090012175e-05
1.05118041413e-05
1.0499185e-05
1.04867455187e-05
1.04942277766e-05
1.05041038761e-05
1.05105895515e-05
1.05136154584e-05
1.05136176488e-05
1.05105998153e-05
1.05041276719e-05
1.04942574081e-05
1.04867136999e-05
1.04991345844e-05
1.05117984352e-05
1.05090014573e-05
1.05118888205e-05
1.05274534539e-05
1.05241012431e-05
1.05126063e-05
1.05118827661e-05
1.0515789214e-05
1.04954914222e-05
1.04816689008e-05
1.0495648217e-05
1.05047195003e-05
1.05094731073e-05
1.05113008846e-05
1.05113019515e-05
1.05094813148e-05
1.05047433094e-05
1.04956826769e-05
1.04816448496e-05
1.04954465586e-05
1.05157882098e-05
1.05118874176e-05
1.05126103012e-05
1.05241046287e-05
1.05288620885e-05
1.05240935458e-05
1.0527441564e-05
1.05328626984e-05
1.05039973389e-05
1.04885855373e-05
1.05095622964e-05
1.05181741142e-05
1.05219554286e-05
1.05233304678e-05
1.05233322211e-05
1.05219652998e-05
1.05182010555e-05
1.05096122998e-05
1.04886464264e-05
1.05040276103e-05
1.05328649563e-05
1.05274464528e-05
1.05240977666e-05
1.05288647603e-05
1.05184248334e-05
1.05124603984e-05
1.05146785186e-05
1.0516651891e-05
1.05132902042e-05
1.05099089495e-05
1.05103224399e-05
1.05133384426e-05
1.05158733282e-05
1.05167567198e-05
1.05167580513e-05
1.05158792163e-05
1.05133483323e-05
1.05103285815e-05
1.05099046118e-05
1.05132748052e-05
1.05166363399e-05
1.05146733107e-05
1.05124555954e-05
1.05184261386e-05
1.05124583023e-05
1.04792201966e-05
1.04596981049e-05
1.04552073059e-05
1.04533399619e-05
1.04536928904e-05
1.04579216879e-05
1.04639258026e-05
1.04688203013e-05
1.04713537105e-05
1.04713577258e-05
1.04688318824e-05
1.04639466388e-05
1.04579419602e-05
1.04537015068e-05
1.04533361582e-05
1.04552032793e-05
1.04596956257e-05
1.04792137638e-05
1.05124564702e-05
1.05146852931e-05
1.04597020921e-05
1.04224775786e-05
1.04084777911e-05
1.04042767773e-05
1.04065802725e-05
1.04130461972e-05
1.04218302487e-05
1.0429103481e-05
1.04332674696e-05
1.04332766051e-05
1.04291234284e-05
1.04218654062e-05
1.04130839171e-05
1.04066141803e-05
1.04042989541e-05
1.04084841009e-05
1.04224754353e-05
1.04596948508e-05
1.05146733708e-05
1.05166456135e-05
1.04552167717e-05
1.04084871711e-05
1.03785071197e-05
1.03801144395e-05
1.03778874129e-05
1.03810364446e-05
1.03907750723e-05
1.04001166154e-05
1.04057456632e-05
1.04057591549e-05
1.04001498927e-05
1.03908188447e-05
1.03810741895e-05
1.03779036873e-05
1.0380143887e-05
1.03784833703e-05
1.04084800659e-05
1.04552059481e-05
1.05166379764e-05
1.05132828227e-05
1.04533552306e-05
1.04042950031e-05
1.03801221123e-05
1.03636665595e-05
1.035275171e-05
1.03521351665e-05
1.03580884657e-05
1.03721695058e-05
1.03789456217e-05
1.03789640005e-05
1.03722180424e-05
1.03581562826e-05
1.03521741575e-05
1.03527703955e-05
1.03636627189e-05
1.03801422049e-05
1.04042935259e-05
1.04533485066e-05
1.05132811409e-05
1.05099108683e-05
1.04537140142e-05
1.0406607117e-05
1.03779107309e-05
1.03527594103e-05
1.03406135627e-05
1.03394098199e-05
1.03445157875e-05
1.03534878184e-05
1.03628451086e-05
1.03628737482e-05
1.03535825157e-05
1.03445706951e-05
1.03394604617e-05
1.03406485603e-05
1.03527637869e-05
1.03779114189e-05
1.04066141934e-05
1.04537137636e-05
1.05099106498e-05
1.05103327087e-05
1.04579443873e-05
1.04130774657e-05
1.03810641978e-05
1.0352139083e-05
1.03394028483e-05
1.03379181511e-05
1.03423510522e-05
1.03571567844e-05
1.03652030622e-05
1.03652291488e-05
1.03572403337e-05
1.03424033264e-05
1.03379700566e-05
1.0339438487e-05
1.03521481121e-05
1.03810681901e-05
1.04130843598e-05
1.04579477964e-05
1.05103314441e-05
1.05133513611e-05
1.04639424201e-05
1.04218574416e-05
1.03907957493e-05
1.03581043202e-05
1.03444944577e-05
1.03423366211e-05
1.03566066536e-05
1.03697497802e-05
1.0375991441e-05
1.03760107549e-05
1.03698065898e-05
1.03567081702e-05
1.03423813685e-05
1.034452696e-05
1.03581332454e-05
1.03908000293e-05
1.0421864336e-05
1.04639506997e-05
1.05133526339e-05
1.05158770667e-05
1.04688308486e-05
1.04291262267e-05
1.0400120615e-05
1.03721340664e-05
1.03533589886e-05
1.0357055836e-05
1.03697091654e-05
1.03802438937e-05
1.03859010737e-05
1.03859152087e-05
1.03802824068e-05
1.03697673832e-05
1.03571267706e-05
1.03534196291e-05
1.03721492084e-05
1.04001216544e-05
1.04291283333e-05
1.04688397402e-05
1.05158805885e-05
1.051675259e-05
1.04713600066e-05
1.04332807028e-05
1.04057386817e-05
1.03788991718e-05
1.03627271162e-05
1.03651011489e-05
1.03759372233e-05
1.03858802075e-05
1.03914666511e-05
1.03914758477e-05
1.0385904051e-05
1.03759678754e-05
1.03651248472e-05
1.03627329487e-05
1.03788929319e-05
1.04057302812e-05
1.04332783863e-05
1.04713644657e-05
1.05167526834e-05
1.05167580634e-05
1.04713657639e-05
1.04332864311e-05
1.0405750183e-05
1.03789283465e-05
1.03627848485e-05
1.03651500444e-05
1.03759657682e-05
1.03858926863e-05
1.0391467873e-05
1.03914730969e-05
1.03859050309e-05
1.03759771009e-05
1.03651446812e-05
1.03627569945e-05
1.03789015403e-05
1.04057290631e-05
1.04332746286e-05
1.04713626137e-05
1.05167537383e-05
1.051588609e-05
1.04688397377e-05
1.04291317534e-05
1.04001435872e-05
1.03722026277e-05
1.03535337835e-05
1.03572004827e-05
1.03697874591e-05
1.03802746959e-05
1.03859022613e-05
1.03859058558e-05
1.03802824628e-05
1.0369793745e-05
1.03571935466e-05
1.03535078488e-05
1.03721751366e-05
1.04001187398e-05
1.04291180537e-05
1.04688349046e-05
1.05158838808e-05
1.05133537579e-05
1.04639489049e-05
1.04218668115e-05
1.03908173001e-05
1.03581686484e-05
1.03445737361e-05
1.0342410889e-05
1.03567280576e-05
1.03697856035e-05
1.03759807631e-05
1.03759847884e-05
1.03697979673e-05
1.03567539618e-05
1.03424057576e-05
1.03445579849e-05
1.03581989762e-05
1.0390799636e-05
1.04218543634e-05
1.04639452326e-05
1.05133551033e-05
1.05103267902e-05
1.04579415661e-05
1.04130824502e-05
1.03810767444e-05
1.03521782146e-05
1.03394731548e-05
1.03379871953e-05
1.03423968985e-05
1.03571616935e-05
1.03651455017e-05
1.03651530386e-05
1.03571931579e-05
1.03424008286e-05
1.03379874825e-05
1.03394648128e-05
1.03521609119e-05
1.03810670642e-05
1.04130783159e-05
1.04579414215e-05
1.05103269408e-05
1.05098973546e-05
1.04537021344e-05
1.04066113204e-05
1.0377906135e-05
1.03527732135e-05
1.03406582825e-05
1.0339451376e-05
1.03445363129e-05
1.03534129628e-05
1.03627228573e-05
1.03627336586e-05
1.03534660411e-05
1.03445432313e-05
1.03394558285e-05
1.03406568907e-05
1.03527603532e-05
1.03778994669e-05
1.04066132623e-05
1.04537049965e-05
1.05098964021e-05
1.05132712758e-05
1.04533394874e-05
1.04042949931e-05
1.03801402119e-05
1.03636565225e-05
1.03527545757e-05
1.0352136155e-05
1.03580160411e-05
1.03720924869e-05
1.03788345661e-05
1.03788387774e-05
1.03721118113e-05
1.03581062411e-05
1.0352136042e-05
1.03527459747e-05
1.03636371876e-05
1.0380140403e-05
1.04042945877e-05
1.04533430977e-05
1.05132731915e-05
1.05166452739e-05
1.04552135627e-05
1.04084897087e-05
1.03784968473e-05
1.03801384933e-05
1.03778858978e-05
1.03810258123e-05
1.03907412514e-05
1.04000497142e-05
1.04056467117e-05
1.04056454608e-05
1.04000475469e-05
1.03907418958e-05
1.03810227311e-05
1.03778716304e-05
1.03801338214e-05
1.03785089964e-05
1.04084845048e-05
1.04552157147e-05
1.05166490694e-05
1.05147043996e-05
1.0459717821e-05
1.04224935865e-05
1.04084868641e-05
1.04042921002e-05
1.0406596093e-05
1.04130465917e-05
1.04218066339e-05
1.04290543434e-05
1.04331924938e-05
1.0433189661e-05
1.04290479052e-05
1.0421802984e-05
1.04130434879e-05
1.04065911498e-05
1.04042848771e-05
1.04084786193e-05
1.04224909009e-05
1.04597217523e-05
1.05147103285e-05
1.05125050885e-05
1.04792444642e-05
1.04597145521e-05
1.04552068449e-05
1.04533398142e-05
1.04537017748e-05
1.04579291148e-05
1.0463921948e-05
1.04688017906e-05
1.04713218282e-05
1.04713203258e-05
1.04687992699e-05
1.04639222219e-05
1.04579276509e-05
1.04536932754e-05
1.04533299329e-05
1.04552024277e-05
1.04597141874e-05
1.04792511671e-05
1.05125121305e-05
1.05184961784e-05
1.0512514371e-05
1.05146928152e-05
1.05166376179e-05
1.0513281491e-05
1.05099148218e-05
1.05103341099e-05
1.05133495755e-05
1.05158801806e-05
1.05167574617e-05
1.05167580955e-05
1.05158843931e-05
1.05133577184e-05
1.05103386413e-05
1.05099106131e-05
1.05132728096e-05
1.05166313452e-05
1.05146923668e-05
1.05125157657e-05
1.0518498987e-05
1.04866960043e-05
1.04748299877e-05
1.04813151347e-05
1.04869672654e-05
1.04913881335e-05
1.04932926025e-05
1.04899841103e-05
1.04776251844e-05
1.04759662854e-05
1.04748060312e-05
1.04747980542e-05
1.04759557077e-05
1.0477628039e-05
1.04900350771e-05
1.04933404209e-05
1.04914280023e-05
1.04870045323e-05
1.04813208717e-05
1.04748535017e-05
1.04867139016e-05
1.04748444022e-05
1.04182078695e-05
1.04022258488e-05
1.04036883279e-05
1.04113558458e-05
1.0418191175e-05
1.04216403344e-05
1.0415899718e-05
1.04193494071e-05
1.04210426802e-05
1.04210457391e-05
1.04193608233e-05
1.04159316966e-05
1.04217198556e-05
1.04182596048e-05
1.04114136813e-05
1.0403747276e-05
1.04022457352e-05
1.04182295171e-05
1.047485127e-05
1.0481311874e-05
1.04022196204e-05
1.03712084576e-05
1.03558005887e-05
1.03500391255e-05
1.03593757571e-05
1.03758408231e-05
1.03890655223e-05
1.03976151754e-05
1.04026524757e-05
1.0402662441e-05
1.03976408891e-05
1.03891119718e-05
1.037592721e-05
1.03594679084e-05
1.03501022873e-05
1.03558116504e-05
1.03712277667e-05
1.04022433257e-05
1.04813169183e-05
1.0487038226e-05
1.04037811982e-05
1.03558084961e-05
1.0315154125e-05
1.03245965332e-05
1.0320983563e-05
1.03256432609e-05
1.033502435e-05
1.03444745501e-05
1.03505460067e-05
1.03505589462e-05
1.0344505591e-05
1.03350615247e-05
1.03256779261e-05
1.03210152261e-05
1.03246434457e-05
1.03151767816e-05
1.03558083431e-05
1.04037214034e-05
1.04869793948e-05
1.04913995259e-05
1.04113909346e-05
1.03500432595e-05
1.03246080135e-05
1.02945811815e-05
1.02801122751e-05
1.02796405478e-05
1.02867213894e-05
1.02960864718e-05
1.03025451904e-05
1.03025632828e-05
1.02961304944e-05
1.0286774317e-05
1.02796899003e-05
1.02801510689e-05
1.02946042139e-05
1.0324647748e-05
1.03500241495e-05
1.04113957763e-05
1.04914082051e-05
1.04932595125e-05
1.04181752925e-05
1.03594110198e-05
1.0321011094e-05
1.02801210456e-05
1.02599917496e-05
1.02562588233e-05
1.02616469084e-05
1.02698026886e-05
1.02760123347e-05
1.02760344234e-05
1.02698571756e-05
1.02617106854e-05
1.02563162859e-05
1.02600375962e-05
1.02801481287e-05
1.03210263738e-05
1.03594538109e-05
1.04182263302e-05
1.049329882e-05
1.04898443124e-05
1.04215152888e-05
1.03758572336e-05
1.03256707208e-05
1.02796441284e-05
1.02562500626e-05
1.02509822175e-05
1.02556042887e-05
1.02637957634e-05
1.02699300823e-05
1.02699535864e-05
1.02638561988e-05
1.02556695744e-05
1.02510375717e-05
1.02562935041e-05
1.02796726208e-05
1.03256841345e-05
1.0375909743e-05
1.0421621072e-05
1.04899263263e-05
1.04775704549e-05
1.04158376806e-05
1.0389054927e-05
1.0335039375e-05
1.02867106147e-05
1.02616173948e-05
1.02555817611e-05
1.02608876235e-05
1.02696234287e-05
1.02757558619e-05
1.02757773504e-05
1.02696807323e-05
1.0260955172e-05
1.02556294999e-05
1.02616533247e-05
1.02867365808e-05
1.03350546503e-05
1.03890980768e-05
1.04158954918e-05
1.0477590328e-05
1.04759094447e-05
1.04192914182e-05
1.03976039546e-05
1.03444694623e-05
1.02960550099e-05
1.02697484119e-05
1.02637388609e-05
1.02695901564e-05
1.02785086527e-05
1.02847407677e-05
1.02847581735e-05
1.02785550875e-05
1.02696444096e-05
1.02637778503e-05
1.02697726319e-05
1.02960750001e-05
1.03444854621e-05
1.03976371934e-05
1.0419329613e-05
1.04759165172e-05
1.04747548202e-05
1.04209956985e-05
1.04026353378e-05
1.03505301086e-05
1.03025015385e-05
1.02759428013e-05
1.02698575675e-05
1.02757032321e-05
1.02847159987e-05
1.02910435183e-05
1.02910550636e-05
1.02847465084e-05
1.02757348312e-05
1.02698716009e-05
1.02759452559e-05
1.03025070738e-05
1.03505385856e-05
1.04026572445e-05
1.04210116546e-05
1.0474751872e-05
1.04747654315e-05
1.04210195792e-05
1.04026499428e-05
1.03505379238e-05
1.03025212316e-05
1.02759756955e-05
1.02698927181e-05
1.02757292935e-05
1.02847268522e-05
1.0291041371e-05
1.02910475093e-05
1.02847426062e-05
1.02757382178e-05
1.02698800914e-05
1.02759530321e-05
1.03025092157e-05
1.0350535914e-05
1.04026567194e-05
1.04210139282e-05
1.04747505261e-05
1.04759430843e-05
1.0419356486e-05
1.03976359721e-05
1.03444850935e-05
1.02960994982e-05
1.02698237677e-05
1.02638229837e-05
1.0269652577e-05
1.02785331825e-05
1.02847316672e-05
1.02847349395e-05
1.02785403522e-05
1.02696492968e-05
1.02637966563e-05
1.02697896513e-05
1.02960795619e-05
1.03444774853e-05
1.03976344996e-05
1.04193365644e-05
1.0475917863e-05
1.04776272408e-05
1.04159388433e-05
1.03891039002e-05
1.03350459764e-05
1.02867555646e-05
1.02616999219e-05
1.02556646071e-05
1.02609506479e-05
1.02696366759e-05
1.02757231949e-05
1.02757247958e-05
1.0269641173e-05
1.02609445888e-05
1.02556358469e-05
1.02616661515e-05
1.02867384798e-05
1.03350428795e-05
1.03890982672e-05
1.04159109203e-05
1.04775989479e-05
1.04900176988e-05
1.04217121573e-05
1.03759234096e-05
1.03256664847e-05
1.0279677536e-05
1.02563156834e-05
1.02510443948e-05
1.02556321366e-05
1.02637721112e-05
1.02698542696e-05
1.02698558876e-05
1.02637763913e-05
1.02556243281e-05
1.02510222663e-05
1.02562930994e-05
1.02796673914e-05
1.03256697774e-05
1.03759339147e-05
1.04216554039e-05
1.04899491553e-05
1.04933420285e-05
1.04182728636e-05
1.03594722165e-05
1.03210066295e-05
1.02801370159e-05
1.02600277834e-05
1.02562869063e-05
1.0261639474e-05
1.02697412729e-05
1.02758988279e-05
1.02758992771e-05
1.02697418668e-05
1.02616322636e-05
1.02562730543e-05
1.02600162545e-05
1.02801310234e-05
1.0321013015e-05
1.03594925593e-05
1.04182671941e-05
1.049332378e-05
1.04914301212e-05
1.04114320754e-05
1.03500934498e-05
1.03246378696e-05
1.02945842531e-05
1.02801169651e-05
1.02796307558e-05
1.02866784112e-05
1.02959947839e-05
1.03024102884e-05
1.03024080957e-05
1.02959887318e-05
1.02866666047e-05
1.02796161974e-05
1.02801035022e-05
1.02945729071e-05
1.03246442252e-05
1.03500777344e-05
1.04114516866e-05
1.04914378717e-05
1.04870253462e-05
1.0403783779e-05
1.03558314943e-05
1.0315193412e-05
1.03246332539e-05
1.03209804789e-05
1.03256123189e-05
1.03349587953e-05
1.03443683795e-05
1.03504050687e-05
1.03504000463e-05
1.03443544155e-05
1.03349392402e-05
1.03255904116e-05
1.03209611344e-05
1.03246301283e-05
1.03152252342e-05
1.03558252149e-05
1.04038222876e-05
1.04870583272e-05
1.04813409722e-05
1.04022693441e-05
1.03712496479e-05
1.03558205811e-05
1.03500861148e-05
1.03594280145e-05
1.03758630288e-05
1.0389030021e-05
1.03975427266e-05
1.04025520221e-05
1.04025473173e-05
1.03975305344e-05
1.03890205976e-05
1.03758719451e-05
1.03594462954e-05
1.03501114552e-05
1.0355825469e-05
1.03712533694e-05
1.04022811637e-05
1.04813543875e-05
1.04748622253e-05
1.04182398476e-05
1.04022678807e-05
1.04036903934e-05
1.04113829619e-05
1.04182275639e-05
1.04216602483e-05
1.0415908138e-05
1.04193355762e-05
1.04210150966e-05
1.04210143842e-05
1.04193347177e-05
1.0415916917e-05
1.04217269171e-05
1.04182942635e-05
1.0411451578e-05
1.04037785197e-05
1.04022830504e-05
1.04182606868e-05
1.0474882236e-05
1.04867119922e-05
1.04748429796e-05
1.04813302176e-05
1.04869410929e-05
1.0491397239e-05
1.0493313802e-05
1.04899945516e-05
1.0477637464e-05
1.04759700718e-05
1.04748075117e-05
1.04748062976e-05
1.04759708121e-05
1.04776450558e-05
1.04900569268e-05
1.04933770468e-05
1.04914605929e-05
1.04870281308e-05
1.0481349997e-05
1.04748622229e-05
1.04867337219e-05
1.0475668145e-05
1.04669828004e-05
1.04712196685e-05
1.04694391121e-05
1.04661247215e-05
1.04617776246e-05
1.04582530622e-05
1.04552007968e-05
1.04521989643e-05
1.04516648756e-05
1.04516549843e-05
1.04521900792e-05
1.04552105763e-05
1.04582651504e-05
1.04617835374e-05
1.04661355294e-05
1.04694560009e-05
1.04712364453e-05
1.0467021142e-05
1.04757046469e-05
1.04670123867e-05
1.03933104471e-05
1.0374556104e-05
1.03682491244e-05
1.03703422014e-05
1.03774156723e-05
1.03857587103e-05
1.03922480153e-05
1.03959238129e-05
1.03975714363e-05
1.03975672053e-05
1.03959257227e-05
1.03922712492e-05
1.03858069128e-05
1.03774683222e-05
1.03703835903e-05
1.03682803072e-05
1.03745843504e-05
1.03933470523e-05
1.04670270978e-05
1.04712197748e-05
1.03745520424e-05
1.03416720977e-05
1.03274333433e-05
1.03278358378e-05
1.03380093721e-05
1.03556171351e-05
1.03684482133e-05
1.03751248166e-05
1.0378157728e-05
1.03781638171e-05
1.03751426996e-05
1.03684827206e-05
1.03557183288e-05
1.03380946116e-05
1.03278845079e-05
1.03274296923e-05
1.03417009202e-05
1.03745953009e-05
1.04712457603e-05
1.04694304639e-05
1.03682485941e-05
1.03274644769e-05
1.02871059557e-05
1.02825416036e-05
1.02828043703e-05
1.0292189067e-05
1.0304435612e-05
1.0314815436e-05
1.03208107282e-05
1.03208295105e-05
1.03148659163e-05
1.03045083082e-05
1.02922709903e-05
1.02828873255e-05
1.0282623815e-05
1.02869648094e-05
1.03274569023e-05
1.03682947288e-05
1.04694629251e-05
1.04660958688e-05
1.03703467399e-05
1.0327869576e-05
1.02825550929e-05
1.02478339195e-05
1.02334082736e-05
1.02341063704e-05
1.02421725692e-05
1.02512495589e-05
1.02573062504e-05
1.02573263987e-05
1.02513028083e-05
1.02422356241e-05
1.02341620481e-05
1.02334647175e-05
1.02478982514e-05
1.02826266465e-05
1.03278993802e-05
1.0370392171e-05
1.0466135003e-05
1.04617460435e-05
1.03774129319e-05
1.03380211325e-05
1.02828114227e-05
1.02334094439e-05
1.02075500832e-05
1.02013042617e-05
1.02054649346e-05
1.02127395809e-05
1.02180711772e-05
1.02180938011e-05
1.02128005545e-05
1.02055273482e-05
1.02013387585e-05
1.02075732626e-05
1.02334490043e-05
1.02828771786e-05
1.03381082349e-05
1.03774635267e-05
1.04617864219e-05
1.04582219197e-05
1.0385729528e-05
1.03556084781e-05
1.02921742264e-05
1.02340940883e-05
1.0201293468e-05
1.01904612757e-05
1.01922120474e-05
1.01983611455e-05
1.02034012207e-05
1.02034249773e-05
1.01984269636e-05
1.01922739389e-05
1.01904809244e-05
1.02012967874e-05
1.02341192088e-05
1.0292245452e-05
1.03557029821e-05
1.03857903533e-05
1.04582555471e-05
1.04551552547e-05
1.03921839717e-05
1.0368413549e-05
1.03043868196e-05
1.02421366138e-05
1.02054342396e-05
1.01921933464e-05
1.01928589448e-05
1.0199014127e-05
1.02042523177e-05
1.02042754493e-05
1.01990787484e-05
1.01929154132e-05
1.01922041264e-05
1.02054276525e-05
1.02421581968e-05
1.03044642072e-05
1.03684866926e-05
1.0392246372e-05
1.04551802131e-05
1.04521474613e-05
1.03958501947e-05
1.0375066368e-05
1.03147399252e-05
1.02511898616e-05
1.021268609e-05
1.01983189603e-05
1.01989882917e-05
1.02059011971e-05
1.02116505181e-05
1.02116710654e-05
1.02059585445e-05
1.01990340883e-05
1.01983177201e-05
1.02126707448e-05
1.02512067229e-05
1.03148138003e-05
1.03751377843e-05
1.03958939006e-05
1.04521641861e-05
1.04516254719e-05
1.03975125242e-05
1.03781156709e-05
1.03207266529e-05
1.02572329496e-05
1.02180028458e-05
1.02033403052e-05
1.02042027436e-05
1.02116219842e-05
1.0217595945e-05
1.0217612806e-05
1.02116663979e-05
1.02042310619e-05
1.02033212263e-05
1.02179710981e-05
1.02572361294e-05
1.03207851647e-05
1.03781732803e-05
1.03975308449e-05
1.04516288695e-05
1.04516413557e-05
1.03975371232e-05
1.0378122524e-05
1.03207502566e-05
1.02572550498e-05
1.02180288314e-05
1.02033662772e-05
1.02042226912e-05
1.0211631371e-05
1.02175948533e-05
1.02176060938e-05
1.02116607239e-05
1.02042305708e-05
1.02033247221e-05
1.02179744454e-05
1.02572372888e-05
1.03207871269e-05
1.03781738658e-05
1.03975314978e-05
1.04516221915e-05
1.04521895292e-05
1.03959222052e-05
1.03751172327e-05
1.03148014475e-05
1.02512448681e-05
1.02127517262e-05
1.01983838004e-05
1.01990363035e-05
1.02059199707e-05
1.02116401272e-05
1.02116463614e-05
1.02059390537e-05
1.01990292362e-05
1.01983244606e-05
1.02126788677e-05
1.02512104068e-05
1.03148213699e-05
1.03751414626e-05
1.03959016795e-05
1.04521563202e-05
1.04552145593e-05
1.03922881095e-05
1.03684706908e-05
1.03044628977e-05
1.02421966026e-05
1.02055024235e-05
1.01922566331e-05
1.01928921233e-05
1.01990032782e-05
1.02042014098e-05
1.02042051326e-05
1.01990165318e-05
1.01928765253e-05
1.01921883783e-05
1.02054220471e-05
1.0242156595e-05
1.03044783428e-05
1.03684973127e-05
1.0392266315e-05
1.04551822275e-05
1.04582807777e-05
1.03858340346e-05
1.03557134241e-05
1.02922410655e-05
1.02341371528e-05
1.02013299895e-05
1.01904802582e-05
1.01921926248e-05
1.01982876667e-05
1.02032831293e-05
1.02032861191e-05
1.01982983398e-05
1.01921764959e-05
1.01904163753e-05
1.02012586374e-05
1.02341058919e-05
1.02922648601e-05
1.0355751862e-05
1.03858250372e-05
1.04582621634e-05
1.04618021106e-05
1.03775020005e-05
1.03381059702e-05
1.02828688956e-05
1.02334422982e-05
1.02075591243e-05
1.02012838571e-05
1.02053999661e-05
1.0212621578e-05
1.02179062407e-05
1.02179067196e-05
1.0212625001e-05
1.0205384576e-05
1.02012365279e-05
1.02075122946e-05
1.02334309053e-05
1.02829000714e-05
1.03381503197e-05
1.03775032653e-05
1.04617926272e-05
1.04661483488e-05
1.03704230891e-05
1.03279171922e-05
1.02826233284e-05
1.02478766544e-05
1.02334169391e-05
1.02340754395e-05
1.02420925444e-05
1.02511156585e-05
1.02571251388e-05
1.02571226258e-05
1.02511109386e-05
1.02420783375e-05
1.02340501721e-05
1.02334009261e-05
1.02478835932e-05
1.02826541341e-05
1.03279228595e-05
1.03704281317e-05
1.04661401522e-05
1.04694667895e-05
1.03683212292e-05
1.03274924491e-05
1.02870046108e-05
1.02826135176e-05
1.02828428364e-05
1.02921897036e-05
1.03043856512e-05
1.03147116757e-05
1.03206640836e-05
1.03206605927e-05
1.03147044878e-05
1.03043790889e-05
1.02921867531e-05
1.02828465731e-05
1.02826263641e-05
1.02868674524e-05
1.0327452932e-05
1.03683257765e-05
1.04694662564e-05
1.0471241803e-05
1.0374617421e-05
1.03417391345e-05
1.03274687781e-05
1.03278908504e-05
1.03380715536e-05
1.03556682021e-05
1.03684280035e-05
1.03750651294e-05
1.03780735248e-05
1.03780691643e-05
1.03750524884e-05
1.03684149431e-05
1.03556815646e-05
1.03380844491e-05
1.03278793912e-05
1.03274243736e-05
1.03417293733e-05
1.03746235107e-05
1.04712472394e-05
1.04670192608e-05
1.03933561103e-05
1.03746169227e-05
1.03683127004e-05
1.03704039895e-05
1.03774742996e-05
1.03858033549e-05
1.03922647388e-05
1.0395915851e-05
1.03975506952e-05
1.03975494667e-05
1.03959173176e-05
1.03922748733e-05
1.03858247075e-05
1.03774982238e-05
1.03704244543e-05
1.03683306962e-05
1.03746366049e-05
1.03933780014e-05
1.04670357149e-05
1.0475663037e-05
1.04669958831e-05
1.04712387356e-05
1.04694648198e-05
1.04661518058e-05
1.04618014918e-05
1.04582770337e-05
1.04552186398e-05
1.04522068776e-05
1.04516763133e-05
1.04516763063e-05
1.0452211723e-05
1.04552317364e-05
1.0458298555e-05
1.04618270491e-05
1.04661764272e-05
1.04694908278e-05
1.04712664771e-05
1.0467025435e-05
1.04756956826e-05
1.04456939336e-05
1.0451789268e-05
1.04589247519e-05
1.04549282938e-05
1.04487922433e-05
1.04433436488e-05
1.0437538405e-05
1.04323678208e-05
1.04295171971e-05
1.04291042087e-05
1.04290992976e-05
1.04295153075e-05
1.04323759701e-05
1.04375571386e-05
1.04433659177e-05
1.04488006126e-05
1.04549305957e-05
1.04589535572e-05
1.04518665993e-05
1.04457606911e-05
1.04518994787e-05
1.03561971875e-05
1.03445925765e-05
1.03397295426e-05
1.034327708e-05
1.0350432168e-05
1.03578477586e-05
1.03632759288e-05