/*--------------------------------*- C++ -*----------------------------------*\
| =========                 |                                                 |
| \\      /  F ield         | OpenFOAM: The Open Source CFD Toolbox           |
|  \\    /   O peration     | Version:  3.0.1                                 |
|   \\  /    A nd           | Web:      www.OpenFOAM.org                      |
|    \\/     M anipulation  |                                                 |
\*---------------------------------------------------------------------------*/
FoamFile
{
    version     2.0;
    format      ascii;
    class       surfaceScalarField;
    location    "9.5";
    object      phi;
}
// * * * * * * * * * * * * * * * * * * * * * * * * * * * * * * * * * * * * * //

dimensions      [0 3 -1 0 0 0 0];

internalField   nonuniform List<scalar> 
22672
(
1.97585646712e-05
1.9770681999e-05
-3.95292474013e-05
3.93745754559e-05
1.83804774849e-05
-3.79964901647e-05
5.38820802652e-05
1.76760886573e-05
-3.21835978223e-05
6.15477571819e-05
1.77363211795e-05
-2.54020056255e-05
6.13986200994e-05
1.85153903069e-05
-1.83662641875e-05
5.56133355982e-05
1.92656618321e-05
-1.34803915535e-05
4.50080097886e-05
2.04719715479e-05
-9.86666273482e-06
3.11341120408e-05
2.20171031465e-05
-8.14322446648e-06
1.57634286043e-05
2.36331760766e-05
-8.26251307154e-06
7.41894991989e-08
2.474615193e-05
-9.05693405076e-06
-1.5620373063e-05
2.47440205243e-05
-9.04947961218e-06
-3.10048650072e-05
2.36266428617e-05
-8.24217276692e-06
-4.49011738872e-05
2.20054783182e-05
-8.10919127338e-06
-5.55334496154e-05
2.04566105367e-05
-9.82435627823e-06
-6.13441398749e-05
1.92490433504e-05
-1.34383736721e-05
-6.15170723576e-05
1.84999694155e-05
-1.83270560599e-05
-5.38676829704e-05
1.77218208404e-05
-2.5371227379e-05
-3.93697497956e-05
1.7662784138e-05
-3.21607324844e-05
-1.97588087918e-05
1.83669549265e-05
-3.79779102167e-05
1.97569367578e-05
-3.95157548944e-05
1.83716433954e-05
3.93821936378e-05
-3.79831563421e-05
3.94760242767e-05
3.94806303452e-05
-4.22045367012e-05
5.57665837952e-05
4.0280794807e-05
-3.88952713482e-05
6.48393994424e-05
4.18377027079e-05
-3.31742061334e-05
6.54824758108e-05
4.38350182401e-05
-2.5962716611e-05
5.97274967946e-05
4.51732355676e-05
-2.01526100036e-05
4.86193270407e-05
4.66713774312e-05
-1.50912537353e-05
3.37381350977e-05
4.81674698839e-05
-1.12691939505e-05
1.71060912525e-05
4.95306883085e-05
-9.26548841332e-06
7.97846730487e-08
5.03767073022e-05
-8.60426924209e-06
-1.69511186733e-05
5.03702316757e-05
-8.5953284694e-06
-3.35970601552e-05
4.95124914968e-05
-9.23992796255e-06
-4.85025169223e-05
4.8140291077e-05
-1.12293768586e-05
-5.96395880806e-05
4.66387822277e-05
-1.50451212046e-05
-6.54214081606e-05
4.51395473714e-05
-2.01087039701e-05
-6.48044707051e-05
4.38053730241e-05
-2.59223599044e-05
-5.57502509351e-05
4.18109896495e-05
-3.31434057172e-05
-3.94701653143e-05
4.02572126357e-05
-3.8874529508e-05
-1.8371640007e-05
3.94584657187e-05
-4.21900505371e-05
3.9362912584e-05
-3.79776250767e-05
1.76693099811e-05
5.38792490122e-05
-3.21663675212e-05
4.02779063757e-05
5.57607994428e-05
-3.88887693741e-05
5.78881751158e-05
5.78815107775e-05
-3.52109910957e-05
6.78574509319e-05
6.04433148573e-05
-2.85748971647e-05
6.92481070806e-05
6.29914585119e-05
-2.05471082741e-05
6.37370446988e-05
6.42614220119e-05
-1.35771379944e-05
5.26440876768e-05
6.52283062706e-05
-7.46398706216e-06
3.72455210153e-05
6.58953308762e-05
-2.32931014037e-06
1.9152638129e-05
6.63432506193e-05
1.28030471142e-06
8.38265354406e-08
6.66277083494e-05
2.81779481025e-06
-1.89904213988e-05
6.66191187853e-05
2.8253451163e-06
-3.70991420322e-05
6.63192305749e-05
1.30196564974e-06
-5.25242331102e-05
6.58594875386e-05
-2.29412167804e-06
-6.36456664833e-05
6.51865875275e-05
-7.42638862309e-06
-6.91834956812e-05
6.42187755236e-05
-1.35414158002e-05
-6.78198305968e-05
6.29544404884e-05
-2.0512749078e-05
-5.78696678785e-05
6.04108036257e-05
-2.85499923509e-05
-4.02710999078e-05
5.78536461051e-05
-3.51950160313e-05
-1.76691955468e-05
5.57360100914e-05
-3.8879462758e-05
5.38604638249e-05
-3.2166755783e-05
1.77321888007e-05
6.15306634236e-05
-2.53836063108e-05
4.18370120713e-05
6.48163567747e-05
-3.31603853344e-05
6.04508050501e-05
6.78358640765e-05
-2.85681530609e-05
7.09050112061e-05
7.08851928989e-05
-2.08960930372e-05
7.24402055711e-05
7.35468767235e-05
-1.20906230458e-05
6.67834391869e-05
7.4538790586e-05
-4.6206135102e-06
5.53989637652e-05
7.48655485959e-05
1.74722177518e-06
3.94604646554e-05
7.47677311329e-05
7.06608817905e-06
2.04529405635e-05
7.45571855745e-05
1.07935793704e-05
8.4827900074e-08
7.44423895663e-05
1.25534223727e-05
-2.0288795301e-05
7.44328505526e-05
1.2559882584e-05
-3.9312722512e-05
7.45304786152e-05
1.08126699659e-05
-5.52762413185e-05
7.47284280406e-05
7.09456819572e-06
-6.66881712918e-05
7.48202042214e-05
1.77830192797e-06
-7.23712660918e-05
7.4493327314e-05
-4.5914695882e-06
-7.08635347268e-05
7.35080181309e-05
-1.20613224322e-05
-6.04291021948e-05
7.08512719327e-05
-2.08749144553e-05
-4.1827714638e-05
6.78082465433e-05
-2.85560013777e-05
-1.77299864706e-05
6.47936220564e-05
-3.31553534374e-05
6.15156309659e-05
-2.53851622358e-05
1.85163490733e-05
6.13635026498e-05
-1.83491924503e-05
4.38396067947e-05
6.54393579057e-05
-2.59462645208e-05
6.30027105023e-05
6.92089849094e-05
-2.0536231758e-05
7.35680286781e-05
7.24060282042e-05
-1.20861619494e-05
7.5036842421e-05
7.50040654722e-05
-2.92601152031e-06
6.91042966827e-05
7.57760381468e-05
4.69528955239e-06
5.72931073488e-05
7.56635770431e-05
1.10131535431e-05
4.08006539041e-05
7.50788764649e-05
1.61813025829e-05
2.11755440469e-05
7.45703563808e-05
1.96119351893e-05
8.51572537583e-08
7.43104538699e-05
2.12223197367e-05
-2.10105887778e-05
7.43005644412e-05
2.12280296803e-05
-4.06517436026e-05
7.45427654378e-05
1.96288649326e-05
-5.71684478258e-05
7.50383620552e-05
1.62067656733e-05
-6.90068937275e-05
7.56174959161e-05
1.10411475485e-05
-7.49655038543e-05
7.57307002394e-05
4.72122830313e-06
-7.35236439512e-05
7.49654714335e-05
-2.89932400826e-06
-6.29776140955e-05
7.23722613263e-05
-1.20670311736e-05
-4.38272664376e-05
6.91827826003e-05
-2.05248961023e-05
-1.85119941524e-05
6.5419329513e-05
-2.59409924432e-05
6.13521731302e-05
-1.8348544677e-05
1.92702510674e-05
5.55641596169e-05
-1.34709133964e-05
4.51829537277e-05
5.96692026803e-05
-2.01425542559e-05
6.42770114724e-05
6.36841814271e-05
-1.35692622322e-05
7.45624692894e-05
6.67380558074e-05
-4.61749399906e-06
7.58089982073e-05
6.9062983271e-05
4.69454499258e-06
6.96768890443e-05
6.96373069649e-05
1.22708334055e-05
5.76443130009e-05
6.9285605895e-05
1.84105425101e-05
4.09321100182e-05
6.84882721352e-05
2.33028050912e-05
2.11647792294e-05
6.77895094226e-05
2.65481776083e-05
8.41281842539e-08
6.74554758248e-05
2.79356301731e-05
-2.10016555483e-05
6.74456381474e-05
2.79407113123e-05
-4.07840728325e-05
6.77617823323e-05
2.65634008078e-05
-5.75199397228e-05
6.8447782335e-05
2.3326445105e-05
-6.95788096955e-05
6.92402031964e-05
1.84361585632e-05
-7.57362725245e-05
6.95931556177e-05
1.22950003986e-05
-7.45157514692e-05
6.90250737587e-05
4.71986706889e-06
-6.42495940687e-05
6.6705149587e-05
-4.59905686868e-06
-4.51685356816e-05
6.36587278771e-05
-1.35570156866e-05
-1.92649099617e-05
5.96498054995e-05
-2.01341142333e-05
5.555446021e-05
-1.346720541e-05
2.0484307823e-05
4.49508793752e-05
-9.8710343782e-06
4.66917006873e-05
4.85540452979e-05
-1.50922437846e-05
6.52538446671e-05
5.25844595588e-05
-7.46243135833e-06
7.48968354411e-05
5.53477813482e-05
1.74727418455e-06
7.57011474082e-05
5.72484907927e-05
1.10101717445e-05
6.93272927698e-05
5.76031255291e-05
1.84080291673e-05
5.71666485254e-05
5.71264026885e-05
2.43198430901e-05
4.0389451176e-05
5.61590524893e-05
2.91064152777e-05
2.08287528271e-05
5.53219447059e-05
3.20282633707e-05
8.17639002573e-08
5.50024351568e-05
3.32000309776e-05
-2.06698507823e-05
5.49932320581e-05
3.32040221802e-05
-4.02440202454e-05
5.52950984502e-05
3.20408537047e-05
-5.70444499145e-05
5.6118730429e-05
2.91294799369e-05
-6.92304316705e-05
5.70824724466e-05
2.43437080727e-05
-7.56290721557e-05
5.75602401894e-05
1.843154852e-05
-7.4849755026e-05
5.72106086593e-05
1.1035138018e-05
-6.52255834506e-05
5.53149077606e-05
1.76605865158e-06
-4.66760909329e-05
5.2558121578e-05
-7.44889859901e-06
-2.04782792799e-05
4.85329655901e-05
-1.508098458e-05
4.49401976985e-05
-9.86402541394e-06
2.20387406506e-05
3.10755478075e-05
-8.16341752987e-06
4.82007417074e-05
3.36761433587e-05
-1.12841092223e-05
6.59336659907e-05
3.71888013517e-05
-2.33727711141e-06
7.48103006899e-05
3.94120713358e-05
7.05906408965e-06
7.5125518838e-05
4.07611822551e-05
1.61720799863e-05
6.85367988266e-05
4.08980821934e-05
2.3293754762e-05
5.62034564256e-05
4.03604571665e-05
2.90992817898e-05
3.95324413208e-05
3.95035259668e-05
3.332653785e-05
2.03004191158e-05
3.87422415355e-05
3.58117233091e-05
7.6528474112e-08
3.84789469857e-05
3.67473775375e-05
-2.01515144135e-05
3.84709435104e-05
3.67503300042e-05
-3.93960670592e-05
3.87182228783e-05
3.58214257539e-05
-5.60874077057e-05
3.94666179219e-05
3.33434487975e-05
-6.84457251309e-05
4.0318118399e-05
2.91226646758e-05
-7.50584576353e-05
4.08566665562e-05
2.33162967571e-05
-7.47668599234e-05
4.07232017172e-05
1.61957977344e-05
-6.59083307108e-05
3.9378260156e-05
7.07810564881e-06
-4.81876965376e-05
3.71597292614e-05
-2.32225503724e-06
-2.2034197433e-05
3.36521453032e-05
-1.12726922458e-05
3.1061439008e-05
-8.15544780431e-06
2.36606622146e-05
1.57055193218e-05
-8.29064396534e-06
4.9573487859e-05
1.70530744645e-05
-9.28976884095e-06
6.63915791768e-05
1.91057922472e-05
1.26490467953e-06
7.46099343554e-05
2.04147376054e-05
1.07789651835e-05
7.46261753451e-05
2.1148529033e-05
1.95963995492e-05
6.78465053953e-05
2.11455002561e-05
2.65322408338e-05
5.53727551934e-05
2.08170806618e-05
3.20171177639e-05
3.87760837855e-05
2.0293899901e-05
3.58062905116e-05
1.98178259378e-05
1.98104603964e-05
3.78900333549e-05
6.80217893819e-08
1.96367554069e-05
3.85919905911e-05
-1.96857085371e-05
1.96307088373e-05
3.85939595923e-05
-3.86560326562e-05
1.97916069783e-05
3.7896933659e-05
-5.52717179303e-05
2.026377812e-05
3.58185171912e-05
-6.77679024777e-05
2.0781087359e-05
3.20332057497e-05
-7.45702778104e-05
2.11087164381e-05
2.65503136628e-05
-7.45761485437e-05
2.11130582861e-05
1.9616000879e-05
-6.63753131383e-05
2.03823447836e-05
1.0795065982e-05
-4.95680981075e-05
1.90769521754e-05
1.27554803929e-06
-2.36604752216e-05
1.70285676466e-05
-9.28405926391e-06
1.56888585739e-05
-8.28790425093e-06
2.47730311974e-05
1.35799719196e-08
-9.08110388076e-06
5.04189345324e-05
3.30211089092e-08
-8.62586402273e-06
6.66758379242e-05
4.76368222168e-08
2.80123693316e-06
7.44953211053e-05
5.83479998052e-08
1.25368910554e-05
7.43665746725e-05
7.23668040943e-08
2.12048939502e-05
6.75122307628e-05
8.14293069289e-08
2.79184016564e-05
5.50528824585e-05
8.90235903299e-08
3.31873940917e-05
3.85141899537e-05
9.25676936602e-08
3.67400151626e-05
1.96463675412e-05
8.90268097841e-08
3.85892475199e-05
5.95695323711e-08
8.10607681073e-08
3.914248449e-05
-1.95311251785e-05
7.76037417527e-08
3.9143791343e-05
-3.84108086333e-05
7.73733636694e-08
3.85939078195e-05
-5.49678770801e-05
7.25268722425e-08
3.67483092279e-05
-6.7448655504e-05
6.3831266279e-08
3.31980225677e-05
-7.43247496115e-05
5.47125802671e-08
2.79300845776e-05
-7.44752325355e-05
4.57600346153e-08
2.12177667613e-05
-6.66729003502e-05
3.38095138843e-08
1.25461883432e-05
-5.04251638657e-05
2.56565118617e-08
2.80354466607e-06
-2.47787904243e-05
1.45482308626e-08
-8.63236844553e-06
9.28221400522e-11
-9.09003438851e-06
2.47661433137e-05
-1.56821508769e-05
-9.07042616661e-06
5.04030679942e-05
-1.69907071972e-05
-8.61321212429e-06
6.66556281071e-05
-1.90159310404e-05
2.81099106752e-06
7.44723404411e-05
-2.03040482916e-05
1.25456672204e-05
7.43420709125e-05
-2.10111145537e-05
2.12137350387e-05
6.74871825911e-05
-2.09903911638e-05
2.7926694635e-05
5.50295937277e-05
-2.0646808458e-05
3.3193408794e-05
3.84956042477e-05
-2.01168477065e-05
3.67433945207e-05
1.9634805091e-05
-1.96400229983e-05
3.85898397075e-05
5.45460487148e-08
-1.94800518905e-05
3.91413627959e-05
-1.95297190219e-05
-1.94806265624e-05
3.91424862459e-05
-3.84025678888e-05
-1.9643303763e-05
3.85935161987e-05
-5.49551042397e-05
-2.01242283021e-05
3.67492806886e-05
-6.74344087772e-05
-2.06570198687e-05
3.3200143537e-05
-7.43112152002e-05
-2.10016030935e-05
2.79331086576e-05
-7.44635518044e-05
-2.10224819878e-05
2.12205642526e-05
-6.66641379244e-05
-2.03134415176e-05
1.25478224739e-05
-5.04192863357e-05
-1.90231130672e-05
2.80390351095e-06
-2.47770222329e-05
-1.6995121902e-05
-8.63260841975e-06
-1.56839465388e-05
-9.09299260905e-06
2.36417895043e-05
-3.1059894927e-05
-8.26406057994e-06
4.95315194714e-05
-3.36239491939e-05
-9.25650503591e-06
6.6338430338e-05
-3.71128271165e-05
1.28996752885e-06
7.45496022008e-05
-3.93170326098e-05
1.0801795183e-05
7.45613696104e-05
-4.06425328166e-05
1.96196349864e-05
6.77787931383e-05
-4.07625563353e-05
2.65547279863e-05
5.53072439003e-05
-4.02097849179e-05
3.2034514495e-05
3.87214177682e-05
-3.93477758444e-05
3.58167452389e-05
1.97814192612e-05
-3.85932085294e-05
3.78931764056e-05
5.14874938057e-08
-3.83407445275e-05
3.85906173726e-05
-1.96821546075e-05
-3.83388416638e-05
3.85918500994e-05
-3.86333532698e-05
-3.85889704352e-05
3.78968576091e-05
-5.52369291706e-05
-3.93429611162e-05
3.58222998758e-05
-6.77296794938e-05
-4.02047841749e-05
3.20405042812e-05
-7.45339788422e-05
-4.07571310102e-05
2.65598153532e-05
-7.45442859063e-05
-4.06370203976e-05
1.96248322743e-05
-6.63508038625e-05
-3.93080363798e-05
1.08010989776e-05
-4.95513753884e-05
-3.71008749356e-05
1.27831945616e-06
-2.36549376462e-05
-3.36085911508e-05
-9.28298260192e-06
-3.10443179167e-05
-8.29457577217e-06
2.20127378009e-05
-4.49408343802e-05
-8.1318145804e-06
4.81460197355e-05
-4.85145956494e-05
-1.1242653433e-05
6.58633422396e-05
-5.25266610577e-05
-2.30350670195e-06
7.47301329776e-05
-5.52716759614e-05
7.08783546048e-06
7.50377013745e-05
-5.71526410427e-05
1.6202524747e-05
6.84440854179e-05
-5.74930144531e-05
2.33240618344e-05
5.61104894948e-05
-5.7004885184e-05
2.91286870898e-05
3.94523151403e-05
-5.60328893553e-05
3.33432814805e-05
2.02440940785e-05
-5.52030373315e-05
3.58180454144e-05
4.98861432323e-08
-5.48938668602e-05
3.67473267925e-05
-2.01470835926e-05
-5.48906496437e-05
3.67487743443e-05
-3.93642542522e-05
-5.51943766529e-05
3.58225728247e-05
-5.60383632242e-05
-5.60197415087e-05
3.33508838904e-05
-6.83923355066e-05
-5.69894261736e-05
2.91386068713e-05
-7.50071258351e-05
-5.74751947371e-05
2.33328444701e-05
-7.47213390273e-05
-5.71335608797e-05
1.62107422331e-05
-6.58720412078e-05
-5.52474113443e-05
7.09006454408e-06
-4.81620624819e-05
-5.24976553299e-05
-2.31321141672e-06
-2.20238063707e-05
-4.84810343472e-05
-1.12658263845e-05
-4.49089168032e-05
-8.15921652553e-06
2.04569754306e-05
-5.55559812606e-05
-9.84184556098e-06
4.66350588785e-05
-5.96403242143e-05
-1.50523733904e-05
6.51798774046e-05
-6.36406626856e-05
-7.43083522215e-06
7.48108942179e-05
-6.66783268243e-05
1.77561718072e-06
7.56058446071e-05
-6.8988154239e-05
1.10405485049e-05
6.92265910491e-05
-6.95509012113e-05
1.84371294318e-05
5.70665605589e-05
-6.91912805286e-05
2.43464185911e-05
4.03000333514e-05
-6.83931758988e-05
2.91268098434e-05
2.0763680006e-05
-6.77029726954e-05
3.20362872336e-05
5.03130064433e-08
-6.7380709598e-05
3.320020961e-05
-2.06650819211e-05
-6.73771270966e-05
3.32018725026e-05
-4.02084584929e-05
-6.76929326179e-05
3.20419318526e-05
-5.69902514203e-05
-6.83770943857e-05
2.91391433906e-05
-6.91695083311e-05
-6.91703746661e-05
2.43602004982e-05
-7.55691385619e-05
-6.95262102746e-05
1.84506381855e-05
-7.47957600813e-05
-6.89611524677e-05
1.10542031724e-05
-6.51812447279e-05
-6.66448262374e-05
1.78288808694e-06
-4.66437616554e-05
-6.36012599187e-05
-7.43389066626e-06
-2.04633448604e-05
-5.9595557345e-05
-1.50659064374e-05
-5.55132909714e-05
-9.85897908871e-06
1.92440427041e-05
-6.13527873534e-05
-1.34472541521e-05
4.51288597367e-05
-6.54154617175e-05
-2.01096984645e-05
6.42044664904e-05
-6.91750684572e-05
-1.35412196061e-05
7.44770017867e-05
-7.23595878281e-05
-4.5912913502e-06
7.57136690981e-05
-7.49466369624e-05
4.72180105197e-06
6.95762568395e-05
-7.5709925995e-05
1.22964261945e-05
5.75437861977e-05
-7.55931224767e-05
1.84343056519e-05
4.08418000849e-05
-7.50111730517e-05
2.33199799156e-05
2.10979752347e-05
-7.45142438457e-05
2.65550953962e-05
5.17155002852e-08
-7.42679771136e-05
2.79335282275e-05
-2.09963230076e-05
-7.42645844342e-05
2.79354971688e-05
-4.07466937833e-05
-7.45043164528e-05
2.65617550915e-05
-5.74625451234e-05
-7.49944732014e-05
2.33332286863e-05
-6.9513307435e-05
-7.55702873652e-05
1.84506709008e-05
-7.56703118112e-05
-7.56822287007e-05
1.23130158563e-05
-7.44545631321e-05
-7.49159810772e-05
4.73907061464e-06
-6.41977907876e-05
-7.23219303913e-05
-4.57967897677e-06
-4.5129940107e-05
-6.91319529136e-05
-1.35371690985e-05
-1.92455754415e-05
-6.53670926448e-05
-2.01128410818e-05
-6.13058850187e-05
-1.34529890297e-05
1.84905721457e-05
-6.15140998664e-05
-1.83292776353e-05
4.37881959715e-05
-6.4793606925e-05
-2.59194980937e-05
6.29334786343e-05
-6.78099921895e-05
-2.05103782946e-05
7.34863236383e-05
-7.08522742606e-05
-1.20601766909e-05
7.49455048918e-05
-7.35064826014e-05
-2.89935146062e-06
6.90076853263e-05
-7.44925247946e-05
4.72040568672e-06
5.71959063103e-05
-7.48177680472e-05
1.10364154963e-05
4.07121998111e-05
-7.47255559503e-05
1.61980837525e-05
2.11095361009e-05
-7.45289015586e-05
1.96173184866e-05
5.34158692485e-08
-7.44288960789e-05
2.12170378993e-05
-2.10042172304e-05
-7.44259763033e-05
2.12190241237e-05
-4.06132629668e-05
-7.45196311918e-05
1.96243589027e-05
-5.71093548973e-05
-7.47093113498e-05
1.62109268078e-05
-6.893831023e-05
-7.4795010292e-05
1.1053672671e-05
-7.48949055856e-05
-7.44638188656e-05
4.73817759415e-06
-7.34561877444e-05
-7.34745598274e-05
-2.88014882697e-06
-6.29189656385e-05
-7.08137784915e-05
-1.20453846536e-05
-4.37826787207e-05
-6.77670373591e-05
-2.05012132946e-05
-1.84886275051e-05
-6.47472117888e-05
-2.59139428258e-05
-6.14691125614e-05
-1.83254067704e-05
1.7705704115e-05
-5.38561666242e-05
-2.53636558159e-05
4.17873384948e-05
-5.57391138599e-05
-3.31361476294e-05
6.03845824624e-05
-5.78618910076e-05
-2.8545365695e-05
7.08264531929e-05
-6.0420908806e-05
-2.08732561621e-05
7.23521002977e-05
-6.29640777543e-05
-1.20680704424e-05
6.66905342045e-05
-6.42306447548e-05
-4.60033009508e-06
5.53061497511e-05
-6.5198086915e-05
1.76469004799e-06
3.93765512816e-05
-6.58719256642e-05
7.0759577986e-06
2.03907951301e-05
-6.63335099185e-05
1.07903565254e-05
5.57552778418e-08
-6.66319628271e-05
1.25381001864e-05
-2.02801251707e-05
-6.66298116205e-05
1.25397099677e-05
-3.92708424894e-05
-6.63259993269e-05
1.07970793422e-05
-5.52125192826e-05
-6.58573181562e-05
7.08967641626e-06
-6.66139215753e-05
-6.51765100053e-05
1.78289338069e-06
-7.22941874335e-05
-6.42030720648e-05
-4.580490901e-06
-7.07891046356e-05
-6.29340718812e-05
-1.20455814938e-05
-6.0363104884e-05
-6.0385939094e-05
-2.08538499353e-05
-4.17755208149e-05
-5.78240569431e-05
-2.85305747569e-05
-1.76999135173e-05
-5.56996861095e-05
-3.31231426891e-05
-5.38175964934e-05
-2.53514355038e-05
1.76426877938e-05
-3.93585245671e-05
-3.21403490861e-05
4.02296175839e-05
-3.94615186418e-05
-3.88645462136e-05
5.78254134967e-05
-4.02666602945e-05
-3.51910487622e-05
6.77844134092e-05
-4.18234274711e-05
-2.85565035961e-05
6.91673964065e-05
-4.38184697049e-05
-2.05286128005e-05
6.36516528065e-05
-4.51551808263e-05
-1.35597406731e-05
5.25580244058e-05
-4.66543842151e-05
-7.45009264929e-06
3.71672825096e-05
-4.81569340029e-05
-2.32426589888e-06
1.90949595966e-05
-4.95314152226e-05
1.27021409645e-06
5.76112923671e-08
-5.03880699262e-05
2.79344280129e-06
-1.89801127085e-05
-5.03864663401e-05
2.79436700605e-06
-3.70562648102e-05
-4.95255162222e-05
1.27565754569e-06
-5.24587258264e-05
-4.81451589151e-05
-2.30970987524e-06
-6.35691839869e-05
-4.66364080784e-05
-7.42965577595e-06
-6.91037996736e-05
-4.51321818744e-05
-1.35362866683e-05
-6.77419096128e-05
-4.37942564865e-05
-2.05017173058e-05
-5.77995415668e-05
-4.17959864177e-05
-2.85323316708e-05
-4.0214452248e-05
-4.02380868911e-05
-3.51710690849e-05
-1.76353441226e-05
-3.94326421666e-05
-3.88461607337e-05
-3.93309311391e-05
-3.21220146357e-05
1.83416901654e-05
-1.9752663698e-05
-3.79475720897e-05
3.94257164828e-05
-1.83670688236e-05
-4.21784989295e-05
5.57041282763e-05
-1.76678149915e-05
-3.88772811784e-05
6.47688005859e-05
-1.77291222337e-05
-3.31590023844e-05
6.5406470956e-05
-1.85084569031e-05
-2.59477080219e-05
5.96474311341e-05
-1.92590483254e-05
-2.01371167648e-05
4.85392964946e-05
-2.0467104048e-05
-1.50791682184e-05
3.36676442048e-05
-2.20168010042e-05
-1.12685016243e-05
1.7056629468e-05
-2.36385350821e-05
-9.28188451993e-06
5.96636264833e-08
-2.47550061592e-05
-8.63611548634e-06
-1.69371941584e-05
-2.47543640002e-05
-8.63526094109e-06
-3.35511410649e-05
-2.36357110969e-05
-9.27587381309e-06
-4.84335740627e-05
-2.20105951837e-05
-1.12521457881e-05
-5.95589865801e-05
-2.0457521654e-05
-1.50534884306e-05
-6.53373124387e-05
-1.92469224514e-05
-2.01069473118e-05
-6.4721725315e-05
-1.84959183662e-05
-2.59139378192e-05
-5.56752610146e-05
-1.77151667681e-05
-3.31272949149e-05
-3.94085273306e-05
-1.76537077952e-05
-3.88511219801e-05
-1.83336653317e-05
-1.83532308744e-05
-4.21542812531e-05
-1.97398533862e-05
-3.79247475822e-05
1.97298956902e-05
-3.94825742416e-05
3.93265377684e-05
-3.79637266249e-05
5.38231783507e-05
-3.21644721151e-05
6.14835622593e-05
-2.5389523155e-05
6.13319867763e-05
-1.83568984044e-05
5.55455278958e-05
-1.34726059139e-05
4.49425824538e-05
-9.86417417031e-06
3.1078267048e-05
-8.15250003452e-06
1.5725764182e-05
-8.28604551806e-06
6.19443251038e-08
-9.09119860987e-06
-1.56017389138e-05
-9.09069227572e-06
-3.09569251746e-05
-8.28053573441e-06
-4.48311375181e-05
-8.13639320124e-06
-5.54507961493e-05
-9.83787277681e-06
-6.12569138514e-05
-1.34408137077e-05
-6.14300986326e-05
-1.83227415071e-05
-5.37885477152e-05
-2.53567243453e-05
-3.93057740625e-05
-3.21364869408e-05
-1.97203470371e-05
-3.79386624636e-05
-3.94602020787e-05
2.2654687518e-05
2.26569756781e-05
-8.48409121415e-05
4.1144761979e-05
2.5184630094e-05
-8.16711979322e-05
5.19461241076e-05
2.93143901245e-05
-7.22993558911e-05
5.50428569852e-05
3.37485633177e-05
-6.22473106639e-05
5.26214148381e-05
3.7227817607e-05
-5.31726515326e-05
4.50419829441e-05
3.97569087874e-05
-4.56578829888e-05
3.43065142247e-05
4.1635436012e-05
-4.07666465913e-05
2.23843747109e-05
4.33077982375e-05
-3.95289010643e-05
1.08584208231e-05
4.4738249308e-05
-4.14748270539e-05
7.58383916952e-08
4.55610819641e-05
-4.38354524233e-05
-1.07116082165e-05
4.55557977129e-05
-4.38178496563e-05
-2.22522897338e-05
4.47230927148e-05
-4.14246029681e-05
-3.41971058398e-05
4.32844592643e-05
-3.94488534435e-05
-4.49589129826e-05
4.1608027094e-05
-4.06705950248e-05
-5.25636029198e-05
3.97295816199e-05
-4.55632834985e-05
-5.50040011149e-05
3.72031722645e-05
-5.30898470678e-05
-5.19214862128e-05
3.37289870255e-05
-6.21827445791e-05
-4.11333053608e-05
2.92980707414e-05
-7.22469976977e-05
-2.26528402559e-05
2.51697074358e-05
-8.16280954138e-05
2.26404614563e-05
-8.48090643088e-05
2.5191698733e-05
4.11318316293e-05
-8.16497134027e-05
4.4067531894e-05
4.404928291e-05
-7.99450269139e-05
5.48090847731e-05
5.01629713597e-05
-7.04854122623e-05
5.82147177796e-05
5.68340671002e-05
-5.96653525316e-05
5.60568091096e-05
6.23088984023e-05
-4.88859009751e-05
4.86886185739e-05
6.61720448029e-05
-3.91995698002e-05
3.78751199317e-05
6.87519620997e-05
-3.1394296845e-05
2.53935857182e-05
7.04566089043e-05
-2.59364867118e-05
1.26257638455e-05
7.15612339815e-05
-2.33206676643e-05
8.01738305751e-08
7.21648364037e-05
-2.26624500438e-05
-1.24700330884e-05
7.21557666756e-05
-2.26451068686e-05
-2.52508602618e-05
7.15356941386e-05
-2.32717187048e-05
-3.77534075964e-05
7.04177348961e-05
-2.58601218847e-05
-4.85935939208e-05
6.8707491654e-05
-3.13044163036e-05
-5.59883025396e-05
6.61282216706e-05
-3.91126520325e-05
-5.81670365186e-05
6.22703997928e-05
-4.88108693324e-05
-5.47786468317e-05
5.68032579677e-05
-5.96060809929e-05
-4.40502364416e-05
5.01374104576e-05
-7.04422929284e-05
-2.51839962305e-05
4.40265450293e-05
-7.99131407176e-05
4.11113642574e-05
-8.16325315023e-05
2.93237521042e-05
5.19143063216e-05
-7.2272597637e-05
5.01815984899e-05
5.47772322198e-05
-7.04745701511e-05
6.15230940524e-05
6.14937085628e-05
-5.78832311439e-05
6.51412801706e-05
6.87704586261e-05
-4.41294842942e-05
6.31407182055e-05
7.43848737112e-05
-3.06225329042e-05
5.59729239308e-05
7.79147832669e-05
-1.815209456e-05
4.48219917977e-05
7.96866125765e-05
-7.24771808559e-06
3.09645683705e-05
8.04158417435e-05
1.56886806359e-06
1.58424337661e-05
8.07416866261e-05
7.22197486922e-06
8.24282655525e-08
8.08213788195e-05
9.92124655801e-06
-1.56823353177e-05
8.0810429367e-05
9.93543480232e-06
-3.08183101468e-05
8.07111712801e-05
7.26245183702e-06
-4.46944821685e-05
8.03717122542e-05
1.62806083545e-06
-5.58722690057e-05
7.96350093751e-05
-7.17613241266e-06
-6.30664253744e-05
7.78644360239e-05
-1.80834872672e-05
-6.50882809019e-05
7.43419855674e-05
-3.05624929146e-05
-6.14884016847e-05
6.87364369849e-05
-4.40830637548e-05
-5.01614497884e-05
6.14660718656e-05
-5.78506417975e-05
-2.93140675212e-05
5.47531071358e-05
-7.04534189943e-05
5.18949435342e-05
-7.22644096711e-05
3.37589871304e-05
5.49935872058e-05
-6.2221878604e-05
5.68533105635e-05
5.81658882456e-05
-5.96433706422e-05
6.87971161669e-05
6.51003026015e-05
-4.41185602402e-05
7.22021665539e-05
7.21681139207e-05
-2.76988076746e-05
6.97366352642e-05
7.71259496532e-05
-1.2366177436e-05
6.19098055127e-05
7.97479138152e-05
1.37307606209e-06
5.0009565867e-05
8.06221567046e-05
1.27119085401e-05
3.50493221187e-05
8.04095367271e-05
2.20326295449e-05
1.80936073977e-05
7.99243811963e-05
2.85665933722e-05
8.3808845263e-08
7.95768678086e-05
3.18077266048e-05
-1.79305958295e-05
7.95654253724e-05
3.18192860803e-05
-3.48991829832e-05
7.98925173636e-05
2.85999053188e-05
-4.9878811153e-05
8.03636014624e-05
2.20823002879e-05
-6.18039916423e-05
8.05705642068e-05
1.27679191566e-05
-6.9656675536e-05
7.96988604951e-05
1.42677989751e-06
-7.21447956513e-05
7.70835294871e-05
-1.23147572959e-05
-6.87591569823e-05
7.21346595783e-05
-2.76587872329e-05
-5.68304501574e-05
6.50744601659e-05
-4.40931079941e-05
-3.37475050858e-05
5.81459879265e-05
-5.96311905679e-05
5.4977396971e-05
-6.22151275716e-05
3.72390543576e-05
5.25511175307e-05
-5.31457824824e-05
6.2329269973e-05
5.59899151958e-05
-4.88605138227e-05
7.44107131573e-05
6.3087318893e-05
-3.06046991683e-05
7.71565070097e-05
6.96948356507e-05
-1.23586861537e-05
7.3795994506e-05
7.37607479193e-05
3.79969428755e-06
6.5331000343e-05
7.56729167685e-05
1.7235273488e-05
5.27595963131e-05
7.58688965942e-05
2.83378123788e-05
3.7108231557e-05
7.50501798093e-05
3.71920210391e-05
1.91995446353e-05
7.40501047555e-05
4.33948970514e-05
8.41100385358e-08
7.3469798145e-05
4.6444823436e-05
-1.90360620749e-05
7.34588302829e-05
4.6454796379e-05
-3.69578297869e-05
7.40194259618e-05
4.3423722707e-05
-5.26284426936e-05
7.50060500337e-05
3.72349269811e-05
-6.52233048743e-05
7.58202223683e-05
2.83863463642e-05
-7.37142789872e-05
7.56268407775e-05
1.72842146077e-05
-7.70965712122e-05
7.37217177176e-05
3.84477059564e-06
-7.43712525046e-05
6.96638014142e-05
-1.23215022559e-05
-6.23054675678e-05
6.30656692782e-05
-3.05819011113e-05
-3.72262821436e-05
5.59759771695e-05
-4.88501781112e-05
5.25418845667e-05
-5.31393212058e-05
3.9772862226e-05
4.49539377699e-05
-4.56466024764e-05
6.61981231977e-05
4.86060291855e-05
-3.91839371341e-05
7.79443117836e-05
5.59078058615e-05
-1.81359465841e-05
7.97795732523e-05
6.18607637192e-05
1.38130747785e-06
7.57063824991e-05
6.52911969205e-05
1.72372785463e-05
6.66573558784e-05
6.66220674579e-05
3.03707030311e-05
5.36554226915e-05
6.64154332191e-05
4.08659352093e-05
3.77257808148e-05
6.54241664222e-05
4.88584589008e-05
1.9562039567e-05
6.44097451185e-05
5.43522787552e-05
8.35898119688e-08
6.38203361697e-05
5.70635429701e-05
-1.939989066e-05
6.38102467333e-05
5.70727762484e-05
-3.75776314724e-05
6.43814881726e-05
5.43790792116e-05
-5.35254442337e-05
6.53837776526e-05
4.88965281566e-05
-6.65500302546e-05
6.6370910906e-05
4.09100514216e-05
-7.56243144136e-05
6.65798717477e-05
3.0416246383e-05
-7.97193791834e-05
6.52555575912e-05
1.72810825925e-05
-7.79040146139e-05
6.18329953908e-05
1.41637388538e-06
-6.61739487115e-05
5.58897491743e-05
-1.81111727345e-05
-3.97590440664e-05
4.85955080801e-05
-3.91685610982e-05
4.49477816351e-05
-4.5632153679e-05
4.16599354065e-05
3.42109427683e-05
-4.0787982923e-05
6.87874170035e-05
3.77877531606e-05
-3.14014588486e-05
7.97247503008e-05
4.47522469416e-05
-7.24421602973e-06
8.06599980421e-05
4.99576802301e-05
1.27150995665e-05
7.59058864836e-05
5.27189205395e-05
2.83365503218e-05
6.64513578947e-05
5.36214474942e-05
4.08631703065e-05
5.33313611377e-05
5.32994696725e-05
5.05557984309e-05
3.75310071706e-05
5.2568398231e-05
5.77625346072e-05
1.94430044828e-05
5.1718672403e-05
6.28073373162e-05
8.20877576393e-08
5.12225281662e-05
6.51587547177e-05
-1.92841104715e-05
5.12134148455e-05
6.51670509048e-05
-3.73870996831e-05
5.16935061773e-05
6.283182236e-05
-5.32049205075e-05
5.25335019701e-05
5.77975719936e-05
-6.63470214993e-05
5.32595463586e-05
5.0597166855e-05
-7.58259662268e-05
5.35833708581e-05
4.09069850175e-05
-8.0601614386e-05
5.2686441964e-05
2.83798908233e-05
-7.96866488884e-05
4.99318058755e-05
1.27522706244e-05
-6.87654993299e-05
4.47346073465e-05
-7.2149186323e-06
-4.16465674114e-05
3.77765411955e-05
-3.13809617888e-05
3.42034796125e-05
-4.0766298604e-05
4.33429672967e-05
2.22963761797e-05
-3.95918281273e-05
7.05036112976e-05
2.53134832331e-05
-2.59704946853e-05
8.04649966044e-05
3.08988804982e-05
1.55469170059e-06
8.04573321846e-05
3.50001327695e-05
2.20242634371e-05
7.50949103947e-05
3.70706926702e-05
3.71827178713e-05