/*--------------------------------*- C++ -*----------------------------------*\
| =========                 |                                                 |
| \\      /  F ield         | OpenFOAM: The Open Source CFD Toolbox           |
|  \\    /   O peration     | Version:  3.0.1                                 |
|   \\  /    A nd           | Web:      www.OpenFOAM.org                      |
|    \\/     M anipulation  |                                                 |
\*---------------------------------------------------------------------------*/
FoamFile
{
    version     2.0;
    format      ascii;
    class       volVectorField;
    location    "9.5";
    object      U;
}
// * * * * * * * * * * * * * * * * * * * * * * * * * * * * * * * * * * * * * //

dimensions      [0 1 -1 0 0 0 0];

internalField   nonuniform List<vector> 
7968
(
(0.00417219559806 0.00417644630299 -0.00638050926263)
(0.0119082867399 0.00349023857504 -0.00618451914993)
(0.0189835297895 0.00301546487273 -0.00493091376286)
(0.0237110084573 0.00269629653359 -0.00353767656547)
(0.0251519620079 0.00263401688858 -0.00141243478336)
(0.0239702194113 0.00271610699902 -0.000667863654129)
(0.020682341054 0.00304172491429 2.68960047905e-05)
(0.0156009701793 0.00360759090236 0.000361284919655)
(0.00951532341053 0.00427204220591 0.000318531487959)
(0.00318058720085 0.00473460849221 0.000162786908529)
(-0.00312123847797 0.00473495877204 0.000163538197016)
(-0.00945970756697 0.00427266734478 0.000320819004129)
(-0.015552801897 0.00360720537612 0.000365543890703)
(-0.0206452108328 0.00303992052969 3.26532141807e-05)
(-0.0239449432751 0.00271351055395 -0.000662193547243)
(-0.0251339550038 0.0026312188162 -0.00140681856922)
(-0.0237039046986 0.00269327236539 -0.00353296180036)
(-0.0189797377425 0.00301264546365 -0.00492816744397)
(-0.0119078401743 0.00348715414666 -0.00618265963245)
(-0.00417260886756 0.00417300393657 -0.00637958491354)
(0.0034870945211 0.0119130554332 -0.00618162867661)
(0.0116209752615 0.011624572055 -0.00927935102635)
(0.0193915506592 0.0115994555831 -0.00943560995316)
(0.0247390133034 0.011957606232 -0.00852053541464)
(0.0267311674217 0.0125894284447 -0.0063678825601)
(0.0255935366613 0.013052754596 -0.00507121735139)
(0.0222738367754 0.0136527555853 -0.00373270021605)
(0.0168969294781 0.0142956798882 -0.00261274622017)
(0.0103134942108 0.0149112633604 -0.00196822417132)
(0.00344461535477 0.0153179103142 -0.00178270851486)
(-0.00338066849552 0.015315906455 -0.00178061812819)
(-0.0102528665021 0.0149055367634 -0.00196201531709)
(-0.0168442828155 0.0142869051165 -0.00260314089658)
(-0.0222334232093 0.0136422042232 -0.0037220939172)
(-0.0255653007102 0.0130418818498 -0.00506155561006)
(-0.0267109655128 0.0125796672448 -0.00635802047333)
(-0.024730837353 0.0119488068279 -0.00851381770674)
(-0.01938715784 0.0115915452371 -0.00943182832514)
(-0.0116202889024 0.0116169224232 -0.00927720623124)
(-0.00348755072395 0.0119060021623 -0.00618181890015)
(0.00301297754327 0.0189844883125 -0.00492726357206)
(0.0115966695624 0.0193913733353 -0.00943403276765)
(0.020035894995 0.0200351831843 -0.00972294390324)
(0.0257489573102 0.0208995377435 -0.008592890909)
(0.028148638634 0.0218668509308 -0.00631048603945)
(0.0271293754145 0.022440180381 -0.00460118431907)
(0.0239065302775 0.0229557206895 -0.00299311525637)
(0.0184908110082 0.0234175429763 -0.00154155415611)
(0.0115224692568 0.0238163654379 -0.000585533374795)
(0.00389896413612 0.0240581498317 -0.000176777916997)
(-0.00383163048213 0.0240550490869 -0.00017477114636)
(-0.0114592767726 0.0238077248319 -0.000579591615503)
(-0.0184367284758 0.0234047101971 -0.00153289326377)
(-0.0238649988881 0.0229405240612 -0.00298375630454)
(-0.0270995359494 0.0224246018882 -0.00459287685015)
(-0.0281274713641 0.0218534039721 -0.00630090903205)
(-0.0257395876689 0.0208874293997 -0.00858709082159)
(-0.0200309671504 0.0200246281595 -0.0097197183158)
(-0.0115957346103 0.0193816597367 -0.00943262872283)
(-0.00301365048578 0.0189765032677 -0.0049285935505)
(0.00269446671955 0.0237085368031 -0.00353387547442)
(0.0119560516139 0.024734803061 -0.0085166164159)
(0.0209008157917 0.0257445168258 -0.00859092285496)
(0.0269035506939 0.0268989709435 -0.00715673526909)
(0.0294390093682 0.0279743922518 -0.00465449653383)
(0.0283913506273 0.0284553212314 -0.00276392624786)
(0.0250900047772 0.0287438237518 -0.00115339255581)
(0.019544308302 0.0288807713014 0.000226565919482)
(0.0122919630429 0.0289384227264 0.00117991806469)
(0.00419212465596 0.0289772625029 0.00159271022708)
(-0.00412387044393 0.0289736662213 0.00159432450739)
(-0.0122281094988 0.0289283229224 0.0011849113731)
(-0.019489461026 0.0288657737387 0.000234124562071)
(-0.0250471113762 0.028726343729 -0.00114548155721)
(-0.0283597277262 0.0284376310771 -0.00275709909096)
(-0.0294163054606 0.0279590805156 -0.00464577512422)
(-0.0268926909752 0.0268857015361 -0.00715178660924)
(-0.0208949045203 0.0257332965232 -0.00858841670311)
(-0.0119539921244 0.0247251175938 -0.00851609617401)
(-0.00269472653959 0.0237015822719 -0.00353556646094)
(0.00263410693672 0.0251405293718 -0.00140922147783)
(0.0125900251731 0.0267169188632 -0.00636295148058)
(0.0218700376698 0.0281357614665 -0.00630699493801)
(0.0279801351552 0.0294276462401 -0.00465297188354)
(0.0305564825275 0.0305451780634 -0.00204655511106)
(0.0294292798857 0.0309606221552 -4.01341301098e-05)
(0.0259584999611 0.031020022545 0.00170268463521)
(0.0201841328108 0.0308723806505 0.00316007310711)
(0.0127216272378 0.0306965119283 0.00393780642053)
(0.00434973707424 0.0306013421779 0.00425998374509)
(-0.00428118041711 0.0305973739136 0.00426142476154)
(-0.0126574825755 0.0306854157206 0.0039423351458)
(-0.0201286886018 0.0308561580246 0.00316731162527)
(-0.0259145502888 0.0310015661598 0.00171075938265)
(-0.0293966578496 0.0309423766137 -3.36315600124e-05)
(-0.0305328797132 0.030529833851 -0.00203835521778)
(-0.0279678899213 0.0294140475118 -0.00464826453175)
(-0.0218629009849 0.0281250334282 -0.00630438657953)
(-0.0125866726604 0.0267085389716 -0.00636193375549)
(-0.00263401395289 0.0251355720755 -0.00141038208521)
(0.00271738365721 0.0239540746714 -0.000666033492034)
(0.0130551414513 0.0255737973208 -0.00506818553507)
(0.02244536306 0.0271113106059 -0.00459924449061)
(0.028462531747 0.0283756230148 -0.00276365289848)
(0.0309724244219 0.0294144655536 -4.11172477999e-05)
(0.0297376100911 0.029723024586 0.00205696771905)
(0.026148984286 0.0296541310228 0.00388482063259)
(0.0202688213207 0.0293901184596 0.00545819684938)
(0.0127264926698 0.0291585014684 0.0063144385946)
(0.004342458991 0.0290466266262 0.00652363488311)
(-0.00427470119548 0.0290426732446 0.00652465497694)
(-0.0126630496909 0.0291474464115 0.00631787493018)
(-0.0202135609365 0.0293739297737 0.00546613411147)
(-0.02610489655 0.0296358438782 0.00389278090516)
(-0.0297044194515 0.0297052108457 0.00206346802889)
(-0.0309479176056 0.0293993854064 -3.3208981134e-05)
(-0.0284494402933 0.0283624791069 -0.00275931098089)
(-0.0224372564504 0.0271012060558 -0.00459639424493)
(-0.0130511650167 0.0255660970405 -0.0050662092047)
(-0.00271712067544 0.0239500299021 -0.000666760416236)
(0.00304532258897 0.0206605199377 2.71514017476e-05)
(0.0136590274667 0.0222483850852 -0.00373179092177)
(0.0229651684488 0.0238834121316 -0.00299237314337)
(0.0287546685726 0.0250701449539 -0.00115392722931)
(0.0310341869449 0.0259406371033 0.00170111658275)
(0.0296701574686 0.026132167717 0.0038838427958)
(0.0259840958511 0.0259669479797 0.00577115110413)
(0.0200500948184 0.0255923910449 0.00747550888464)
(0.012546812045 0.0253022914433 0.00806822365408)
(0.00426316898601 0.0251809096201 0.00817874075359)
(-0.00419728958841 0.0251770961845 0.00817913953677)
(-0.0124847009394 0.0252914115963 0.00807010152777)
(-0.0199957492055 0.0255760772511 0.00748396729949)
(-0.0259406773539 0.0259491333556 0.00577884288389)
(-0.029637184623 0.0261148325624 0.00389070080962)
(-0.0310096830478 0.0259256042193 0.00170912293482)
(-0.0287413873825 0.0250573157623 -0.00114943410529)
(-0.0229566206161 0.0238734493348 -0.00298911927229)
(-0.0136545996421 0.0222406977004 -0.00372909459471)
(-0.00304497750859 0.0206568613809 2.67369145455e-05)
(0.00361373193771 0.0155769548372 0.000360268613698)
(0.0143067672745 0.0168700245836 -0.00261480587335)
(0.0234323002398 0.0184660522641 -0.00154341771072)
(0.0288966460028 0.0195230226797 0.000224005723424)
(0.0308905097624 0.0201661241464 0.00315587545255)
(0.0294094060776 0.0202525290973 0.00545446506389)
(0.0256117974734 0.0200350332174 0.00747237632141)
(0.0197039891855 0.0196878352035 0.0085281143977)
(0.0122465894375 0.019362681665 0.0088884998983)
(0.00412803477702 0.0192417830419 0.00893232916033)
(-0.0040664570396 0.0192382264756 0.00893245099984)
(-0.0121881228469 0.0193522168414 0.00888919598207)
(-0.0196528969714 0.0196722157422 0.00853091785584)
(-0.0255705430285 0.0200175168878 0.00748052000164)
(-0.0293785403372 0.0202354717659 0.00546133575468)
(-0.0308677146303 0.0201508650692 0.00316290119433)
(-0.0288846648966 0.0195096706865 0.000228767600356)
(-0.0234248959843 0.0184550445375 -0.00153982122325)
(-0.014303158612 0.0168610907375 -0.00261172245815)
(-0.00361382814497 0.0155722577744 0.00036004755144)
(0.00427907477565 0.00949211282447 0.000318447372251)
(0.0149258870126 0.0102902493405 -0.00197212650528)
(0.0238351493649 0.0115011487422 -0.000589834962177)
(0.0289585041074 0.0122739113945 0.00117512323462)
(0.030718596391 0.0127074490952 0.00393251933653)
(0.0291812236624 0.0127148119192 0.00631040882917)
(0.0253245270677 0.0125376882959 0.00806714102542)
(0.0193812496473 0.0122386811376 0.0088885187441)
(0.0119653636471 0.011956021715 0.00912157023574)
(0.00400539727489 0.0118593692281 0.00911084168258)
(-0.00395070803456 0.011856432276 0.00911089132606)
(-0.0119136372823 0.0119470161999 0.00912199804013)
(-0.0193363204468 0.0122246350174 0.00888985961521)
(-0.0252889187462 0.0125214414758 0.00807007225837)
(-0.0291550034282 0.0126986053147 0.0063145768148)
(-0.0306999706695 0.0126920559911 0.00393788434389)
(-0.0289501700167 0.0122599920024 0.00117907269301)
(-0.0238312209597 0.0114889301711 -0.000586986815122)
(-0.0149248972132 0.0102799863312 -0.00197008565506)
(-0.00427999223053 0.00948560510835 0.000318163290843)
(0.004741039546 0.00315743169683 0.000164334996914)
(0.0153323614583 0.0034252232497 -0.00178580115899)
(0.0240767773423 0.00388273746654 -0.00018094289247)
(0.0289974366253 0.00417946310244 0.00158771054771)
(0.0306235130994 0.0043420374959 0.00425477772577)
(0.0290693407122 0.00433833695492 0.00652026648518)
(0.0252029314312 0.00426264780148 0.00817820969816)
(0.0192603980276 0.00413055409885 0.00893270714324)
(0.0118695965346 0.0040086938269 0.00911116725446)
(0.00396040375359 0.00396284998879 0.00906206160792)
(-0.00391249111282 0.00396084799354 0.00906210609284)
(-0.0118247320507 0.00400226273795 0.00911154242262)
(-0.019222074091 0.0041198881844 0.00893379675863)
(-0.0251734299274 0.00424948150242 0.008180182187)
(-0.0290488639576 0.00432455917982 0.00652284156701)
(-0.0306104456216 0.00432845862086 0.00425792886709)
(-0.0289945190101 0.0041668947388 0.00158954650393)
(-0.0240780612965 0.00387137983188 -0.000180738381689)
(-0.0153352991335 0.00341557707885 -0.00178660053356)
(-0.00474271802019 0.00315048622335 0.000163529732075)
(0.00474085481877 -0.00314648206837 0.000163756883527)
(0.0153272044207 -0.003398480394 -0.00178306810452)
(0.0240693900015 -0.00384412611779 -0.000178216317343)
(0.0289889213098 -0.00413213658275 0.00159029338539)
(0.030613803905 -0.00428339953383 0.00425738249709)
(0.0290594041874 -0.00427238712963 0.0065219746711)
(0.0251930940034 -0.00419059437028 0.0081786545578)
(0.0192515256547 -0.00405584548231 0.00893262983304)
(0.0118632930684 -0.00393702348893 0.0091108663908)
(0.00395724880757 -0.00389770463174 0.00906166354416)
(-0.00391336339507 -0.00389855636626 0.00906172056961)
(-0.0118225916813 -0.00394016687918 0.00911118083377)
(-0.0192174217848 -0.00406161470208 0.00893341278344)
(-0.0251678064221 -0.0041980856824 0.0081799219612)
(-0.0290432374295 -0.00428052813234 0.00652316474037)
(-0.0306051999153 -0.00429168324658 0.00425862070131)
(-0.0289906014773 -0.00413981912632 0.00158989536174)
(-0.0240751746563 -0.00385095814425 -0.000181055951735)
(-0.0153335055789 -0.00340406408789 -0.00178719632695)
(-0.00474320517169 -0.00315041778402 0.000161692031951)
(0.00427800901691 -0.00948429698262 0.000317210491005)
(0.0149121755598 -0.0102667073129 -0.00196501956827)
(0.0238157025494 -0.0114671273633 -0.000582879946578)
(0.0289361944908 -0.0122317627051 0.00118175898229)
(0.0306930111906 -0.0126552083831 0.00393964776571)
(0.0291547129737 -0.0126557618143 0.00631584247643)
(0.0252975237862 -0.0124723360169 0.00806953729949)
(0.0193558943941 -0.0121704573596 0.00888881730953)
(0.0119461083587 -0.011890393446 0.00912112596505)
(0.00399487414939 -0.0117984793089 0.00911021473713)
(-0.00395347134263 -0.0117980923637 0.00911024159376)
(-0.0119076242485 -0.0118898741912 0.00912123521846)
(-0.0193236019537 -0.0121705436863 0.00888912413915)
(-0.025273774765 -0.01247294546 0.00807014493023)
(-0.0291399487034 -0.0126565297482 0.00631607931053)
(-0.0306858204713 -0.0126560098542 0.003940176715)
(-0.0289392866152 -0.0122316905989 0.00118058241606)
(-0.0238230459244 -0.0114661828514 -0.000587120518248)
(-0.0149197596799 -0.0102647137219 -0.00197102371205)
(-0.00428092464516 -0.00948178245488 0.000313777402659)
(0.00361104629008 -0.0155724046103 0.000359365343638)
(0.0142889192288 -0.0168518836011 -0.00260622120573)
(0.0234068057187 -0.0184395282615 -0.00153541431127)
(0.0288671537314 -0.0194889071567 0.000232066511222)
(0.0308562630015 -0.0201231904978 0.00316591966205)
(0.0293732546388 -0.0202031626893 0.00546574295277)
(0.0255738566448 -0.0199801181184 0.00748434175613)
(0.0196678714502 -0.0196311740131 0.00853095117312)
(0.0122176303186 -0.0193084674114 0.00888909171277)
(0.00411091987351 -0.0191915084526 0.00893260858886)
(-0.00407084129631 -0.0191903236137 0.00893252940629)
(-0.0121796051979 -0.0193054263369 0.00888893510675)
(-0.0196352157528 -0.0196270215001 0.00853144832166)
(-0.0255490698981 -0.0199753078586 0.00748693059648)
(-0.0293573713003 -0.0201977380442 0.00546735897948)
(-0.0308477343325 -0.0201176033083 0.00316697296891)
(-0.0288687379485 -0.0194813701482 0.000232065250744)
(-0.0234125131587 -0.0184304305202 -0.00153834859459)
(-0.014295118184 -0.0168412499088 -0.00261132876175)
(-0.00361380766475 -0.0155623091169 0.000355502914421)
(0.00304152719336 -0.0206572467272 2.67974115781e-05)
(0.0136409044979 -0.022235385001 -0.00372405466689)
(0.0229385637449 -0.0238640106821 -0.0029849644771)
(0.0287232361991 -0.0250438975658 -0.00114638906041)
(0.0309972552396 -0.0259073191794 0.00171102253137)
(0.0296309105672 -0.0260936476226 0.003893663573)
(0.0259433010192 -0.0259246104084 0.00578061146814)
(0.0200105109057 -0.025548690536 0.00748314790955)
(0.0125140273224 -0.0252617247686 0.00807106819458)
(0.00424280947639 -0.0251445458703 0.00818064459877)
(-0.00420238531496 -0.0251431233225 0.00818048401612)
(-0.0124751226106 -0.0252578083863 0.00807098926041)
(-0.0199761114661 -0.0255423506811 0.00748737649181)
(-0.0259166509376 -0.0259168022909 0.00578493462834)
(-0.0296126907834 -0.0260844986521 0.00389748513097)
(-0.0309863327033 -0.0258973026966 0.0017154659266)
(-0.0287219925128 -0.0250315784103 -0.00114471726405)
(-0.0229411671771 -0.0238494484134 -0.00298561591952)
(-0.0136444377989 -0.0222187525042 -0.00372666238185)
(-0.00304324517974 -0.0206414800687 2.39235731857e-05)
(0.00271311109719 -0.0239503901396 -0.000666587852535)
(0.0130381838536 -0.0255637745312 -0.00506235049246)
(0.0224196520233 -0.027096607184 -0.00459305011205)
(0.0284313503648 -0.0283553035905 -0.00275708541563)
(0.0309355918911 -0.0293891382184 -3.30904074875e-05)
(0.0296984572884 -0.0296935969553 0.00206445724052)
(0.026108144006 -0.0296221990658 0.00389242105829)
(0.0202289815422 -0.0293585130785 0.00546399063764)
(0.0126930512418 -0.0291307094551 0.0063182717015)
(0.00432136461689 -0.0290238802091 0.0065257577175)
(-0.00427986909512 -0.0290224703427 0.00652575227539)
(-0.0126529041785 -0.0291266921711 0.00631858802995)
(-0.0201928953327 -0.0293518773091 0.00546815562405)
(-0.0260792628072 -0.0296132081654 0.00389775022311)
(-0.0296777821514 -0.0296828178965 0.00206931710187)
(-0.0309219288414 -0.0293772733744 -2.74078000806e-05)
(-0.0284269465699 -0.0283406462735 -0.00275398208708)
(-0.022418982109 -0.0270796620743 -0.00459190075367)
(-0.0130390335644 -0.0255446907415 -0.00506265127999)
(-0.00271357394244 -0.0239319961208 -0.000668034069999)
(0.00262937398965 -0.0251361620666 -0.00141009396502)
(0.0125738128771 -0.0267078080857 -0.00635852089484)
(0.0218456968575 -0.0281237278193 -0.00630098198578)
(0.027950163632 -0.0294115185109 -0.00464561446227)
(0.0305214141316 -0.030525452089 -0.00203822489637)
(0.0293918648896 -0.0309377241176 -3.23848219014e-05)
(0.0259192372197 -0.0309957620029 0.00171043105788)
(0.0201453033642 -0.0308496904916 0.00316645451263)
(0.0126886471249 -0.0306789472134 0.00394078181521)
(0.00432881046912 -0.0305894543071 0.00425984925404)
(-0.00428604858565 -0.0305881364577 0.0042601138118)
(-0.0126468634448 -0.030674950284 0.00394192435397)
(-0.0201075811554 -0.030842907242 0.00316870100944)
(-0.0258879150135 -0.0309865564595 0.00171568993897)
(-0.0293684733798 -0.0309263429864 -2.76266590515e-05)
(-0.0305048036229 -0.0305128380987 -0.00203227066458)
(-0.0279425081711 -0.0293960052931 -0.00464166488341)
(-0.021842065457 -0.0281061480053 -0.00629870152015)
(-0.012572582339 -0.0266884114396 -0.00635701197841)
(-0.00262901624998 -0.025117464617 -0.00141025740563)
(0.00268823962924 -0.0236994219871 -0.00353301161778)
(0.0119405523983 -0.0247257974846 -0.00851256006118)
(0.0208773491531 -0.0257358413294 -0.00858603311304)
(0.0268748862933 -0.0268887773232 -0.00715102543052)
(0.029405063963 -0.0279618318652 -0.00464833702655)
(0.0283552858447 -0.0284412367478 -0.00275908187668)
(0.0250524582504 -0.0287299206406 -0.00114918387379)
(0.0195073810703 -0.0288697527637 0.000228796790951)
(0.0122608101435 -0.0289332838681 0.00117826431226)
(0.00417254537369 -0.0289781383985 0.00158754841474)
(-0.0041279931934 -0.0289771543471 0.00158788816537)
(-0.0122165538367 -0.0289299489467 0.00118006403558)
(-0.0194665418556 -0.0288635522601 0.000232808535105)
(-0.0250184848114 -0.0287209148041 -0.00114395907047)
(-0.0283290292128 -0.0284298207844 -0.00275374296188)
(-0.0293854738894 -0.0279491956462 -0.00464107003642)
(-0.0268644970776 -0.0268738277345 -0.00714537476794)
(-0.0208710195364 -0.025719456506 -0.00858190035791)
(-0.0119371862344 -0.0247084892758 -0.00850887641124)
(-0.00268681581925 -0.0236824600939 -0.00353075494826)
(0.00300621902651 -0.0189749149439 -0.00492348684799)
(0.0115814987998 -0.0193832186362 -0.0094292943897)
(0.0200133462019 -0.0200285298695 -0.00971888037454)
(0.025721961444 -0.0208923722488 -0.0085885596489)
(0.0281173739888 -0.0218582896519 -0.00630583455716)
(0.0270963257113 -0.0224305300673 -0.00459710665758)
(0.0238718579992 -0.0229463710796 -0.0029896420508)
(0.0184564701677 -0.0234109172056 -0.00154063871433)
(0.0114935026101 -0.0238148511851 -0.000589123839862)
(0.00388096660163 -0.0240617667294 -0.0001847578407)
(-0.00383495724363 -0.0240610223983 -0.00018471241365)
(-0.0114473687418 -0.0238121525073 -0.000587861579752)
(-0.0184133261966 -0.0234055293392 -0.00153688830777)
(-0.023835518173 -0.0229381853016 -0.00298417083179)
(-0.0270678689076 -0.0224201136398 -0.00459131935018)
(-0.0280954401361 -0.0218472735137 -0.00629810505326)
(-0.025709761463 -0.0208796890458 -0.00858228491766)
(-0.0200054090282 -0.0200150682277 -0.00971406313122)
(-0.0115771326299 -0.0193694436215 -0.00942492955912)
(-0.00300451838413 -0.0189615813287 -0.00491999392019)
(0.00347900457066 -0.011904268756 -0.00617363806665)
(0.0116046026057 -0.0116175896222 -0.00927330195423)
(0.0193686464953 -0.0115947787859 -0.00943224186847)
(0.0247124639933 -0.0119531419506 -0.00851753218512)
(0.0267014453388 -0.0125843198618 -0.00636491671316)
(0.025562416254 -0.0130474535011 -0.00506796899457)
(0.0222413104931 -0.0136479614335 -0.00372993514236)
(0.0168653858643 -0.0142932189197 -0.00261252783693)
(0.0102881101728 -0.0149126278206 -0.00197226426497)
(0.00342984497416 -0.0153225464855 -0.00179065542039)
(-0.00338221171781 -0.0153220433608 -0.00179069706502)
(-0.0102399890018 -0.0149106950009 -0.00197120494993)
(-0.0168197113497 -0.0142893250668 -0.00260865371176)
(-0.0222023540408 -0.0136421312953 -0.00372393315586)
(-0.0255318750733 -0.0130401395667 -0.00506132337443)
(-0.0266771138882 -0.0125767843294 -0.00635650291874)
(-0.0246989848286 -0.0119446669101 -0.008509836116)
(-0.0193596426446 -0.0115860874808 -0.00942647537248)
(-0.0115997141455 -0.0116089026477 -0.00926797182952)
(-0.00347726981044 -0.0118961020406 -0.0061690494507)
(0.00416415023033 -0.00417059222982 -0.00636921013117)
(0.0118929592665 -0.00348630571766 -0.00617659777123)
(0.0189615843508 -0.00301331771037 -0.00492822480272)
(0.0236860515562 -0.00269486521642 -0.00353704097098)
(0.0251256620594 -0.00263355386516 -0.00141351491257)
(0.0239432504024 -0.0027161330805 -0.000669225754892)
(0.0206551844952 -0.00304269583452 2.48214163588e-05)
(0.0155757348378 -0.00360993921129 0.00035786639974)
(0.00949558177438 -0.00427503562307 0.000314259440902)
(0.00316975173062 -0.00473709862238 0.000157863177473)
(-0.00312031592245 -0.00473714444864 0.000157681450501)
(-0.00944567886177 -0.0042749009108 0.00031437272762)
(-0.0155279622826 -0.00360905367443 0.000359723959371)
(-0.0206135341486 -0.00304083062946 2.84817445269e-05)
(-0.0239102663759 -0.00271351299237 -0.000664797640111)
(-0.0250988028777 -0.00263068126507 -0.00140818707506)
(-0.0236699687445 -0.00269176168254 -0.00353066693454)
(-0.0189507447502 -0.00301037667207 -0.00492329749665)
(-0.0118871021838 -0.00348365081591 -0.00617197302756)
(-0.00416218518037 -0.00416834322396 -0.00636481887169)
(0.00505797892529 0.00506087238133 -0.0253512685024)
(0.0130984026948 0.00596954612166 -0.0246699552559)
(0.0192288772179 0.00729924928752 -0.0212472089637)
(0.0219591700399 0.00848376132907 -0.0171094613113)
(0.0219940606729 0.00926043736459 -0.0132217067503)
(0.0199633148547 0.00980388563756 -0.00994497778505)
(0.0162361237388 0.0102633420663 -0.00769379757359)
(0.0114903653862 0.010803568378 -0.0065783943652)
(0.00660053766093 0.0113888832675 -0.0065645128678)
(0.00212409991309 0.0117933825493 -0.00699692640069)
(-0.00206332872953 0.0117922392152 -0.00699192250678)
(-0.00654348129812 0.0113855597014 -0.00655090060692)
(-0.0114411923052 0.0107979560373 -0.00655611982808)
(-0.0161980006 0.0102563914879 -0.00766652318253)
(-0.0199359245757 0.00979690225869 -0.0099177835438)
(-0.0219752221477 0.00925396655341 -0.0131971549101)
(-0.0219463773764 0.00847860336196 -0.0170898150399)
(-0.0192223460857 0.00729540946532 -0.0212318942223)
(-0.0130954950172 0.00596592593666 -0.0246572198389)
(-0.00505864261638 0.00505616977337 -0.0253424626514)
(0.00597067887403 0.0130955624337 -0.0246614833969)
(0.0144620768608 0.0144570492891 -0.0252250956425)
(0.0202949808472 0.0166114828524 -0.0224248193652)
(0.0231585612057 0.0189965724702 -0.0187218127779)
(0.0233427734829 0.020961824517 -0.0149250534591)
(0.0213894001042 0.0223733147012 -0.0114560220941)
(0.0176773379268 0.0233535068685 -0.00861539878352)
(0.0128387945414 0.0240750655752 -0.00649931111654)
(0.00762938272115 0.0245696898017 -0.0052665100422)
(0.00252527902264 0.0248222757058 -0.00481702648411)
(-0.00246102873283 0.0248192430664 -0.00481205418366)
(-0.00756855110431 0.0245611186999 -0.00525239598342)
(-0.0127850481906 0.0240619935181 -0.00647695867317)
(-0.017634237815 0.02333847781 -0.00858885582285)
(-0.0213573181987 0.0223583133533 -0.0114301553965)
(-0.0233199433777 0.020948401304 -0.0149021723602)
(-0.0231432761863 0.0189858649839 -0.018703643321)
(-0.0202859246558 0.0166023752884 -0.022411899312)
(-0.0144570271535 0.0144490266965 -0.0252156699762)
(-0.00596942817784 0.0130885666018 -0.0246577355064)
(0.00730170445549 0.0192209569638 -0.0212367377975)
(0.0166169156301 0.0202853263799 -0.0224211484809)
(0.0229234852326 0.0229139967174 -0.0191558917035)
(0.0259215693828 0.0257948480287 -0.0148998261773)
(0.0261660012143 0.0281311074712 -0.010554312214)
(0.0242783110319 0.0297098528949 -0.006511114799)
(0.020573106589 0.0306698500215 -0.00301645352838)
(0.0154507562447 0.0312205438852 -0.000189459674098)
(0.00948910926155 0.0315515596042 0.00173208281552)
(0.00321627825093 0.031728676227 0.00263160930643)
(-0.00315018803564 0.0317245935149 0.00263593379727)
(-0.00942674443013 0.03154006435 0.001744581207)
(-0.0153952837916 0.031203383308 -0.000170575466517)
(-0.0205277536302 0.0306500090367 -0.00299509132046)
(-0.0242438241104 0.0296905290905 -0.0064903076161)
(-0.026140879399 0.0281144993121 -0.0105357636103)
(-0.0259044251405 0.0257816499609 -0.0148853427618)
(-0.0229130343285 0.0229031651775 -0.0191460653251)
(-0.0166109867387 0.0202756291895 -0.0224149983124)
(-0.00729972651861 0.019212327542 -0.0212361332196)
(0.00848532325597 0.0219426683449 -0.0170978805647)
(0.0190031072925 0.0231426764862 -0.0187144100655)
(0.0258039808108 0.0259076662294 -0.0148962746747)
(0.0288380483752 0.0288260024831 -0.0101004530555)
(0.0289479819719 0.0309886555722 -0.00533880887474)
(0.0268124107879 0.0322786887585 -0.00105480687883)
(0.0228282656576 0.0328431570959 0.00261946956796)
(0.017357184091 0.0329757000358 0.00565014763938)
(0.0108289002153 0.0329537056821 0.00777868052779)
(0.00370426877055 0.0329052722817 0.00881948740319)
(-0.0036370023044 0.0329006851596 0.00882318441441)
(-0.0107652827042 0.0329409346125 0.00778939196774)
(-0.0173003787886 0.0329572942214 0.00566604489475)
(-0.0227810024982 0.03282217787 0.00263723353575)
(-0.0267755846725 0.0322584819481 -0.00103750587002)
(-0.0289208791388 0.0309714478442 -0.00532319650871)
(-0.028819459088 0.0288123957122 -0.0100879016021)
(-0.0257925323948 0.0258967332804 -0.0148887042508)
(-0.0189957284806 0.0231335095662 -0.0187108732179)
(-0.00848380153948 0.0219354756425 -0.0170980815348)
(0.00926239916794 0.0219705118204 -0.0132096157044)
(0.0209686646175 0.0233198235059 -0.0149164004708)
(0.0281404850149 0.0261471768803 -0.0105487636151)
(0.0309999130469 0.0289328243694 -0.00533659388592)
(0.0307809361485 0.0307677709342 -0.000382353093594)
(0.0283127991756 0.0316741857734 0.00392120395532)
(0.0240668866078 0.0318686337924 0.00742601965292)
(0.0183403078457 0.0316360725039 0.010253521715)
(0.011482878051 0.0313240727803 0.0123032863397)
(0.00393676819675 0.0311248278298 0.0133019791717)
(-0.00386926396107 0.0311202925137 0.0133052151909)
(-0.0114191583941 0.0313114384872 0.0123126655885)
(-0.0182833818851 0.0316179032802 0.010267277346)
(-0.0240192193213 0.0318483956721 0.00744106492159)
(-0.0282751772895 0.0316549848383 0.00393619819875)
(-0.0307528222039 0.0307513277209 -0.000368273928987)
(-0.030980548062 0.0289198466296 -0.00532539120591)
(-0.0281286289437 0.0261376236118 -0.0105419527929)
(-0.0209610519941 0.0233130586625 -0.014913240504)
(-0.0092600480881 0.0219654190407 -0.0132096180185)
(0.00980780413315 0.0199314005776 -0.00993817355572)
(0.0223821412254 0.0213592596871 -0.0114504410766)
(0.0297213057971 0.0242544552521 -0.00650628110744)
(0.0322910124835 0.0267941098748 -0.00105239725451)
(0.0316871988176 0.0282976699639 0.0039215843197)
(0.0289524657494 0.0289386024329 0.00809260515301)
(0.0245040343719 0.0289249095447 0.011368779627)
(0.0186427876526 0.028543428487 0.0138696673322)
(0.0116808003995 0.0281212039175 0.015693675698)
(0.00400896429256 0.027872692288 0.0166154297081)
(-0.00394192577711 0.0278684644766 0.0166185489035)
(-0.0116177974359 0.0281093794842 0.0157027468431)
(-0.018586650525 0.0285265029506 0.0138813766152)
(-0.0244566205947 0.0289062727685 0.0113820806534)
(-0.0289148511719 0.0289209971861 0.00810616333107)
(-0.0316589440448 0.0282827817509 0.00393477276989)
(-0.032271317805 0.0267824217449 -0.00104141067524)
(-0.0297091796606 0.0242467561929 -0.00649901391949)
(-0.0223746449779 0.0213547578806 -0.0114457854749)
(-0.00980438606848 0.0199288562108 -0.00993527351165)
(0.0102707871152 0.0161982635202 -0.00769655865298)
(0.0233657335818 0.017642183601 -0.00861634173307)
(0.0306851512266 0.0205453405989 -0.00301507083187)
(0.0328586223597 0.0228075645863 0.00262012348961)
(0.0318835760905 0.0240503831645 0.0074251382513)
(0.0289396009159 0.0244897837692 0.0113676639506)
(0.0243877193132 0.024373733981 0.0144101481718)
(0.0185284783927 0.0240248622262 0.0166996893011)
(0.0116076633881 0.0236340636868 0.0185011909333)
(0.00398315044475 0.0234099611389 0.0193310607493)
(-0.00391734333898 0.0234061084095 0.0193338905584)
(-0.0115462050269 0.0236233345373 0.0185096319578)
(-0.0184739124639 0.0240098225744 0.0167104984237)
(-0.0243415866312 0.0243568958115 0.0144223865801)
(-0.0289029982326 0.0244738213176 0.0113804027054)
(-0.031856133345 0.0240369161446 0.00743789525285)
(-0.0328396882944 0.0227969785057 0.00263122032247)
(-0.0306738708525 0.0205385778629 -0.0030070572669)
(-0.023359178354 0.0176383325022 -0.00861027320149)
(-0.0102667045566 0.0161961087275 -0.00769102858347)
(0.0108148777892 0.0114516068388 -0.00659240925714)
(0.0240917433382 0.0128037512671 -0.00650748560676)
(0.031240480407 0.0154224853285 -0.000193532209827)
(0.0329955147726 0.0173361463312 0.00564701356202)
(0.0316546154358 0.0183239121365 0.0102501016832)
(0.0285606950048 0.0186293938691 0.0138658946265)
(0.0240403995448 0.0185163887199 0.0166969247025)
(0.0182416722737 0.0182294110682 0.0191323330025)
(0.0114134262004 0.0179279990107 0.0207705864993)
(0.00390796698873 0.0177591597507 0.0214657522)
(-0.00384492132253 0.0177557322327 0.021468017159)
(-0.0113546577334 0.0179184956276 0.0207777573985)
(-0.0181899760927 0.0182160403273 0.0191435231326)
(-0.0239973758902 0.0185014760063 0.0167083571598)
(-0.0285267926543 0.0186150049036 0.0138778397673)