/*--------------------------------*- C++ -*----------------------------------*\
| =========                 |                                                 |
| \\      /  F ield         | OpenFOAM: The Open Source CFD Toolbox           |
|  \\    /   O peration     | Version:  3.0.1                                 |
|   \\  /    A nd           | Web:      www.OpenFOAM.org                      |
|    \\/     M anipulation  |                                                 |
\*---------------------------------------------------------------------------*/
FoamFile
{
    version     2.0;
    format      ascii;
    class       surfaceVectorField;
    location    "9.5";
    object      Uf;
}
// * * * * * * * * * * * * * * * * * * * * * * * * * * * * * * * * * * * * * //

dimensions      [0 1 -1 0 0 0 0];

internalField   nonuniform List<vector> 
22672
(
(0.00790342586848 0.00383334243902 -0.00628251420628)
(0.00382964505958 0.00790827279959 -0.00628106896962)
(0.00461508726168 0.00461865934216 -0.0158116989605)
(0.0157498301823 0.00325285172389 -0.0055577164564)
(0.0117646310007 0.00735219099397 -0.00773193508814)
(0.0125033447173 0.00472989234835 -0.0151985960659)
(0.0215528321061 0.00285588070316 -0.00423429516416)
(0.0191875402244 0.0070704354629 -0.00718326185801)
(0.0191062035037 0.00515735708012 -0.0128734391289)
(0.0246191028728 0.00266515671108 -0.00247505567441)
(0.0242250108804 0.00709452847178 -0.00602910599005)
(0.0228350892486 0.00559002893133 -0.0101608022502)
(0.0245594480397 0.0026750619438 -0.00104014921875)
(0.0259415647148 0.00740615612275 -0.00389015867173)
(0.0235730113404 0.00594722712659 -0.00734650567499)
(0.0222453342393 0.00287891595666 -0.000320483824669)
(0.0247818780363 0.00770626473282 -0.00286954050276)
(0.021966767133 0.00625999631829 -0.00539215662139)
(0.0180032039155 0.00332465790832 0.000194090462223)
(0.0214780889147 0.00818878861918 -0.00185290210563)
(0.0184592323964 0.00665253349031 -0.00394666509393)
(0.0124536448163 0.00393981655413 0.000339908203807)
(0.0162489498287 0.0088068412586 -0.00112573065026)
(0.0135456677828 0.00720557964018 -0.00325728978659)
(0.0063053714417 0.00450332534906 0.000240659198244)
(0.00991440881064 0.00945327043064 -0.000824846341681)
(0.00805793053573 0.00783046273672 -0.00330500522861)
(2.96757996796e-05 0.00473478363212 0.000163162552772)
(0.00331260127781 0.00989846077202 -0.000809960803164)
(0.00265234355697 0.00826399552075 -0.00362277362031)
(-0.00624814922522 0.00450381305841 0.000242178600572)
(-0.00325095348674 0.00989760820971 -0.000808539965589)
(-0.00259228360375 0.00826359899362 -0.00361979184487)
(-0.0124019460029 0.00393993636045 0.000343181447416)
(-0.00985628703455 0.00945065714467 -0.000820598156483)
(-0.00800159443254 0.00782911352307 -0.00329686910677)
(-0.0179604695549 0.0033235629529 0.000199098552442)
(-0.0161985423563 0.00880219132727 -0.00111879850294)
(-0.0134969971011 0.00720258070671 -0.00324367650935)
(-0.0222133798461 0.00287671554182 -0.000314770166531)
(-0.021439317021 0.00818264421467 -0.00184472035151)
(-0.0184216057164 0.00664815600879 -0.00392974251129)
(-0.0245376559499 0.00267236468508 -0.00103450605823)
(-0.0247551219927 0.00769961734017 -0.00286187457865)
(-0.0219404339254 0.00625520640632 -0.00537534946884)
(-0.024606828943 0.0026622455908 -0.00246989018479)
(-0.0259224602583 0.00739998776619 -0.00388241952128)
(-0.0235545885758 0.0059425926848 -0.00733082242397)
(-0.0215470731881 0.00285295891452 -0.00423056462216)
(-0.0242173710258 0.00708872833618 -0.00602338975355)
(-0.0228251410375 0.00558593786368 -0.0101484909516)
(-0.0157478999183 0.00324989980516 -0.00555541353821)
(-0.0191834477912 0.00706511365519 -0.00717999788455)
(-0.0191010419141 0.00515402746449 -0.0128642929937)
(-0.00790352351672 0.00383007904162 -0.006281122273)
(-0.0117640645383 0.00734678197058 -0.00772993293185)
(-0.0125016675958 0.00472654004166 -0.0151911640867)
(-0.00383007979576 0.0079027747031 -0.00628070190684)
(-0.00461562574197 0.00461458685497 -0.0158063019577)
(0.00734865735818 0.0117688137441 -0.00773048985148)
(0.00325003603218 0.0157528774551 -0.00555444612433)
(0.00472888669757 0.0125043089335 -0.0151932625368)
(0.0157904097107 0.011612013819 -0.00935748048976)
(0.011608822412 0.0157922521381 -0.009356691897)
(0.0130415260612 0.013040810672 -0.0168818146805)
(0.0223066335181 0.0117785309076 -0.0089780726839)
(0.0197137228271 0.0161123179228 -0.0095792769282)
(0.0198432657532 0.0141054692178 -0.0155581085393)
(0.025935759777 0.0122735173384 -0.00744420898737)
(0.0252439853068 0.0167350810832 -0.00855671316182)
(0.0239487872545 0.0154770893511 -0.0132696824534)
(0.0261929903243 0.0128210915203 -0.00571954995574)
(0.0274399030278 0.0175340072961 -0.00633918429978)
(0.0250369704523 0.0167756264809 -0.0103850866444)
(0.0238909987178 0.0133527550906 -0.00440195878372)
(0.0263614560379 0.018069294227 -0.00483620083523)
(0.0234914683827 0.0177130346486 -0.00806104400143)
(0.0194477308163 0.0139742177367 -0.00317272321811)
(0.0230901835264 0.0186685509725 -0.00336290773621)
(0.0199755873511 0.0185031312269 -0.00603650149414)
(0.0134952540391 0.0146034716243 -0.00229048519575)
(0.0176938702431 0.0192669879536 -0.00207715018814)
(0.0148678620097 0.0191853727317 -0.00450767758019)
(0.00684243650098 0.0151145868373 -0.00187546634309)
(0.0109179817338 0.0198122753234 -0.00127687877306)
(0.00897143846595 0.0197404765811 -0.00370619536533)
(3.19138692195e-05 0.0153169083846 -0.00178166332152)
(0.00367178974544 0.0201506829209 -0.000979743215927)
(0.0029849471887 0.02007009301 -0.00344170769684)
(-0.00678044746933 0.0151107216092 -0.00187131672264)
(-0.00360614948883 0.0201480926703 -0.000977694637276)
(-0.00292084861418 0.0200675747607 -0.00343813138776)
(-0.0134388240621 0.01459622094 -0.00228257810684)
(-0.0108560716374 0.0198049965987 -0.0012708034663)
(-0.00891070880323 0.0197333277316 -0.00369597118502)
(-0.0194010067689 0.0139645546698 -0.00316261740689)
(-0.0176405056457 0.0192561164308 -0.00206801708017)
(-0.0148146655031 0.0191744493173 -0.00449175074344)
(-0.0238558352322 0.0133420430365 -0.00439182476363)
(-0.0230492110487 0.0186555128911 -0.00335292511087)
(-0.0199338305121 0.0184903410166 -0.00601804848185)
(-0.0261685632643 0.0128107745473 -0.0057097880417)
(-0.0263324183298 0.0180558189486 -0.00482721623011)
(-0.0234613094544 0.0177000976015 -0.00804348158803)
(-0.0259217882821 0.0122642370363 -0.00743591909004)
(-0.0274192184384 0.0175221492096 -0.00632946475269)
(-0.0250154544452 0.0167640342744 -0.0103689439618)
(-0.022300100374 0.0117701760325 -0.00897282301594)
(-0.025235212511 0.0167243958598 -0.00855045426416)
(-0.0239370567697 0.0154673359059 -0.0132573622869)
(-0.0157880661257 0.0116042338301 -0.00935451727819)
(-0.0197090624952 0.0161028850543 -0.00957577332047)
(-0.0198365412479 0.0140969602628 -0.0155498118032)
(-0.00734865600279 0.0117614622927 -0.00772951256569)
(-0.0116080117563 0.0157833862875 -0.00935491747704)
(-0.0130386580279 0.0130329745598 -0.0168760202149)
(-0.00325060060487 0.0157451650336 -0.00555520622532)
(-0.0047284894509 0.012497284382 -0.0151910500307)
(0.00706772399244 0.0191879308239 -0.00718064816985)
(0.00285372213141 0.0215516996049 -0.00423056952324)
(0.00515734099938 0.0191027226382 -0.0128665470085)
(0.0161111625503 0.0197132782598 -0.00957848833544)
(0.0117763605882 0.0223043197771 -0.00897532459177)
(0.0141067925963 0.0198383498576 -0.0155555077496)
(0.0231552700463 0.0204673604639 -0.00915791740612)
(0.0204683553934 0.023152604311 -0.0091569333791)
(0.0214796901138 0.0214745899509 -0.0140843964383)
(0.0271429803728 0.0213831943371 -0.00745168847423)
(0.0263262540021 0.0241773259429 -0.00787481308905)
(0.0258352633465 0.0233471928861 -0.0114299588659)
(0.0276992428322 0.0221535156559 -0.00545583517926)
(0.0287938240011 0.0251965834047 -0.00548249128664)
(0.0271573199242 0.024998979201 -0.00821884330964)
(0.0254948178795 0.0226979505352 -0.00379714978772)
(0.0277603630209 0.0257045688048 -0.00368255528347)
(0.0257038432232 0.0260750166379 -0.00543085519774)
(0.0210576350707 0.0231866318329 -0.00226733470624)
(0.0244982675273 0.0260913225083 -0.00207325390609)
(0.0222398184333 0.0268127853555 -0.00298559482486)
(0.0148982084061 0.0236169542071 -0.00106354376545)
(0.0190175596551 0.0263581323505 -0.000657494118314)
(0.0169707836264 0.0273190434307 -0.000931724056148)
(0.0076610552516 0.0239372576348 -0.000381155645896)
(0.0119072161498 0.0265373002477 0.000297192344945)
(0.0105057892592 0.0276839625211 0.000512121884566)
(3.35306141762e-05 0.0240565994593 -0.000175774531678)
(0.00404554439604 0.0266510833398 0.000707966155042)
(0.00355762119352 0.0278934130294 0.0011271179241)
(-0.00759616855951 0.0239313869594 -0.000377181380931)
(-0.00397775046303 0.0266476475141 0.000709776680513)
(-0.00349090925889 0.0278898213009 0.00113013804652)
(-0.0148396568129 0.0236062175145 -0.00105624243963)
(-0.0118436931357 0.02652769223 0.000302659878801)
(-0.0104430106014 0.027673894591 0.000520786259896)
(-0.0210096932441 0.0231726171292 -0.00225832478415)
(-0.0189630947509 0.0263437950154 -0.000649384350848)
(-0.0169160061337 0.0273040467525 -0.000917648671215)
(-0.0254582665933 0.0226825629747 -0.00378831657734)
(-0.0244560551321 0.026074635011 -0.00206461893087)
(-0.0221963762592 0.026795266549 -0.00297055544924)
(-0.0276733982725 0.0221390029302 -0.0054468929411)
(-0.0277296318378 0.0256875102094 -0.00367498797055)
(-0.0256716800299 0.0260575654894 -0.00541656632009)
(-0.0271279322387 0.0213704166859 -0.00744399992682)
(-0.0287718884123 0.0251817761953 -0.00547334207813)
(-0.0271341753816 0.0249839516421 -0.00820509963121)
(-0.0231478671514 0.0204560287796 -0.00915340456869)
(-0.026316139322 0.0241643214503 -0.00786943871541)
(-0.0258220064047 0.0233345396803 -0.0114199969404)
(-0.0161084399631 0.0197031439481 -0.00957617351931)
(-0.0204629358353 0.023141458442 -0.00915406750946)
(-0.0214720007394 0.0214638966685 -0.0140780064125)
(-0.00706767821871 0.0191790815022 -0.00718061113666)
(-0.0117748633674 0.0222944040365 -0.00897436244842)
(-0.0141033606745 0.0198286444631 -0.0155517851032)
(-0.00285418851268 0.02154418553 -0.00423208000572)
(-0.00515668850219 0.0190944154049 -0.0128667023132)
(0.00709287552028 0.024221669932 -0.00602524594516)
(0.00266428682814 0.0246122653694 -0.00247154847612)
(0.00558989498776 0.022825602574 -0.0101534425243)
(0.0167348048285 0.0252396599434 -0.00855376963543)
(0.0122730383935 0.0259265427099 -0.00743978394824)
(0.0154795794532 0.0239387397736 -0.0132641541338)
(0.02418032202 0.0263217438846 -0.00787382906203)
(0.0213854267307 0.0271343456306 -0.00744895889649)
(0.0233523983012 0.0258260915276 -0.0114272612244)
(0.0283620044824 0.0274366815977 -0.00590561590146)
(0.0274418429246 0.0283540771595 -0.00590485357632)
(0.0278707995345 0.0278624867133 -0.00835843721486)
(0.0289760822284 0.0282148567416 -0.00370921139085)
(0.0299977459478 0.0294187506894 -0.00335052582245)
(0.0291934956701 0.029481523912 -0.00483624921832)
(0.0267133756748 0.0285995724916 -0.00195865940184)
(0.0289103152565 0.0298155162344 -0.00140203018899)
(0.0276018807076 0.0303670049949 -0.00184824540408)
(0.0221595855061 0.0288122975266 -0.000463413318164)
(0.0255242523691 0.0299462194384 0.000274646039702)
(0.0239591352174 0.0307934904239 0.00069888871007)
(0.0157841858622 0.0289095970139 0.000703241992084)
(0.0198642205564 0.0299070924532 0.0016933195133)
(0.0184507461965 0.0309282356686 0.00282643527162)
(0.00818117622539 0.0289578426146 0.00138631414588)
(0.0125067951403 0.0298228742298 0.00255886224261)
(0.0115604316291 0.0309460642042 0.00431743174815)
(3.39311600296e-05 0.0289754643621 0.00159351736723)
(0.0042709308651 0.0297769558265 0.00292634698608)
(0.00394819671325 0.0309412673923 0.00502136894907)
(-0.0081155181204 0.0289509945719 0.00138961794025)
(-0.00420252543052 0.0297731402211 0.00292787463446)
(-0.00388043637417 0.0309371756905 0.00502395303361)
(-0.0157250890048 0.0288970483306 0.000709517967588)
(-0.0124427960371 0.0298121914461 0.00256362325945)
(-0.0114966961015 0.0309346287675 0.00432506798635)
(-0.0221104965274 0.0287960587338 -0.000455678497569)
(-0.0198090748139 0.0298913712162 0.00170071809367)
(-0.0183949199073 0.03091153398 0.00283782727829)
(-0.0266752685167 0.0285819874031 -0.00195129032408)
(-0.0254808308325 0.0299280816886 0.000282638912718)
(-0.0239140569372 0.0307742607995 0.000711320771186)
(-0.0289485064367 0.0281983557964 -0.00370143710759)
(-0.0288781927879 0.0297973309256 -0.00139536532549)
(-0.0275676561993 0.0303480565126 -0.00183658783528)
(-0.0283454138907 0.0274223910259 -0.00589878086673)
(-0.0299745925869 0.0294032072524 -0.003342065171)
(-0.0291685922997 0.0294652641799 -0.00482452897287)
(-0.0241716408779 0.0263094990297 -0.00787010165617)
(-0.0274302904482 0.0283405087731 -0.00590002557049)
(-0.0278560750316 0.0278490486242 -0.00834996578211)
(-0.0167310858552 0.0252292070585 -0.00855225643856)
(-0.0213789027526 0.0271232986173 -0.00744640164132)
(-0.0233437184576 0.0258150149018 -0.0114224005511)
(-0.00709199458823 0.0242133499328 -0.00602583131748)
(-0.0122703323924 0.0259174488226 -0.00743901496475)
(-0.0154748603025 0.02392931358 -0.013262141375)
(-0.00266437024624 0.0246062523864 -0.00247297427308)
(-0.00558926403953 0.0228185289572 -0.0101540648943)
(0.0074065396293 0.0259287241175 -0.00388608647921)
(0.00267574529697 0.0245454010599 -0.00103762748493)
(0.00594825305233 0.0235555205961 -0.00733967698011)
(0.0175358427179 0.0274263401648 -0.0063349732093)
(0.0128225833122 0.0261757431623 -0.00571556850783)
(0.0167793448953 0.0250183711846 -0.0103785058083)
(0.0252010842009 0.0287817038533 -0.00547998341078)
(0.0221577003649 0.0276835939638 -0.00545311971431)
(0.0250052613423 0.0271414691734 -0.00821449270321)
(0.0294272114712 0.0299864121518 -0.0033497634973)
(0.0282213334511 0.0289624112817 -0.00370831239101)
(0.0294900241011 0.0291802353048 -0.00483446477977)
(0.0300147369684 0.0307529001093 -0.00104334462059)
(0.0307644534747 0.0300016261889 -0.00104383617943)
(0.030668709338 0.0306564744988 -0.00117040460812)
(0.0276417186731 0.0309903223501 0.000831275252552)
(0.0295834449884 0.0303104152587 0.00100841679447)
(0.0288710395306 0.0313174039643 0.00187811582096)
(0.0229172429395 0.0309462015978 0.00243137887116)
(0.0260537421235 0.0302654308173 0.0027937526339)
(0.0250126932844 0.0314443281687 0.00440526141723)
(0.0163202615616 0.0307844462894 0.00354893976382)
(0.0202264770657 0.030031550586 0.00430913497825)
(0.0192622203283 0.0312542265772 0.00647252103316)
(0.00847021761875 0.0306489270531 0.00409889508281)
(0.0127240599538 0.0298281425523 0.00512612250757)
(0.0121022526444 0.0310102923543 0.00784477407573)
(3.40629015033e-05 0.0305993580458 0.00426070425331)
(0.00434609803262 0.029724181548 0.0053918093141)
(0.0041432526355 0.0308630850038 0.00848892789468)
(-0.00840423551113 0.0306413948171 0.00410187995367)
(-0.00427794080629 0.0297202257765 0.00539303986924)
(-0.00407522218909 0.0308588332137 0.00849121187211)
(-0.016260697441 0.0307707868726 0.00355482338553)
(-0.0126602661332 0.0298171061751 0.00513010503799)
(-0.0120383204848 0.0309984271039 0.00785154597303)
(-0.0228673791303 0.0309288620922 0.00243903550396)
(-0.0201711247692 0.0300153448221 0.00431672286837)
(-0.0192060352435 0.0312370306524 0.00648270626934)
(-0.027602757491 0.0309719713867 0.000838563911316)
(-0.0260097234194 0.0302469983664 0.0028017701439)
(-0.0249668848051 0.0314249809159 0.0044164590194)
(-0.0299862015417 0.0307361052323 -0.0010359933889)
(-0.0295505386505 0.0302922800958 0.00101491823444)
(-0.0288359175695 0.031298680726 0.00188849132125)
(-0.0294094575805 0.0299719406814 -0.00334330987476)
(-0.0307403986594 0.0299861885734 -0.00103578209946)
(-0.0306428509585 0.0306405807859 -0.0011597296033)
(-0.0251910456382 0.02876954047 -0.00547632555564)
(-0.0282086651073 0.0289489045305 -0.00370378775632)
(-0.0294742189916 0.0291669470707 -0.00482681246942)
(-0.0175309065751 0.0274167861999 -0.00633316016751)
(-0.0221500787176 0.0276731130401 -0.00545039041223)
(-0.0249957649643 0.02713132852 -0.00820995844092)
(-0.00740479766097 0.0259220555236 -0.00388615792035)
(-0.0128189188386 0.0261677318052 -0.0057140714801)
(-0.0167738623273 0.0250107988171 -0.0103763969773)
(-0.00267556731417 0.0245408692521 -0.00103857125072)
(-0.0059470310205 0.0235504955581 -0.00733941787081)
(0.00770810042695 0.0247639359961 -0.00286710951355)
(0.00288135312309 0.0222256638468 -0.000319441045143)
(0.00626259389518 0.0219427376245 -0.00538836535856)
(0.0180731814911 0.0263425539633 -0.00483371501284)
(0.013357084459 0.0238676810721 -0.00439998822842)
(0.0177186413384 0.023466528504 -0.00805702170236)
(0.025710804589 0.0277434668104 -0.00368144869454)
(0.0227052657544 0.0254736725709 -0.00379580881699)
(0.0260833344285 0.025682882929 -0.00542770489289)
(0.0298249877157 0.0288950442842 -0.00140238507314)
(0.0286086001598 0.0266952223229 -0.0019587900639)
(0.0303767721153 0.0275848664448 -0.00184699759962)
(0.0303235992829 0.0295687450698 0.00100792523562)
(0.0310033056834 0.0276251933084 0.000829999667477)
(0.0313298116197 0.0288560677588 0.00187781799703)
(0.0278707556177 0.0296885778044 0.00297089417582)
(0.0297038837798 0.0278549227859 0.00297040525742)
(0.0293450379203 0.0293308135094 0.00490833336219)
(0.0230577252004 0.0295221247412 0.00467150874099)
(0.0260665400685 0.027714242358 0.00482798586836)
(0.0253265093289 0.0292895202838 0.00736421700404)
(0.0163728440073 0.029274309964 0.00588631772199)
(0.0201594580695 0.0273953088541 0.00646685286701)
(0.0194558044866 0.0289667734733 0.00932112203648)
(0.00846591169176 0.0291025640473 0.00641903673886)
(0.0126366523574 0.027115803769 0.00719133112434)
(0.0122036465346 0.0286398526929 0.0106192710433)
(3.36512737016e-05 0.0290446499354 0.00652414493003)
(0.0043028139885 0.0269821903299 0.00735118781835)
(0.00417571164178 0.0284596594571 0.0111742520693)
(-0.00840066221931 0.0290950598281 0.00642126495356)
(-0.00423599539194 0.026978255259 0.00735189725686)
(-0.00410831348629 0.0284555688606 0.0111762845249)
(-0.016313629133 0.0292606880926 0.00589200452082)
(-0.0125738753151 0.0271047129329 0.00719398822898)
(-0.0121404235634 0.0286284129479 0.0106253603231)
(-0.0230079758891 0.0295048868259 0.00467945750831)
(-0.020104655071 0.027379112934 0.00647505070548)
(-0.0194001057308 0.0289502163622 0.00933057804202)
(-0.0278315238782 0.0296705273619 0.00297812446703)
(-0.0260227869519 0.0276960812786 0.00483581189452)
(-0.0252807585724 0.0292710583233 0.00737446342528)
(-0.0302945090098 0.029552298126 0.00101512952388)
(-0.0296708020372 0.0278372622471 0.00297708441926)
(-0.0293096353117 0.0293131040159 0.00491800015943)
(-0.0298063005877 0.0288809322566 -0.00139625998101)
(-0.0309788003267 0.0276100295035 0.000837956976843)
(-0.0313034308252 0.0288410835786 0.00188794682755)
(-0.0256998376275 0.0277318425813 -0.00367785261291)
(-0.0285954138379 0.0266820598348 -0.00195437254309)
(-0.0303603790491 0.0275724504259 -0.00183962274747)
(-0.0180674142726 0.0263336515481 -0.00483130172482)
(-0.0226969385332 0.0254634911508 -0.00379275675861)
(-0.0260732180555 0.0256739811243 -0.00542280627464)
(-0.00770596398469 0.0247580634713 -0.00286648481047)
(-0.0133528823294 0.0238599221998 -0.0043976518997)
(-0.0177129049973 0.0234604274606 -0.0080536456933)
(-0.00288104909201 0.022221784084 -0.000320011750845)
(-0.00626075337196 0.0219394430565 -0.00538688216402)
(0.00819372312918 0.0214544525115 -0.00185231976001)
(0.00332952726334 0.0179803517501 0.000193710007723)
(0.00665805485208 0.018429391729 -0.00394841375128)
(0.0186766802749 0.0230658986084 -0.00336208203257)
(0.0139828973706 0.0194216181192 -0.00317329839756)
(0.0185123805242 0.0199452843431 -0.00603689751382)
(0.0261015378668 0.0244767785428 -0.00207315018634)
(0.0231987343443 0.0210337838235 -0.00226789542704)
(0.0268251598377 0.0222143763652 -0.00298497254333)
(0.0299587341764 0.0255053910286 0.000273594676721)
(0.0288256572877 0.0221391125393 -0.000464960752944)
(0.0308066454661 0.0239388547701 0.00069890967382)
(0.0302804589633 0.0260364024102 0.00279247968928)
(0.0309623483536 0.0228993963171 0.00242849601765)
(0.0314588815177 0.0249955101339 0.0044040686978)
(0.0277309171079 0.0260495578483 0.00482749694997)
(0.0295397817731 0.0230412502116 0.00466915392984)
(0.0293048791922 0.0253109757431 0.00736321166691)
(0.0228666594102 0.0257796695123 0.00662332999438)
(0.0257979466622 0.0228505610754 0.00662176371277)
(0.0251859075822 0.0251703409804 0.00972793723602)
(0.0161557804704 0.0254473412441 0.00777186626936)
(0.019877042002 0.0224636209957 0.00800181164117)
(0.0192892866055 0.0248086266355 0.0116425661111)
(0.00833150113083 0.0252416005317 0.00812348220383)
(0.0123967007412 0.0221287778824 0.00847836177619)
(0.0120772377165 0.0244681775651 0.0128113053483)
(3.27055601029e-05 0.0251790029023 0.00817894014518)
(0.00419560188151 0.0220009740627 0.00855553495696)
(0.00412315971538 0.0242954353795 0.0132800123911)
(-0.0082679403129 0.0252342538904 0.00812462053227)
(-0.004131873314 0.0219972928232 0.00855579526831)
(-0.00405731646369 0.024291602297 0.0132816088721)
(-0.0160976080982 0.0254337444237 0.00777703441363)
(-0.0123364118931 0.0221180393801 0.00847964875492)
(-0.0120154529831 0.0244573730668 0.0128163414819)
(-0.0228177799658 0.0257626053033 0.00663140509169)
(-0.0198243230885 0.0224474921716 0.00800744257766)
(-0.0192348308347 0.0247929499127 0.0116517919748)
(-0.0276921726682 0.026031982959 0.00483477184675)
(-0.0257556101912 0.0228329889786 0.00662968144276)
(-0.0251411319925 0.0251530145835 0.00973748322908)
(-0.0302516288623 0.0260202183908 0.00279991187222)
(-0.0295078624801 0.0230240960758 0.00467601828215)
(-0.0292700914278 0.02529432694 0.00737261940801)
(-0.0299399020104 0.0254914599908 0.000279844414764)
(-0.0309386988391 0.0228842434637 0.00243601206458)
(-0.0314329081964 0.0249812601819 0.00441405520718)
(-0.0260902333802 0.0244653825485 -0.00206927668879)
(-0.0288130261395 0.0221259631042 -0.000460333252469)
(-0.0307905378384 0.023927147134 0.000706423460631)
(-0.0186704363732 0.0230570735176 -0.0033591069335)
(-0.0231907583002 0.0210232486312 -0.00226447024777)
(-0.0268152457343 0.0222060135988 -0.0029795594396)
(-0.00819131171196 0.0214487795407 -0.00185117884008)
(-0.0139788791271 0.0194131862361 -0.00317040852643)
(-0.0185068889981 0.0199395151013 -0.00603239383199)
(-0.00332940282678 0.0179760790794 0.000193392232993)
(-0.00665584103262 0.0184264850542 -0.00394561016558)
(0.00881549626025 0.0162234897104 -0.00112726862982)
(0.00394640335668 0.012430219123 0.000339357992975)
(0.00721430486347 0.013514280838 -0.00326536701195)
(0.019280296683 0.0176680384238 -0.00207911179204)
(0.0146163271436 0.0134704573435 -0.00229346618932)
(0.0191992553063 0.0148368879253 -0.0045136436889)
(0.0263734663963 0.0189945374719 -0.00065970599365)
(0.0236337248023 0.0148755205407 -0.00106662633645)
(0.0273363903234 0.0169442687963 -0.000934910844566)
(0.029924120276 0.0198445734131 0.00168994058799)
(0.0289275750551 0.0157648285343 0.00069956447902)
(0.0309460803877 0.0184295845055 0.00282362563586)
(0.0300502075352 0.0202093266218 0.00430517025822)
(0.0308045530767 0.0163044729021 0.00354419739454)
(0.0312725625991 0.0192450181414 0.00646883199453)
(0.0274147195307 0.0201437811573 0.00646342069265)
(0.02929531487 0.0163592328774 0.00588243694653)
(0.0289850505412 0.0194409614832 0.00931750190478)
(0.0224813825703 0.0198614342104 0.00800024535955)
(0.0254681622706 0.0161441828666 0.00776975867342)
(0.0248260985091 0.0192757109687 0.0116397127159)
(0.0158129765283 0.0195252584342 0.008708307148)
(0.0195426194164 0.0158014103867 0.0087083165709)
(0.0189728307296 0.0189586231358 0.01333061514)
(0.00812016764633 0.0193022323534 0.00891041452931)
(0.0121059765423 0.0154968966142 0.00900503506702)
(0.0118300078189 0.0186453403378 0.0143246893236)
(3.06113896448e-05 0.0192400047588 0.00893239008009)
(0.00406671602595 0.0153915787943 0.00902158542145)
(0.00401800088288 0.0185004713963 0.014698951015)
(-0.0080606057654 0.0192952216585 0.00891082349096)
(-0.00400858253708 0.0153883774042 0.00902167116295)
(-0.00395568918106 0.0184969793542 0.0147001320017)
(-0.0157584268237 0.0195122162918 0.00871005691895)
(-0.0120508800646 0.0154872891513 0.0090055970111)
(-0.0117713902901 0.0186353562345 0.0143285703016)
(-0.0224349630823 0.019844866315 0.00800571892874)
(-0.0194946087091 0.0157866471688 0.00871038873552)
(-0.018921436532 0.0189441280348 0.013337379519)
(-0.0273782900524 0.0201264943268 0.00647092787816)
(-0.0254297308873 0.0161272473596 0.00777529613)
(-0.0247839594594 0.019259496447 0.0116490658703)
(-0.0300233830541 0.0201931684175 0.00431211847451)
(-0.0292667718827 0.0163426666225 0.00588795628474)
(-0.0289526664958 0.0194252383348 0.00932651870284)
(-0.0299067439694 0.0198302678778 0.00169583439734)
(-0.0307838426499 0.0162892806869 0.00355039276911)
(-0.0312487808052 0.0192311371373 0.00647831909374)
(-0.0263633322843 0.018982357612 -0.000655526811447)
(-0.0289174174567 0.0157513040624 0.000703920146681)
(-0.0309320064984 0.0184179239071 0.00283124225952)
(-0.019275078615 0.0176580676375 -0.0020757718407)
(-0.023628058472 0.0148638917046 -0.00106340401919)
(-0.027328440916 0.0169353292299 -0.000928902014895)
(-0.00881367897319 0.0162166742559 -0.00112583745336)
(-0.0146140279126 0.0134608581213 -0.00229090405661)
(-0.0191951983622 0.0148300373459 -0.00450907689832)
(-0.00394691018775 0.0124245756032 0.000339105421141)
(-0.00721252939269 0.013510164243 -0.00326217912172)
(0.00946426488584 0.00989118108249 -0.000826839566517)
(0.00451005716083 0.00628220772874 0.000241391184583)
(0.00784053465351 0.00803002615848 -0.00331625758614)
(0.0198293951436 0.0108956990413 -0.00128098073373)
(0.0151291242354 0.0068212297858 -0.00187896383214)
(0.0197573429822 0.00894496616663 -0.00371590753638)
(0.0265566316707 0.0118875300683 0.000292644136219)
(0.0239559633536 0.0076423168989 -0.000385388927324)
(0.0277048909568 0.010482778776 0.000505961871813)
(0.0298439737422 0.0124906802449 0.00255382128557)
(0.0289779703664 0.00816589504217 0.00138141689116)
(0.0309675803815 0.0115420442918 0.0043115860734)
(0.029850470138 0.0127111305072 0.00512146408285)
(0.0306710547452 0.00845941161322 0.00409364853115)
(0.0310319788712 0.0120882029643 0.00783855981969)
(0.0271386021581 0.0126262501076 0.0071887749273)
(0.0291252821873 0.00845820010245 0.00641533765718)
(0.0286610471566 0.0121927358878 0.0106128963335)
(0.0221491020773 0.0123881847168 0.00847782988476)
(0.0252637292495 0.0083268322647 0.00812267536179)
(0.024488133518 0.0120688617811 0.0128068471056)
(0.0155104335142 0.0120973514263 0.00900504448992)
(0.0193208238375 0.00811755996041 0.00891061294367)
(0.0186615011713 0.0118229325845 0.0143225162046)
(0.00792713037513 0.0119076954715 0.00911620595916)
(0.0119174800908 0.00792418415857 0.0091163687451)
(0.0115870724841 0.0115791105566 0.015156013342)
(2.72087157528e-05 0.011857900752 0.00911086650432)
(0.00398290051424 0.00785470216278 0.00908645164525)
(0.0039160896545 0.0114747531787 0.0154367962364)
(-0.00787428341482 0.0119017242379 0.00911644468309)
(-0.00393159957369 0.00785228353494 0.00908649870945)
(-0.0038597551 0.0114718415096 0.0154375838369)
(-0.0154624130625 0.0120858256087 0.00900592882767)
(-0.0118691846665 0.00791664279134 0.00911677023138)
(-0.0115342091399 0.0115705270338 0.0151587734636)
(-0.0221086871721 0.0123730382466 0.00847996593679)
(-0.0192791972689 0.00810551124798 0.00891182818692)
(-0.0186154943895 0.0118100430095 0.0143274068765)
(-0.0271071609911 0.0126100233953 0.00719232453658)
(-0.0252311743368 0.00831243494362 0.00812512722269)
(-0.0244510899019 0.0120541772045 0.0128132822999)
(-0.0298281111242 0.0126953306529 0.00512623057934)
(-0.0291019336929 0.00844348657525 0.0064187091909)
(-0.0286333754965 0.0121781685395 0.0106201254651)
(-0.0298304594175 0.0124760239967 0.00255847851845)
(-0.0306552081456 0.00844522331445 0.00409790660549)
(-0.03101268951 0.0120748058319 0.00784640035161)
(-0.0265501252553 0.0118744610868 0.000296042938942)
(-0.0289723445134 0.00815293791344 0.00138430959847)
(-0.0309577817111 0.0115304148139 0.0043180263928)
(-0.019827239243 0.0108844582512 -0.00127853623509)
(-0.0239546411281 0.00763078087015 -0.000383862598405)
(-0.0277011678349 0.0104731909765 0.000510219215715)
(-0.00946419008863 0.00988279571978 -0.00082596118211)
(-0.0151300981734 0.00681142705866 -0.00187834309431)
(-0.0197566480031 0.00893711472282 -0.00371362370557)
(-0.00451135512536 0.00627554342956 0.000240846511459)
(-0.007840289405 0.00802437692942 -0.00331516170037)
(0.00990921247896 0.00329132747327 -0.000810733081039)
(0.00474094718238 5.43198876784e-06 0.00016404594022)
(0.00827307732433 0.00262958473036 -0.00363244155231)
(0.020167573813 0.00365398035812 -0.000983372025731)
(0.0153297829395 1.32084435637e-05 -0.00178443463175)
(0.0200864169462 0.00296436627058 -0.00345034560909)
(0.0266703351697 0.00403110028449 0.000703383827618)
(0.0240730836719 1.90547288867e-05 -0.000179579604907)
(0.0279139836017 0.003539965133 0.00112049477326)
(0.0297981284421 0.00426075029917 0.00292124413674)
(0.0289931789676 2.33391999221e-05 0.00158900196655)
(0.0309624805004 0.00393446000303 0.00501475642214)
(0.029746629869 0.00434018722541 0.00538752210547)
(0.0306186585022 2.89467216377e-05 0.00425608011143)
(0.0308844634295 0.00413443276473 0.00848195758009)
(0.0270048923051 0.0043004923782 0.00734923809167)
(0.0290643724498 3.25717227715e-05 0.00652112057814)
(0.0284804870515 0.00417106901609 0.0111673606625)
(0.0220211529834 0.00419660095017 0.0085554584207)
(0.0251980127173 3.56094361319e-05 0.00817843212798)
(0.0243149652412 0.00412240211154 0.0132749576367)
(0.0154056759815 0.00406962396288 0.00902193719885)
(0.0192559618412 3.70270774641e-05 0.00893266848814)
(0.0185164371967 0.0040203788767 0.0146960060651)
(0.0078585470165 0.00398577190785 0.00908661443119)
(0.0118664448015 3.56107239136e-05 0.00911101682263)
(0.0114830238486 0.00391957993425 0.0154356990079)