/*--------------------------------*- C++ -*----------------------------------*\
| =========                 |                                                 |
| \\      /  F ield         | OpenFOAM: The Open Source CFD Toolbox           |
|  \\    /   O peration     | Version:  3.0.1                                 |
|   \\  /    A nd           | Web:      www.OpenFOAM.org                      |
|    \\/     M anipulation  |                                                 |
\*---------------------------------------------------------------------------*/
FoamFile
{
    version     2.0;
    format      ascii;
    class       volScalarField;
    location    "1";
    object      epsilon_0;
}
// * * * * * * * * * * * * * * * * * * * * * * * * * * * * * * * * * * * * * //

dimensions      [0 2 -3 0 0 0 0];

internalField   nonuniform List<scalar> 
7968
(
0.01210110197
0.0126868208764
0.0130293643325
0.0131640601021
0.0132078130344
0.0132193551625
0.0132203784127
0.0132181872881
0.0132153628734
0.0132134218327
0.0132137976734
0.0132162405845
0.0132192790445
0.0132215312369
0.0132204841809
0.013208840531
0.0131649043324
0.0130299788071
0.0126872431068
0.0121012046812
0.0126868508218
0.0164378436947
0.0186374679305
0.0195961896162
0.0199474187192
0.0200499034695
0.0200672159276
0.02006265747
0.0200572731376
0.0200550917186
0.0200556005848
0.0200587332932
0.0200648982132
0.0200700094364
0.0200529872453
0.019950523954
0.0195989239839
0.0186395731529
0.0164392547081
0.0126871339077
0.0130296012018
0.018637858059
0.0222553249405
0.0239900098242
0.0246916929023
0.024921287666
0.0249698653741
0.0249674528109
0.0249607412091
0.0249586639739
0.0249592762517
0.0249625042533
0.0249702319938
0.0249734147557
0.0249252703514
0.0246956260624
0.0239933957514
0.0222578696593
0.0186393408445
0.0130298757689
0.0131643691294
0.0195969347952
0.0239902088151
0.0262135670673
0.0271542671484
0.0274648327183
0.0275228284708
0.0275106018629
0.0274968942428
0.0274929980379
0.0274937149111
0.0274989017923
0.0275137655068
0.0275269014606
0.02746941397
0.0271587309447
0.026217433799
0.0239930283065
0.0195985314758
0.0131646260406
0.0132081794289
0.0199477981213
0.0246920649192
0.0271542172537
0.028201858381
0.028530772137
0.0286064547835
0.0286179308532
0.0286112851055
0.0286074806024
0.0286079398358
0.0286125780939
0.0286199342468
0.0286090077817
0.0285359949258
0.0282070942618
0.0271586614143
0.0246952632162
0.0199495541652
0.0132084379485
0.0132197293721
0.020050461254
0.0249214319441
0.0274645879019
0.0285304923743
0.0289262142529
0.029034728097
0.0290376491246
0.0290240824083
0.0290175678321
0.0290181077035
0.029025646051
0.02904009765
0.0290377045609
0.0289294260319
0.028536517182
0.0274698429344
0.0249252283204
0.0200526468528
0.013220040481
0.0132207432184
0.020067421724
0.024969523112
0.0275219844577
0.028606191605
0.0290344249496
0.0291291125701
0.0291156458903
0.0290919817611
0.0290814197409
0.029082104902
0.0290939849572
0.0291187993962
0.0291329187519
0.0290381631662
0.0286095030957
0.0275281793022
0.0249740757597
0.0200700500145
0.0132211591703
0.0132184733918
0.0200624152407
0.0249664176992
0.0275087619356
0.0286171704977
0.0290367248802
0.0291149312777
0.0290863132668
0.0290525887189
0.0290373966909
0.0290383206508
0.0290552134718
0.0290903022454
0.0291196242165
0.0290412839353
0.0286210345094
0.0275160619074
0.0249717549174
0.0200655624812
0.0132189964087
0.013215481683
0.0200564433312
0.024958873908
0.0274940945002
0.0286099019353
0.0290224408771
0.0290903576833
0.0290515118624
0.0290097561734
0.0289897223761
0.0289909277275
0.0290130990889
0.0290563709037
0.0290957987607
0.0290276415447
0.0286143437081
0.0275022934589
0.0249648799704
0.0200599727551
0.0132161082178
0.0132132125802
0.0200536722945
0.0249560428042
0.0274892724239
0.028605543372
0.0290152350361
0.029078900609
0.0290351360734
0.0289882792447
0.0289641215391
0.028965680431
0.0289921694022
0.0290405521278
0.0290847853244
0.0290207790799
0.028610261417
0.0274979101782
0.0249624228248
0.0200574308852
0.0132139110456
0.0132131933913
0.0200536807371
0.0249560525316
0.0274892584331
0.0286055363427
0.029015222575
0.0290788763476
0.029035089358
0.0289881936441
0.0289640068606
0.0289655641713
0.0289920949318
0.0290405180246
0.0290847653801
0.0290207574676
0.0286102280767
0.0274978435544
0.0249623398662
0.0200573771724
0.0132138381712
0.0132154330004
0.0200564692406
0.0249589007703
0.0274940525857
0.0286098884308
0.0290224088646
0.029090286444
0.0290513967982
0.0290095850136
0.0289895275719
0.0289907249439
0.0290129583959
0.029056278967
0.0290957267765
0.0290275663938
0.0286142483453
0.0275020496601
0.0249646937427
0.0200598239553
0.0132159370881
0.0132184090733
0.0200624630771
0.0249664548304
0.0275087154405
0.0286171527242
0.0290366780314
0.0291148363554
0.0290861624783
0.029052401211
0.0290372102304
0.0290381287684
0.0290550503669
0.0290901624512
0.0291194965356
0.029041150757
0.0286208685333
0.0275156814453
0.0249714546628
0.020065316357
0.013218767539
0.0132206919947
0.0200675107524
0.0249696364411
0.0275219533327
0.0286061857706
0.0290343834066
0.0291290128194
0.0291154900673
0.0290917994092
0.0290812525725
0.0290819345572
0.0290938182718
0.0291186336149
0.0291327522578
0.0290379786448
0.0286092728841
0.0275277001702
0.0249737222469
0.0200697666629
0.0132209040591
0.0132196884846
0.0200506250628
0.0249216211184
0.0274646857511
0.0285304594879
0.0289261851873
0.0290346475361
0.029037519586
0.0290239292071
0.0290174162638
0.0290179505049
0.0290254830101
0.0290399199772
0.0290375085924
0.0289291793874
0.02853590022
0.0274693354317
0.0249248390559
0.0200523222699
0.0132197895438
0.0132081583957
0.0199480146059
0.0246924042443
0.0271544384799
0.028201872448
0.0285306097645
0.028606371528
0.0286177892673
0.0286111060121
0.0286072839333
0.0286077273609
0.028612358622
0.0286196985715
0.028608746171
0.0285353308113
0.0282064964571
0.0271581700322
0.0246948584819
0.0199491956119
0.01320818175
0.0131643547874
0.0195971890467
0.0239906100231
0.0262139126141
0.0271543994951
0.0274647727343
0.0275225877149
0.0275101873748
0.0274963660256
0.0274924035314
0.0274930722158
0.0274982555813
0.027513122887
0.0275262860704
0.0274688421639
0.0271582048076
0.0262169638869
0.0239925687941
0.0195980660213
0.0131643587867
0.0130295970073
0.0186381619165
0.0222557688959
0.0239904066406
0.0246918988421
0.0249213657477
0.0249697526896
0.024967216808
0.0249604141086
0.0249582705801
0.0249588376414
0.0249620532641
0.0249697712135
0.0249729649584
0.0249248272486
0.0246952007898
0.0239929558633
0.0222574298492
0.018638878196
0.0130296244496
0.0126869423434
0.0164382936765
0.0186379322812
0.0195965697361
0.0199476204655
0.0200499849893
0.0200672094552
0.0200625462715
0.020057099328
0.0200548616999
0.0200553369675
0.0200584637163
0.0200646334075
0.0200697420374
0.0200527198115
0.019950222315
0.0195986430061
0.018639296345
0.0164388431659
0.012686951858
0.0121011192822
0.0126869235172
0.0130294504144
0.0131641099509
0.0132078218445
0.0132193318204
0.0132203166622
0.0132180765666
0.0132152103276
0.0132132107184
0.0132135433842
0.0132159880069
0.0132190363313
0.0132212970617
0.0132202578458
0.0132086316181
0.0131647173976
0.0130298167508
0.0126870672837
0.0121010875143
0.0126737579659
0.0163485584415
0.0185160938083
0.019464083402
0.0198142467649
0.0199206260478
0.0199420100622
0.0199396023513
0.0199339836729
0.0199308320448
0.0199312053166
0.0199350152967
0.0199411018371
0.0199437617905
0.0199224365882
0.0198158981719
0.0194653589948
0.018516854556
0.0163489157094
0.012673889402
0.0163484286361
0.0174746987931
0.0191879768931
0.0200205822045
0.0203496623113
0.0204574988886
0.0204837754767
0.0204857505304
0.0204833029886
0.0204817497928
0.0204819003868
0.0204837338407
0.0204864101763
0.0204845891936
0.0204583694664
0.0203504709097
0.0200211980965
0.0191883620201
0.0174750458437
0.0163488629136
0.0185162709114
0.0191879998107
0.0209763837473
0.0219194845997
0.0223223303174
0.0224656837113
0.0225046220559
0.0225095847423
0.0225073725287
0.0225057058859
0.0225058434385
0.0225077697548
0.0225102032734
0.0225053954893
0.0224665117553
0.0223230822033
0.0219200351959
0.0209767192452
0.0191883263794
0.0185166369912
0.0194645394865
0.0200207281435
0.0219195947954
0.0229641726944
0.0234305299603
0.0236042429191
0.0236546255718
0.02366292359
0.0236615012637
0.0236600673934
0.0236602052189
0.0236618952123
0.023663536732
0.0236553923853
0.0236050795709
0.0234312725532
0.022964694322
0.0219198890099
0.0200210254523
0.0194648241413
0.0198148748267
0.0203498650177
0.0223225249088
0.0234306098091
0.0239355401038
0.0241280017198
0.0241902542137
0.0242061480647
0.0242076470869
0.02420686534
0.0242069565412
0.0242079158757
0.0242065613574
0.0241907762648
0.0241288339445
0.0239363345671
0.0234311696892
0.0223228397895
0.0203501809729
0.0198151614265
0.019921271334
0.0204577111405
0.0224658771867
0.0236043280689
0.024128016073
0.0243404390322
0.0244134100628
0.0244317001214
0.0244333819373
0.0244324120105
0.024432513296
0.0244336752427
0.0244321489135
0.0244139338698
0.0243409949446
0.0241288469039
0.0236050014516
0.0224662975881
0.0204581293593
0.0199216874775
0.0199425456501
0.0204839060397
0.022504728456
0.0236546265927
0.0241902877715
0.0244133968006
0.024488621617
0.024505952819
0.0245062097198
0.024504406136
0.0245045354521
0.0245065814019
0.0245065101209
0.0244892560798
0.0244139725823
0.0241907835016
0.0236554370849
0.022505309918
0.0204844772055
0.0199431919342
0.0199399069455
0.0204857443666
0.0225095418097
0.023662762657
0.024206100825
0.0244316077276
0.0245058628082
0.0245209648701
0.0245191358546
0.0245161578063
0.0245163237441
0.0245195976744
0.0245216551263
0.024506634286
0.0244323015436
0.0242066717594
0.023663768914
0.0225103045406
0.0204864811226
0.0199408114247
0.0199339441464
0.0204831266105
0.0225071515895
0.0236611581074
0.0242074908209
0.024433166011
0.0245059811089
0.0245189927747
0.0245151462194
0.0245109831381
0.0245112031575
0.0245156876317
0.0245197787191
0.0245068713861
0.024433970199
0.0242081585933
0.0236623315545
0.0225080656262
0.0204840003708
0.019935083763
0.0199303734543
0.020481397349
0.0225053154538
0.0236595499667
0.0242065920766
0.024432075854
0.0245040346732
0.0245158588759
0.0245108255669
0.0245058158891
0.0245060402204
0.0245114397027
0.0245167186398
0.0245049975089
0.0244329443301
0.0242073205023
0.023660809321
0.0225063094885
0.0204823451941
0.0199316548441
0.0199303684089
0.0204814001151
0.0225053156891
0.0236595486386
0.0242065950187
0.0244320804244
0.0245040385403
0.0245158638858
0.0245108388862
0.0245058365756
0.0245060608901
0.0245114556514
0.0245167231489
0.0245049979748
0.0244329420084
0.0242073152385
0.0236607937274
0.0225062898736
0.0204823262253
0.0199316135682
0.0199339316319
0.0204831341413
0.0225071520271
0.0236611541455
0.0242074992487
0.0244331801727
0.0245060010304
0.0245190175304
0.0245151793066
0.0245110239646
0.0245112517511
0.0245157256712
0.0245197987585
0.0245068792785
0.0244339669337
0.0242081416872
0.0236622816652
0.0225080106795
0.0204839462865
0.0199349728743
0.0199398896485
0.0204857579007
0.022509543736
0.0236627577298
0.0242061145363
0.0244316313885
0.0245058920725
0.0245210037545
0.0245191821437
0.0245162071785
0.0245163759595
0.0245196402552
0.0245216800161
0.0245066431544
0.0244322940608
0.0242066410736
0.023663685597
0.0225102148131
0.0204863956139
0.0199406447388
0.019942546395
0.020483932884
0.0225047401032
0.0236546251608
0.0241903018878
0.0244134200521
0.0244886546347
0.0245059913288
0.0245062539128
0.0245044507582
0.0245045795716
0.0245066179884
0.0245065312918
0.0244892612672
0.0244139558258
0.0241907303221
0.0236553232658
0.0225051915022
0.0204843680169
0.0199429904411
0.0199213009579
0.0204577571362
0.0224659034662
0.0236043360463
0.0241280121412
0.024340452759
0.0244134316915
0.0244317240656
0.0244334069854
0.0244324374435
0.0244325360699
0.0244336902963
0.0244321508432
0.0244139175257
0.0243409434441
0.0241287188481
0.0236048537079
0.0224661484192
0.0204579952359
0.019921471612
0.0198149422074
0.0203499342813
0.0223225689852
0.023430624249
0.0239355226034
0.0241279627944
0.0241902341089
0.0242061264097
0.0242076220724
0.02420683803
0.0242069254065
0.0242078777491
0.0242065108164
0.0241907036778
0.0241286862321
0.0239361612846
0.0234309845233
0.0223226504882
0.0203500078502
0.0198149088288
0.0194646447282
0.0200208190442
0.0219196482531
0.0229641881117
0.0234305019515
0.0236041778361
0.023654531786
0.0236628050559
0.0236613653968
0.0236599204736
0.023660049337
0.0236617332124
0.0236633666478
0.023655212693
0.0236048827884
0.0234310585371
0.0229644617115
0.021919639826
0.0200207842696
0.0194645172437
0.018516422778
0.0191881223105
0.0209764519415
0.0219195047321
0.0223222992519
0.0224656130543
0.022504516126
0.02250945236
0.022507221444
0.0225055413489
0.0225056686637
0.0225075880834
0.0225100140256
0.0225051967207
0.022466297679
0.0223228451322
0.0219197650025
0.0209764142269
0.0191880106981
0.0185162904468
0.0163486574331
0.0174748756058
0.0191880732196
0.0200206274068
0.0203496559682
0.0204574554808
0.0204837011631
0.0204856496955
0.0204831847597
0.0204816167393
0.0204817560989
0.0204835832557
0.0204862539442
0.020484424161
0.0204581872185
0.0203502558345
0.0200209341917
0.0191880303835
0.0174746499902
0.0163485123187
0.0126737397538
0.0163486596637
0.0185161633204
0.0194641207897
0.0198142245814
0.0199205553093
0.0199418857538
0.0199394231643
0.0199337636042
0.0199305755681
0.0199309259434
0.0199347370288
0.0199408295817
0.0199434958308
0.0199221647564
0.0198156002115
0.0194650161569
0.0185164429943
0.0163484477281
0.0126737514201
0.013007094237
0.0184810342332
0.0220285347481
0.0237333235752
0.0244301485059
0.0246688448839
0.0247300859659
0.0247353715155
0.0247294749037
0.0247254736708
0.0247258434193
0.0247305419901
0.024736998733
0.0247320550912
0.0246708933258
0.0244319768328
0.0237346254668
0.0220291552392
0.0184812008385
0.0130072973546
0.0184808366882
0.0191622482333
0.0209539665625
0.0219003770651
0.0223086322839
0.0224590802576
0.0225050378845
0.0225152843116
0.022516043354
0.0225155319023
0.0225156414475
0.0225163589514
0.0225157675084
0.022505623649
0.0224596764346
0.0223091282256
0.0219006711821
0.0209540669159
0.0191624042488
0.018481232958
0.0220286403527
0.0209538708349
0.0223013358793
0.0230995587793
0.0234693718626
0.0236155965655
0.0236639220723
0.0236759280655
0.0236772733867
0.0236768192758
0.0236768919172
0.0236774843168
0.0236762570239
0.0236643273772
0.0236160083623
0.0234697055521
0.0230997471243
0.0223014167008
0.020954097202
0.0220288499967
0.0237338513921
0.0219003609893
0.0230996009365
0.0238592754939
0.0242266274973
0.0243787326227
0.0244321350777
0.0244468626057
0.0244493097586
0.0244491820149
0.0244492407564
0.02444948028
0.0244471310276
0.0244324677097
0.0243790643503
0.0242268851581
0.0238594007868
0.0230996445644
0.0219005808496
0.0237338444792
0.0244309579666
0.0223086994415
0.0234694692353
0.0242266780528
0.0246004739926
0.0247592199999
0.0248174914018
0.0248347646851
0.0248381549991
0.0248382368516
0.0248382849198
0.0248382883418
0.0248349651172
0.0248177422265
0.0247594773388
0.0246006962551
0.0242267809364
0.0234695026091
0.022308929117
0.0244308831566
0.0246697022749
0.0224591653908
0.0236157034987
0.0243787945029
0.0247592401323
0.0249237455613
0.024984738245
0.0250027125386
0.0250059604187
0.0250057911761
0.0250058346722
0.0250060853208
0.0250028754638
0.0249849173681
0.0249239623232
0.0247594313647
0.0243789248134
0.0236157805935
0.0224594687396
0.0246697768796
0.0247307825615
0.0225050696173
0.0236639852415
0.0244321572184
0.0248174875045
0.024984752751
0.025046144652
0.025063236567
0.0250654142483
0.0250645506574
0.0250645969684
0.0250655465024
0.0250633833801
0.0250462546842
0.0249848982632
0.0248177128434
0.024432364033
0.023664151229
0.0225054964808
0.0247311539558
0.0247357524911
0.022515212697
0.0236759082948
0.0244468105917
0.0248347290288
0.0250027442712
0.0250632722876
0.0250787856251
0.0250794462931
0.0250776191393
0.0250776773058
0.0250796012514
0.0250789380058
0.0250633549659
0.0250028415366
0.0248349712122
0.0244471055896
0.0236761753041
0.0225157774803
0.0247364861688
0.0247294389433
0.0225158439061
0.0236771573556
0.0244491764278
0.0248380737786
0.0250059765907
0.0250654433917
0.0250794408111
0.0250786406952
0.0250758181077
0.0250758814729
0.0250788251088
0.0250796158212
0.0250655292429
0.0250060715735
0.0248383422666
0.02444953935
0.0236775061703
0.0225165235848
0.0247304867463
0.0247249841375
0.0225152008
0.0236766125196
0.0244489767087
0.0248381069451
0.0250057644894
0.025064532525
0.0250775543473
0.0250757468951
0.0250722691125
0.0250723529525
0.0250759379199
0.0250777311155
0.0250646162622
0.0250058608984
0.0248383871557
0.0244493695373
0.0236770019211
0.0225159411497
0.0247262134582
0.0247249820327
0.0225152052293
0.0236766127678
0.0244489762559
0.0248381060633
0.0250057614864
0.0250645305518
0.0250775596268
0.0250757604178
0.0250722887224
0.0250723688187
0.0250759473453
0.0250777335972
0.0250646135191
0.0250058562366
0.0248383817536
0.0244493612807
0.0236769910846
0.0225159295168
0.0247261747287
0.0247294335939
0.0225158557862
0.0236771573442
0.0244491750331
0.0248380738808
0.0250059754184
0.0250654454727
0.0250794539184
0.0250786680427
0.0250758578622
0.0250759152144
0.025078845682
0.0250796210731
0.0250655248682
0.0250060610805
0.0248383265489
0.0244495141489
0.0236774743864
0.0225164906446
0.0247303776577
0.0247357501099
0.0225152317685
0.0236759080924
0.0244468077062
0.0248347298954
0.0250027457335
0.0250632735118
0.0250787946178
0.0250794660201
0.0250776439466
0.0250777004856
0.025079614181
0.0250789369356
0.0250633433621
0.0250028239203
0.024834943552
0.0244470625037
0.0236761234177
0.0225157269059
0.0247363182266
0.0247307946146
0.0225050969928
0.0236639859743
0.0244321508418
0.0248174845475
0.024984750393
0.0250461395862
0.0250632322118
0.0250654119928
0.0250645466468
0.025064593125
0.025065536439
0.0250633638975
0.025046230356
0.02498486632
0.0248176674007
0.0244322996836
0.0236640787376
0.0225054308158
0.0247309456574
0.0246697475919
0.0224592029551
0.0236157034541
0.024378777983
0.0247592219943
0.0249237237925
0.0249847129214
0.0250026833651
0.0250059283976
0.0250057558151
0.0250057973054
0.0250060420499
0.025002826545
0.0249848637693
0.0249238993734
0.0247593555598
0.0243788286582
0.0236156800419
0.0224593815737
0.0246695325586
0.0244310524982
0.0223087462544
0.0234694603731
0.0242266374687
0.0246004151393
0.0247591553118
0.0248174179245
0.0248346843141
0.0248380698862
0.0248381485979
0.0248381936963
0.0248381925463
0.0248348639118
0.024817634218
0.0247593609761
0.0246005595704
0.0242266350084
0.0234693575531
0.0223088024674
0.0244305844935
0.0237339820671
0.021900409745
0.023099574483
0.0238592014145
0.0242265212024
0.0243786050578
0.0244319922014
0.0244467076367
0.0244491460293
0.0244490124539
0.0244490668344
0.0244493026
0.0244469489058
0.0244322798811
0.024378868646
0.0242266801693
0.0238591890944
0.0230994311774
0.0219003791896
0.02373344176
0.0220288039865
0.0209539239551
0.0223012979845
0.0230994647287
0.0234692386971
0.0236154354844
0.0236637402415
0.0236757304536
0.0236770644463
0.0236766021536
0.023676668972
0.0236772574539
0.0236760264867
0.0236640921229
0.0236157653075
0.0234694502043
0.0230994733217
0.0223011192639
0.0209537827477
0.022028329196
0.0184810278391
0.01916231142
0.0209539394586
0.0219003042025
0.0223085274096
0.0224589521691
0.0225048882635
0.0225151175018
0.02251586532
0.0225153446144
0.0225154463649
0.0225161581223
0.0225155611436
0.0225054123989
0.0224594512152
0.0223088719863
0.0219003625513
0.0209536798833
0.0191619366787
0.0184806614664
0.0130070850375
0.0184810417897
0.0220284648614
0.0237331910441
0.0244299370429
0.0246685698036
0.0247297339505
0.024734961391
0.0247290242989
0.0247249954684
0.0247253466326
0.0247300400811
0.0247364973011
0.0247315637973
0.0246703965679
0.0244314317914
0.0237340000226
0.0220284292686
0.0184804589338
0.0130072026994
0.0131395183961
0.0194136644407
0.0237134806008
0.0259009488238
0.0268516427902
0.0272018889798
0.027303872291
0.0273213386098
0.0273183801623
0.0273149860465
0.0273153739909
0.0273195142148
0.0273230927289
0.027306024429
0.0272041092442
0.0268535787419
0.0259022514639
0.0237140108358
0.0194136912737
0.0131397791077
0.0194134434046
0.0199809353498
0.0218848592453
0.0229330924015
0.0234075907072
0.0235934855683
0.0236558326395
0.0236728180648
0.0236760364031
0.0236762616339
0.0236763604197
0.023676321997
0.0236732556179
0.0236563564555
0.0235939907621
0.0234079603993
0.0229332354123
0.0218848130867
0.0199809849058
0.0194137719002
0.023713535597
0.021884702968
0.0230905140274
0.02385250479
0.0242218738524
0.0243766560265
0.0244327845492
0.0244496282068
0.0244532785054
0.024453613071
0.024453663981
0.0244534281023
0.0244498661217
0.0244330786788
0.0243769389664
0.0242220687191
0.0238525633145
0.0230904983196
0.0218848903317
0.0237136635204
0.0259014933215
0.0229329922943
0.0238525093709
0.0245004675092
0.0248292433823
0.0249736780814
0.0250292518465
0.0250472913233
0.0250516954605
0.0250522494163
0.0250522810411
0.0250517897295
0.0250474203471
0.0250293932294
0.0249738374176
0.0248293583025
0.024500473719
0.0238524806833
0.0229332005282
0.0259013300591
0.026852531714
0.0234075760894
0.0242219146779
0.0248292683986
0.0251442575468
0.0252860042922
0.0253416837145
0.0253600739782
0.0253645022916
0.0253649165809
0.0253649416388
0.0253645656985
0.0253601218171
0.0253416709275
0.025285972272
0.0251442675993
0.0248292569019
0.0242218851184
0.0234078079998
0.0268522700046
0.0272028214402
0.023593488846
0.0243766975387
0.0249737065268
0.0252860597575
0.0254268401919
0.0254820781894
0.0254997699641
0.0255033935163
0.0255031829262
0.0255032089121
0.0255034523187
0.0254997585303
0.0254818994529
0.0254265445366
0.0252858626698
0.0249736856887
0.0243767194418
0.0235938180064
0.0272027703756
0.0273045635151
0.0236557745783
0.0244327796481
0.0250292938607
0.0253418750188
0.0254822510843
0.0255362359579
0.0255522933534
0.0255544063386
0.0255530734825
0.0255531186192
0.0255545022104
0.0255522720176
0.0255359338858
0.0254816971796
0.0253413945456
0.0250292069274
0.0244329003844
0.0236562640873
0.0273049617327
0.0273215989414
0.0236726485303
0.0244495449065
0.0250473615196
0.0253603902138
0.0255000959295
0.0255524549589
0.0255666300421
0.0255669653399
0.0255641247152
0.0255642061898
0.0255671420164
0.0255666493352
0.0255521071275
0.0254993883024
0.0253597055396
0.0250471966887
0.0244497676917
0.0236733096524
0.0273225333758
0.0273181332435
0.0236757402721
0.0244531154199
0.0250517495483
0.0253648513241
0.0255037749472
0.0255546210846
0.0255670102277
0.0255656168452
0.0255611091025
0.0255612138892
0.0255658759941
0.0255670965209
0.0255542796362
0.0255030205041
0.0253641071953
0.0250515745446
0.0244534104667
0.0236765342233
0.0273195107515
0.0273141994219
0.0236758387366
0.0244533822967
0.0250522752031
0.025365246818
0.0255035488711
0.0255532502428
0.025564088701
0.0255609886268
0.025555205248
0.0255553351178
0.0255612661261
0.0255641818076
0.0255528986462
0.0255027758062
0.0253644934883
0.0250520995033
0.0244537088341
0.0236767007697
0.0273158286817
0.0273141948782
0.0236758449682
0.024453382022
0.0250522736815
0.0253652427401
0.025503543288
0.0255532539385
0.0255641070675
0.0255610163523
0.0255552352225
0.0255553601014
0.0255612843056
0.0255641910628
0.025552899263
0.0255027708763
0.02536448961
0.0250520943749
0.0244537007473
0.0236766937757
0.0273157817123
0.0273181090426
0.0236757561119
0.0244531137078
0.0250517456858
0.0253648451366
0.0255037721548
0.0255546365208
0.0255670500833
0.0255656830079
0.0255611898628
0.0255612842588
0.0255659295348
0.0255671250133
0.0255542880841
0.0255030154719
0.0253640991849
0.0250515602454
0.0244533872163
0.0236765148459
0.0273193771593
0.0273215610954
0.0236726715588
0.0244495410192
0.0250473551056
0.0253603831711
0.0255000959617
0.0255524699104
0.0255666664073
0.0255670237244
0.0255641961296
0.025564273596
0.0255671921996
0.0255666759079
0.0255521132798
0.0254993802776
0.0253596901938
0.0250471703226
0.0244497299692
0.0236732808862
0.0273223259325
0.0273045254679
0.0236558013099
0.0244327710359
0.0250292790617
0.0253418588184
0.0254822417596
0.0255362347326
0.0255523028511
0.0255544249237
0.0255530934985
0.0255531389052
0.0255545106627
0.0255522646257
0.0255359162977
0.0254816702123
0.0253413582226
0.0250291585488
0.0244328451021
0.0236562262233
0.0273047155646
0.0272028093208
0.0235935162901
0.0243766767494
0.0249736685419
0.0252860153584
0.0254267958043
0.0254820357469
0.0254997252186
0.0255033466754
0.0255031309815
0.0255031539397
0.0255033873048
0.0254996860844
0.0254818268484
0.0254264703232
0.0252857842449
0.0249736001065
0.0243766344849
0.0235937573611
0.027202469593
0.026852571806
0.0234075971136
0.0242218667307
0.0248291864895
0.0251441598578
0.0252858968804
0.0253415707406
0.0253599534642
0.0253643750105
0.025364784489
0.0253648055737
0.0253644219619
0.0253599741097
0.0253415251121
0.0252858294399
0.0251441246907
0.0248291121156
0.0242217492762
0.0234077019779
0.02685191256
0.0259015542749
0.0229329929793
0.0238524223625
0.0245003288654
0.0248290754992
0.024973493611
0.0250290579824
0.0250470894365
0.0250514862922
0.025052036588
0.0250520655937
0.0250515701194
0.0250471998347
0.025029172126
0.0249736133801
0.0248291320446
0.0245002499052
0.0238522673672
0.0229330085936
0.0259008600746
0.0237136033631
0.0218846814675
0.0230903967792
0.0238523312052
0.0242216658871
0.0243764250713
0.0244325375602
0.0244493686831
0.0244530100561
0.02445333893
0.0244533871932
0.0244531505166
0.0244495884518
0.0244327999792
0.0243766570789
0.0242217818627
0.0238522680257
0.0230901892331
0.021884566316
0.0237130616348
0.0194135111071
0.0199808975601
0.0218847418929
0.0229329405132
0.0234074205624
0.0235933016742
0.0236556330817
0.0236726060152
0.023675818542
0.0236760379257
0.0236761328442
0.0236760923384
0.0236730214845
0.0236561201049
0.0235937409624
0.0234076793144
0.0229329016411
0.0218843993907
0.0199804884182
0.019413157085
0.0131395058242
0.0194135089177
0.0237132246313
0.0259006006847
0.0268511926199
0.0272013405535
0.0273032142167
0.0273205964049
0.0273175922951
0.0273141575179
0.0273145320156
0.0273186827937
0.0273222704036
0.0273052464806
0.027203347499
0.0268527935857
0.0259014161687
0.0237131160965
0.019412862077
0.0131397513056
0.0131863667122
0.0197786491333
0.0244313100678
0.0268761008657
0.0279784303703
0.0284041605039
0.0285390433431
0.0285696880297
0.0285717644326
0.0285701708136
0.0285706147719
0.0285730733001
0.0285717410129
0.0285416029574
0.0284067667066
0.027980653159
0.02687758831
0.0244319707466
0.0197788088841
0.0131867063486
0.0197784292231
0.020314473289
0.0222927139518
0.0234043047173
0.0239204696846
0.0241294491695
0.0242029417668
0.0242246639349
0.0242295743445
0.0242302538386
0.0242303566804
0.02422987572
0.024225133489
0.0242035114964
0.0241299867293
0.0239208372261
0.0234044176184
0.0222926430467
0.0203145301483
0.019778900572
0.024431322016
0.0222925275609
0.0234628817983
0.0242223897702
0.0245982504772
0.02476039587
0.0248219745362
0.0248419019276
0.0248468581369
0.0248475528259
0.0248475985551
0.0248469934319
0.0248420975004
0.0248221983328
0.0247606368327
0.0245984267833
0.0242224249485
0.0234628579643
0.0222927529391
0.0244316353102
0.0268766132473
0.0234041525887
0.0242223725122
0.0248300533531
0.0251448700928
0.025287071256
0.0253441483701
0.0253638283004
0.0253690260133
0.0253696964914
0.0253697207533
0.0253690913242
0.0253638757279
0.0253441291059
0.0252870037363
0.0251448376915
0.0248300506343
0.0242223579498
0.0234044335952
0.0268766661297
0.0279792864277
0.0239203880426
0.0245982492276
0.025144892938
0.0254342066019
0.0255672620781
0.025621202489
0.0256396562877
0.0256440289207
0.0256440683079
0.0256440981961
0.0256440883833
0.0256396246395
0.0256209422361
0.0255667837828
0.0254337694271
0.0251447320986
0.0245982722799
0.0239207475727
0.0279793480295
0.0284049272993
0.0241293461481
0.0247603792138
0.025287235975
0.0255675305886
0.025695718137
0.0257469486073
0.0257635550948
0.0257663982171
0.0257650852512
0.0257651543596
0.025766533903
0.0257635036319
0.0257464537093
0.0256947239905
0.0255664450122
0.0252866989655
0.0247604607696
0.0241299100251
0.0284055040187
0.0285393322574
0.0242027185279
0.0248219433935
0.0253445878621
0.0256219090302
0.025747409978
0.0257961962171
0.0258108934246
0.0258119886802
0.0258084373388
0.0258086064068
0.0258123525225
0.0258109709889
0.0257955835085
0.025745955051
0.0256201199365
0.0253435171757
0.0248220243165
0.0242035793309
0.0285408255536
0.0285692580681
0.0242242710944
0.0248418666917
0.0253645079721
0.0256406945197
0.0257643424836
0.0258112079284
0.0258247176542
0.0258246698091
0.0258178774866
0.0258182033398
0.0258254402658
0.0258251054286
0.0258106543387
0.0257626628333
0.0256384496843
0.0253630101471
0.0248419247683
0.0242254176172
0.0285717440606
0.0285706074471
0.0242290175876
0.0248467727375
0.0253697643702
0.0256451673264
0.0257672776551
0.025812362943
0.0258246819181
0.0258236252496
0.0258127480665
0.0258132155199
0.0258248278974
0.0258254296653
0.0258119712562
0.0257655860247
0.0256427952523
0.0253681363267
0.0248468641529
0.0242303621207
0.0285738176815
0.0285682886806
0.0242295516159
0.0248473975572
0.0253703941234
0.025645181636
0.0257658904882
0.0258086023745
0.0258174651784
0.0258121296714
0.0257976190702
0.0257981436451
0.0258135027572
0.0258183714706
0.0258082988493
0.0257642182399
0.0256428062754
0.0253687818195
0.0248475267714
0.0242309929836
0.0285718901849
0.0285682750703
0.0242295591835
0.0248473948491
0.0253703886215
0.0256451758038
0.0257658921234
0.0258086239468
0.0258175026837
0.0258121807847
0.0257976680546
0.0257981839124
0.025813538931
0.0258183929492
0.0258083076386
0.0257642173718
0.0256428065317
0.0253687810362
0.0248475209263
0.0242309913865
0.0285718319848
0.0285705525121
0.0242290377752
0.0248467640383
0.0253697506627
0.0256451588022
0.0257672914847
0.0258124142019
0.0258247754822
0.0258237675536
0.0258129126097
0.0258133659338
0.0258249518282
0.0258255005727
0.0258120042459