/*--------------------------------*- C++ -*----------------------------------*\
| =========                 |                                                 |
| \\      /  F ield         | OpenFOAM: The Open Source CFD Toolbox           |
|  \\    /   O peration     | Version:  3.0.1                                 |
|   \\  /    A nd           | Web:      www.OpenFOAM.org                      |
|    \\/     M anipulation  |                                                 |
\*---------------------------------------------------------------------------*/
FoamFile
{
    version     2.0;
    format      ascii;
    class       volScalarField;
    location    "7.2";
    object      ddt0(k);
}
// * * * * * * * * * * * * * * * * * * * * * * * * * * * * * * * * * * * * * //

dimensions      [0 2 -3 0 0 0 0];

internalField   nonuniform List<scalar> 
7968
(
-7.33825823029e-05
-8.2463545297e-05
-8.97661631685e-05
-9.45099730192e-05
-9.75142754924e-05
-9.93406460766e-05
-0.000100312972967
-0.000100848268136
-0.000101175729832
-0.000101396566492
-0.000101658822858
-0.000101629843219
-0.000101373699804
-0.000100855153888
-9.98534934962e-05
-9.79976643467e-05
-9.49047931749e-05
-9.00635037036e-05
-8.26639961158e-05
-7.34960683636e-05
-8.24447410043e-05
-0.000121904087394
-0.000148536422552
-0.000164635328221
-0.000173945683807
-0.000178832267322
-0.000180975901172
-0.000181815560985
-0.000182303630995
-0.000182688555505
-0.000182950790511
-0.000182923138571
-0.00018266787534
-0.000181941016007
-0.00017981918778
-0.000174936271173
-0.000165492245701
-0.000149208112461
-0.000122346749416
-8.26880726169e-05
-8.97630546202e-05
-0.000148628276116
-0.000187186555577
-0.00021035765211
-0.000223739755612
-0.000230679387779
-0.000233633251054
-0.000234706363693
-0.00023530894567
-0.000235768195645
-0.000236035408913
-0.000235970225062
-0.000235654974005
-0.000234752151112
-0.000231858145719
-0.000224898931632
-0.00021136505483
-0.000187960863362
-0.000149137333485
-9.00895121539e-05
-9.45300717008e-05
-0.000164811561245
-0.000210453744637
-0.000237287365668
-0.000252068375792
-0.00025890505711
-0.000261137255803
-0.000261103749573
-0.00026120372675
-0.000260446441256
-0.000260422849225
-0.000261894537503
-0.000262073875615
-0.000262317978008
-0.000260191473222
-0.000253318888137
-0.000238355195758
-0.000211254963697
-0.000165332718937
-9.48982719555e-05
-9.7560248846e-05
-0.000174150287594
-0.000223871512708
-0.000252099618446
-0.000266081736793
-0.000268985315494
-0.000272512649857
-0.000273958879719
-0.000274587442785
-0.000274948562329
-0.000275137765289
-0.00027509414164
-0.000274660035836
-0.000273326887239
-0.000269869698886
-0.000267401782356
-0.000253231513348
-0.000224700991751
-0.000174692051984
-9.79553432817e-05
-9.93890067076e-05
-0.000179001339111
-0.000230761450375
-0.000258864506062
-0.000268976661411
-0.000276715089915
-0.000280520947887
-0.000281747572032
-0.000282041446459
-0.000282223929341
-0.000282436504171
-0.000282533829519
-0.000282424637659
-0.00028128609658
-0.000277483937733
-0.000269824068036
-0.00026009455149
-0.000231651690469
-0.000179584271571
-9.97984500223e-05
-0.000100359255076
-0.000181077860962
-0.000233604655308
-0.000260934342709
-0.000272434158229
-0.000280460512534
-0.000283714106315
-0.000284224719413
-0.000283935143578
-0.000283824584139
-0.000284062701575
-0.000284477064966
-0.000284974793908
-0.000284562450215
-0.000281288157423
-0.000273284003744
-0.000262252171668
-0.000234577447891
-0.00018171328714
-0.00010077915907
-0.000100869026345
-0.000181789531245
-0.000234510875435
-0.000260701725758
-0.000273749473671
-0.000281548023291
-0.000284067410851
-0.000283727389599
-0.000282808948654
-0.000282379735269
-0.000282665453383
-0.000283460494276
-0.000284611694062
-0.000285058560717
-0.00028249344053
-0.00027467912323
-0.000262164958439
-0.000235570783714
-0.00018249117298
-0.000101291742936
-0.000101143302932
-0.0001820896873
-0.000234886387025
-0.000260539808547
-0.000274184417989
-0.000281645787786
-0.000283561415184
-0.000282573035806
-0.000281029429598
-0.000280221281485
-0.000280600420055
-0.000281827005777
-0.000283622545057
-0.000284710852746
-0.000282727924627
-0.00027522504956
-0.000261701965242
-0.000236030482954
-0.000182855756579
-0.000101568274786
-0.000101260815664
-0.000182245791173
-0.000235086533181
-0.000260693604161
-0.000274369058121
-0.000281610986429
-0.000283212466013
-0.000281871763757
-0.000279890168792
-0.000278830683992
-0.000279322016475
-0.000280846705805
-0.000283035630086
-0.000284470902438
-0.000282773481113
-0.000275296164108
-0.00025994331013
-0.000236276258392
-0.000183054498971
-0.000101694085617
-0.00010125521923
-0.000182230271811
-0.000235057960329
-0.000260651927172
-0.000274330246634
-0.000281567375508
-0.000283159993508
-0.000281805436159
-0.000279802992618
-0.000278723288048
-0.000279210977703
-0.00028075195906
-0.000282960210913
-0.000284408651048
-0.000282720499113
-0.000275250565918
-0.00025990554162
-0.000236241646043
-0.000183038204456
-0.000101689389061
-0.000101133024593
-0.000182043126564
-0.000234805195422
-0.000260428854402
-0.000274075948906
-0.000281524893598
-0.000283419366453
-0.000282401252792
-0.000280816020276
-0.000279970001131
-0.000280341464483
-0.000281595493904
-0.000283429477328
-0.000284545279261
-0.000282582004626
-0.000275091453371
-0.000261609627094
-0.000235924275159
-0.000182799683199
-0.000101557314858
-0.000100861834947
-0.000181717388479
-0.00023438974952
-0.000260529941318
-0.000273584383273
-0.000281362396302
-0.000283849700331
-0.000283466581233
-0.00028250849797
-0.000282037104887
-0.000282313932411
-0.00028313583342
-0.000284325640595
-0.000284809538949
-0.000282272318649
-0.00027447381276
-0.000261931346448
-0.000235404213633
-0.000182396939031
-0.000101281602175
-0.000100357895197
-0.000180994471224
-0.000233461337702
-0.000260722059212
-0.000272228641004
-0.000280226850971
-0.00028344192753
-0.000283903350141
-0.000283566771614
-0.000283422552408
-0.000283652026167
-0.000284087878696
-0.00028462427501
-0.00028425264962
-0.000281011047981
-0.000273027521868
-0.000261953567687
-0.000234374726359
-0.000181595306816
-0.000100772935371
-9.93964627226e-05
-0.000178932552015
-0.000230628131292
-0.000258647692778
-0.000268737583939
-0.000276441370721
-0.000280213792885
-0.00028139221496
-0.000281640741394
-0.00028179125823
-0.000281993832792
-0.00028211188448
-0.000282037859592
-0.000280938182922
-0.000277164886803
-0.000269528250484
-0.000259793699429
-0.000231450653918
-0.000179470979377
-9.97989763703e-05
-9.75829072398e-05
-0.000174117912371
-0.000223779569535
-0.000251918451755
-0.000265791332084
-0.000268685127191
-0.000272176396431
-0.00027357379827
-0.000274155863848
-0.000274432864992
-0.000274606384469
-0.000274643609966
-0.000274240792657
-0.000272943365649
-0.000269520486888
-0.000267025441692
-0.000252968498892
-0.000224541076898
-0.000174616322752
-9.79705656008e-05
-9.45627778818e-05
-0.000164819982915
-0.000210420090614
-0.000237171547803
-0.000251844547231
-0.000258568275034
-0.000260708206177
-0.000260594087938
-0.000260658415788
-0.000259352637018
-0.000259374338582
-0.000261281429483
-0.000261500631183
-0.000261760927378
-0.000259775787197
-0.000253015901813
-0.000238163984654
-0.000211157503632
-0.000165298841176
-9.49205635338e-05
-8.98003897134e-05
-0.000148678246461
-0.000187215218295
-0.000210319075901
-0.000223608277985
-0.00023044924729
-0.000233312760806
-0.000234311061946
-0.000234860059449
-0.000235284541724
-0.000235541188277
-0.000235492674397
-0.00023521687495
-0.000234372810409
-0.000231565164595
-0.000224699397487
-0.000211261340909
-0.000187934251959
-0.000149147765938
-9.01148170909e-05
-8.24786057625e-05
-0.000121971642428
-0.000148605358863
-0.000164664390058
-0.000173913876914
-0.000178736906566
-0.000180818699879
-0.000181603398423
-0.000182054676026
-0.000182419836158
-0.000182679938394
-0.000182665519105
-0.000182436716359
-0.000181751204531
-0.000179681192277
-0.000174857471688
-0.000165477689081
-0.000149236578252
-0.000122385132475
-8.2714344685e-05
-7.3398423893e-05
-8.24977059918e-05
-8.9813471484e-05
-9.45592508154e-05
-9.75558374509e-05
-9.93665522774e-05
-0.000100321287629
-0.000100838522115
-0.000101151601894
-0.00010136153104
-0.000101624521667
-0.00010160740717
-0.000101366521509
-0.000100865361651
-9.98789246935e-05
-9.80370710862e-05
-9.49510897367e-05
-9.01082952071e-05
-8.26990489483e-05
-7.35134192325e-05
-8.05261598328e-05
-0.000115020703598
-0.000139361156144
-0.00015470832334
-0.000164163301601
-0.000169611114325
-0.000172420747975
-0.000173703032143
-0.000174232899512
-0.000174473836227
-0.000174655228129
-0.000174663469241
-0.000174280559344
-0.000173047522951
-0.000170205593419
-0.000164688856719
-0.000155109003726
-0.000139629706146
-0.000115206042808
-8.07282413478e-05
-0.000114927897967
-0.000237390445077
-0.000300791167659
-0.000339195870857
-0.000361939444448
-0.000374257981113
-0.00037999195218
-0.000382046695052
-0.000382650261466
-0.000382895585008
-0.000383142140096
-0.000383243529075
-0.000382856071771
-0.000380915198564
-0.000375200860213
-0.000362858348298
-0.000339970771306
-0.000301352519753
-0.000237720418946
-0.000115286445545
-0.000139264584016
-0.000300905304767
-0.000384275342606
-0.00043599708211
-0.000467546055743
-0.000485358494076
-0.00049412820641
-0.000497785575479
-0.000499441662986
-0.000500264670795
-0.000500578787172
-0.000500170741864
-0.000498789366512
-0.000495276221684
-0.000486532967799
-0.000468640157692
-0.000436904176003
-0.000384922999714
-0.000301276643373
-0.00013973012484
-0.000154645879338
-0.00033939275573
-0.00043610014146
-0.0004962510548
-0.000532718935505
-0.000552930084166
-0.000562210969941
-0.000564339017825
-0.000566168673817
-0.000568200371986
-0.000568674060692
-0.000566812404161
-0.000565219621933
-0.000562709460769
-0.000554221872934
-0.000533867359471
-0.000497196462196
-0.000436777830128
-0.000339795191414
-0.000155178091119
-0.000164131126334
-0.000362140822658
-0.000467681145515
-0.000532767909733
-0.000571158842404
-0.000591977982604
-0.000600806856374
-0.000603728119346
-0.000604857261245
-0.000605480411758
-0.000605819708427
-0.000605650096198
-0.000604907276709
-0.000602228874191
-0.000593389050325
-0.000572322733202
-0.000533744157863
-0.000468412497544
-0.000362624970405
-0.000164713708936
-0.000169570713814
-0.000374368054385
-0.000485433657977
-0.000552929557339
-0.000591901290719
-0.000610822007598
-0.00061821372543
-0.00062020619816
-0.000620517917635
-0.000620669644871
-0.000621017578726
-0.000621424215952
-0.000621601086402
-0.000619931661271
-0.000612542805999
-0.000593366029312
-0.000554033971958
-0.000486274211614
-0.000374970385122
-0.000170205361308
-0.000172342801906
-0.000379970018665
-0.000494071761147
-0.000562054904987
-0.000600534870338
-0.00061797588996
-0.000623792077286
-0.000624481266073
-0.000623910153422
-0.000623677882627
-0.000624064346841
-0.000624942344873
-0.000626105666995
-0.000625858241989
-0.000620070527239
-0.000602275890014
-0.00056213997515
-0.000495028643792
-0.000380719426027
-0.000173033907529
-0.000173545748789
-0.000381841219052
-0.000497545221667
-0.000564109724736
-0.000603139478581
-0.000619554184455
-0.000624017652751
-0.000623448473252
-0.000622219349418
-0.000621753072025
-0.000622159947114
-0.000623483241083
-0.000625340814213
-0.000626445578991
-0.000622035374127
-0.000605207526798
-0.000565118353699
-0.000498647047075
-0.000382733448482
-0.000174284482581
-0.00017394807649
-0.000382201241349
-0.000498927049557
-0.000565655138146
-0.00060387056637
-0.000619401660731
-0.000622944838455
-0.000621696394273
-0.000619865867805
-0.000618872525311
-0.000619356083454
-0.000621114388966
-0.000623887651279
-0.000625695437953
-0.000622216892488
-0.000606259224914
-0.00056746395479
-0.000500197391342
-0.000383237558671
-0.00017472683865
-0.000174021396384
-0.000382166052281
-0.000499377638001
-0.00056629260781
-0.000604023289989
-0.000619115499083
-0.000622249915885
-0.000620814353164
-0.000618342360238
-0.000617215862809
-0.000617804885139
-0.000619752599747
-0.000622944248626
-0.000625169028686
-0.000622133747954
-0.000606826336701
-0.000569743485316
-0.000500897652123
-0.000383304912073
-0.000174833349223
-0.000174005387025
-0.000382113594029
-0.000499311375316
-0.000566220506807
-0.000603935114596
-0.00061901440502
-0.000622134590529
-0.000620682336078
-0.000618180403205
-0.00061703301145
-0.000617618325239
-0.000619579991431
-0.000622792522332
-0.000625028747478
-0.000622005622457
-0.000606711689304
-0.000569643620437
-0.000500815035001
-0.000383245712173
-0.000174819600977
-0.00017390654748
-0.000382052319654
-0.000498739082599
-0.000565447219429
-0.000603614921558
-0.000619109125687
-0.000622613218016
-0.000621326196416
-0.000619432260872
-0.00061837919088
-0.000618851853166
-0.00062064392658
-0.000623467559127
-0.000625300695931
-0.000621851365788
-0.000605931601047
-0.000567149171668
-0.000499958884712
-0.000383060971495
-0.000174684012102
-0.00017349107211
-0.000381610980465
-0.000497252917461
-0.000563778614365
-0.000602730590968
-0.000619081025005
-0.000623479600832
-0.000622830800401
-0.000621561388928
-0.000621006898782
-0.000621392634145
-0.000622760458892
-0.000624660498898
-0.000625816203847
-0.000621456640912
-0.000604691629064
-0.000564695041526
-0.000498269832467
-0.000382449182092
-0.000174221583579
-0.000172283593806
-0.000379690628219
-0.000493703481992
-0.000561608519059
-0.000600002773846
-0.000617357523076
-0.000623079023822
-0.000623665578468
-0.000623005730083
-0.000622708836828
-0.000623075115391
-0.000623983404623
-0.000625205288926
-0.000625027524446
-0.000619316650973
-0.000601597038534
-0.000561509519833
-0.000494540790899
-0.000380362568919
-0.000172960535754
-0.000169516062483
-0.000374079608975
-0.000485038114037
-0.000552423487091
-0.000591282312418
-0.000610104491512
-0.000617383154139
-0.000619259396843
-0.000619476649063
-0.000619573017695
-0.000619898672927
-0.000620320479563
-0.000620557206882
-0.000618968059121
-0.000611675493792
-0.000592592174416
-0.000553374208371
-0.000485747656371
-0.000374590444221
-0.000170132216913
-0.000164093172154
-0.000361877635388
-0.000467312227499
-0.000532270884411
-0.000570508903444
-0.000591206322979
-0.000599929543681
-0.000602743470512
-0.000603785173408
-0.000604418564197
-0.000604736369031
-0.000604516785919
-0.000603823230481
-0.000601171592938
-0.000592461506836
-0.000571528686647
-0.000533095026837
-0.00046790972373
-0.000362265552181
-0.000164655863879
-0.000154630501579
-0.000339187643678
-0.000435797550674
-0.000495821270087
-0.000532136162367
-0.000552201720794
-0.00056141166027
-0.000563499893785
-0.000565305753017
-0.000567657421502
-0.000568051340901
-0.000565995729429
-0.000564261982722
-0.000561269820183
-0.00055332721833
-0.000533137153698
-0.000496623753473
-0.000436350842582
-0.000339497966922
-0.000155142211671
-0.000139271462321
-0.000300775484879
-0.000384067455392
-0.000435671205342
-0.000467080926133
-0.000484750993417
-0.000493404017055
-0.000496970403033
-0.000498556494316
-0.000499374975487
-0.000499674830384
-0.000499240078556
-0.000497896359022
-0.00049441862545
-0.000485805432141
-0.000468048998356
-0.000436457326802
-0.000384607804659
-0.000301065818655
-0.000139716875548
-0.000114951819333
-0.000237340502884
-0.000300692597924
-0.000339011479467
-0.000361655300777
-0.000373866477682
-0.000379507239526
-0.000381487997826
-0.000382037517814
-0.000382252341304
-0.000382490975236
-0.000382604697812
-0.000382249786325
-0.00038036517221
-0.000374728584053
-0.000362485279639
-0.000339698835529
-0.00030117570585
-0.000237612455217
-0.000115297989876
-8.05467776632e-05
-0.00011503605664
-0.000139375467975
-0.000154711272676
-0.000164141595636
-0.000169556382159
-0.00017233319837
-0.000173586356095
-0.00017409428749
-0.000174322387446
-0.000174504300736
-0.000174525115791
-0.000174162785389
-0.000172955007903
-0.000170140535328
-0.000164652585704
-0.000155096112307
-0.000139628902116
-0.000115213662521
-8.07521856602e-05
-8.48021332636e-05
-0.000132980457101
-0.000167115781087
-0.00018912727543
-0.000203007015613
-0.000211217017062
-0.00021555530895
-0.000217427587279
-0.000217944421455
-0.00021797108841
-0.000218064768775
-0.000218210544758
-0.0002178528093
-0.000216085461911
-0.000211755428124
-0.000203478537584
-0.000189466898186
-0.000167302847968
-0.000133098803233
-8.5075284325e-05
-0.000132800907409
-0.000286688540081
-0.000367548998712
-0.000418300714486
-0.000449860320588
-0.000468077838809
-0.000477592902535
-0.000481907840256
-0.0004834729615
-0.000483958892771
-0.000484188599459
-0.000484064506016
-0.000482763540095
-0.000478600582268
-0.000469096437558
-0.0004507867114
-0.000419041409084
-0.000368013823787
-0.000286907186935
-0.00013328688283
-0.00016689825992
-0.000367649540575
-0.000472020814293
-0.000538629178273
-0.000581042729782
-0.000606460983317
-0.000620281508263
-0.000627543042063
-0.0006308513969
-0.00063223702803
-0.000632563584269
-0.000631686428047
-0.000628688871974
-0.000621575398357
-0.000607729826121
-0.00058218580898
-0.000539568465002
-0.00047266595521
-0.000367980735647
-0.000167547971241
-0.000188920968789
-0.000418452660283
-0.000538693127875
-0.000615611762522
-0.000664103833409
-0.000692751069229
-0.000706951684327
-0.000716653716297
-0.00072086500296
-0.000722663894856
-0.000723044160614
-0.000721836893083
-0.000718052425581
-0.000709031292834
-0.000694239229905
-0.000665342056752
-0.000616676169286
-0.000539504023208
-0.000418959058499
-0.000189707979838
-0.000202788715758
-0.000449958183597
-0.000581077559562
-0.000664114211508
-0.000714269547701
-0.000746225603199
-0.000761978342336
-0.000770634124958
-0.000775054343162
-0.000776724082836
-0.000777122845531
-0.0007761496844
-0.000773229353526
-0.00076514698148
-0.000748069868845
-0.000715408976333
-0.000665289751839
-0.000582105933959
-0.000450705077567
-0.000203713226297
-0.000210929749073
-0.000468001203236
-0.000606389809419
-0.000692685698192
-0.000746113188565
-0.000775453216826
-0.000790205817658
-0.000799850321274
-0.000804933117336
-0.000806209169431
-0.000806587246787
-0.000805999916918
-0.000805087251546
-0.00079937382742
-0.000781336103043
-0.000748152705028
-0.00069425003898
-0.000607692020903
-0.000469087858284
-0.000212008174241
-0.000215149516531
-0.000477280871408
-0.000620026257065
-0.000706710053444
-0.000761555186224
-0.000787507774825
-0.000801924551281
-0.000813012547413
-0.000818471972328
-0.000819191810145
-0.000819500144925
-0.000819374597769
-0.000820715192115
-0.000818686068733
-0.000801778125581
-0.000765574544305
-0.000709536286477
-0.000621695931555
-0.00047872331134
-0.000216381859477
-0.000216868973893
-0.00048131769774
-0.000627006014475
-0.000715961870399
-0.000768465978572
-0.000791748606854
-0.000806155812476
-0.00081729901683
-0.00082242173993
-0.00082255912766
-0.00082282620591
-0.000823246448646
-0.000826301529066
-0.000826931930397
-0.000812343430686
-0.000775150259341
-0.000718605083332
-0.000628990653323
-0.000483062075472
-0.000218213660711
-0.000217221183046
-0.000482560277001
-0.000629943944038
-0.000719693728301
-0.000771358193529
-0.000793707208945
-0.00080747095955
-0.00081797135393
-0.000822506862278
-0.000822400388894
-0.000822670001637
-0.000823372207907
-0.000827406265622
-0.000829378268165
-0.000816076924587
-0.000779406376284
-0.00072274804229
-0.000632237086184
-0.000484548784666
-0.000218630450599
-0.000217099066825
-0.000482705001426
-0.000630893181868
-0.000720967270139
-0.000772498993195
-0.000794540464565
-0.000807804603599
-0.000817806453233
-0.000822021694236
-0.00082185288623
-0.000822188330673
-0.00082305862054
-0.000827384219841
-0.000829820626388
-0.000817018384766
-0.000780772590477
-0.000724348651265
-0.000633393112544
-0.000484858709589
-0.000218548395996
-0.00021706234288
-0.000482607599832
-0.000630781710284
-0.000720855567014
-0.000772385150742
-0.000794424702007
-0.000807686089376
-0.00081768184658
-0.000821873452365
-0.000821686266061
-0.000822022354053
-0.000822910766132
-0.000827247548013
-0.000829681795523
-0.000816869513689
-0.000780618993664
-0.000724203206575
-0.000633255993569
-0.000484748566512
-0.000218517545963
-0.00021712561548
-0.000482292318287
-0.000629628573454
-0.000719372501016
-0.000771025013149
-0.0007933667172
-0.000807112636383
-0.000817595512113
-0.000822066088585
-0.00082190334219
-0.000822174440378
-0.000822930525144
-0.000826996946542
-0.000828969434734
-0.000815641340761
-0.000778963234425
-0.000722330651671
-0.000631842909121
-0.000484233205397
-0.00021854200238
-0.000216734667532
-0.000480920578905
-0.00062652253309
-0.00071545516162
-0.000767860850418
-0.000790946913145
-0.00080515545105
-0.000816113663678
-0.000821144569796
-0.000821227505366
-0.000821473962372
-0.00082195996009
-0.000825075887235
-0.000825793450422
-0.000811377280106
-0.000774382931261
-0.000717960596942
-0.000628376871749
-0.00048257901548
-0.000218077703534
-0.000214989197554
-0.000476794703036
-0.000619429822032
-0.000706068928738
-0.000760755636138
-0.000786256916087
-0.000800109267853
-0.000810825642015
-0.00081610030025
-0.000816745438647
-0.000817044122311
-0.000816949442679
-0.000818380177195
-0.00081664354733
-0.000800311561889
-0.000764584316233
-0.000708763447296
-0.000620938357845
-0.000478123192768
-0.000216211497824
-0.000210757251469
-0.000467461175042
-0.00060572322617
-0.00069191512069
-0.000745247014742
-0.000774266193677
-0.000788373127309
-0.000797482449892
-0.000802339461175
-0.00080353557704
-0.000803883586357
-0.000803312400452
-0.000802548805595
-0.000797332198579
-0.000779940908094
-0.000747099049334
-0.000693301513126
-0.000606849553762
-0.000468421424993
-0.000211820606491
-0.000202622129734
-0.000449410367371
-0.000580415239691
-0.000663327246042
-0.000713336968236
-0.000745172279667
-0.000760740595776
-0.000769102938589
-0.000773325276462
-0.000774910397437
-0.000775280982386
-0.000774335227829
-0.000771563919287
-0.000763777987022
-0.000746840806935
-0.000714344256509
-0.000664322859827
-0.000581272531892
-0.000450033679753
-0.000203530208458
-0.000188778411945
-0.000417962712253
-0.000538092386095
-0.000614887519071
-0.00066321598117
-0.000691706527428
-0.000705838340623
-0.000715358066165
-0.000719445567657
-0.000721195139552
-0.000721547461733
-0.000720342678386
-0.000716674387739
-0.000708129793484
-0.000693056151205
-0.000664282710478
-0.000615777045071
-0.000538752834903
-0.000418360600501
-0.000189548965557
-0.000166789239877
-0.000367253211081
-0.000471523374083
-0.000538008300721
-0.000580276657819
-0.000605528288636
-0.000619220839541
-0.000626347192683
-0.000629543078957
-0.000630855232891
-0.000631154681094
-0.00063029990037
-0.000627378912696
-0.000620401293846
-0.000606642153147
-0.000581262937245
-0.000538804353845
-0.000472046436458
-0.000367493298685
-0.00016742309127
-0.000132738399564
-0.000286427734435
-0.000367203554739
-0.000417856691337
-0.000449288362091
-0.000467377548186
-0.000476785431445
-0.000481008777048
-0.000482496755895
-0.00048293315336
-0.000483146052646
-0.000483040554187
-0.000481793660573
-0.000477704489501
-0.000468293988276
-0.000450106004099
-0.000418494982498
-0.000367580357384
-0.00028657982538
-0.000133216093276
-8.4801447661e-05
-0.000132934799901
-0.000167047340816
-0.000189036708744
-0.000202885068435
-0.000211056346894
-0.000215358644369
-0.000217200114001
-0.000217695843652
-0.000217712105327
-0.000217807319909
-0.000217965714977
-0.000217629577885
-0.000215887427638
-0.000211586954548
-0.000203342988375
-0.00018935965363
-0.00016721658257
-0.000133043268515
-8.50791566526e-05
-8.58852606554e-05
-0.000142020683409
-0.000182063296376
-0.000208519282684
-0.000225451930223
-0.000235578123056
-0.000240862091451
-0.000242910002151
-0.000243230540117
-0.000243035536053
-0.000243038134948
-0.000243274287892
-0.000243062733858
-0.000241195639891
-0.000236004748634
-0.000225870740749
-0.000208820541237
-0.000182174522966
-0.000141963497206
-8.6201062957e-05
-0.000141684438374
-0.000314756226739
-0.000407039318471
-0.000466473532247
-0.000504354857947
-0.000527113957478
-0.000539551107347
-0.000545275681439
-0.000547319311886
-0.00054784194287
-0.000548029704689
-0.000547846880831
-0.000546070765295
-0.000540544510867
-0.000528167973751
-0.000505335047277
-0.000467256638551
-0.000407471637665
-0.00031489518671
-0.000142386311834
-0.000181697145766
-0.000407063300903
-0.000525980236364
-0.000603523668345
-0.000654154052807
-0.000685365246813
-0.000703783142261
-0.000713511003675
-0.000718030998944
-0.000719840832557
-0.000720213892513
-0.000719047615422
-0.000714943891356
-0.000705427042973
-0.000686973856844
-0.000655658035236
-0.000604794949418
-0.000526911147024
-0.000407594685204
-0.000182623960778
-0.00020812177807
-0.00046646552687
-0.000603476176236
-0.000692465578152
-0.000749788641343
-0.000781785233759
-0.000803009130569
-0.000816251605006
-0.000823102011045
-0.000825471324745
-0.000825914658921
-0.000824342681108
-0.000820407887836
-0.000810141664458
-0.000786090867964
-0.000751827152967
-0.000694194493562
-0.000604902901492
-0.000467470369687
-0.000209307012743
-0.000224968083172
-0.000504129995766
-0.00065394650866
-0.000749683366195
-0.000807941195061
-0.000840892949775
-0.000862538983713
-0.000880568129797
-0.000890803249008
-0.000893076809911
-0.00089341599814
-0.000891800254002
-0.000891029239161
-0.000884712743485
-0.000860107952705
-0.00081613290479
-0.000751980741472
-0.000655951050017
-0.000505752506769
-0.000226424697458
-0.000234922393062
-0.000526542897181
-0.000684927584318
-0.000781489340187
-0.000837431028118
-0.000868639071223
-0.000893378139246
-0.000917814348683
-0.000931578338353
-0.000933204239078
-0.000933307879199
-0.000931887956181
-0.000935880321922
-0.000937106198996
-0.000914511888012
-0.000863446550149
-0.000786580025562
-0.000687560868784
-0.000528893758457
-0.000236671740289
-0.000239982511597
-0.000538595444709
-0.000703086359502
-0.000799843181569
-0.000849553598619
-0.000879188876342
-0.000906448217934
-0.000935946743378
-0.000951784576196
-0.000952568850671
-0.000952502055607
-0.000951484199366
-0.000959964818554
-0.000969606164762
-0.000951455325421
-0.000897382768099
-0.000813376211159
-0.000706417137469
-0.000541646870831
-0.000241997033566
-0.000241829327067
-0.000543984110511
-0.000712502996097
-0.000807371815069
-0.000854659024461
-0.000882827900114
-0.000911470611964
-0.000942429779852
-0.000958489352412
-0.000958540616741
-0.000958340751188
-0.00095799513396
-0.000969420124056
-0.000984354141714
-0.000970973237235
-0.000916228833018
-0.000828949614231
-0.000716371581409
-0.000547540448393
-0.000243995332921
-0.000242013032271
-0.000545691170297
-0.000716602777782
-0.000811227897337
-0.00085786367945
-0.000885489981682
-0.000913690865956
-0.000944246018109
-0.000959918214073
-0.000959615569962
-0.000959312220538
-0.000959080330622
-0.000971796400989
-0.000988836881328
-0.000977565332797
-0.000923702758518
-0.000835736461519
-0.000720944169531
-0.000549624161399
-0.000244221130078
-0.000241740779065
-0.000545856696124
-0.00071788585622
-0.000813017190264
-0.000859677837834
-0.00088713546436
-0.000914712705786
-0.000944885244636
-0.000960121526822
-0.000959648712484
-0.00095939912946
-0.000959372591815
-0.000972206222829
-0.000989783783038
-0.000979181354175
-0.000925762337422
-0.000837846410848
-0.000722512599694
-0.000550037704511
-0.000243977979172
-0.000241684807
-0.000545710630029
-0.000717729451732
-0.000812875564066
-0.000859556844681
-0.000887038574805
-0.000914628678522
-0.000944815256373
-0.000960023324609
-0.000959524430232
-0.000959281030684
-0.000959282706937
-0.000972120133017
-0.000989680927988
-0.000979046337861
-0.000925584141132
-0.000837644616451
-0.000722310759374
-0.000549869603233
-0.000243932032028
-0.000241855193561
-0.000545284528492
-0.000716163242055
-0.000810815130215
-0.000857506036094
-0.000885207447406
-0.00091339635051
-0.000944009371318
-0.000959617043745
-0.00095924303635
-0.0009589592226
-0.000958811374947
-0.000971510861752
-0.00098852605541
-0.00097716232619
-0.000923182322514
-0.000835153786223
-0.000720370838976
-0.000549151282435
-0.000244090647195
-0.000241600036431
-0.000543366428636
-0.000711832444442
-0.000806547866206
-0.000853504295398
-0.000881278252469
-0.000909491619206
-0.000939990865895
-0.000955909263053
-0.000955929754608
-0.000955671062883
-0.000955391011476
-0.000966805345021
-0.000981809612419
-0.000968836487821
-0.000914688718909
-0.000827866412021
-0.000715496752014
-0.00054680902215
-0.000243779794552
-0.000239693140576
-0.000537819823789
-0.000702254232994
-0.000798632281334
-0.000847416337526
-0.000875782359106
-0.000901756767909
-0.000930206402371
-0.000945505683235
-0.000946191718527
-0.000946123973108
-0.000945114164679
-0.000953570879551
-0.000963655491793
-0.000946991953565
-0.000894687036728
-0.000811853361209
-0.000705336918437
-0.000540724352229
-0.000241718293474
-0.0002345954269
-0.000525665189249
-0.000683987398654
-0.000780324328933
-0.000835289776172
-0.000864764274948
-0.000887735944915
-0.000910780894856
-0.000923930476816
-0.00092542411102
-0.000925466764648
-0.000924021220032
-0.00092814480404
-0.000930367662177
-0.000909804443235
-0.000860851986932
-0.000785154341564
-0.000686393358097
-0.000527874947234
-0.000236354768485
-0.000224633278748
-0.00050322508915
-0.000652998848317
-0.000748674513314
-0.000806481545
-0.00083807332734
-0.000858149299792
-0.000875052948918
-0.00088477157253
-0.000886884063073
-0.000887150108044
-0.000885550724591
-0.000885068976268
-0.00087974908729
-0.000856843885984
-0.000814323409739
-0.000750719503397
-0.000654813325436
-0.0005047340441
-0.00022610195906
-0.000207804639237
-0.000465614048677
-0.000602578398058
-0.000691489182417
-0.000748671813432
-0.000780300629236
-0.000800818127907
-0.00081336085917
-0.000819850427311
-0.000822067714061
-0.000822453081602
-0.000820918505546
-0.000817254305875
-0.000807688268776
-0.000784367700122
-0.000750468996847
-0.000693028506189
-0.000603870547294
-0.000466538057613
-0.000209001205555
-0.000181412444614
-0.000406323808512