/*--------------------------------*- C++ -*----------------------------------*\
| =========                 |                                                 |
| \\      /  F ield         | OpenFOAM: The Open Source CFD Toolbox           |
|  \\    /   O peration     | Version:  3.0.1                                 |
|   \\  /    A nd           | Web:      www.OpenFOAM.org                      |
|    \\/     M anipulation  |                                                 |
\*---------------------------------------------------------------------------*/
FoamFile
{
    version     2.0;
    format      ascii;
    class       volScalarField;
    location    "7.2";
    object      epsilon;
}
// * * * * * * * * * * * * * * * * * * * * * * * * * * * * * * * * * * * * * //

dimensions      [0 2 -3 0 0 0 0];

internalField   nonuniform List<scalar> 
7968
(
8.39126652418e-05
0.000108915039746
0.000129951142681
0.000143609408484
0.000151223083288
0.000154245747991
0.000154352559736
0.000152578931903
0.000150222474654
0.00014824459007
0.000147949017074
0.000149693431214
0.000151962077324
0.000153717341196
0.000153654763234
0.000150704603833
0.000143217929084
0.000129697349982
0.000108776385842
8.38590718507e-05
0.000108956306146
0.000210305093456
0.000285557897785
0.000329927763407
0.000350463355848
0.000354595282319
0.00034992641637
0.000341374612571
0.000333398592514
0.000328576543368
0.000328116247448
0.000332242328417
0.000339750359663
0.000348075360415
0.00035271538588
0.000348647324857
0.000328372033255
0.000284414026657
0.000209659772005
0.000108726606288
0.000130049142572
0.00028554005593
0.000399672950497
0.000466554568872
0.000497231542441
0.00050324753076
0.000495838184927
0.000483573098446
0.000472665767033
0.000466285334947
0.000465642260647
0.000471012992399
0.000481246391822
0.000493177593189
0.000500499090166
0.000494556197207
0.000464193519274
0.000397892962183
0.000284511336863
0.000129644886102
0.000143724923647
0.000329908245573
0.000466549927331
0.000545486460931
0.000579978267711
0.000584672649857
0.000573846145249
0.000558796896064
0.000546313272499
0.000539293396651
0.000538520050558
0.00054420990574
0.000555907891793
0.000570580380381
0.000581344426076
0.000576704716108
0.000542529551611
0.000464255450257
0.000328524548717
0.000143142451846
0.000151349429844
0.000350449828187
0.000497257253821
0.000580000563323
0.000612677526785
0.000616207145116
0.000616278159104
0.000609091369191
0.000600206036377
0.000594164343745
0.000593344824955
0.000598183366166
0.00060644888305
0.000613505531643
0.000613428171327
0.000609142802237
0.000576668264763
0.000494565818771
0.000348741568917
0.000150594961118
0.000154386859759
0.000354632466116
0.000503319615333
0.000584672676648
0.000616099257584
0.000636248307016
0.000640956058024
0.000635046668242
0.000625928151878
0.000619288856337
0.00061830393284
0.000623547956302
0.000632037542552
0.000637989776177
0.000633597523743
0.000613529946558
0.00058129129353
0.000500437485356
0.000352732330184
0.000153511530034
0.000154496010881
0.000350016165039
0.000495958034852
0.000573805898539
0.000616109600408
0.00064088602607
0.000646020905111
0.00063853017822
0.000627244781495
0.000618994605559
0.000617774526324
0.000624341385979
0.000634930340498
0.000642603940027
0.000638053845887
0.000613649229688
0.00057053718471
0.000493042556808
0.00034802689043
0.00015356635843
0.000152727878328
0.000341582805899
0.000483853019344
0.000558896799697
0.0006090223283
0.000635126553342
0.000638729309511
0.000628088378765
0.000613317710929
0.000602763232598
0.000601282452382
0.000609838806769
0.00062378598319
0.000634717959468
0.000631937679623
0.000606478385326
0.000555732213598
0.000480933672318
0.00033956403524
0.000151795486462
0.000150392817396
0.0003338190524
0.000473290929437
0.000546888407266
0.000600548984511
0.000626519900309
0.0006280794327
0.000614036804034
0.00059565379136
0.00058202211497
0.000580225596121
0.00059154315347
0.00060908430476
0.000623455875432
0.000622893310792
0.000597753600335
0.000543546330544
0.000470296787134
0.00033177939719
0.000149474810796
0.000148483475931
0.000329280381567
0.000467382946066
0.000540477479681
0.000595160725325
0.000620688349804
0.000620837377697
0.000604672050328
0.000583357092817
0.000566946458418
0.000564862938361
0.000578748737957
0.000599222452774
0.000615780703817
0.000616733864785
0.000592157396618
0.000537346100575
0.000464289576624
0.000327201666908
0.000147557243916
0.00014839285074
0.000329155665936
0.000467252516499
0.000540365722422
0.000595049148214
0.000620589044581
0.000620747828759
0.000604582470176
0.000583249707176
0.000566810102954
0.000564720493754
0.00057863224007
0.000599125032936
0.000615683733089
0.00061662592358
0.000592030612121
0.000537197648535
0.000464115944372
0.000327033083654
0.000147437803971
0.00015020744486
0.000333482772888
0.000472921114478
0.000546560390004
0.000600232295156
0.000626238644798
0.000627827046703
0.000613791635026
0.000595387845202
0.000581715081786
0.000579908531617
0.000591261103975
0.000608825402314
0.00062318933389
0.00062259435798
0.000597404791442
0.000543147432473
0.000469831198238
0.000331347046372
0.000149235005095
0.000152491527288
0.000341065921214
0.000483245289029
0.000558315328246
0.000608485232703
0.000634640838361
0.000638281867619
0.000627651791326
0.000612876608798
0.000602297576901
0.000600807603101
0.000609383509087
0.00062333240477
0.000634253631128
0.000631430765224
0.000605902819837
0.000555070234567
0.000480213173819
0.000338931742119
0.000151496080714
0.000154243562234
0.000349378168864
0.000495153686119
0.000572968263863
0.000615362680626
0.000640199316568
0.000645375240686
0.000637901767846
0.000626614153927
0.000618351463048
0.000617122334312
0.000623691369562
0.000634278838112
0.000641935342451
0.000637341464521
0.000612858637916
0.000569617220166
0.000492122378463
0.000347268681752
0.000153250649158
0.000154153471482
0.000353947674286
0.000502399431347
0.000583652529696
0.00061516993378
0.000635395218061
0.000640143842258
0.000634255275279
0.000625140662952
0.000618495192295
0.000617499928406
0.000622734382307
0.000631210709031
0.000637140699669
0.000632705349804
0.000612541657841
0.000580177016577
0.000499392985229
0.000351926446823
0.000153219895527
0.000151156824589
0.000349781131853
0.00049632909975
0.000578930445006
0.00061150469322
0.000615220074221
0.000615319947511
0.000608151675907
0.000599265427812
0.000593215364537
0.000592383099842
0.000597201530576
0.000605448439834
0.000612478189776
0.000612367158558
0.00060787285093
0.000575470432583
0.000493494253116
0.000347947527546
0.000150350265985
0.000143594297779
0.000329359595949
0.000465748122532
0.000544526862068
0.000578891000469
0.000583478506541
0.000572575874096
0.000557533232734
0.00054504253098
0.00053810881871
0.000537332892901
0.000542858251529
0.000554527576892
0.000569176232425
0.000580007013286
0.000575459803375
0.000541402274298
0.00046329240265
0.000327848060491
0.000142970763323
0.000129977211291
0.000285167241873
0.000399103277259
0.000465837055772
0.000496384473745
0.000502295152099
0.000494812255371
0.000482502352289
0.000471550027364
0.000465127273343
0.000464449256995
0.000469802685019
0.000480032870173
0.000491988155735
0.000499374229645
0.000493527718972
0.00046330183607
0.00039716843648
0.000284024065178
0.000129545972168
0.000108936381113
0.000210136265801
0.000285282540622
0.000329547129644
0.000349959322124
0.000353989796314
0.000349250380764
0.000340643752408
0.00033261061677
0.000327736743699
0.000327240954464
0.00033136406379
0.000338889716114
0.00034725655898
0.000351964831351
0.000347997106067
0.000327858254298
0.00028402360119
0.000209415293038
0.000108692654455
8.39123301029e-05
0.000108896019998
0.000129904600434
0.000143524100472
0.000151083262911
0.000154048312784
0.000154109652506
0.00015229613804
0.000149901957764
0.00014788942873
0.000147567397766
0.000149317980735
0.00015160729959
0.000153397861848
0.000153383813017
0.000150497101681
0.000143077669812
0.000129608207418
0.000108728206152
8.38484333892e-05
0.000105352048073
0.00018192906433
0.000246658075635
0.000290917455772
0.000317162910631
0.000329626750351
0.000332951453949
0.000331093512638
0.000327657895031
0.000325095978851
0.000324740269779
0.000326768817792
0.000329878579564
0.000331606941064
0.000328315110867
0.000315991753402
0.000290001652159
0.000246051143411
0.000181608284262
0.000105223539019
0.000182092795505
0.000229121339294
0.000283305068493
0.000322699390307
0.000347210648424
0.000359857622063
0.000364421126473
0.000364241854809
0.000362309454931
0.000360697088889
0.000360475888424
0.000361744188895
0.000363455057325
0.000363533575848
0.000358959007941
0.000346337998759
0.000321889756419
0.000282553287956
0.000228387385732
0.000181389377022
0.000246916852907
0.000283482460842
0.000339139635792
0.000380931997124
0.000407205300277
0.000420726455874
0.000425460568696
0.000425165973498
0.000422998194654
0.000421188587727
0.000420949195164
0.000422384230554
0.000424317899787
0.000424504769102
0.000419743304615
0.000406208876418
0.000379918487629
0.000338084328665
0.000282338801443
0.000245763135145
0.000291210344478
0.000322999620155
0.000381060031247
0.000425529201558
0.000453928397367
0.000469060019649
0.000475009737835
0.000475929731841
0.00047452274754
0.000473017159725
0.000472771193062
0.000473885339253
0.000475053391974
0.000473985012979
0.000468008418802
0.000452838462571
0.000424362692794
0.000379768002584
0.000321528686309
0.000289697794662
0.000317473596826
0.000347589000833
0.000407408231833
0.000453989943092
0.000484739797853
0.000503533936021
0.000514192082171
0.000517955796885
0.000517793735502
0.000516644698693
0.000516376911592
0.000517120479328
0.000517057175625
0.000513237787933
0.000502610468146
0.000483663137059
0.0004527640208
0.000405968453501
0.000345879073681
0.000315668985327
0.000329952080704
0.000360277817057
0.000420955597576
0.000469117438664
0.000503514173584
0.000528120404592
0.000542344515308
0.000547930139058
0.000548356667729
0.000547244593017
0.000546939455872
0.000547594970966
0.000546902279214
0.000541266945927
0.000527164530111
0.000502621633399
0.000467924598211
0.00041945978781
0.000358433137488
0.000327959830387
0.000333287700757
0.000364858079697
0.000425690311841
0.000475040792944
0.00051415248224
0.000542338701748
0.000558598052385
0.000564798234558
0.000564969325074
0.000563470175672
0.000563120338461
0.000564100093604
0.000563595185311
0.000557313105285
0.000541237015722
0.000513244980429
0.000473914481447
0.000424196582001
0.000362963952423
0.000331214875127
0.000331476742211
0.000364711243064
0.000425423588557
0.000475967032794
0.00051795325314
0.000548008342896
0.00056491821078
0.000570606555384
0.000569740809399
0.00056762743517
0.000567240642764
0.000568775805069
0.000569218017611
0.000563413508121
0.000546728375648
0.000516978574024
0.000474936215985
0.000423944797041
0.000362815876353
0.000329395997756
0.000328153117064
0.000362852983426
0.000423349034381
0.000474662882709
0.000517920681703
0.000548620075417
0.000565324571634
0.000570005747568
0.000568236501856
0.000565057576398
0.000564584602987
0.00056711954185
0.000568463999633
0.000563626835346
0.000547180813908
0.000516853309627
0.00047360997237
0.000421853158304
0.000360961144816
0.000326083571126
0.000325771660485
0.000361353826239
0.000421686504235
0.000473317239788
0.000516966538202
0.000547751744049
0.000564116257791
0.000568210056736
0.000565423249184
0.000561213914312
0.0005606580445
0.000564152763771
0.000566535442948
0.000562285262132
0.00054620886412
0.000515831697678
0.000472254298089
0.000420159035646
0.000359447573537
0.000323688787807
0.000325652127147
0.000361270437367
0.000421612111225
0.000473249511047
0.00051690110845
0.00054768606265
0.000564046166291
0.000568130863286
0.000565327885728
0.000561101210666
0.00056054181238
0.000564048660955
0.000566445125774
0.000562204378786
0.000546134915294
0.000515759170724
0.000472177255364
0.000420068891351
0.000359339381872
0.00032353274934
0.000327830298617
0.00036262147918
0.000423140236035
0.000474473155603
0.000517740368176
0.00054844291347
0.000565139685031
0.000569802819359
0.00056800687804
0.000564797573795
0.000564315758537
0.000566868518828
0.000568234478548
0.000563415817573
0.000546983843779
0.000516656672765
0.000473399625499
0.000421608665211
0.000360674109328
0.000325682420819
0.000330998034385
0.000364359248126
0.00042509780309
0.000475668580529
0.000517678724239
0.000547749886676
0.000564660878573
0.000570332470032
0.000569447270495
0.000567312851079
0.000566914444162
0.000568458691165
0.000568907078968
0.000563122093455
0.000546444315015
0.000516683395511
0.000474612815927
0.000423576036959
0.000362396677324
0.000328826021239
0.000332721840821
0.000364429684802
0.000425276949485
0.000474649106049
0.00051380699633
0.000542030279809
0.000558310893855
0.000564510969727
0.000564667279693
0.000563148870596
0.000562787007271
0.000563769017854
0.000563271714403
0.000556991855597
0.000540900946941
0.000512875863161
0.000473496600644
0.000423738434976
0.000362466412727
0.000330558026518
0.000329372868514
0.000359821507928
0.000420490576544
0.000468656757745
0.000503107081052
0.000527768980076
0.000542032948791
0.000547638080857
0.00054806466737
0.000546942804976
0.00054662840219
0.000547280540299
0.000546581818188
0.000540925192816
0.00052678479994
0.00050218822181
0.000467432438088
0.000418946709903
0.000357906949529
0.000327292903007
0.000316946021484
0.000347146600175
0.000406929116164
0.000453490490354
0.000484251005836
0.000503117173064
0.000513819188771
0.000517614777558
0.000517462096461
0.000516309317693
0.000516033279965
0.000516768207635
0.000516688736922
0.000512833342462
0.000502161842169
0.000483141617344
0.000452222522096
0.000405432448277
0.000345362479559
0.000315055498009
0.00029079603338
0.000322614573775
0.000380605058021
0.000425027297451
0.000453404858092
0.000468536764279
0.000474500811856
0.000475467510953
0.00047407124638
0.000472569492658
0.000472315049923
0.000473408748286
0.000474554716279
0.000473440280405
0.000467437207505
0.000452262936303
0.000423801580648
0.000379244717936
0.000321066025576
0.000289204428604
0.000246643552725
0.000283172598696
0.000338731352348
0.000380449904982
0.000406673556029
0.000420162978568
0.000424878151376
0.000424572785615
0.000422387051054
0.000420557426388
0.000420303034726
0.000421733143402
0.000423666284191
0.000423855180771
0.000419108849662
0.00040560335156
0.000379360719139
0.000337599370212
0.000281953489601
0.0002454255952
0.000181967088497
0.000228889703199
0.000282951752815
0.000322246191507
0.000346675024183
0.000359256833274
0.000363771229929
0.000363552157293
0.000361578404484
0.000359929766515
0.000359687080995
0.000360956581175
0.000362683117047
0.000362791620817
0.000358264176505
0.000345708942878
0.000321347928617
0.000282119593125
0.000228087474866
0.000181221710307
0.000105339038766
0.000181752389888
0.000246350787369
0.000290508078592
0.000316657467082
0.000329035505526
0.00033229097945
0.000330371234989
0.000326871508403
0.000324253803255
0.000323866582331
0.00032590188759
0.000329042865885
0.00033082473631
0.000327605945621
0.000315375926361
0.000289495884524
0.000245664851697
0.000181375321452
0.000105195162786
0.000124793244512
0.000240999055617
0.000340713687427
0.000410308930938
0.000453114615851
0.000475412898104
0.000484076757971
0.000485186241569
0.00048368597192
0.000482325225836
0.000481948152236
0.000482646963165
0.000483641604546
0.000482242142412
0.000473522186792
0.000451362082453
0.000408878056756
0.000339723339775
0.000240452466429
0.000124598718209
0.000241316022092
0.000282721579477
0.000344112710067
0.000392256791445
0.00042492178856
0.000444311786202
0.000453958164597
0.000457429776267
0.000457913825179
0.000457568943994
0.000457368802956
0.000457367492614
0.000456630033424
0.000453010990993
0.000443317342296
0.000423936774381
0.0003912972645
0.000343137255312
0.000281622747673
0.000240016250349
0.000341209169379
0.000344430057665
0.000392691930443
0.000434024057324
0.000463215561629
0.00048111269299
0.000490431699173
0.000493985393449
0.000494490590375
0.000494072561203
0.000493874676712
0.000493958594897
0.000493228710817
0.000489557939932
0.00048016837293
0.000462196439699
0.000432875366425
0.000391322501161
0.000342707962904
0.000339088961602
0.000410899921415
0.0003927938967
0.000434261538749
0.00047243720651
0.000500559525581
0.000518770782467
0.000529484932991
0.000534185793172
0.00053529551073
0.000535075790788
0.000534868763847
0.000534739590439
0.000533400745471
0.000528624175375
0.00051779777031
0.000499471111622
0.000471112018217
0.000432567227364
0.000390583109553
0.000408158094434
0.000453798191997
0.000425606323983
0.000463611744519
0.000500706550675
0.000529715698255
0.000550345476555
0.000562743443064
0.000568573871921
0.000570226752682
0.000570171481432
0.000569945047595
0.000569597283822
0.000567602691187
0.000561634224087
0.000549286221962
0.000528650548015
0.000499283948856
0.00046168951951
0.000423035337454
0.000450539626157
0.00047619614352
0.00044508853043
0.000481596143026
0.000518979957216
0.000550410743923
0.000573235088199
0.000587412062537
0.000594163344539
0.000596099049946
0.000596064490352
0.000595824846524
0.000595379709751
0.000592864570729
0.000585755712352
0.000571769744967
0.000549184147472
0.000517515477628
0.000479540983673
0.000442285229352
0.000472565436976
0.000484960067172
0.000454788491718
0.000490956624456
0.000529719463382
0.000562890036603
0.000587620068588
0.000603067466717
0.000610223094382
0.000612031755413
0.000611808117357
0.000611586619516
0.000611272825926
0.00060858367249
0.00060072415306
0.00058549924979
0.000561402906937
0.000528269090165
0.000488843559775
0.000451874660077
0.000481124747809
0.00048620100906
0.000458312128575
0.000494559239571
0.000534510487275
0.000568932572877
0.000594841305499
0.000610836589914
0.000617785978511
0.000618992152979
0.000618296496968
0.000618103296645
0.000618253618654
0.00061594909657
0.000607975580961
0.00059211956191
0.000567106031815
0.000532903244641
0.000492403894146
0.000455379434922
0.0004823172557
0.000484869449694
0.000458869619575
0.000495154937065
0.000535759092212
0.000570854993248
0.000597232625952
0.000613221333245
0.000619617363443
0.00061988661022
0.000618482072252
0.000618299477025
0.000619109425266
0.000617641052883
0.000610106705564
0.000594194027368
0.000568800740918
0.000534044404935
0.000492963895544
0.000455952487403
0.000481027212075
0.000483706667827
0.000458620723328
0.000494862915129
0.000535706634082
0.000571028773322
0.000597492838603
0.000613318781136
0.000619245922551
0.000618804470668
0.000616835302489
0.000616653121907
0.000617992555128
0.000617171622097
0.000610099831232
0.000594341302643
0.0005688791272
0.000533931356967
0.000492637580753
0.000455699158193
0.000479885220601
0.000483568218015
0.000458534760842
0.000494796380197
0.000535655061477
0.000570986970799
0.000597454596482
0.000613276570079
0.00061919033226
0.0006187291358
0.00061674286456
0.000616558460115
0.000617908414236
0.000617101132188
0.000610044103785
0.00059429475403
0.000568830907871
0.000533871212144
0.000492554174372
0.000455581868626
0.000479694618106
0.000484457627918
0.000458616924214
0.000494961709855
0.000535611796713
0.000570739576954
0.000597135391975
0.000613123135674
0.000619496832681
0.000619731673297
0.000618295124012
0.000618103299241
0.000618925444927
0.000617478625731
0.000609974073866
0.000594075626891
0.000568670273492
0.000533877812441
0.000492732843853
0.000455630580495
0.000480506208019
0.000485549172134
0.000457918632536
0.000494257304658
0.000534282077504
0.000568764965182
0.000594729075135
0.0006107602428
0.000617710267586
0.000618895520188
0.000618170898215
0.000617960402756
0.000618107960794
0.000615816476619
0.000607852648983
0.00059197810055
0.000566919419892
0.000532652008066
0.000492057864981
0.000454903294594
0.000481542670028
0.000484155575219
0.000454306201669
0.000490576751168
0.00052942711966
0.000562676346116
0.000587499292505
0.000603035148218
0.000610236472074
0.000612047982589
0.000611807603873
0.000611569356967
0.000611245675113
0.000608544868816
0.0006006474759
0.000585349314715
0.00056116744543
0.000527951213065
0.000488419199931
0.000451307373166
0.000480201550437
0.000475347912118
0.000444577684767
0.00048116697354
0.000518617960847
0.000550131106939
0.000573049889122
0.000587328458562
0.000594150087822
0.000596108907703
0.000596070335155
0.000595820505722
0.000595363941973
0.000592819234047
0.000585639991189
0.000571556284681
0.000548881973618
0.000517128887171
0.000479065028629
0.000441686708872
0.000471600492738
0.000453006353989
0.000425116443948
0.000463158101949
0.000500283818922
0.00052935878733
0.000550046657059
0.000562514102334
0.000568392886476
0.000570067180129
0.000570011886509
0.000569776834721
0.000569417200078
0.000567394930027
0.00056137359534
0.00054895795979
0.000528266275419
0.000498828544798
0.000461180041177
0.000422452525475
0.000449628713393
0.000410251232531
0.000392357838861
0.000433800173387
0.000471956657293
0.000500086465872
0.000518326576103
0.000529098135169
0.000533802358399
0.000534912722411
0.000534686655372
0.000534469532488
0.000534330565131
0.000532979947042
0.000528187521349
0.000517310533212
0.000498954014786
0.000470578964657
0.000432035506044
0.000390050112665
0.000407392198326
0.000340754033205
0.00034405195756
0.000392221472099
0.000433480056586
0.000462626108879
0.000480499072115
0.000489804878155
0.000493338913641
0.000493819726773
0.000493378609626
0.000493164496215
0.000493244190574
0.000492518049853
0.000488857970104
0.000479479073312
0.000461529899977
0.000432251615857
0.000390766918154
0.000342234557507
0.000338530920026
0.000241082724931
0.000282382328891
0.000343613070742
0.00039162653945
0.000424187758728
0.000443495942795
0.000453077609744
0.000456495497757
0.000456925521688
0.000456536621746
0.000456310504005
0.000456309765732
0.000455591433542
0.00045201255533
0.000442381138129
0.000423085502385
0.0003905573297
0.000342538000385
0.000281194132572
0.000239707957736
0.00012478353776
0.000240646568601
0.000340126884498
0.000409562234782
0.000452229137053
0.000474407110689
0.000482971063306
0.000483994599822
0.000482406880851
0.000480975798026
0.000480556720681
0.000481256580418
0.000482287210428
0.000480963267543
0.00047235080432
0.000450322850279
0.000407995037498
0.000339023926243
0.000240020533571
0.000124569741487
0.000142213271622
0.000297847940326
0.000430370000708
0.000523139915434
0.000582057267954
0.000615483144314
0.000632095307435
0.00063927254058
0.000642434881898
0.000643825940184
0.000643532368527
0.000641541283102
0.00063781302412
0.000630180794987
0.000613354599595
0.000579992192839
0.000521425535875
0.000429218915997
0.000297269151899
0.000141989312852
0.000298409222062
0.000335238524882
0.000406284038223
0.000464042833169
0.000505007562897
0.000531129316967
0.000546004745234
0.000553359529249
0.000556532064405
0.000557640492281
0.000557477356568
0.000556054055529
0.000552620330253
0.000545085352521
0.000530140939199
0.000504023845602
0.000463075027109
0.000405253586101
0.000333922317775
0.00029644134076
0.000431236048293
0.000406754588212
0.000454043747754
0.000497932951804
0.00053059190114
0.000552041966402
0.000564571542097
0.000570686481335
0.000573009547447
0.000573555466878
0.000573360575825
0.000572469329019
0.000569905756341
0.000563661594628
0.000551075181536
0.00052953292814
0.00049669198061
0.000452473471938
0.000404592958716
0.000428002585031
0.000524216190173
0.000464820861387
0.000498269255026
0.000534165828025
0.000562561905504
0.000582438908922
0.000594941615742
0.000600962048744
0.000603037336331
0.000603338829874
0.000603078039271
0.000602303887304
0.000599809668437
0.000593593132982
0.000581272169155
0.000561331849125
0.000532648434732
0.000496249589327
0.00046200691541
0.000519962234535
0.000583387953064
0.000505995292278
0.000531163637683
0.000562785131532
0.000590322148103
0.000610324196881
0.000622687655315
0.00062855028335
0.000630362242226
0.00063045925851
0.000630134291401
0.000629360614406
0.000626704246078
0.000620232369468
0.000608076215215
0.000588619823781
0.000561047617623
0.000528792932896
0.000502676819511
0.000578210049278
0.000617101989527
0.000532259047735
0.000552758767327
0.000582776414756
0.000610604516366
0.000631205604649
0.000643706856565
0.000649283409163
0.000650705546833
0.000650562370868
0.000650211482558
0.000649473068608
0.000646626663057
0.000639716198438
0.000627219045907
0.000607771432201
0.000580820975551
0.000550132243056
0.000528576798021
0.000611193269467
0.000633974286316
0.000547220853483
0.000565368465163
0.000595528863609
0.000623628614476
0.000644647671203
0.000657098564662
0.000662243429236
0.000663164272561
0.000662772728202
0.000662466287434
0.000661865027652
0.000658927258425
0.000651678702102
0.000638847324656
0.000619299209698
0.000592855459106
0.000562555201309
0.000543338456902
0.000627638823311
0.00064135021242
0.000554630983118
0.000571543651546
0.000601948188913
0.000630394283094
0.00065159568311
0.000663808767831
0.000668360248187
0.000668675282863
0.000667974731826
0.000667754269463
0.000667512329579
0.000664821156911
0.000657518961657
0.000644539173106
0.000624933390686
0.000598650607169
0.000568638380339
0.000550717743999
0.00063496327202
0.00064461694323
0.000557844707475
0.000573964616147
0.000604382029173
0.000632915787406
0.000654043434674
0.000665895628435
0.000669861139786
0.0006694232918
0.000668281877197
0.00066815745357
0.000668406450615
0.000666308343907
0.000659342836188
0.000646476814238
0.000626930821572
0.000600756587139
0.000571001396776
0.000553991898125
0.000638433097065
0.000646084248089
0.00055900081606
0.000574644632018
0.000604952569751
0.00063343524478
0.000654424393495
0.000666010726256
0.000669568789571
0.000668626612951
0.000667179831323
0.000667104016176
0.00066769334583
0.000666026480705
0.000659407885565
0.000646736290913
0.000627294548448
0.000601209392714
0.000571635571256
0.000555179579234
0.000640050874341
0.000645953611958
0.000558920499142
0.000574590378178
0.000604921291917
0.000633422662288
0.000654421473001
0.000666006651487
0.000669546199409
0.000668576494992
0.000667109428722
0.00066703362208
0.00066763594286
0.000665987070047
0.000659388806811
0.000646727124409
0.000627278577044
0.000601171488241
0.000571561693637
0.000555057136378
0.000639842395482
0.000644191006171
0.00055759430759
0.000573798855792
0.00060429021543
0.000632888419727
0.000654061222776
0.000665928242681
0.000669867572829
0.000669379602603
0.000668199262943
0.000668065527557
0.000668328014872
0.000666259230776
0.000659333885749
0.000646475914238
0.000626895521316
0.000600651269422
0.000570792757562
0.000553648481118
0.000637845368683
0.00064064489677
0.000554236678448
0.000571279397644
0.000601813545303
0.000630392746729
0.000651717235654
0.00066401070956
0.000668578559181
0.000668859927603
0.000668119155339
0.000667876978631
0.000667626615422
0.000664957862212
0.000657659419651
0.000644627172316
0.000624919877506
0.00059850005794
0.000568324891079
0.00055020965357
0.000634074895374
0.000633091979169
0.00054674712165
0.000565037570086
0.000595356937951
0.000623650208854
0.000644881007087
0.000657510529866
0.000662743951127
0.000663673085982
0.000663258317944
0.000662928585283
0.000662311563458
0.000659351999298
0.000652026612757
0.000639045382927
0.000619301621418
0.00059266242792
0.000562172869145
0.000542744283284
0.000626577964557
0.00061618397124
0.000531778981657
0.000552392846763
0.000582542250159
0.000610552246248
0.000631402133636
0.00064413100838
0.000649846589946
0.000651311931924
0.000651166285631
0.000650804860753
0.000650049378081
0.000647147912362
0.000640096733832
0.000627378151103
0.00060769391563
0.000580557707824
0.000549708010533
0.000527968652471
0.000610094273878
0.000582555880549
0.000505558515138
0.000530776404271
0.000562450000762
0.000590103669592
0.000610286208862
0.000622844338559
0.000628842634236
0.000630707024558
0.000630811889547
0.00063047853284
0.000629685610602
0.000626967679828
0.000620353314781
0.000608002810839
0.000588368381333
0.000560675470038
0.00052833408419
0.000502106272695
0.000577192103915
0.000523556552942
0.000464447040515
0.000497865599642
0.000533746036529
0.000562163129806
0.000582124044801
0.000594686302371
0.000600766141061
0.000602863075157
0.000603162928977
0.000602892579808
0.000602105527082
0.000599576329292
0.000593290360374
0.000580906617229
0.000560881623536
0.000532165757692
0.000495755845993
0.000461499723161
0.000519122248628
0.000430791743824
0.000406426423757
0.000453605067122
0.000497408738693
0.000530016779048
0.000551440018287
0.000563939582782
0.000570024786368
0.000572316627004
0.000572836832701
0.00057262387434
0.000571727694417
0.000569168424453
0.000562940367411
0.000550378538086
0.000528860649191
0.000496067727089
0.00045192648188
0.000404139684415
0.000427405022179
0.000298199713159
0.000334900953692
0.000405758660635
0.000463363781966
0.000504198201289
0.000530205782801
0.000544982206516
0.000552258006359
0.000555356372338
0.000556410660734
0.00055621440573
0.000554790391217
0.000551382179269
0.000543906501342
0.000529056539319
0.000503058791881
0.000462253681582
0.000404601491533
0.000333471940897
0.000296123329446
0.000142251644665
0.000297395283249
0.000429617425029
0.000522177278101
0.000580894768469
0.000614139967877
0.000630607890319
0.000637680802694
0.00064074178481
0.000642053603272
0.000641700494575
0.000639690805443
0.000635984736322
0.000628440434403
0.00061177033469
0.000578608226131
0.000520270231936
0.000428312507299
0.000296709845261
0.000142005433842
0.000160468482734
0.00036133857276
0.000529025985911
0.000646785315114
0.000724815908536
0.000773462123726
0.000802460769824
0.000819560515231
0.000829968037848
0.000835287743741
0.000835215169108
0.000829693892695
0.000818964467148
0.000801346787472
0.000771920145687
0.000723140959147
0.000645404157619
0.000528289925592
0.000361257208153
0.000160295746728
0.000362309647178
0.000389990265627
0.000470176046355
0.000537049403033
0.000585645577975
0.000618089117948
0.000638137313545
0.000649536947984