/*--------------------------------*- C++ -*----------------------------------*\
| =========                 |                                                 |
| \\      /  F ield         | OpenFOAM: The Open Source CFD Toolbox           |
|  \\    /   O peration     | Version:  3.0.1                                 |
|   \\  /    A nd           | Web:      www.OpenFOAM.org                      |
|    \\/     M anipulation  |                                                 |
\*---------------------------------------------------------------------------*/
FoamFile
{
    version     2.0;
    format      ascii;
    class       volScalarField;
    location    "9.6";
    object      p;
}
// * * * * * * * * * * * * * * * * * * * * * * * * * * * * * * * * * * * * * //

dimensions      [1 -1 -2 0 0 0 0];

internalField   nonuniform List<scalar> 
7968
(
4646.64704532
4646.64303042
4646.60814046
4646.56030494
4646.51285066
4646.47197893
4646.44304818
4646.42565274
4646.41409162
4646.40316547
4646.3906689
4646.37646092
4646.36308503
4646.35591871
4646.36108929
4646.37835541
4646.40780053
4646.44018641
4646.46548934
4646.46620719
4646.64523547
4646.65648838
4646.62972883
4646.5851551
4646.53751325
4646.49717106
4646.46807958
4646.45090419
4646.43995148
4646.42931106
4646.41675316
4646.40216485
4646.3880356
4646.38001296
4646.38471823
4646.40294207
4646.43106921
4646.46000544
4646.4771432
4646.46316346
4646.61659806
4646.63608037
4646.61180918
4646.56619659
4646.51564166
4646.4729676
4646.44261481
4646.42471454
4646.41325836
4646.40213725
4646.38918577
4646.37432181
4646.36004978
4646.35239665
4646.3583355
4646.37880276
4646.40974793
4646.43949601
4646.45403905
4646.4321649
4646.5782038
4646.6010736
4646.57565534
4646.52839296
4646.47851913
4646.44047817
4646.41678982
4646.40539798
4646.39831211
4646.38906122
4646.3757819
4646.35845553
4646.33934475
4646.32495445
4646.32417833
4646.3399051
4646.36995379
4646.40087099
4646.41617848
4646.39099484
4646.54182639
4646.56489938
4646.5362749
4646.48952544
4646.44651624
4646.41965319
4646.40815986
4646.40768462
4646.40812263
4646.4025844
4646.38909614
4646.36759935
4646.34035164
4646.31460541
4646.30153084
4646.30627496
4646.32947603
4646.35946489
4646.37748602
4646.35187019
4646.51441858
4646.53719529
4646.50594773
4646.46369782
4646.43196445
4646.4193452
4646.4227726
4646.43575908
4646.44582418
4646.44518292
4646.43156877
4646.40482821
4646.3671658
4646.32717943
4646.29887031
4646.2897234
4646.30208748
4646.32742039
4646.34773226
4646.32235696
4646.49884245
4646.5216095
4646.48897297
4646.45339912
4646.43418614
4646.4367963
4646.45666757
4646.48472754
4646.50604586
4646.5112066
4646.49758979
4646.46507338
4646.41535989
4646.35927951
4646.31397076
4646.2898145
4646.29023036
4646.3090261
4646.33062604
4646.30507381
4646.49518693
4646.518293
4646.48503797
4646.45620248
4646.44834852
4646.46486906
4646.49997612
4646.54258142
4646.57485555
4646.58802366
4646.5752912
4646.53473396
4646.47354349
4646.40178483
4646.34039701
4646.302218
4646.29160924
4646.30399238
4646.32625368
4646.30023983
4646.49744846
4646.5211518
4646.4876817
4646.46353208
4646.46361436
4646.49013563
4646.536523
4646.58982581
4646.63697188
4646.66000943
4646.64833159
4646.59954752
4646.52214237
4646.43834775
4646.36494658
4646.31650599
4646.29800784
4646.3058953
4646.3284296
4646.30178414
4646.50028924
4646.52428053
4646.49072773
4646.46879141
4646.47289221
4646.50453425
4646.55679873
4646.61614516
4646.67270555
4646.70027324
4646.68903785
4646.63764074
4646.55152965
4646.45844718
4646.3791786
4646.32551721
4646.30302038
4646.30870137
4646.33132667
4646.30437652
4646.50130538
4646.52531569
4646.49182312
4646.46994803
4646.47409938
4646.50579125
4646.55808846
4646.61743388
4646.67397806
4646.70152996
4646.69028863
4646.63889799
4646.55281774
4646.45982258
4646.38059118
4646.32695134
4646.30446366
4646.31010099
4646.33265889
4646.3056887
4646.50040266
4646.52417765
4646.49088246
4646.4669389
4646.46722292
4646.49393794
4646.54047095
4646.59384156
4646.64098915
4646.66396914
4646.65227245
4646.60351496
4646.52619493
4646.44257076
4646.36922354
4646.32080199
4646.30227485
4646.3100103
4646.33233885
4646.30562192
4646.49990422
4646.52313622
4646.49018404
4646.46173237
4646.45427606
4646.47121137
4646.50668435
4646.54954199
4646.58198143
4646.59516474
4646.5824365
4646.54191605
4646.48071355
4646.40895694
4646.34754667
4646.3092878
4646.29853542
4646.31063036
4646.33254978
4646.306411
4646.50503268
4646.52792784
4646.49571395
4646.46070837
4646.44211419
4646.44539722
4646.46592051
4646.49450423
4646.51616684
4646.52150048
4646.50789771
4646.4752877
4646.42545847
4646.36922654
4646.32372821
4646.29932813
4646.29942968
4646.31778624
4646.33893957
4646.31325945
4646.52171218
4646.54460926
4646.5138426
4646.47229523
4646.44135207
4646.42959124
4646.43388361
4646.44761377
4646.45819906
4646.45783
4646.44427519
4646.4174382
4646.37957684
4646.33931631
4646.31067419
4646.30113497
4646.31303213
4646.33780185
4646.35762648
4646.33213305
4646.54984064
4646.57306724
4646.54489881
4646.49889331
4646.45676759
4646.43086315
4646.42034633
4646.42075161
4646.4218458
4646.41668974
4646.40333146
4646.38176355
4646.35428906
4646.32820703
4646.31470696
4646.3189427
4646.34155987
4646.37094148
4646.38851495
4646.36275889
4646.58672513
4646.60966542
4646.58462366
4646.53806142
4646.48908555
4646.45205144
4646.42940353
4646.41898592
4646.41266058
4646.40389251
4646.39082083
4646.37346192
4646.3541096
4646.33931887
4646.33803575
4646.35316457
4646.38258166
4646.41292887
4646.42787177
4646.40265473
4646.62537402
4646.64489982
4646.62089468
4646.57588171
4646.5261759
4646.48451178
4646.45523753
4646.43836634
4646.42772926
4646.41715335
4646.40445878
4646.38958395
4646.37504828
4646.36692914
4646.37229468
4646.39213414
4646.4224823
4646.45175049
4646.46604814
4646.44417947
4646.65424902
4646.66545958
4646.63886372
4646.59476862
4646.5478788
4646.50849734
4646.48045394
4646.46428548
4646.45413472
4646.44404108
4646.43175099
4646.41716323
4646.40276951
4646.39427223
4646.3984134
4646.41606375
4646.44369433
4646.47227129
4646.48926936
4646.47535165
4646.65624721
4646.65224906
4646.61749218
4646.57010779
4646.52338212
4646.48347506
4646.45553351
4646.43909121
4646.42828995
4646.41788856
4646.40566374
4646.39147823
4646.37787193
4646.37025928
4646.37487122
4646.39151809
4646.42050929
4646.45252146
4646.47763491
4646.4782968
4157.00728991
4156.98937337
4156.94538164
4156.89277086
4156.84588101
4156.80914999
4156.78337499
4156.76875619
4156.75941479
4156.74950994
4156.73701938
4156.72189055
4156.70646911
4156.69634794
4156.69816674
4156.71365641
4156.74148555
4156.77843361
4156.81235239
4156.82657739
4156.99149529
4156.98416773
4156.9447751
4156.8965542
4156.85584528
4156.82556196
4156.80534601
4156.79433854
4156.78672608
4156.77747796
4156.76503014
4156.74943428
4156.73245906
4156.71898945
4156.71553245
4156.72469051
4156.74597481
4156.7778777
4156.8065797
4156.81019405
4156.9538374
4156.95145984
4156.90625236
4156.85491925
4156.81431413
4156.78720124
4156.77151334
4156.76440886
4156.75928488
4156.75109862
4156.73834895
4156.72114102
4156.70126195
4156.68385518
4156.67604587
4156.68200669
4156.70306941
4156.73762041
4156.77148595
4156.77026544
4156.91087817
4156.91303199
4156.86447357
4156.81496368
4156.78244293
4156.76680704
4156.76332651
4156.76589656
4156.76674066
4156.7611864
4156.74812045
4156.72762578
4156.7011487
4156.67381129
4156.65380735
4156.64887354
4156.66189864
4156.69415464
4156.73057828
4156.72462698
4156.87555148
4156.88372089
4156.83479621
4156.79316323
4156.77536971
4156.77865767
4156.79305041
4156.810337
4156.82106199
4156.82015564
4156.80682967
4156.78104053
4156.74385632
4156.70113281
4156.66351519
4156.64017966
4156.63873079
4156.66294986
4156.69901108
4156.68663296
4156.85148646
4156.86560086
4156.81945182
4156.78912961
4156.79033187
4156.81407013
4156.84929504
4156.88425404
4156.90702527
4156.91211152
4156.89881749
4156.86675665
4156.81649231
4156.75482668
4156.69585049
4156.65217341
4156.63243166
4156.64593317
4156.6788043
4156.66009052
4156.8394717
4156.85865899
4156.81675162
4156.79860241
4156.8181283
4156.86317534
4156.91979444
4156.97331981
4157.00944967
4157.02145882
4157.00850031
4156.96976779
4156.90522672
4156.82333262
4156.74181027
4156.67707347
4156.64019272
4156.64162482
4156.67014029
4156.6461039
4156.83888175
4156.86131415
4156.82335221
4156.81510406
4156.84995312
4156.91338701
4156.98876481
4157.0594984
4157.10768199
4157.12325581
4157.11003379
4157.06923627
4156.99245063
4156.89176078
4156.78998632
4156.70661934
4156.65478174
4156.64658461
4156.6714401
4156.64404943
4156.84346089
4156.86738981
4156.83220223
4156.83024037
4156.87555139
4156.95148808
4157.04008244
4157.12263812
4157.17100609
4157.18744467
4157.17455014
4157.13178957
4157.05563926
4156.94351238
4156.82729558
4156.73094925
4156.66871122
4156.65419407
4156.67660256
4156.64767003
4156.84737642
4156.87181745
4156.83798225
4156.8390311
4156.88939552
4156.97137354
4157.06649091
4157.15406386
4157.20206855
4157.22034931
4157.20782831
4157.16234416
4157.08387527
4156.97042387
4156.84715768
4156.74440741
4156.67706187
4156.65952155
4156.68070712
4156.65122064
4156.84846928
4156.87291234
4156.83914878
4156.84025003
4156.89067094
4156.97267851
4157.06779148
4157.15534905
4157.2033462
4157.22160768
4157.20907054
4157.16359199
4157.08515648
4156.9717143
4156.84853636
4156.74585728
4156.67855644
4156.66102263
4156.68211859
4156.65262219
4156.84665306
4156.87061681
4156.83565167
4156.8338761
4156.87939947
4156.95548306
4157.04412614
4157.12666105
4157.17502335
4157.19141943
4157.1784737
4157.13570528
4157.05964311
4156.94754078
4156.83151778
4156.73531217
4156.67314098
4156.65857445
4156.68074004
4156.6517494
4156.84401932
4156.86653648
4156.82895804
4156.82107021
4156.856346
4156.92017257
4156.99582761
4157.06670806
4157.11492349
4157.13050918
4157.11721193
4157.07630959
4156.99955275
4156.89891758
4156.79723674
4156.71390282
4156.6620268
4156.65364671
4156.67810622
4156.65060354
4156.84623052
4156.86556691
4156.82417479
4156.80660143
4156.8267991
4156.87256278
4156.92983292
4156.98385093
4157.02027554
4157.03233254
4157.01927581
4156.98038408
4156.91565831
4156.83360717
4156.75193996
4156.68703141
4156.64992106
4156.65096873
4156.67896105
4156.65474754
4156.85950655
4156.87381669
4156.82824675
4156.79868319
4156.80073701
4156.82540788
4156.8615683
4156.89729699
4156.92056776
4156.92583598
4156.91248235
4156.88022951
4156.82968025
4156.76768194
4156.70835047
4156.66431207
4156.64417739
4156.65706194
4156.68932254
4156.67037075
4156.8844943
4156.89287148
4156.84448856
4156.80368706
4156.78682006
4156.79110531
4156.80652775
4156.82473203
4156.83612351
4156.83554983
4156.82225971
4156.79630702
4156.7588136
4156.71571934
4156.67766925
4156.65381722
4156.65177701
4156.67528473
4156.71074727
4156.69810529
4156.92038821
4156.9227061
4156.87458243
4156.82588162
4156.79433554
4156.77971873
4156.77732983
4156.78089448
4156.78251528
4156.77742633
4156.76451882
4156.74393339
4156.71716413
4156.68941236
4156.66889479
4156.66331296
4156.67558773
4156.70708665
4156.74299394
4156.73679444
4156.96366682
4156.96136565
4156.91643544
4156.86578609
4156.82612522
4156.80007873
4156.78552897
4156.77947967
4156.77520848
4156.76758446
4156.75507431
4156.73781106
4156.7176154
4156.69969951
4156.69125913
4156.69647507
4156.71674948
4156.75063667
4156.78413542
4156.78274485
4157.00150798
4156.99414433
4156.95486598
4156.90715797
4156.86727951
4156.83800685
4156.81888343
4156.80890748
4156.80213623
4156.79346289
4156.78127759
4156.76564758
4156.7483528
4156.73433488
4156.73021007
4156.73866051
4156.75927726
4156.79069116
4156.81920379
4156.82276639
4157.01751628
4156.99946317
4156.9555373
4156.90338164
4156.85728625
4156.82154551
4156.79684598
4156.78323526
4156.7746941
4156.76532624
4156.75310147
4156.73797489
4156.72226583
4156.71160234
4156.71274961
4156.72754617
4156.7547241
4156.79123041
4156.82499681
4156.83931537
3667.35176517
3667.3214548
3667.27227016
3667.21704471
3667.16947605
3667.13206388
3667.10572756
3667.08895314
3667.07645334
3667.06416898
3667.05126395
3667.03790849
3667.02552741
3667.01788671
3667.02096586
3667.03746358
3667.06642329
3667.1063227
3667.14526664
3667.17153552
3667.32351853
3667.3136113
3667.2744176
3667.22957603
3667.19402348
3667.16856219
3667.15171063
3667.14051063
3667.13035462
3667.11891706
3667.1061487
3667.0923529
3667.07805455
3667.06557366
3667.05972512
3667.06449691
3667.08126409
3667.10987069
3667.13758322
3667.14323194
3667.28077436
3667.28188572
3667.22843355
3667.17489141
3667.13510056
3667.11077768
3667.09827311
3667.09255525
3667.0868039
3667.07745204
3667.06403796
3667.04691403
3667.02736812
3667.00950581
3666.99974555
3667.003866
3667.02488365
3667.06192507
3667.10288583
3667.09838724
3667.23515835
3667.24688875
3667.18429288
3667.12963962
3667.0982525
3667.09035466
3667.09430337
3667.10148333
3667.10423008
3667.09882121
3667.08481355
3667.06257781
3667.03363287
3667.00251312
3666.97735314
3666.96568946
3666.97845887
3667.01627958
3667.06558551
3667.05024599
3667.19907162
3667.22237643
3667.15502514
3667.10847594
3667.09567036
3667.10817392
3667.03797833
3667.09755732
3667.19929772
3667.19850451
3667.18367593
3667.15513999
3667.19039079
3667.14921526
3666.99213773
3666.96057712
3666.95584992
3666.98540404
3667.0389887
3667.01155588
3667.17420434
3667.20870871
3667.14187538
3667.11125997
3667.1187423
3666.8873931
3666.69682081
3667.052378
3667.37803996
3667.3808679
3667.36422408
3667.32815086
3667.56531058
3667.75726472
3667.35108996
3666.98105482
3666.95668949
3666.97048505
3667.02335621
3666.98424428
3667.16140621
3667.20455741
3667.14166694
3667.12733596
3667.06105032
3666.30460891
3666.15926785
3666.89859961
3667.44416404
3667.45060258
3667.43144626
3667.38599886
3667.83681368
3668.456793
3668.09476251
3667.12529039
3666.96955089
3666.96839425
3667.01736763
3666.96942055
3667.15864971
3667.20672217
3667.14934926
3667.14819467
3666.91056776
3665.83227137
3665.82481907
3666.76300453
3667.42808947
3667.43979966
3667.41926267
3667.36469015
3667.92477302
3668.78104296
3668.62583965
3667.34001519
3666.98745036
3666.97392939
3667.01786688
3666.96509399
3667.16039055
3667.21046338
3667.15824881
3667.16605237
3666.85007729
3665.71645437
3665.74193541
3666.73254381
3667.43383235
3667.45071718
3667.42982392
3667.36980039
3667.95062582
3668.86407407
3668.76638645
3667.43936979
3667.00268231
3666.98077342
3667.02033564
3666.96570891
3667.16237477
3667.21309801
3667.16352739
3667.17620623
3666.86625606
3665.73881876
3665.77074987
3666.76753975
3667.47473642
3667.49457635
3667.4735465
3667.41072543
3667.98607405
3668.89149115
3668.78649131
3667.45353348
3667.01155213
3666.98543533
3667.02236959
3666.96718434
3667.1635941
3667.21431795
3667.16488176
3667.17763513
3666.86785877
3665.74081058
3665.77312581
3666.77013359
3667.47741731
3667.49730466
3667.476251
3667.41337801
3667.98850595
3668.89353877
3668.78820553
3667.45520715
3667.01325552
3666.98710648
3667.0239144
3666.96875333
3667.16398053
3667.21406899
3667.16222873
3667.17028511
3666.8548611
3665.72248298
3665.74920887
3666.74051754
3667.44206186
3667.45903983
3667.43808944
3667.37794426
3667.95808305
3668.87032431
3668.77156641
3667.44436133
3667.00770977
3666.98567666
3667.02481712
3666.97013907
3667.16445221
3667.2125556
3667.15582902
3667.15511288
3666.90249988
3665.78635505
3665.74020517
3666.65593365
3667.31450835
3667.32651987
3667.30607
3667.25147135
3667.81485105
3668.69003592
3668.57625464
3667.33249099
3666.99563294
3666.98184224
3667.02504153
3666.97217234
3667.16902912
3667.21228934
3667.15024431
3667.13660848
3667.05122586
3666.2065007
3665.94669023
3666.62112156
3667.14840469
3667.15546907
3667.13641321
3667.09065485
3667.55404592
3668.23380681
3667.99290694
3667.11664931
3666.98044847
3666.97877396
3667.02679448
3666.97868536
3667.18321691
3667.2179345
3667.15198674
3667.12230003
3667.13065415
3666.84452542
3666.52901149
3666.7883385
3667.08826239
3667.09171228
3667.07511698
3667.03876749
3667.29870924
3667.58593871
3667.30853771
3666.99454169
3666.96969265
3666.98274148
3667.03452856
3666.99517152
3667.20903386
3667.23259988
3667.16607019
3667.12055845
3667.10874605
3667.12212492
3667.03327623
3667.058376
3667.14514491
3667.14484727
3667.12995833
3667.10102441
3667.15128514
3667.14523343
3667.00771887
3666.97571996
3666.97027919
3666.99886586
3667.05137507
3667.02361292
3667.24566794
3667.25766504
3667.19571219
3667.14204197
3667.11172799
3667.10484217
3667.10993676
3667.1182294
3667.12191961
3667.11707582
3667.10316665
3667.08067132
3667.05125515
3667.01973328
3666.99408804
3666.98167561
3666.9934748
3667.03024218
3667.0786492
3667.06293355
3667.29156014
3667.29284711
3667.23978617
3667.18711354
3667.14836147
3667.12519153
3667.11409966
3667.10971007
3667.1050555
3667.09642306
3667.08325831
3667.0659668
3667.04589885
3667.02730576
3667.01671058
3667.01980936
3667.03973812
3667.07579339
3667.11612359
3667.11131695
3667.33442043
3667.32455769
3667.28539858
3667.2411762
3667.20651104
3667.18209655
3667.16651634
3667.1565693
3667.14746556
3667.13676081
3667.12428434
3667.11037193
3667.09558371
3667.0823464
3667.07560688
3667.07941817
3667.09529713
3667.12319195
3667.15072515
3667.15618972
3667.36289254
3667.33231613
3667.28325282
3667.22859917
3667.18195093
3667.1456736
3667.1206088
3667.10504845
3667.0935041
3667.08179682
3667.06916614
3667.05580626
3667.04302602
3667.03467388
3667.03685034
3667.05234889
3667.08038646
3667.11963144
3667.15832159
3667.18474709
3177.67486797
3177.6348412
3177.58583894
3177.52745603
3177.47500685
3177.43173659
3177.39880095
3177.37437111
3177.35444408
3177.33724879
3177.32342511
3177.31343512
3177.30771795
3177.30770143
3177.3181592
3177.34115521
3177.37562013
3177.41950617
3177.45862904
3177.49456689
3177.6366513
3177.62308571
3177.57976908
3177.52618236
3177.47834384
3177.43909288
3177.40757559
3177.3812276
3177.35774363
3177.33797552
3177.3239614
3177.31653755
3177.31484461
3177.3179321
3177.32772941
3177.3473008
3177.37697117
3177.41508773
3177.44723632
3177.45698366
3177.59401393
3177.5869888
3177.53402635
3177.46998609
3177.41780223
3177.38299214
3177.36261017
3177.35255913
3177.34224317
3177.32918947
3177.31430989
3177.29840686
3177.28241118
3177.27062682
3177.26904199
3177.28508998
3177.31924078
3177.36749275
3177.40912167
3177.41263004
3177.5449612
3177.54263999
3177.47925172
3177.40927759
3177.36788199
3177.1913373
3177.03408288
3177.30195153
3177.50564977
3177.49871697
3177.48186593
3177.45614058
3177.59746147
3177.73421786
3177.44590339
3177.23537363
3177.25781371
3177.31111692
3177.36334074
3177.3613242
3177.5038343
3177.50512139
3177.43686339
3177.37687235
3176.97716713
3176.27781295
3176.35947966
3177.18185866
3177.69185367
3177.68688224
3177.66464728
3177.6262082
3178.08529894
3178.8366608
3178.6740776
3177.69274215
3177.2263519
3177.26759791
3177.32458433
3177.31779211
3177.47281497
3177.4766854
3177.41152573
3177.20817416
3175.78203553
3175.08158741
3175.76936512
3176.94167097
3177.59789837
3177.5895587
3177.55845476
3177.50508646
3178.13019875
3179.42451451
3180.14850169
3179.11870873
3177.4268566
3177.24152016
3177.29465096
3177.28455525
3177.45305987
3177.4570304
3177.40188292
3176.66179955
3174.5041425
3174.55481413
3175.54404565
3176.78540644
3177.48517083
3177.47210802
3177.43073166
3177.36040764
3178.02730803
3179.48070012
3180.71163968
3180.59391269
3178.04419691
3177.23158343
3177.27300569
3177.26288565
3177.442728
3177.44390074
3177.40388819
3176.08982375
3173.90929593
3174.39051395
3175.41128625
3176.68074706
3177.39905762
3177.38519124
3177.33694444
3177.25213183
3177.92412145
3179.44292087
3180.78765244
3181.2148846
3178.63441495
3177.2316046
3177.25754802
3177.2508666
3177.43780473
3177.43528796
3177.40830317
3175.91136738
3173.79060689
3174.35548914
3175.38976044
3176.66784849
3177.39251331
3177.38015542
3177.32970979
3177.23829227
3177.90054993
3179.42367875
3180.79092549
3181.32853939
3178.82140041
3177.23361816
3177.24658612
3177.244432
3177.43595538
3177.43139263
3177.41181062
3175.9232894
3173.81238831
3174.38547751
3175.42766473
3176.71145196
3177.4400556
3177.42900329
3177.37771182
3177.28368611
3177.93944092
3179.45422484
3180.81348675
3181.34389832
3178.83011383
3177.23549687
3177.24087867
3177.24172958
3177.43731779
3177.43284535
3177.41344564
3175.92531184
3173.81548914
3174.38987466
3175.43335495
3176.7180891
3177.44718326
3177.43631655
3177.38504926
3177.29092581
3177.94610177
3179.45962686
3180.81728993
3181.34637352
3178.83220957
3177.23755541
3177.24273299
3177.24344921
3177.44182923
3177.43958345
3177.41315029
3175.91728346
3173.79979419
3174.36880256
3175.40719292
3176.68818913
3177.41437943
3177.40252669
3177.35208759
3177.26035397
3177.92073168
3179.43996069
3180.80229953
3181.33585292
3178.82748062
3177.2395943
3177.25194367
3177.24938828
3177.44929886
3177.45070721
3177.41168414
3176.06410986
3173.83513192
3174.29827004
3175.31576523
3176.57934347
3177.29458635
3177.28191773
3177.23393279
3177.14867446
3177.81286665
3179.31992437
3180.66418914
3181.12267644
3178.60774551
3177.24105778
3177.26598257
3177.2587666
3177.46160908
3177.46578373
3177.41204858
3176.59751335
3174.28706092
3174.24744212
3175.2148524
3176.43243599
3177.12027262
3177.1087394
3177.0671313
3176.99503006
3177.64740604
3179.08500795
3180.33502645
3180.34502424
3177.97980207
3177.24387836
3177.28377552
3177.27307724
3177.48282678
3177.48694559
3177.42329527
3177.18557436
3175.56347643
3174.63287916
3175.22822485
3176.36319917
3177.00222075
3176.99513823
3176.96389916
3176.90959201
3177.52294937
3178.81552052
3179.64213045
3178.88634718
3177.40671017
3177.25576424
3177.30703008
3177.29638637
3177.51476582
3177.51630822
3177.44945506
3177.39094188
3176.91134822
3175.96897272
3175.79794581
3176.49872725
3176.97929188
3176.97580875
3176.95387378
3176.91502603
3177.38785671
3178.24576636
3178.35238825
3177.62828906
3177.24314023
3177.28286411
3177.33795641
3177.33064176
3177.55634558
3177.55424489
3177.49194852
3177.42345677
3177.38329986
3177.1720425
3176.90528903
3177.06219359
3177.23077383
3177.22495255
3177.2084531
3177.18250071
3177.35766408
3177.60540149
3177.42955893
3177.25392446
3177.27499364
3177.32650759
3177.37713332
3177.374648
3177.60556919
3177.59870597
3177.54651467
3177.48359002
3177.43273912
3177.39902828
3177.38077249
3177.37254444
3177.36375728
3177.3517293
3177.33719409
3177.32102547
3177.30427136
3177.29148482
3177.28891937
3177.30341322
3177.33579102
3177.38245328
3177.42291473
3177.42602257
3177.64820607
3177.63468098
3177.59179877
3177.53906368
3177.49231053
3177.45437648
3177.42483907
3177.40048852
3177.37859799
3177.36006184
3177.34647541
3177.33878127
3177.3361634
3177.33792308
3177.34621361
3177.3642046
3177.39238659
3177.42933348
3177.46075177
3177.47029096
3177.68651126
3177.64637038
3177.59778985
3177.54018676
3177.48884956
3177.44699618
3177.41576789
3177.39300217
3177.37434333
3177.35780319
3177.34424023
3177.33424927
3177.32796388
3177.3268835
3177.33603855
3177.35761399
3177.39072897
3177.43358637
3177.47204809
3177.50782086
2688.03769137
2687.99803172
2687.94695317
2687.87676245
2687.81046274
2687.75205978
2687.70470208
2687.66741194
2687.63771483
2687.61432069
2687.59871378
2687.59118549
2687.5933251
2687.60624673
2687.63206219
2687.6713129
2687.7200046
2687.77721197
2687.81889085
2687.85539585
2687.9994841
2687.96263454
2687.9068886
2687.82834208
2687.75170612
2687.68163563
2687.62185646
2687.57193002
2687.53189831
2687.50239944
2687.48597707
2687.4845912
2687.49788005
2687.52406481
2687.56354145
2687.61538767
2687.67448889
2687.73818721
2687.78418953
2687.81767701
2687.95522352
2687.91327252
2687.84827613
2687.75719456
2687.67375807
2687.43588713
2687.23240585
2687.47105015
2687.65513629
2687.63728368
2687.61889816
2687.60117681
2687.75969697
2687.92566247
2687.68623799
2687.53638913
2687.60226297
2687.67812488
2687.73378383
2687.77086843
2687.89379375
2687.84383563
2687.76672817
2687.64688997
2686.89771808
2686.41980721
2686.65216931
2687.35571581
2687.80937772
2687.79756309
2687.77232651
2687.73513353
2688.17391785
2688.91257706
2689.01913332
2688.278972
2687.51436009
2687.59440777
2687.66314065
2687.70754205
2687.83940388
2687.77737551
2687.69241722
2686.87989044
2685.37005368
2685.29880092
2686.04278165
2687.0305955
2687.59582295
2687.57996722
2687.54018047
2687.47786298
2688.04127733
2689.2786847
2690.33115192
2690.14919415
2688.29197403
2687.51948145
2687.59515232
2687.65014052
2687.79340449
2687.71718612
2687.45998253
2685.22187565
2684.35139895
2684.92301903
2685.72593415
2686.75928861
2687.35002671
2687.317907
2687.25800215
2687.17108257
2687.77466347
2689.21807539
2690.61910816
2691.45922168
2690.13804358
2687.66169699
2687.53257242
2687.60093649
2687.75962829
2687.66873057
2686.86463149
2683.96736168
2684.07516205
2684.71579792
2685.55056463
2686.58355719
2687.16281333
2687.11238815
2687.03096698
2686.91587716
2687.50841637
2689.05295871
2690.69982853
2691.84388763
2691.64471219
2688.23425494
2687.4792938
2687.56351943
2687.73736197
2687.63258751
2686.2624242
2683.54716007
2683.94451386
2684.62655522
2685.48242099
2686.5018747
2687.06499696
2687.00717607
2686.91212569
2686.77234868
2687.32570099
2688.88479763
2690.64983475
2691.96488911
2692.157556
2688.7943614
2687.43777086
2687.53737576
2687.72429687
2687.6096266
2686.06590681
2683.47041609
2683.92795737
2684.63134577
2685.50128119
2686.51369751
2687.06596913
2687.00552091
2686.90906319
2686.76609816
2687.29160797
2688.83291742
2690.61588593
2691.97262624
2692.23613486
2688.96223222
2687.40936614
2687.52095018
2687.71872773
2687.59995274
2686.06900623
2683.48690677
2683.96181898
2684.67489283
2685.55347534
2686.5681642
2687.11817743
2687.05695617
2686.96231651
2686.82008367
2687.33719242
2688.8691684
2690.64312361
2691.99171064
2692.24653119
2688.96227039
2687.39459392
2687.5133261
2687.7202751
2687.60193278
2686.07150925
2683.49042114
2683.96805031
2684.68406399
2685.56499613
2686.58112612
2687.13180943
2687.07096885
2686.97683973
2686.8348587
2687.35073514
2688.88049415
2690.65146234
2691.99701923
2692.24985404
2688.96502258
2687.3970887
2687.51546866
2687.72870048
2687.61516373
2686.07296457
2683.48048509
2683.94638857
2684.65944021
2685.53709176
2686.55437165
2687.10926669
2687.04988499
2686.95408838
2686.81097475
2687.33287904
2688.86712555
2690.64078047
2691.98822807
2692.2457646
2688.97017525
2687.41641327
2687.52703465
2687.74492652
2687.64089373
2686.23845625
2683.48554942
2683.88195174
2684.5746137
2685.43824988
2686.4574308
2687.02018771
2686.96522693
2686.87076911
2686.73094341
2687.26724109
2688.79439884
2690.53450982
2691.84764727
2692.07117816
2688.77021565
2687.4487368
2687.54691356
2687.76941106
2687.67882176
2686.80174538
2683.78198632
2683.83767529
2684.47788426
2685.31145576
2686.32863304
2686.89738672
2686.84958435
2686.76585059
2686.64385307
2687.20404844
2688.69014327
2690.30456391
2691.47856207
2691.40909534
2688.17252179
2687.49266919
2687.5754756
2687.80467585
2687.72869766
2687.43828042
2684.99311898
2683.94644228
2684.49466456
2685.27643262
2686.2744356
2686.84179033
2686.81058741
2686.74856027
2686.6583861
2687.22786875
2688.61450469
2690.00736008
2690.92545817
2689.88317255
2687.64331129
2687.54713587
2687.61432285
2687.85140534
2687.78954181
2687.70651591
2686.75321738
2684.94962457
2684.70305
2685.40090599
2686.34054491
2686.88042821
2686.86644056
2686.82595093
2686.76160686
2687.30029686
2688.51373544
2689.60996291
2689.6754354
2688.16539857
2687.53749576
2687.61021203
2687.66418564
2687.90603047
2687.85620306
2687.78066249
2687.6606647
2686.76841573
2685.96906882
2685.95537128
2686.56366981
2686.99288291
2686.98328332
2686.95892575
2686.92168951
2687.36158583
2688.17162176
2688.54636212
2688.14982037
2687.53257794
2687.61186185
2687.67802166
2687.72163804
2687.96749327
2687.92557238
2687.86175656
2687.77214597
2687.69001657
2687.41667398
2687.10723128
2687.23659379
2687.38677961
2687.37092807
2687.35346589
2687.33565137
2687.52744267
2687.80319418
2687.67456034
2687.55812392
2687.62113626
2687.69439896
2687.74809563
2687.78464711
2688.01158017
2687.97477214
2687.91981617
2687.84243531
2687.76720526
2687.69871799
2687.6424358
2687.59587613
2687.55826138
2687.53135283
2687.51590566
2687.51343837
2687.52493015
2687.54885054
2687.58566155
2687.63491494
2687.69156424
2687.75332654
2687.79798677
2687.83122508
2688.04967852
2688.01014165
2687.9596766
2687.89055132
2687.82572896
2687.76938141
2687.72469723
2687.68995994
2687.66215711
2687.63922758
2687.62364659
2687.61647832
2687.61774627
2687.62894162
2687.65256902
2687.68953558
2687.73612278
2687.79190145
2687.83252328
2687.86849515
2198.47730825
2198.43641085
2198.38406373
2198.30820069
2198.23539711
2198.17025044
2198.11732559
2198.07871039
2198.05141108
2198.02922785
2198.01296787
2197.99874216
2197.99628385
2198.00956178
2198.04066658
2198.08750246
2198.1443521
2198.20721012
2198.25189356
2198.28997358
2198.4381808
2198.3569499
2198.28593461
2198.17568351
2198.06444806
2197.95931382
2197.77222307
2197.73596406
2197.77456378
2197.73730461
2197.71559534
2197.71705657
2197.81631855
2197.86989012
2197.8288358
2197.91796525
2198.01327842
2198.10882627
2198.17230033
2198.25002615
2198.39245767
2198.29129291
2198.21368109
2198.08683383
2197.57122493
2197.09810894
2197.25628742
2197.62895671
2197.89164006
2197.86579304
2197.83974309
2197.8145675
2198.0974741
2198.53277926
2198.72019914
2198.26269875
2197.9170692
2198.03234818
2198.10584706
2198.20066934
2198.32789374
2198.19268243
2198.09820748
2197.24417396
2196.20957284
2195.91812796
2196.43712733
2197.18604865
2197.62244943
2197.60424289
2197.56271124
2197.50083444
2197.93049104
2198.91050466
2199.79215054
2199.63561392
2198.57825471
2197.90714485
2198.00200424
2198.13055709
2198.26942499
2198.09508879
2197.59967743
2195.54482838
2195.07206099
2195.46997864
2196.05329403
2196.84435394
2197.31385035
2197.28732149
2197.21572495
2197.09778617
2197.56743063
2198.77290521
2200.0086632
2200.85329694
2200.29183484