/*--------------------------------*- C++ -*----------------------------------*\
| =========                 |                                                 |
| \\      /  F ield         | OpenFOAM: The Open Source CFD Toolbox           |
|  \\    /   O peration     | Version:  3.0.1                                 |
|   \\  /    A nd           | Web:      www.OpenFOAM.org                      |
|    \\/     M anipulation  |                                                 |
\*---------------------------------------------------------------------------*/
FoamFile
{
    version     2.0;
    format      ascii;
    class       volVectorField;
    location    "8.5";
    object      ddt0(U);
}
// * * * * * * * * * * * * * * * * * * * * * * * * * * * * * * * * * * * * * //

dimensions      [0 1 -2 0 0 0 0];

internalField   nonuniform List<vector> 
7968
(
(7.42581084845e-05 5.51089285711e-05 -6.71676501603e-05)
(0.000249852034504 8.53298647116e-05 -9.74305034215e-05)
(0.000383936019719 9.38698790513e-05 -9.76226817035e-05)
(0.000460569578722 8.00706042462e-05 -6.5081207191e-05)
(0.000509394729286 5.72344269951e-05 -1.69782018286e-05)
(0.000479381154298 3.17356091168e-05 3.61989215915e-05)
(0.000462031189374 4.94350260184e-06 5.97945524428e-05)
(0.00043840996587 -1.7820921651e-05 8.7938358155e-05)
(0.00039039915004 -2.60767366659e-05 0.000110849319988)
(0.000324522759359 -2.60390186563e-05 0.000121542890485)
(0.000249525993856 -2.19693619856e-05 0.00012410776482)
(0.000163747762813 -1.43007707515e-05 0.000118744632049)
(7.18770154877e-05 3.43575693869e-08 0.00010172925609)
(-1.35701228969e-05 2.44981664106e-05 7.73149561984e-05)
(-9.32481901927e-05 3.92472371577e-05 4.42271592602e-05)
(-0.000187368266388 8.73932302577e-05 1.62139746116e-05)
(-0.000230322417286 9.60223073747e-05 -4.27155226422e-05)
(-0.000224863253387 0.000109027674222 -7.47864863733e-05)
(-0.000162592017227 9.89484844991e-05 -7.73186235456e-05)
(-4.65038321739e-05 6.3575175753e-05 -4.92598311441e-05)
(0.000107751994307 0.000188881337973 -9.41560576336e-05)
(0.000325519125384 0.000258585818267 -0.000162413418749)
(0.000425125921708 0.000272679722702 -0.000138981134331)
(0.000468661961647 0.000228633467261 -8.33881244076e-05)
(0.000476406552689 0.000146111954091 -2.34817693902e-06)
(0.000431010417214 4.24200177667e-05 8.01283479747e-05)
(0.000409750066208 -7.57956191891e-05 0.000138831349153)
(0.000389948853474 -0.000168312366056 0.000198732056021)
(0.000359226819048 -0.000222049203138 0.000247330635143)
(0.000319756269477 -0.000241021716793 0.000273381187867)
(0.000272733359386 -0.000235120246416 0.000278719840184)
(0.000213169924639 -0.000205609811345 0.000263699807621)
(0.000140173988706 -0.000144008232015 0.000225412128848)
(5.90228828344e-05 -4.77027762156e-05 0.000170960360896)
(-2.71227350849e-05 6.82005295677e-05 0.000111978579656)
(-0.000145049887042 0.000185365429243 4.15127260591e-05)
(-0.000221413674927 0.000265390696579 -4.3674385178e-05)
(-0.000256587334675 0.000307811147955 -0.000103095854738)
(-0.000232420977878 0.000290770147981 -0.000133830685796)
(-7.81675531595e-05 0.000214085866622 -7.77886539171e-05)
(0.000117422371763 0.000275195873141 -9.33706556927e-05)
(0.000342130477049 0.000307981883187 -0.000136553452854)
(0.000399697097172 0.000279158887147 -6.59988840736e-05)
(0.000398080509246 0.000171556372114 1.18664292551e-05)
(0.000367209702018 1.05687715582e-05 9.32838050156e-05)
(0.000315286320132 -0.000183860469017 0.000162503940979)
(0.000302273001508 -0.000386343504596 0.000208946380254)
(0.000305782059702 -0.000545105416823 0.000255709835413)
(0.000308672928471 -0.000643858407361 0.000296954528125)
(0.0003077117978 -0.000684708520577 0.000320121511249)
(0.000299105468889 -0.000674737575107 0.000325371645336)
(0.000276650028359 -0.000615472902754 0.000312667359651)
(0.00023424188545 -0.000502538305139 0.000281153345398)
(0.000173725734816 -0.000337038583792 0.000239742927685)
(9.36930208759e-05 -0.000132668564807 0.000196699246446)
(-3.35926218939e-05 7.31718860401e-05 0.000137023371744)
(-0.000148204820579 0.000227992071799 5.63750422253e-05)
(-0.00022885865953 0.000330710943517 -2.46050127755e-05)
(-0.000247161842691 0.000354953688483 -0.000104740461852)
(-8.72092531703e-05 0.000314083183047 -7.5831530645e-05)
(0.000104576017287 0.000305861545264 -6.25386623107e-05)
(0.000299279494902 0.000301957978728 -8.1043306789e-05)
(0.000294323354603 0.000228246778791 1.15965991984e-05)
(0.000228023831868 5.58164132985e-05 7.83816888582e-05)
(0.000150273150829 -0.000183986775548 0.000139930856548)
(9.04580895023e-05 -0.000454387554443 0.000159858766441)
(9.88657729133e-05 -0.000718933918053 0.000158794066611)
(0.000148423409151 -0.000922265746029 0.00017350010664)
(0.000213097440378 -0.0010491849489 0.000194175564092)
(0.000280772802147 -0.00110160251376 0.000206341770077)
(0.000341658009475 -0.00108824047444 0.000210963437382)
(0.000387554513415 -0.00101115445583 0.00020857907839)
(0.000404830200265 -0.000864605616515 0.000197581719942)
(0.000385787882241 -0.000650749222641 0.000190919426855)
(0.000322119031343 -0.000383399401949 0.000197745358257)
(0.000182543286338 -0.000103310747238 0.000188402694742)
(1.92240515745e-05 0.000126798947747 0.000125547369549)
(-0.000124389387116 0.000291035261086 5.55998477816e-05)
(-0.000204577732146 0.000359904705345 -4.65722024146e-05)
(-7.38054716903e-05 0.000355324240339 -4.50471954429e-05)
(8.81739604556e-05 0.000305486475577 -1.21564906896e-05)
(0.000217955938174 0.000262563998686 -7.67203880651e-07)
(0.0001348761011 0.000150659720807 9.02809056819e-05)
(-1.09842863164e-05 -6.96443588538e-05 0.000135821021553)
(-0.000131030263304 -0.000353750796185 0.000139174077042)
(-0.000196546897893 -0.000673047397404 0.000106769705195)
(-0.000154436629756 -0.00097408557817 6.25704036828e-05)
(-4.67070888388e-05 -0.00120542368918 4.13325964852e-05)
(9.69245247718e-05 -0.00134654819223 3.38876097979e-05)
(0.000249406049523 -0.00140367641188 3.24369981159e-05)
(0.000395372553701 -0.00138614362827 3.81035769364e-05)
(0.000523196969932 -0.00129734428364 5.1839772363e-05)
(0.000615831798987 -0.00113239395433 7.23577243922e-05)
(0.000649869847847 -0.000889417784237 0.000103406152858)
(0.000612321917244 -0.00058820744953 0.000154522880162)
(0.000459957485129 -0.000264421645675 0.00020996454818)
(0.000249262333246 8.89570446683e-06 0.000191172976569)
(2.97831301546e-05 0.000218827632758 0.000137567482831)
(-0.00012599852104 0.000325392649379 3.66017926719e-05)
(-5.7677847693e-05 0.00035994990842 8.71542077728e-06)
(5.46574002629e-05 0.00023978422375 2.96891439176e-05)
(0.000107899562318 0.000179370798688 7.53053819345e-05)
(-6.62517520516e-05 5.98404185656e-05 0.000154008100021)
(-0.000289521876486 -0.000169566059871 0.000149992433396)
(-0.000455635295374 -0.000462117541315 9.95812794616e-05)
(-0.000516738994019 -0.000779061944816 -4.04922869619e-06)
(-0.000433033746764 -0.00106375508812 -9.86229443302e-05)
(-0.000254191840181 -0.00127838568991 -0.000155387869304)
(-2.38342641684e-05 -0.00140525140778 -0.000179959998724)
(0.000217759113848 -0.00145242882394 -0.000185670887031)
(0.000451522936001 -0.00143212503595 -0.00017805211055)
(0.000666072653791 -0.00134924887305 -0.000155703944956)
(0.000839527442232 -0.00119480041554 -0.000113444649368)
(0.000933735572504 -0.000968154964605 -4.49202625589e-05)
(0.000925670926033 -0.000686574588398 5.16388409408e-05)
(0.000778233468178 -0.000372722705632 0.000162688290646)
(0.000519098450658 -9.16658667402e-05 0.000206568518195)
(0.00022573832769 0.000127361627819 0.000202279189516)
(-1.81590005637e-05 0.000239795861954 0.000113342795879)
(-2.23958753287e-05 0.000292280155395 5.01112629924e-05)
(3.35499200591e-05 0.00019345758449 5.58319653265e-05)
(-9.64338409991e-06 0.000128394893938 0.000133392107716)
(-0.000271644535052 1.48311007748e-05 0.000198702354723)
(-0.000560316210296 -0.0001962195388 0.000145204191107)
(-0.000761007436553 -0.000460086358588 5.0108990011e-05)
(-0.0008035830508 -0.000741802120955 -0.000103184735842)
(-0.000677314620896 -0.000991080217093 -0.000230276580296)
(-0.000431617267739 -0.00118117239578 -0.000310641076699)
(-0.000122597899571 -0.00129012948948 -0.000346759256006)
(0.000196742977025 -0.00132528624349 -0.000353806749119)
(0.000502450638153 -0.00130379022578 -0.000343205388507)
(0.00079112307831 -0.00122928962061 -0.000315707532691)
(0.00103643782341 -0.0010927769998 -0.000255918115316)
(0.00118331442199 -0.000891866223132 -0.000161355786193)
(0.00120473760551 -0.000647543597093 -3.5467814429e-05)
(0.00107243654084 -0.000370020970513 0.000119774686069)
(0.000776271331218 -0.000120888649513 0.000205092090451)
(0.000422984953318 7.81662568328e-05 0.000246612376311)
(9.50279970136e-05 0.000182518739717 0.000171650411872)
(-2.81812044947e-06 0.000240502189863 7.78465270553e-05)
(9.69426897258e-06 0.00014258042128 8.08814859541e-05)
(-0.000104262102015 8.20254118989e-05 0.000189661298953)
(-0.000435972302857 -9.65760201204e-06 0.000242456438614)
(-0.000774054745423 -0.00017621666445 0.000154439877418)
(-0.00100327137162 -0.000385814947047 2.01506031408e-05)
(-0.0010290614596 -0.000603642253528 -0.000170687258805)
(-0.0008719644334 -0.000795046169615 -0.000325468777767)
(-0.000569168968361 -0.000938790434215 -0.000431472567422)
(-0.000194383271943 -0.00102279108218 -0.000469662496002)
(0.000180285843952 -0.00106461317732 -0.000428948685748)
(0.000549157254554 -0.00104038140165 -0.000429912343608)
(0.00089561310631 -0.000974958645287 -0.000414544215398)
(0.00119157866147 -0.000858009949032 -0.000359405016503)
(0.00138165526694 -0.000707016676928 -0.000237938653424)
(0.00142164414152 -0.000521247383448 -8.85691098411e-05)
(0.00130230486427 -0.000307792771571 0.0001012090383)
(0.000975922016916 -0.000114351124377 0.000219858501037)
(0.000578104089961 4.31612252314e-05 0.000290756881603)
(0.000184942444135 0.00012545850209 0.000228508699352)
(1.87052614814e-05 0.000179977953637 0.000103094645146)
(-2.3245359725e-06 7.90942242787e-05 0.000100181489481)
(-0.000162240099089 3.6953806392e-05 0.000231962956958)
(-0.000545061702692 -2.15830559064e-05 0.000278847888344)
(-0.000914878115622 -0.000126500735955 0.000168844381557)
(-0.00116253742357 -0.00025888496092 3.44024175071e-06)
(-0.00117684176923 -0.000394519509038 -0.000208786681584)
(-0.000998425352748 -0.00051341143144 -0.000382229450173)
(-0.000660176759969 -0.000596790067379 -0.000495027160735)
(-0.000254901878858 -0.000656629160581 -0.000498431698471)
(0.00016393982083 -0.000677884175556 -0.000522102131439)
(0.000577618617895 -0.000664547781058 -0.00051697545493)
(0.000969584202572 -0.000626255254075 -0.000477834048587)
(0.00130242278643 -0.000546881838545 -0.000399355371138)
(0.00150759504886 -0.000451052773769 -0.000278678480062)
(0.0015603663251 -0.000339351621878 -0.000115438904552)
(0.00145078442281 -0.00020758590754 9.38681604078e-05)
(0.00110555190973 -8.74543767936e-05 0.000238780667205)
(0.000676546591959 1.1767630693e-05 0.000327770029011)
(0.000238566954447 6.48126405306e-05 0.000271592978012)
(2.7588812562e-05 0.000102683442644 0.00012219061934)
(-6.7040241986e-06 1.21684865809e-05 0.000107468222501)
(-0.000186926502537 -2.98085554938e-06 0.000251630175851)
(-0.00059694159623 -2.34098744051e-05 0.000296759063106)
(-0.000983154109207 -5.96112160325e-05 0.000176163269345)
(-0.00124080146542 -0.000105896333295 -5.36459077145e-06)
(-0.00124960567571 -0.000152938809093 -0.000225408502516)
(-0.00105567053959 -0.000194039838666 -0.0004064197146)
(-0.000740136448082 -0.000227801131868 -0.000426977733055)
(-0.000291130679457 -0.000243248102745 -0.000534557055112)
(0.000151863404191 -0.000252323553821 -0.000562973797598)
(0.000585996112064 -0.000248567439732 -0.00055360257959)
(0.000999521251138 -0.000235427355386 -0.000511256248424)
(0.00134912248772 -0.00020646059793 -0.00042307977348)
(0.00156721956581 -0.000172001220423 -0.00029299315962)
(0.0016247614857 -0.000135357417703 -0.00012690108913)
(0.00152233398604 -9.02553009171e-05 8.92521325022e-05)
(0.00116731143446 -4.82616578677e-05 0.000247193247775)
(0.00072385099593 -1.37269237902e-05 0.000345554892759)
(0.000260868603683 5.00651005821e-06 0.000291828258685)
(3.02062648721e-05 1.88433170622e-05 0.00012965163778)
(-6.98160646869e-06 -5.30722385673e-05 0.000107077585553)
(-0.000187488298246 -3.94740158855e-05 0.000251233801601)
(-0.000598018819817 -2.09973147938e-05 0.000296326443611)
(-0.000984627088355 1.25011044365e-05 0.0001758480053)
(-0.00124278011775 5.4659234067e-05 -5.87659941984e-06)
(-0.0012518638398 9.77207149749e-05 -0.000226102542883)
(-0.00105796464066 0.000134517175568 -0.000407353259642)
(-0.000742792216868 0.00016401396589 -0.000427043509724)
(-0.00029273028493 0.000176901981322 -0.000536034968538)
(0.000151036583586 0.000183908817933 -0.000565117856694)
(0.000587760197143 0.000179600648825 -0.00055569609201)
(0.001000799032 0.000169627323738 -0.000514591209292)
(0.00134913510593 0.000140032072426 -0.000424155251697)
(0.00156854610007 0.000106823531059 -0.000294691810813)
(0.00162670430032 7.33175942544e-05 -0.000128190151759)
(0.00152431196295 3.15066768664e-05 8.82248619522e-05)
(0.00116915810769 -6.00957908826e-06 0.00024655116122)
(0.000725390310238 -3.70164349512e-05 0.000345084413952)
(0.000261825770119 -5.29923905858e-05 0.000291468564033)
(3.06654290792e-05 -6.49324986539e-05 0.000129261996877)
(-3.19243214378e-06 -0.000117589705661 9.93254285929e-05)
(-0.000164128664749 -7.68423812544e-05 0.000231059352322)
(-0.000548473484196 -2.01185596416e-05 0.000277912939574)
(-0.000919515132954 8.19154112996e-05 0.000167931909535)
(-0.00116856116096 0.000210355565702 1.9615750942e-06)
(-0.00118363618781 0.000342191940111 -0.000210959023535)
(-0.00100566895582 0.000456973079146 -0.000385218319294)
(-0.000667271141201 0.000535866016994 -0.000498950395492)
(-0.000260695003431 0.000592921298485 -0.000501918798228)
(0.000161403336101 0.000611854438918 -0.000527055447443)
(0.000578861320542 0.000598402156249 -0.000522185431915)
(0.000973375076313 0.000559942179745 -0.000482008722534)
(0.00130854919166 0.000483790340697 -0.000400271888168)
(0.00151291308088 0.00038986025282 -0.000283406338322)
(0.00156627118336 0.000281043220079 -0.000119279143198)
(0.00145673554943 0.000152258223957 9.07995726076e-05)
(0.00111115094588 3.61823772542e-05 0.000236810984967)
(0.000681201815908 -5.95805711706e-05 0.000326384250202)
(0.000241517019409 -0.000110160129197 0.000270614492)
(2.89224804416e-05 -0.000146425321591 0.000121312347206)
(8.30868755691e-06 -0.000177470997268 7.99349344648e-05)
(-0.000107682883621 -0.000117549942434 0.000188540531837)
(-0.000441632278367 -2.71416753081e-05 0.000241379769136)
(-0.000782085957348 0.000136575498924 0.000153148578119)
(-0.00101323735825 0.00034267812559 1.76864378424e-05)
(-0.00104011013177 0.000557270196852 -0.00017435106003)
(-0.000883884387236 0.000745418846874 -0.000330573576765)
(-0.00058068721699 0.000885941680631 -0.00043915258307)
(-0.000203556737122 0.000968104978494 -0.000478658446292)
(0.000175887462075 0.00101024529761 -0.000435066038278)
(0.000550878096155 0.000985789737409 -0.00043613774743)
(0.000901936408158 0.0009205313069 -0.000420446727111)
(0.00119897424755 0.000803414204314 -0.000368715485499)
(0.00139045470244 0.000654463942262 -0.000245222077176)
(0.00143083510944 0.000470442642481 -9.46367264011e-05)
(0.00131189956908 0.000259074684902 9.64874010027e-05)
(0.000985193622119 6.89627869831e-05 0.000216816118069)
(0.000585685005905 -8.53110013375e-05 0.000288779907059)
(0.0001899612279 -0.000165980898325 0.000227173430437)
(2.07276722563e-05 -0.000219675155418 0.000101855180286)
(3.19315901502e-05 -0.000223460568868 5.45996050398e-05)
(-1.40751929219e-05 -0.000158496447974 0.000132797971932)
(-0.000279703388965 -4.56643934817e-05 0.000197944696892)
(-0.000571547275456 0.000163362402761 0.000143467136845)
(-0.00077444612967 0.000424782251026 4.6780839171e-05)
(-0.000817907921888 0.000704204076982 -0.000108140653406)
(-0.000691931744708 0.000951496597905 -0.000236720311135)
(-0.000445209543509 0.00114055385185 -0.000319309680917)
(-0.000132752442135 0.00124931327205 -0.000358068389536)
(0.00019202455281 0.00128423824409 -0.000366412351896)
(0.000503458650225 0.00126244058066 -0.000355801136031)
(0.000796864347826 0.00118772582753 -0.000327186698643)
(0.00104517324658 0.00105134537627 -0.000265431651175)
(0.00119343282342 0.000850580963747 -0.000169512555886)
(0.0012157864196 0.000606721088464 -4.24761223795e-05)
(0.00108487428089 0.00032964305727 0.000114011371796)
(0.000789078791068 8.35330156019e-05 0.00020128432129)
(0.000433488811674 -0.000112956777119 0.00024431897463)
(0.000101643371421 -0.000216355911574 0.000170118870287)
(-2.61071880634e-07 -0.000274126439359 7.59923646556e-05)
(5.34933847288e-05 -0.000264812080691 2.82563706926e-05)
(0.000102734388057 -0.00020413449191 7.51974128001e-05)
(-7.59555380361e-05 -8.43068063602e-05 0.000153720277773)
(-0.00030303640903 0.000144324872056 0.000148256640012)
(-0.000471605676137 0.000435480194519 9.57018285925e-05)
(-0.000533292698031 0.000751285084769 -9.69766679598e-06)
(-0.000448932134827 0.00103491848714 -0.000105543722758)
(-0.000268093759552 0.00124954735043 -0.000163616884865)
(-3.40410964028e-05 0.00137721729295 -0.00018953433463)
(0.00021271636757 0.00142491875 -0.000196107962391)
(0.000451955888486 0.00140440646074 -0.000188490809142)
(0.000671256501814 0.00132067012013 -0.000165523434244)
(0.000847958965115 0.00116526471173 -0.000122358023364)
(0.000943972565883 0.000938273511028 -5.30482987022e-05)
(0.000936930806029 0.000656121299421 4.43082828476e-05)
(0.000792794943895 0.000339945582989 0.00015524865521)
(0.000535556208794 6.3304547249e-05 0.00020233386789)
(0.000238957601568 -0.000153666357859 0.000199977479643)
(-1.02100865862e-05 -0.000266183055195 0.000111760392395)
(-2.02734700947e-05 -0.000319239213146 4.76931409915e-05)
(8.74881459846e-05 -0.000324944865601 -1.25841549664e-05)
(0.000213077932061 -0.000281253926282 1.48127428759e-08)
(0.000124868918414 -0.000168504436792 9.0940691411e-05)
(-2.57296950698e-05 5.20418655128e-05 0.000135225703082)
(-0.000148482973216 0.000336060669608 0.000136095783822)
(-0.000214853755357 0.000655224990917 0.000101286928093)
(-0.000171846783164 0.000955856632439 5.55333107993e-05)
(-6.15084990011e-05 0.00118715367636 3.2814894971e-05)
(8.62202640094e-05 0.0013286594806 2.41112977954e-05)
(0.00024398771402 0.00138599868651 2.18926769893e-05)
(0.000395575458657 0.00136831041194 2.7489074778e-05)
(0.000528456561828 0.00127906971468 4.1629517846e-05)
(0.000624917373628 0.00111373187211 6.30626877614e-05)
(0.000660650997639 0.000871562977268 9.50859131232e-05)
(0.000622146158568 0.000571435793745 0.000145925607874)
(0.000476352047477 0.000248363304169 0.000190098716327)
(0.000270557324472 -2.48984518511e-05 0.000186572907598)
(4.48716075016e-05 -0.000235212053016 0.00013614320145)
(-0.000117767867774 -0.000343078765648 3.62344572441e-05)
(-5.58987984369e-05 -0.000379139940097 7.36107457901e-06)
(0.000103954744689 -0.000321232409788 -6.32961349357e-05)
(0.000295182940858 -0.000315635894307 -8.0179328844e-05)
(0.000284935266784 -0.000240357267844 1.30072248631e-05)
(0.000213596617202 -6.67026272087e-05 7.85687126853e-05)
(0.000133129244903 0.000174051295557 0.000138344232577)
(7.24919593897e-05 0.000445154479634 0.000156125641508)
(8.23382419999e-05 0.000710100160073 0.000153868625976)
(0.000134519686839 0.000913795881966 0.000167726154478)
(0.000203104293884 0.00104127931279 0.000187764209562)
(0.000275625181974 0.00109395957231 0.000199409827665)
(0.00034151283084 0.00108063100311 0.000203859918376)
(0.00039211078053 0.00100346701466 0.000201468918995)
(0.000414003772329 0.000857122645197 0.000191084101983)
(0.000397852581643 0.000644289412971 0.00018488523509)
(0.0003356049554 0.000379227695584 0.000192564433205)
(0.000198863233815 0.000102538706532 0.000183640602662)
(3.69687214383e-05 -0.000131571307041 0.000123686670768)
(-0.000111302308416 -0.000298985319427 5.5366583106e-05)
(-0.000197716020299 -0.000370671190061 -4.67894213364e-05)
(-7.23152092396e-05 -0.000368763651676 -4.71326517996e-05)
(0.000117098776797 -0.000285781384748 -9.40206932195e-05)
(0.000339010783761 -0.00031701191795 -0.000135453487056)
(0.000391557366039 -0.000286556610272 -6.36757578764e-05)
(0.000384915982553 -0.000177223672701 1.32651799099e-05)
(0.000351017226235 -1.47488778311e-05 9.32892712517e-05)
(0.000298286184666 0.000181014277116 0.000161060664053)
(0.000286385038605 0.000383856227737 0.000206171311826)
(0.000292333748693 0.000542868988998 0.00025158523955)
(0.000299060795188 0.000641679815343 0.000291814447118)
(0.000302810468167 0.000682755068901 0.000314386217749)
(0.00029902130063 0.000673119203405 0.000319409697485)
(0.000281402199043 0.000614404015165 0.000306521972899)
(0.000243807278755 0.000502504516746 0.000275030000667)
(0.000186696616729 0.00033804972483 0.000235442267834)
(0.000108335457499 0.000135135933809 0.00019397099743)
(-1.77723263232e-05 -7.02420530655e-05 0.000135629795064)
(-0.000133436152017 -0.000227554119225 5.63278298913e-05)
(-0.000218322487413 -0.000333176042084 -2.36044049852e-05)
(-0.000241976921307 -0.000359968635582 -0.000105046894684)
(-8.61935377708e-05 -0.000321390648515 -7.79406032882e-05)
(0.000107553856117 -0.000195441400784 -9.50153090444e-05)
(0.000323240520324 -0.0002642898038 -0.000161411908264)
(0.000418353134306 -0.000277067085414 -0.000136924309501)
(0.000457362288244 -0.000231467815837 -8.1408725199e-05)
(0.000462028809179 -0.000147582865161 -1.24070190715e-06)
(0.000415626042934 -4.26240846332e-05 8.02871955493e-05)
(0.000395173732984 7.58856780028e-05 0.000137821654994)
(0.000377666502513 0.000168890913281 0.000196470717364)
(0.000350709438487 0.000223145896137 0.000244199601024)
(0.000315624161371 0.000242501929888 0.000269804736584)
(0.000273113156017 0.000237072991137 0.000275152573234)
(0.00021810227031 0.000208229556377 0.000260339748122)
(0.000149486724789 0.000147357005877 0.000222694160276)
(7.12502811315e-05 5.13992868195e-05 0.000169600199317)
(-1.37390040378e-05 -6.38902991282e-05 0.000111527305237)
(-0.000131153353836 -0.000181765346986 4.21198304846e-05)
(-0.000209407847492 -0.000263386840661 -4.2416205573e-05)
(-0.000248175426023 -0.000307728493662 -0.000101979110592)
(-0.000228507994613 -0.000292207021537 -0.000133661387776)
(-7.73396198164e-05 -0.000216884492081 -7.93943970127e-05)
(7.32748627522e-05 -5.74538944291e-05 -6.7504306425e-05)
(0.000247071938145 -8.79218772135e-05 -9.73802866306e-05)
(0.000377431804378 -9.59744436307e-05 -9.68069493045e-05)
(0.00045012933635 -8.15384109239e-05 -6.43418499048e-05)
(0.000496015082755 -5.80828949325e-05 -1.65634514086e-05)
(0.000465483805569 -3.1769603498e-05 3.56825827043e-05)
(0.000448822256882 -4.85914688856e-06 5.87821674816e-05)
(0.000427382108594 1.8316296486e-05 8.62674153879e-05)
(0.000382907305456 2.69845587817e-05 0.000108862695969)
(0.000321029981938 2.72382885052e-05 0.000119384038207)
(0.00025015887867 2.34188223704e-05 0.000122037566247)
(0.000168504979962 1.59952460869e-05 0.000116996776245)
(8.05030971233e-05 1.82800021828e-06 0.000100533467663)
(-2.41447144831e-06 -2.25460467404e-05 7.69427798207e-05)
(-8.13586953063e-05 -3.70464119032e-05 4.40077682334e-05)
(-0.000174589076631 -8.61709816519e-05 1.73330384873e-05)
(-0.000219830840906 -9.52068952913e-05 -4.1890929609e-05)
(-0.000217012958131 -0.000108777696422 -7.36936703511e-05)
(-0.000158308074651 -9.90152871959e-05 -7.63446881034e-05)
(-4.48250092878e-05 -6.34979380154e-05 -4.81310167625e-05)
(0.000110917411567 9.28828592291e-05 -0.000477007539584)
(0.000344556650598 0.000155778580262 -0.000548441647321)
(0.000412771423216 0.000182904518038 -0.000475408222576)
(0.000400754185881 0.000179672670473 -0.000348562594131)
(0.00034070142666 0.000145589418387 -0.000195128640903)
(0.000281951326526 8.19528217507e-05 -5.873820301e-05)
(0.000247881518709 2.43689885958e-05 5.47906544015e-05)
(0.000242811865616 -3.45463773763e-05 0.000161357070374)
(0.000255447972281 -7.54158199998e-05 0.00024303906296)
(0.000279137444619 -9.47883528733e-05 0.000282774880875)
(0.00030284978743 -9.34144238081e-05 0.000292486721424)
(0.000306061673233 -7.20784737852e-05 0.000273613096556)
(0.000275806885228 -2.9595508704e-05 0.000213299656161)
(0.000209885151477 2.92042885935e-05 0.000119326463155)
(0.000109068661852 8.64808270935e-05 8.85490353955e-06)
(-1.26208921586e-05 0.000157550621348 -0.00011548752692)
(-0.00015575467326 0.000193151628934 -0.000267463624051)
(-0.000244282019765 0.000197869835169 -0.000398852426757)
(-0.000251458999097 0.000169818407871 -0.00047786366525)
(-8.4902162774e-05 0.000100624775565 -0.000415253552045)
(0.00018599189083 0.000280906968867 -0.000546684911634)
(0.000381596635604 0.000296862216873 -0.000378081068005)
(0.000392088049746 0.00029050107446 -0.000194334572007)
(0.000348832455899 0.000236145815477 -3.2150370167e-05)
(0.000281604487268 0.00014504752136 0.000120503867251)
(0.000224677385525 2.28013600789e-05 0.000251405801737)
(0.00019906735179 -0.0001078069541 0.000355492535151)
(0.000206110028157 -0.000219359790362 0.000445741687215)
(0.000235817367037 -0.00029442813326 0.000516528968151)
(0.000275852958038 -0.000327926515692 0.00055636014622)
(0.000312423050139 -0.000321333856848 0.00056619725094)
(0.000330278903026 -0.000276130585532 0.000546185774751)
(0.000317160455523 -0.000191975667998 0.000493897945895)
(0.000265928107158 -7.76416199072e-05 0.000414179481043)
(0.000175893705486 5.29312759739e-05 0.000318366750746)
(5.27552003575e-05 0.00017982085461 0.000198946986394)
(-8.44842567018e-05 0.00027166051411 5.18466441302e-05)
(-0.000197745887136 0.000324900040411 -0.000110443874439)
(-0.000258200549278 0.000331581412403 -0.000294848940826)
(-0.000141925581544 0.000305846292985 -0.0004737626195)
(0.000217999822174 0.00029547475463 -0.000474380162101)
(0.00038165627372 0.000255305692923 -0.000196946832487)
(0.000369124471238 0.000226341499068 5.57063110517e-05)
(0.000286539436958 0.00012653642492 0.000225835310797)
(0.000197117909124 -3.09104437347e-05 0.000353368793252)
(0.000135355735991 -0.000223469276043 0.000439967020851)
(0.000118847841939 -0.000416571180365 0.000496847780717)
(0.000145606877388 -0.000573727431417 0.000544514346737)
(0.00020128790509 -0.000678027597745 0.000585047948906)
(0.000268166038187 -0.000723352616294 0.000613626154596)
(0.000329879260639 -0.000711151450185 0.000625082071864)
(0.000372262865939 -0.000643716984358 0.000619261037923)
(0.000381257255107 -0.000522684053341 0.000600245425547)
(0.000347297061328 -0.000355567645883 0.000560158087851)
(0.000265463675629 -0.000158752142785 0.000510769734729)
(0.000136709025696 3.57289410485e-05 0.000433206742839)
(-1.79958463711e-05 0.000187619499262 0.00031385373852)
(-0.000166780218145 0.000284215123598 0.000148245253456)
(-0.000247842620369 0.000311191962386 -0.000106841713746)
(-0.000165741968076 0.000341919934709 -0.000393333258775)
(0.000217244166745 0.000231378260354 -0.000351441099115)
(0.000328879155724 0.000164760880241 -4.02584710615e-05)
(0.000271977766466 9.93543128445e-05 0.000220453124041)
(0.000141116576839 -4.71691231992e-05 0.000364565815991)
(1.04358325027e-05 -0.000266426783218 0.000417532863409)
(-6.26658045915e-05 -0.000519582062607 0.000414990243755)
(-5.29012594039e-05 -0.000758018493498 0.000391434907177)
(2.26476368386e-05 -0.000945331247484 0.000376217896083)
(0.000132058911474 -0.00106218938703 0.0003757330493)
(0.000249930356707 -0.00111045256082 0.000385065342433)
(0.000360313949856 -0.00109341399982 0.000397507478113)
(0.000450567998478 -0.00101428996855 0.000412164367247)
(0.000510780020596 -0.000873531968811 0.000433334594548)
(0.000523517637395 -0.000670915478112 0.000462192570828)
(0.000463876678185 -0.000426081727044 0.000494555116842)
(0.000319311381733 -0.000162737591006 0.000498893645848)
(0.000121737280187 3.32043622832e-05 0.000455187824435)
(-6.9305665777e-05 0.000171315864301 0.000316492793446)
(-0.000195162202742 0.000234740793847 5.72984082411e-05)
(-0.000159591099572 0.000294416192487 -0.000263107622951)
(0.000184500569799 0.000119437081168 -0.000205544075241)
(0.000238627768972 5.5577040587e-05 0.000104232610049)
(0.000115090135153 -2.84173744317e-05 0.00034046017145)
(-7.80146931257e-05 -0.000214828643554 0.000409355994911)
(-0.000239994623081 -0.000465900827633 0.000360535626622)
(-0.000299627972401 -0.00073165144718 0.000242696230573)
(-0.000247750272903 -0.000972966043374 0.000120098002618)
(-0.000117192763743 -0.00116021293824 3.86045536056e-05)
(5.27002007178e-05 -0.00127418310852 8.19798475923e-07)
(0.000231595520821 -0.00131733492615 -6.76889765222e-06)
(0.000401067711103 -0.00129575701296 7.72314214175e-06)
(0.000549895850291 -0.00121290371532 4.33806960051e-05)
(0.000665220813595 -0.001067199755 0.000106676960613)
(0.000724692781517 -0.000861710914393 0.000207213662816)
(0.000710034941803 -0.000618906804765 0.000334976109558)
(0.00055948736694 -0.000363491539999 0.000434688034758)
(0.000317713221415 -0.000127395757554 0.000502810439371)
(8.07662918233e-05 5.12936858728e-05 0.0004391358415)
(-0.000106046211671 0.000132807400208 0.000207051682827)
(-0.000125457548237 0.000194382238604 -0.000108132112617)
(0.000116897621374 2.44227183443e-05 -8.26184237339e-05)
(0.000114779022854 -3.6599718395e-05 0.000225838749053)
(-7.9724106043e-05 -0.000124632391122 0.000421482892965)
(-0.00033417161491 -0.000323019979863 0.000402193864602)
(-0.000508241004827 -0.000563697225753 0.000237084517882)
(-0.000546963589164 -0.000812171701836 5.19829542777e-06)
(-0.000451329833686 -0.00103771353095 -0.000203325326707)
(-0.000261480863459 -0.00120941779216 -0.000339056363841)
(-2.63267328568e-05 -0.00130986565667 -0.00040402108152)
(0.000216418255398 -0.00134345045654 -0.000420411683639)
(0.000447409847394 -0.00131834637629 -0.000402709265779)
(0.000657210573548 -0.00123817224065 -0.000351045253798)
(0.000829713608972 -0.00110020588702 -0.000250896225448)
(0.000931922078456 -0.000909535707601 -8.86047852076e-05)