/*--------------------------------*- C++ -*----------------------------------*\
| =========                 |                                                 |
| \\      /  F ield         | OpenFOAM: The Open Source CFD Toolbox           |
|  \\    /   O peration     | Version:  3.0.1                                 |
|   \\  /    A nd           | Web:      www.OpenFOAM.org                      |
|    \\/     M anipulation  |                                                 |
\*---------------------------------------------------------------------------*/
FoamFile
{
    version     2.0;
    format      ascii;
    class       volScalarField;
    location    "8.5";
    object      p;
}
// * * * * * * * * * * * * * * * * * * * * * * * * * * * * * * * * * * * * * //

dimensions      [1 -1 -2 0 0 0 0];

internalField   nonuniform List<scalar> 
7968
(
4646.628131
4646.62720756
4646.59653889
4646.55302217
4646.50841756
4646.46917241
4646.44161252
4646.42493788
4646.41380337
4646.40308781
4646.39053545
4646.37608735
4646.36247102
4646.35514623
4646.36007817
4646.37745157
4646.40476771
4646.43429634
4646.45625235
4646.45403302
4646.62954736
4646.64588984
4646.62396356
4646.58434904
4646.53976393
4646.50125497
4646.47330075
4646.45685642
4646.44650121
4646.43618357
4646.423512
4646.4084594
4646.39383557
4646.38574924
4646.39038726
4646.40797438
4646.43435644
4646.45979745
4646.47308139
4646.45418674
4646.60499951
4646.63012778
4646.61078694
4646.568837
4646.51908132
4646.47571977
4646.44426797
4646.42517493
4646.41297869
4646.40154166
4646.38849251
4646.37385012
4646.36045762
4646.35471762
4646.36275806
4646.38501236
4646.41635041
4646.44386627
4646.45456021
4646.42719593
4646.57066719
4646.59987579
4646.57817139
4646.53159673
4646.47867601
4646.43634451
4646.40911606
4646.39502073
4646.38640984
4646.37649744
4646.3631269
4646.34637669
4646.32889168
4646.31788735
4646.32161414
4646.34265452
4646.37673502
4646.40836329
4646.42112453
4646.38984548
4646.53722249
4646.5667469
4646.53972268
4646.48989151
4646.44024954
4646.40715737
4646.3914135
4646.3885118
4646.38795267
4646.3820242
4646.36841692
4646.34718575
4646.32108894
4646.29842222
4646.29060212
4646.30269043
4646.3330346
4646.36737649
4646.38502328
4646.35334804
4646.51123524
4646.5410159
4646.50897
4646.46007687
4646.41973666
4646.4006961
4646.40077235
4646.41307783
4646.42365253
4646.4233356
4646.40953623
4646.38222032
4646.34417447
4646.30556749
4646.28159578
4646.27961199
4646.30116178
4646.33436966
4646.35673593
4646.32481857
4646.4972046
4646.5268145
4646.49118166
4646.44650661
4646.4178842
4646.41486407
4646.43346999
4646.46367415
4646.48770903
4646.49415805
4646.48023562
4646.44586594
4646.39346359
4646.3360326
4646.29309637
4646.27521601
4646.28558123
4646.31465761
4646.34051935
4646.30863986
4646.49456153
4646.52455898
4646.48638357
4646.44689646
4646.42982973
4646.44240368
4646.47915335
4646.52739533
4646.56505206
4646.58135553
4646.56792439
4646.52330981
4646.45647584
4646.38006018
4646.31844252
4646.28498927
4646.28415279
4646.30831797
4646.33677162
4646.30444021
4646.49756917
4646.52842592
4646.48867357
4646.45306697
4646.44444229
4646.46862863
4646.51920442
4646.58114444
4646.63709476
4646.66462248
4646.65184214
4646.59690807
4646.51045681
4646.41922802
4646.34336748
4646.29823164
4646.28912318
4646.30953476
4646.33960182
4646.30644555
4646.50090321
4646.53225217
4646.49176151
4646.45801204
4646.45370389
4646.48388746
4646.54160947
4646.61227252
4646.6791825
4646.71152136
4646.69901304
4646.64051363
4646.54335537
4646.44103939
4646.35813486
4646.30701474
4646.29361634
4646.31217805
4646.34301715
4646.30936921
4646.50202813
4646.53342
4646.49301259
4646.4593605
4646.45514465
4646.4854192
4646.54322245
4646.61392609
4646.68086621
4646.71326333
4646.70076468
4646.64225204
4646.5450769
4646.44279402
4646.35987922
4646.30872059
4646.29525386
4646.31371144
4646.34444246
4646.31075103
4646.50085654
4646.53184997
4646.49234428
4646.45705019
4646.44872913
4646.47322063
4646.52407555
4646.5862367
4646.64237826
4646.67002947
4646.65725661
4646.60226582
4646.51576027
4646.42452531
4646.34857953
4646.30328492
4646.29394083
4646.31402795
4646.34378714
4646.31049472
4646.49980141
4646.53002352
4646.49224811
4646.45331237
4646.43680436
4646.44995507
4646.48725767
4646.5359796
4646.57403904
4646.59059914
4646.57720551
4646.53247146
4646.46544604
4646.3888506
4646.32697637
4646.29316292
4646.29187052
4646.31547452
4646.34344338
4646.31089856
4646.50408491
4646.53392772
4646.49881561
4646.45490364
4646.42710892
4646.42495075
4646.44439361
4646.47532955
4646.4999165
4646.5066748
4646.4928343
4646.45835432
4646.40569918
4646.34789082
4646.30446394
4646.28598156
4646.29565178
4646.32396571
4646.34922076
4646.31712001
4646.51938672
4646.54936734
4646.5179004
4646.46990302
4646.4305831
4646.41260917
4646.41372085
4646.42693609
4646.43819292
4646.43828358
4646.42462598
4646.39721104
4646.35883503
4646.31969247
4646.295032
4646.29224971
4646.31293153
4646.34524954
4646.36696204
4646.33485679
4646.54618835
4646.57599127
4646.54951752
4646.50059953
4646.45207624
4646.42016666
4646.40556585
4646.4036726
4646.40387433
4646.39842341
4646.38501228
4646.36371105
4646.33725438
4646.31394588
4646.3052996
4646.31643412
4646.34581599
4646.37925754
4646.39630349
4646.36435756
4646.58027494
4646.60967568
4646.58845299
4646.54273328
4646.4909139
4646.44978691
4646.42371908
4646.41066896
4646.40286318
4646.39347299
4646.38033853
4646.36354221
4646.34569468
4646.33395993
4646.3367829
4646.35681299
4646.3899097
4646.42071609
4646.43297767
4646.40155652
4646.61498672
4646.64029037
4646.62133346
4646.58011568
4646.53135568
4646.48912045
4646.45879015
4646.44071988
4646.42932283
4646.41841242
4646.40560649
4646.39092389
4646.37715544
4646.37066245
4646.37778297
4646.39907347
4646.42952836
4646.45636653
4646.46669465
4646.43922026
4646.63986056
4646.65631393
4646.63470602
4646.59569722
4646.55196353
4646.51447078
4646.48756615
4646.47208483
4646.46246805
4646.45263182
4646.44016922
4646.42505237
4646.41004244
4646.40124877
4646.40504461
4646.42179396
4646.44744845
4646.47235604
4646.48535318
4646.4663989
4646.63867534
4646.63795888
4646.60759136
4646.56466613
4646.52089262
4646.4826494
4646.45606105
4646.44027738
4646.42982702
4646.41956003
4646.4071978
4646.39267547
4646.3786851
4646.37070606
4646.37485457
4646.39137593
4646.41800873
4646.44698889
4646.46859871
4646.4661581
4156.98755555
4156.97373465
4156.93368993
4156.88404361
4156.83871032
4156.80275468
4156.77760837
4156.76346543
4156.7544427
4156.74472484
4156.73214257
4156.71670161
4156.70102864
4156.69104622
4156.69321479
4156.70861733
4156.73613507
4156.77147975
4156.80250512
4156.81296327
4156.9759687
4156.97312217
4156.93681836
4156.89169165
4156.85301984
4156.82430285
4156.80551252
4156.79588163
4156.78937927
4156.78071762
4156.76809896
4156.75162091
4156.73343659
4156.71902817
4156.71495455
4156.72334691
4156.7438386
4156.77418578
4156.80101787
4156.8006486
4156.94207136
4156.94316429
4156.90090793
4156.85070647
4156.80973005
4156.78174145
4156.76534531
4156.75779915
4156.75257295
4156.74435674
4156.73142053
4156.71390332
4156.69398259
4156.67746032
4156.67110522
4156.67862951
4156.70120753
4156.73617032
4156.76867596
4156.7643314
4156.90184546
4156.9076564
4156.86018676
4156.80854934
4156.77228964
4156.75356741
4156.7479849
4156.74955148
4156.74993594
4156.74412519
4156.73086115
4156.71031137
4156.68428068
4156.65831053
4156.64105628
4156.63957878
4156.65724189
4156.69319526
4156.73025741
4156.72120858
4156.86804155
4156.8805099
4156.83045636
4156.78343109
4156.75985141
4156.7601926
4156.77411511
4156.79212384
4156.80376014
4156.80331146
4156.78977058
4156.76321146
4156.72510123
4156.68200043
4156.64543825
4156.62603072
4156.63026314
4156.66129046
4156.70035385
4156.68439897
4156.84502467
4156.86437032
4156.81477945
4156.77688223
4156.77240708
4156.79528836
4156.8332372
4156.87236452
4156.89857742
4156.9053204
4156.89173029
4156.85755709
4156.80378909
4156.73840332
4156.67730096
4156.63480615
4156.62129505
4156.64344375
4156.6816769
4156.65858304
4156.83380808
4156.85923153
4156.81180442
4156.7846804
4156.80008325
4156.84726102
4156.91075649
4156.97277986
4157.01542834
4157.03040785
4157.01698345
4156.97450107
4156.90322987
4156.8134524
4156.72585945
4156.65922425
4156.62695415
4156.63846694
4156.67445536
4156.64508289
4156.8339483
4156.86367076
4156.8183883
4156.80065129
4156.83290318
4156.90175069
4156.98850276
4157.0723375
4157.12975721
4157.1483407
4157.13451873
4157.08899366
4157.00240519
4156.88952222
4156.77771259
4156.68938831
4156.64060222
4156.64320068
4156.6772662
4156.64350048
4156.83919429
4156.87129897
4156.82754186
4156.81568438
4156.85966132
4156.94375079
4157.04741442
4157.14627442
4157.20453155
4157.22524265
4157.21153209
4157.16274017
4157.07528872
4156.94756728
4156.81823412
4156.71456301
4156.65412536
4156.65097214
4156.68377938
4156.64759695
4156.84362094
4156.8767199
4156.83375011
4156.82459622
4156.87431075
4156.96592139
4157.07793529
4157.18191507
4157.24154295
4157.26507024
4157.25153454
4157.19907655
4157.1080896
4156.97787044
4156.83997388
4156.72870337
4156.66251224
4156.65659894
4156.68871895
4156.65153455
4156.8448167
4156.87795166
4156.83508448
4156.82602341
4156.87582888
4156.96751005
4157.07956643
4157.18359672
4157.24326604
4157.26682538
4157.25328436
4157.20079956
4157.10979521
4156.97958814
4156.84173793
4156.73047837
4156.66425593
4156.65825845
4156.69024474
4156.65300853
4156.84268649
4156.87491562
4156.83147383
4156.81992853
4156.86421358
4156.94857037
4157.05243857
4157.15145705
4157.20986611
4157.23063873
4157.21689498
4157.16802108
4157.08053863
4156.95282534
4156.82355517
4156.71984347
4156.65925616
4156.65581936
4156.68824291
4156.65190748
4156.83953311
4156.86947882
4156.82470818
4156.80755763
4156.84040015
4156.90980971
4156.99705916
4157.0813442
4157.13909486
4157.15775458
4157.14387012
4157.09819695
4157.01150255
4156.8985117
4156.78658817
4156.69800877
4156.64884007
4156.65090377
4156.68438091
4156.65036807
4156.84113534
4156.86685768
4156.82008982
4156.79383932
4156.81016349
4156.85825753
4156.92258675
4156.98533235
4157.02854029
4157.04377358
4157.03033072
4156.98764197
4156.91604834
4156.82592548
4156.73792429
4156.67074952
4156.63780413
4156.64850383
4156.6837521
4156.65404831
4156.85371615
4156.87341098
4156.82454821
4156.78770059
4156.78440385
4156.80848596
4156.84754997
4156.88761047
4156.9145168
4156.92163622
4156.90811973
4156.8737726
4156.81960253
4156.75364978
4156.69183897
4156.64854005
4156.63411747
4156.65524297
4156.69263204
4156.66912387
4156.87776463
4156.89061806
4156.841234
4156.7952909
4156.77301434
4156.77469872
4156.78986731
4156.80891286
4156.82132738
4156.82134521
4156.80796826
4156.78130613
4156.74278602
4156.69900457
4156.66156715
4156.64114157
4156.64429973
4156.67420848
4156.71245177
4156.69602429
4156.91226898
4156.91841517
4156.87151869
4156.8209288
4156.78598796
4156.76861573
4156.76430683
4156.76694572
4156.76814983
4156.76287434
4156.74985466
4156.72927243
4156.70286241
4156.67609799
4156.65783099
4156.65523723
4156.67170647
4156.70656398
4156.74292449
4156.73343476
4156.95292278
4156.95428515
4156.91243425
4156.86313322
4156.82336687
4156.7966684
4156.78149512
4156.77501508
4156.77061642
4156.76295375
4156.75029219
4156.73279516
4156.71257346
4156.69511713
4156.6876598
4156.69402424
4156.71546326
4156.74949521
4156.78152192
4156.7767886
4156.98711937
4156.98440816
4156.94842218
4156.90397736
4156.86632098
4156.83874241
4156.82105961
4156.81239435
4156.80664094
4156.79847233
4156.78608097
4156.76957061
4156.75101637
4156.73578969
4156.73072934
4156.73811199
4156.75766924
4156.78733735
4156.81378693
4156.81322575
4156.9989501
4156.98524904
4156.94545114
4156.89643925
4156.8520484
4156.81717617
4156.79308213
4156.77986723
4156.77154958
4156.76228889
4156.74990083
4156.73438982
4156.71831489
4156.70757214
4156.70881599
4156.7232706
4156.74991613
4156.78461618
4156.81533191
4156.82565483
3667.33887137
3667.3131418
3667.26702086
3667.21321228
3667.16607478
3667.12891405
3667.10288435
3667.08662823
3667.07486493
3667.06314843
3667.05023466
3667.03631017
3667.02311378
3667.01531833
3667.01867398
3667.03552563
3667.06494325
3667.10448285
3667.14146046
3667.16346166
3667.31550156
3667.30938491
3667.27278206
3667.23007925
3667.19641414
3667.17278082
3667.15816327
3667.14936308
3667.14133246
3667.13109435
3667.11813798
3667.10275316
3667.08589061
3667.07114382
3667.06357627
3667.06709883
3667.08291161
3667.11078937
3667.13719665
3667.13952459
3667.27561499
3667.27965484
3667.23013659
3667.17464807
3667.13270117
3667.10648453
3667.09276983
3667.08605127
3667.08026761
3667.07107586
3667.05751839
3667.03983846
3667.01955726
3667.00313229
3666.99511159
3667.00137229
3667.02527429
3667.06540449
3667.10486449
3667.09738392
3667.2313793
3667.24692828
3667.18430144
3667.12304907
3667.0844581
3667.0708628
3667.072802
3667.07904714
3667.08203931
3667.07701141
3667.06292601
3667.04021452
3667.01092487
3666.98072089
3666.9570286
3666.95073317
3666.9713821
3667.01739302
3667.06898216
3667.05033832
3667.19593645
3667.22485704
3667.153759
3667.09583228
3667.07272146
3667.07952966
3667.0142435
3667.07434172
3667.17395436
3667.1748038
3667.16012227
3667.13046531
3667.15913089
3667.11495526
3666.96350073
3666.9357918
3666.94153429
3666.98429092
3667.04407136
3667.01195788
3667.1718095
3667.21383027
3667.13973203
3667.09386098
3667.090934
3666.87281771
3666.70009597
3667.04440216
3667.35895052
3667.36570036
3667.34998668
3667.31217778
3667.52916099
3667.7001648
3667.3061758
3666.9532281
3666.93769731
3666.96785999
3667.03047411
3666.9849577
3667.1597963
3667.21268955
3667.13919925
3667.10866551
3667.03843884
3666.32554192
3666.19232603
3666.8986737
3667.42407289
3667.43736124
3667.42041259
3667.37298436
3667.79044233
3668.36615239
3668.01482645
3667.09280892
3666.94995281
3666.96485236
3667.02712157
3666.97063676
3667.15798657
3667.21790333
3667.14667494
3667.12914592
3666.89845352
3665.87805563
3665.87143859
3666.76705196
3667.40852385
3667.42925211
3667.41136596
3667.35376974
3667.87212561
3668.6704916
3668.51753074
3667.29876067
3666.9677901
3666.9701642
3667.0305651
3666.96709694
3667.16081404
3667.22421345
3667.15566176
3667.14727922
3666.84322682
3665.77061109
3665.79669767
3666.7450076
3667.42370677
3667.45065462
3667.43234264
3667.36779893
3667.90207769
3668.75179254
3668.65260554
3667.39517057
3666.98356738
3666.97728341
3667.03550049
3666.96869809
3667.16364354
3667.22839183
3667.16152092
3667.15786999
3666.86056529
3665.79598829
3665.83090523
3666.78748715
3667.47303912
3667.50334514
3667.48471646
3667.41639468
3667.94344873
3668.78315358
3668.67520812
3667.41077662
3666.99299922
3666.98221525
3667.038984
3666.97095182
3667.16494891
3667.22972212
3667.16301772
3667.1595104
3666.86241235
3665.798305
3665.83357168
3666.79027584
3667.47593539
3667.50635326
3667.48770974
3667.41929836
3667.94605085
3668.78531472
3668.67711731
3667.41278788
3666.99500982
3666.98412
3667.04066056
3666.97257216
3667.16461578
3667.22810892
3667.16005412
3667.15213963
3666.84871626
3665.77755472
3665.80476648
3666.7535468
3667.43257408
3667.45981269
3667.44142102
3667.37660149
3667.90995426
3668.75829813
3668.65829707
3667.40110256
3666.98943598
3666.98274498
3667.04033479
3666.97338338
3667.16404602
3667.22416388
3667.15372955
3667.1370493
3666.89067857
3665.83056202
3665.78289714
3666.65471593
3667.28966879
3667.31116144
3667.29339897
3667.23550837
3667.7571318
3668.5753839
3668.46621723
3667.29194105
3666.9771398
3666.97874146
3667.03820421
3666.97449523
3667.16771679
3667.22094972
3667.14841712
3667.1191147
3667.0290104
3666.22335213
3665.96924198
3666.60697568
3667.11340491
3667.12789412
3667.11149266
3667.06410864
3667.49498822
3668.13360429
3667.90938715
3667.08506165
3666.96217886
3666.97589534
3667.03705123
3666.98021785
3667.18120655
3667.22368978
3667.15056871
3667.10610601
3667.10443795
3666.82896354
3666.52470524
3666.76755051
3667.05522153
3667.06316863
3667.04812168
3667.01053312
3667.25161141
3667.52242807
3667.26319616
3666.96863884
3666.95213423
3666.98085725
3667.04218518
3666.99615379
3667.20642191
3667.23585059
3667.16559767
3667.10900823
3667.08756977
3667.09570981
3667.01093358
3667.03464435
3667.11842984
3667.1200003
3667.10563347
3667.07595402
3667.12044497
3667.11271959
3666.9814192
3666.95282828
3666.95722593
3666.99839705
3667.05690018
3667.02411691
3667.24257457
3667.25864305
3667.19670429
3667.13679552
3667.09992689
3667.08791569
3667.09109514
3667.09842026
3667.10231389
3667.09790742
3667.08410145
3667.06138778
3667.0318101
3667.00057251
3666.97582277
3666.96820459
3666.98729112
3667.03176059
3667.08235386
3667.06302746
3667.28722478
3667.29174503
3667.24255434
3667.1883338
3667.1479483
3667.12331999
3667.11104504
3667.10556999
3667.10076216
3667.09222444
3667.07901715
3667.0615454
3667.04152256
3667.02321484
3667.01358377
3667.01828436
3667.04063642
3667.0793671
3667.11838527
3667.11023666
3667.32738321
3667.32146257
3667.28521016
3667.2433044
3667.21084947
3667.18854643
3667.17516349
3667.16743518
3667.16022688
3667.15052107
3667.13781421
3667.1224547
3667.10529867
3667.08938283
3667.08051514
3667.08274061
3667.09739252
3667.12443303
3667.15038929
3667.15241305
3667.35101021
3667.32528117
3667.27945365
3667.22643759
3667.18046372
3667.1445885
3667.11979586
3667.10461165
3667.09364737
3667.08242604
3667.06970254
3667.05568117
3667.04200443
3667.03323438
3667.03540221
3667.0509987
3667.07927144
3667.11797018
3667.15455644
3667.1764797
3177.6693996
3177.63260258
3177.58402757
3177.52732199
3177.4759204
3177.43334757
3177.40164334
3177.37867737
3177.36039586
3177.34437198
3177.33065212
3177.31970458
3177.31228712
3177.31123908
3177.320696
3177.34296394
3177.37695238
3177.41980589
3177.45909218
3177.49228567
3177.63478721
3177.6260624
3177.58553846
3177.53454229
3177.48931339
3177.45296783
3177.42556332
3177.40320209
3177.3830866
3177.36524452
3177.35122031
3177.341584
3177.33567743
3177.33505775
3177.34108571
3177.35766051
3177.38528965
3177.42175628
3177.45220296
3177.45737545
3177.5926401
3177.5926302
3177.54105945
3177.47484127
3177.41900651
3177.37977747
3177.35650203
3177.34197098
3177.33145207
3177.31898102
3177.30416189
3177.28726469
3177.26759477
3177.26320243
3177.26566875
3177.28520937
3177.32314803
3177.37465068
3177.41627439
3177.41336923
3177.54555824
3177.55142979
3177.48487719
3177.4043206
3177.34934499
3177.16949072
3177.0177167
3177.27176485
3177.46618613
3177.46076181
3177.44462016
3177.41896806
3177.54963498
3177.67619174
3177.40314301
3177.2132969
3177.24960957
3177.3154784
3177.37266287
3177.36368437
3177.50594817
3177.51767718
3177.44084277
3177.36152599
3176.96224172
3176.29185911
3176.3650473
3177.14170961
3177.62846442
3177.62929704
3177.6104494
3177.57352667
3178.00578368
3178.71310097
3178.55457745
3177.6285202
3177.20445726
3177.26851179
3177.33669328
3177.32144851
3177.4766896
3177.49365468
3177.41297606
3177.1907695
3175.81898524
3175.12984752
3175.75440654
3176.8554114
3177.4852593
3177.48980561
3177.46691261
3177.41797873
3178.01075025
3179.24017455
3179.93368195
3178.96935226
3177.38520368
3177.2391972
3177.31057112
3177.28923055
3177.4590151
3177.47936167
3177.40193872
3176.66880133
3174.58822593
3174.58167731
3175.47537313
3176.64032658
3177.31679556
3177.3234713
3177.29543956
3177.23317384
3177.86870669
3179.25444316
3180.43797594
3180.35045816
3177.96578945
3177.2261979
3177.29410261
3177.26945711
3177.45074057
3177.47112545
3177.40155439
3176.12185512
3174.0028409
3174.38923102
3175.30838581
3176.50271865
3177.20043776
3177.20964516
3177.17683841
3177.10127183
3177.74172499
3179.19116653
3180.48672195
3180.92200372
3178.51825166
3177.22395495
3177.28376937
3177.25946972
3177.44775741
3177.46619719
3177.40610566
3175.95110125
3173.88341141
3174.34855121
3175.28474165
3176.49203465
3177.19943176
3177.21187416
3177.17702679
3177.09319125
3177.71993112
3179.16987754
3180.48520289
3181.02514367
3178.69337622
3177.22620158
3177.27674314
3177.25502697
3177.44721824
3177.4641127
3177.41003059
3175.96354623
3173.90634199
3174.38220825
3175.32935944
3176.54451511
3177.25672095
3177.27072989
3177.23478734
3177.14692814
3177.76486087
3179.2044079
3180.51039205
3181.0420119
3178.70279059
3177.22878282
3177.27327845
3177.25369423
3177.44863193
3177.46563601
3177.41183894
3175.96588423
3173.90964598
3174.38646431
3175.33463949
3176.55046541
3177.26311533
3177.27737078
3177.24144696
3177.1534361
3177.77073056
3179.20907093
3180.51369987
3181.04429136
3178.70505136
3177.23117394
3177.2753075
3177.25553091
3177.4518499
3177.4705345
3177.41125814
3175.95801538
3173.89321482
3174.3613084
3175.30073463
3176.51029638
3177.21919559
3177.2323339
3177.19729447
3177.1128888
3177.73760317
3179.18384878
3180.49503125
3181.03182137
3178.69992404
3177.23284548
3177.28243413
3177.2602386
3177.45719857
3177.47795485
3177.40965481
3176.09582091
3173.92481499
3174.28930239
3175.20285835
3176.39064795
3177.08579956
3177.09663
3177.06356344
3176.98659962
3177.61918275
3179.05809425
3180.35532378
3180.82466364
3178.49063293
3177.23407386
3177.29252172
3177.26759796
3177.46737241
3177.4882009
3177.41216585
3176.60211745
3174.36006519
3174.25482812
3175.121836
3176.26026864
3176.92440773
3176.93326562
3176.9057313
3176.8425959
3177.46453906
3178.83688241
3180.04320758
3180.0901761
3177.89899724
3177.23848664
3177.30509107
3177.27985485
3177.4865744
3177.50414685
3177.42492898
3177.16730422
3175.58987598
3174.65637272
3175.18026549
3176.2403829
3176.85265322
3176.859632
3176.83803056
3176.78929011
3177.37136268
3178.60172683
3179.40440835
3178.72690994
3177.36494635
3177.25400045
3177.32338759
3177.30133413
3177.51694246
3177.52924356
3177.45356595
3177.37545231
3176.8940439
3175.96857681
3175.77460912
3176.42226943
3176.87818131
3176.88146921
3176.86435398
3176.82851136
3177.27649868
3178.09598489
3178.21915905
3177.5623585
3177.22274938
3177.28430051
3177.35033491
3177.33402045
3177.55722148
3177.56366212
3177.49820101
3177.41947225
3177.36702263
3177.15193842
3176.88495025
3177.02176319
3177.17898077
3177.17498522
3177.15980956
3177.13474268
3177.30173773
3177.54299186
3177.38714018
3177.23351592
3177.2676338
3177.33110785
3177.38656355
3177.37669665
3177.60466228
3177.60513165
3177.55443396
3177.48984593
3177.43630923
3177.39921912
3177.37770922
3177.36478574
3177.35556932
3177.34391993
3177.32953983
3177.3132767
3177.29787767
3177.28692392
3177.2869616
3177.30432233
3177.33998449
3177.38956308
3177.43001024
3177.42647856
3177.64693963
3177.63851206
3177.5986018
3177.54887288
3177.50539038
3177.47088207
3177.4451979
3177.42437254
3177.40539389
3177.38829443
3177.37454449
3177.36489825
3177.35880619
3177.35610193
3177.36022263
3177.3749031
3177.40075157
3177.43583033
3177.4654998
3177.47026114
3177.68183151
3177.645041
3177.59709963
3177.54150396
3177.4916426
3177.45075527
3177.42063189
3177.39900908
3177.38170705
3177.36624408
3177.35267422
3177.34150572
3177.33342992
3177.33109519
3177.33902005
3177.3596254
3177.39203537
3177.43364805
3177.47208524
3177.50501189
2688.03087293
2687.99451672
2687.94608433
2687.88076682
2687.81818412
2687.76176865
2687.71658634
2687.68140819
2687.65356226
2687.63162068
2687.61632457
2687.60875084
2687.60971696
2687.62053877
2687.64382483
2687.67998022
2687.72562467
2687.77750266
2687.81721171
2687.85049078
2687.99677398
2687.96573467
2687.91391293
2687.83995855
2687.76751915
2687.70149196
2687.6476528
2687.60369833
2687.56754325
2687.54025443
2687.52430702
2687.52114346
2687.53099982
2687.55134634
2687.58405398
2687.63036146
2687.68517439
2687.74485667
2687.78780186
2687.81530199
2687.95499363
2687.92048319
2687.8569644
2687.76455368
2687.67639225
2687.440082
2687.23775394
2687.45623802
2687.62740267
2687.6097017
2687.59233197
2687.57710323
2687.73620735
2687.89717368
2687.67314611
2687.53808026
2687.60754499
2687.68563348
2687.74077984
2687.77159023
2687.89951772
2687.85664819
2687.77526376
2687.64336385
2686.90621192
2686.42670156
2686.63039752
2687.2838426
2687.71349508
2687.70743072
2687.68712064
2687.65508553
2688.07541304
2688.78202662
2688.88303204
2688.20214457
2687.50411289
2687.60006032
2687.67462092
2687.7137239
2687.84911607
2687.7962023
2687.70033688
2686.90102214
2685.4121451
2685.27747544
2685.92548637
2686.84113555
2687.3860948
2687.38852142
2687.36251821
2687.3116437
2687.85566605
2689.04596847
2690.07048539
2689.92844303
2688.21317656
2687.52133571
2687.61203398
2687.66135869
2687.80678967
2687.74258805
2687.47484199
2685.28717414
2684.35812331
2684.7878158
2685.47225115
2686.43254158
2687.01479925
2687.01586155
2686.98039065
2686.91187178
2687.50190314
2688.89938951
2690.2691084
2691.1187681
2689.9251505
2687.64654173
2687.556271
2687.61414712
2687.77621611
2687.7015738
2686.90019476
2684.05478609
2684.00718272
2684.46984741
2685.17064435
2686.13239767
2686.71312166
2686.7076134
2686.66042368
2686.57176134
2687.16003965
2688.66483953
2690.27962011
2691.4298452
2691.32372466
2688.17963555
2687.51277642
2687.58129356
2687.75667523
2687.67194959
2686.31610377
2683.62627448
2683.82749923
2684.31357424
2685.03479743
2685.98929292
2686.55697832
2686.54556405
2686.48738191
2686.37774451
2686.9333144
2688.45846932
2690.19147591
2691.50861557
2691.78251812
2688.69378516
2687.47879357
2687.55879584
2687.74584348
2687.65297627
2686.12482404
2683.54282436
2683.79457022
2684.30490484
2685.05063942
2686.00753869
2686.56948326
2686.55717176
2686.49778607
2686.38203154
2686.90203646
2688.40386925
2690.15167357
2691.50736286
2691.84710433
2688.8458989
2687.45487566
2687.54487415
2687.74150676
2687.64423444
2686.12769763
2683.55976293
2683.82844259
2684.35435019
2685.11416559
2686.0752937
2686.63444313
2686.62099615
2686.56249095
2686.44502626
2686.95388706
2688.44415356
2690.1818192
2691.52830391
2691.85670742
2688.84528091
2687.44281478
2687.53872752
2687.74305487
2687.64599095
2686.13036581
2683.56350832
2683.83375641
2684.36219206
2685.12431155
2686.0864945
2686.64617211
2686.63292319
2686.57477019
2686.45732718
2686.96502853
2688.45325293
2690.18841128
2691.53257774
2691.8593732
2688.84847002
2687.44549582
2687.54097179
2687.75027765
2687.65787961
2686.13226169
2683.55403186
2683.81039772
2684.32860942
2685.08199745
2686.04287221
2686.60724965
2686.59560509
2686.53566297
2686.41955612
2686.93614107
2688.43142915
2690.17138719
2691.52004044
2691.85527424
2688.85405158
2687.46208578
2687.55104536
2687.76351254
2687.67931559
2686.29000302
2683.56243613
2683.75575033
2684.24684221
2684.97423374
2685.92990775
2686.49936954
2686.4901829
2686.42951352
2686.31585647
2686.85490523
2688.35094006
2690.06294576
2691.38240836
2691.69019677
2688.66768889
2687.48946997
2687.56816521
2687.78488054
2687.71070584
2686.83173511
2683.86078179
2683.75049892
2684.20419023
2684.89602453
2685.83804989
2686.40687078
2686.40425863
2686.35611511
2686.26324804
2686.82075749
2688.27137095
2689.86026086
2691.04618625
2691.07702812
2688.11043565
2687.52532945
2687.59299811
2687.81695591
2687.75337466
2687.45014642
2685.04636398
2683.92650457
2684.32344419
2684.97809265
2685.89749642
2686.45612762
2686.46001901
2686.4251989
2686.35475675
2686.91170748
2688.2572772
2689.62603071
2690.56059624
2689.65858747
2687.62679038
2687.5707238
2687.62799115
2687.86034531
2687.80799217
2687.71345152
2686.7608903
2684.96856389
2684.64487703
2685.23900064
2686.10125807
2686.61960685
2686.62511633
2686.60076551
2686.55023518
2687.07160444
2688.24116665
2689.31540733
2689.43443748
2688.0812294
2687.5394587
2687.62661944
2687.67368175
2687.91131203
2687.86899455
2687.78927382
2687.65722571
2686.77196134
2685.95631636
2685.89776253
2686.44925415
2686.85298545
2686.84994963
2686.83175449
2686.80062252
2687.22319663
2688.00560399
2688.38823709
2688.06724938
2687.52274252
2687.61721206
2687.68894422
2687.72675864
2687.96701364
2687.93299437
2687.87093859
2687.78074853
2687.69600643
2687.42583318
2687.10950245
2687.21181219
2687.3463804
2687.33051251
2687.3140469
2687.29790349
2687.48610845
2687.76726984
2687.66056004
2687.56012386
2687.62614055
2687.70135066
2687.75450762
2687.78462513
2688.00879551
2687.97817493
2687.92742456
2687.85522836
2687.78527155
2687.72186014
2687.67046975
2687.628603
2687.59404289
2687.56774054
2687.55199602
2687.548075
2687.55577678
2687.57508235
2687.60580089
2687.64949413
2687.70166161
2687.75924239
2687.80090035
2687.82807039
2688.04297639
2688.00693989
2687.95941074
2687.89557165
2687.83508767
2687.78102433
2687.73810249
2687.70478531
2687.67830648
2687.65711489
2687.64190566
2687.63369722
2687.63331911
2687.64257891
2687.66383605
2687.69768928
2687.74110766
2687.7912111
2687.82957755
2687.86185701
2198.46369086
2198.42609775
2198.3807661
2198.31310534
2198.24811399
2198.18977237
2198.14369024
2198.11013712
2198.0859864
2198.06664286
2198.05009731
2198.03766728
2198.03309649
2198.04086652
2198.06443542
2198.10263251
2198.15079373
2198.20499641
2198.24342743
2198.27838054
2198.42939847
2198.35566335
2198.28943894
2198.18804527
2198.08558592
2197.98745643
2197.81764012
2197.79092435
2197.83045564
2197.79832681
2197.77946036
2197.7763858
2197.86331163
2197.90554927
2197.86001144
2197.93889884
2198.02445114
2198.1111856
2198.1701841
2198.23875267
2198.39021001
2198.29536781
2198.2190751
2198.0975217
2197.60751102
2197.13994303
2197.28397018
2197.61057279
2197.85147429
2197.82785926
2197.80515725
2197.78687238
2198.07114898
2198.49947333
2198.68919143
2198.25501952
2197.92754076
2198.03786854
2198.10848211
2198.19827234
2198.33397023
2198.20592107
2198.1094169
2197.29392123
2196.27293584
2195.89116636
2196.28182525
2196.95458563
2197.37207597
2197.36978923
2197.34319322
2197.29643068
2197.71819884
2198.68266886
2199.59442212
2199.50383665
2198.54298143
2197.91872746
2198.01469357
2198.13775318
2198.28355001
2198.11805918
2197.63868467
2195.63812518
2195.02381608
2195.2205644
2195.66138502
2196.38409916
2196.85723183
2196.86896876
2196.82412165
2196.73695024
2197.20490047
2198.38619385
2199.62997573
2200.54298502
2200.11234394
2198.23107055
2197.91955556