/*--------------------------------*- C++ -*----------------------------------*\
| =========                 |                                                 |
| \\      /  F ield         | OpenFOAM: The Open Source CFD Toolbox           |
|  \\    /   O peration     | Version:  3.0.1                                 |
|   \\  /    A nd           | Web:      www.OpenFOAM.org                      |
|    \\/     M anipulation  |                                                 |
\*---------------------------------------------------------------------------*/
FoamFile
{
    version     2.0;
    format      ascii;
    class       volVectorField;
    location    "7.3";
    object      ddt0(rho,U);
}
// * * * * * * * * * * * * * * * * * * * * * * * * * * * * * * * * * * * * * //

dimensions      [1 -2 -2 0 0 0 0];

internalField   nonuniform List<vector> 
7968
(
(0.0607294013079 0.0430014209417 -0.0475891838397)
(0.236760305332 0.0496741138369 -0.0848546411872)
(0.403674063587 0.0489357781705 -0.0884165630618)
(0.514928809144 0.0366821139705 -0.0531048753196)
(0.58922196126 0.0226722043531 -0.00105839152784)
(0.559822112528 0.0130328890228 0.0543514198437)
(0.52978624061 -0.00682304576547 0.0801221077943)
(0.478322057364 -0.0187633051529 0.10759449275)
(0.394724931759 -0.0193716712376 0.126005927069)
(0.297464164749 -0.0167078346635 0.133191279462)
(0.194339497251 -0.0134755866899 0.134785860777)
(0.0834123541381 -0.0100878933657 0.130760606617)
(-0.0304467087849 -0.00492518391578 0.116813417956)
(-0.127512395368 0.00906660148045 0.0938926827214)
(-0.206700322611 0.021793749702 0.0659354208749)
(-0.294970744306 0.044373667597 0.0229086419748)
(-0.294642719868 0.0512504109427 -0.0319473881682)
(-0.251985296392 0.0627823118368 -0.0665556546025)
(-0.15299207775 0.0612750420397 -0.0644103192335)
(-0.033939895925 0.0492099842657 -0.0289605188142)
(0.0698681718948 0.181095450732 -0.0819512499896)
(0.3007931058 0.24100017775 -0.210379473812)
(0.455801970468 0.258475154634 -0.207658610997)
(0.54116631602 0.234637412263 -0.14726740274)
(0.568602856304 0.179543605006 -0.0609412478749)
(0.525107564925 0.103858180026 0.0270955116909)
(0.483332637759 0.00469223551983 0.0929815018899)
(0.431075028075 -0.0711615497055 0.15251991298)
(0.363528739371 -0.11407396269 0.19663779698)
(0.291794951221 -0.130063585721 0.218696564827)
(0.216233262245 -0.125283255192 0.222214161971)
(0.12994706073 -0.100528376196 0.207065814437)
(0.032289046333 -0.052867152068 0.170829573203)
(-0.0644164493503 0.0251276631595 0.117627084081)
(-0.156252257724 0.125173403597 0.0553260319618)
(-0.26273283511 0.210559365459 -0.0248684524431)
(-0.307779975821 0.265753554536 -0.110744167268)
(-0.297128899203 0.288756345892 -0.172348728443)
(-0.214752465183 0.267594226458 -0.181802858975)
(-0.0429146425304 0.200362262035 -0.0653630073398)
(0.0701482921566 0.305204581827 -0.0851765874419)
(0.320605828867 0.351395657934 -0.206170378707)
(0.441572635582 0.334116691885 -0.160058924815)
(0.489172098054 0.252461545037 -0.0687531838231)
(0.47730296409 0.126893407441 0.0296552875146)
(0.42014887595 -0.031689619531 0.11341030466)
(0.377158090609 -0.206425025976 0.171947188265)
(0.342672858839 -0.34693819515 0.218771907487)
(0.308223747106 -0.435567162135 0.256202612303)
(0.276428458499 -0.475822578559 0.276210465128)
(0.242168140565 -0.467850978486 0.27942287023)
(0.193154375967 -0.409765852273 0.264693190339)
(0.125600782863 -0.317982889171 0.236136985488)
(0.0474136830824 -0.175932979387 0.19518536525)
(-0.0460313367247 0.0022243116336 0.143968736494)
(-0.166732264953 0.169552701245 0.0687375123421)
(-0.251744229064 0.294383078425 -0.0262001685887)
(-0.280102147122 0.373964896252 -0.118887318987)
(-0.233134628387 0.387439068687 -0.173652691466)
(-0.0433714627379 0.33485474682 -0.067857230465)
(0.0585327854141 0.375390730739 -0.0519273971761)
(0.29756235213 0.392729233953 -0.146827040446)
(0.361357171444 0.337490608594 -0.0704996804916)
(0.346870626 0.193217952336 0.0171102598287)
(0.285475261911 -0.0114095615996 0.0980310644855)
(0.213772375728 -0.252759038783 0.146137267613)
(0.180301966747 -0.496904262957 0.168903414965)
(0.184236898843 -0.688410327988 0.167642037873)
(0.209909206715 -0.807123515808 0.175871750934)
(0.246734855537 -0.859012310168 0.184076344113)
(0.287676320248 -0.850542294465 0.185746144368)
(0.299052852173 -0.782340178149 0.173390254523)
(0.283205205065 -0.652530384599 0.182374633594)
(0.247646879614 -0.456643195953 0.181249155246)
(0.164235882155 -0.210817210657 0.177724669801)
(0.0282525963051 0.0377108251449 0.140509051005)
(-0.107769536447 0.241432433518 0.0634183653587)
(-0.198807010197 0.383046200112 -0.0254882985241)
(-0.209385643604 0.435237949336 -0.111951074588)
(-0.0312901225098 0.411867192625 -0.0334894334153)
(0.0473901022316 0.410282010385 -6.73993408812e-05)
(0.242129545145 0.380779862851 -0.0635421238193)
(0.235765241257 0.286009430761 0.0239903602603)
(0.142012419817 0.0911113407812 0.093172037579)
(0.0313188716553 -0.164183247244 0.128868172414)
(-0.0574938875914 -0.459264572224 0.120163442948)
(-0.062935355687 -0.746228470555 0.0923638059592)
(-0.00592113533662 -0.969166728749 0.0695049658541)
(0.0946162374195 -1.10829313198 0.0595512496231)
(0.212352941663 -1.166840934 0.0557857293574)
(0.32839578527 -1.15735564538 0.0597470781484)
(0.425119125231 -1.08537310399 0.0707130105939)
(0.486717152737 -0.927199529204 0.0910157678887)
(0.49521171216 -0.697210955872 0.119937339479)
(0.436067492078 -0.411376955471 0.15705676349)
(0.282432082342 -0.110767982124 0.175246255328)
(0.0959891909639 0.141727258373 0.144162115754)
(-0.0741343812819 0.333137364138 0.0721223022874)
(-0.154807604272 0.425285934972 -0.0253334391092)
(-0.0204410631787 0.448803653475 0.0204883576264)
(0.0328502351107 0.351190588833 0.0491037760972)
(0.161611857672 0.305900405968 0.0201517973058)
(0.0719113283281 0.197025613756 0.102419970464)
(-0.104996606293 -0.0139289324794 0.134625243876)
(-0.267273778779 -0.287212672747 0.113199437542)
(-0.365514988388 -0.592457258388 0.0401150391343)
(-0.336547195448 -0.870755047871 -0.0457547298437)
(-0.213441457893 -1.0807402064 -0.106314638242)
(-0.0290347351669 -1.20639647373 -0.136970617853)
(0.17606091421 -1.25614849975 -0.146446625042)
(0.37667347139 -1.24438949132 -0.140265045798)
(0.559637133401 -1.1752828371 -0.118515020364)
(0.702675521873 -1.03297370075 -0.0781300212333)
(0.770961064166 -0.815557094724 -0.0119898856552)
(0.741976612291 -0.539410815887 0.0780029733892)
(0.580217990651 -0.232409108183 0.16279539509)
(0.339215347021 0.0359862094446 0.186084904523)
(0.087784804058 0.241516196437 0.151947995244)
(-0.075143741287 0.346667112859 0.0597397184908)
(-0.00479675347133 0.386379630378 0.0698730304659)
(0.0162643373225 0.298611239025 0.0746363453713)
(0.0613853105913 0.241357673491 0.0834605021371)
(-0.106448044418 0.130476506067 0.157056778087)
(-0.353512592256 -0.072220943274 0.148393536916)
(-0.556147526798 -0.320942053321 0.0791212841824)
(-0.644902025698 -0.59510874107 -0.0498976915694)
(-0.575886854017 -0.837253467179 -0.172785702301)
(-0.388521160451 -1.02126197609 -0.25611523529)
(-0.127196568916 -1.12704747137 -0.29736789867)
(0.151179209484 -1.16692289641 -0.305705465776)
(0.417896947111 -1.15401093049 -0.297467903567)
(0.67168651926 -1.09164090964 -0.27484174753)
(0.888920879324 -0.970449961799 -0.221722036109)
(1.01380608946 -0.778108196295 -0.131341879823)
(1.01789420517 -0.53823718094 -0.00713148177661)
(0.863751895833 -0.264279801374 0.130999549741)
(0.580350535101 -0.0236135734728 0.194337166672)
(0.262001908322 0.170884105195 0.206049659816)
(0.022632271597 0.276582064337 0.122954817076)
(0.0106362168141 0.328654004244 0.0962443205818)
(0.00255443913898 0.22810683809 0.0992676259471)
(-0.0164927902225 0.170962651805 0.138725422605)
(-0.250762772701 0.0778952003336 0.200278345048)
(-0.55244018755 -0.0867222551018 0.144722216147)
(-0.786280959031 -0.286809294718 0.0491519713644)
(-0.861442449102 -0.499719695994 -0.117995497719)
(-0.762436117494 -0.682123263373 -0.265723191081)
(-0.518366347132 -0.81513706112 -0.368222365048)
(-0.203856644248 -0.905746421528 -0.387559750204)
(0.127475195204 -0.944261487745 -0.373417147297)
(0.457506772321 -0.929140894637 -0.374734321216)
(0.77080643124 -0.884704178852 -0.332080049482)
(1.0304142075 -0.767583407567 -0.32613874435)
(1.20547860986 -0.626790558589 -0.213517874717)
(1.2312768322 -0.445755528646 -0.0656135379145)
(1.08689476217 -0.234725618854 0.110894894073)
(0.768673491338 -0.0460885490212 0.204190384933)
(0.399225156713 0.110366513622 0.251172789088)
(0.0968566950048 0.197893566269 0.178688328495)
(0.0224683551787 0.250601291327 0.120376298726)
(-0.00122790631791 0.134931232389 0.115100906412)
(-0.062885275691 0.0948432935457 0.177972624828)
(-0.345701359253 0.0352431136941 0.233100304912)
(-0.682159058239 -0.0633673594024 0.145580552071)
(-0.937997116193 -0.196939482581 0.0296451639864)
(-0.998891136078 -0.330198077011 -0.159260395989)
(-0.876519003425 -0.43840521591 -0.31912162404)
(-0.611490515536 -0.520841989009 -0.401387079215)
(-0.265569288266 -0.581821839596 -0.439906590036)
(0.107186860536 -0.600212197048 -0.479021274935)
(0.482626847679 -0.591343091438 -0.476286865259)
(0.832540593567 -0.560974160995 -0.431357256868)
(1.14170253273 -0.493169466388 -0.335908515515)
(1.32384318233 -0.398485270798 -0.255321797)
(1.36523747686 -0.291792611807 -0.0947627199496)
(1.22901843264 -0.162147358965 0.102692132028)
(0.888551498303 -0.0447053010992 0.215676173467)
(0.488672744309 0.0541147708716 0.285677251825)
(0.139902384765 0.110687976033 0.21832277721)
(0.0239881107588 0.147971706206 0.135667360314)
(-0.00188228056679 0.0378027593889 0.120116372203)
(-0.0821292861402 0.0236568238086 0.195338109748)
(-0.386664043418 0.00363919824201 0.246156105451)
(-0.744485673405 -0.0232450943036 0.130320765042)
(-1.01833380063 -0.0782208316465 0.0144277587727)
(-1.06477207396 -0.125533590126 -0.178256744736)
(-0.92828951464 -0.162010094801 -0.33810144206)
(-0.669126512313 -0.195246849511 -0.373423317696)
(-0.292024348182 -0.215281864068 -0.484343750473)
(0.0993096181031 -0.222076381121 -0.520641690992)
(0.489122450026 -0.219764227553 -0.514643004981)
(0.857160762038 -0.211417789809 -0.473414337095)
(1.17939648146 -0.184476909968 -0.374989113337)
(1.38011314162 -0.150117179561 -0.267632254303)
(1.42613279495 -0.115041553967 -0.106945960356)
(1.29781604895 -0.0703682306372 0.0980023249134)
(0.947266403622 -0.0286909155838 0.220356586927)
(0.531589808895 0.00600864256863 0.302377983173)
(0.158273389189 0.026271664976 0.236493210404)
(0.0235173023627 0.0396964623174 0.140881237708)
(-0.00205574358204 -0.0579359418994 0.119869683285)
(-0.0822039887644 -0.0444501558314 0.195065376864)
(-0.383596731996 -0.0263433861934 0.244670443546)
(-0.74649796532 0.000830724547662 0.121187625812)
(-1.02525498496 0.0456263948689 0.012469278335)
(-1.06787179193 0.0868604599237 -0.179362134529)
(-0.930742394309 0.118341576246 -0.339171038816)
(-0.671639350777 0.14711971693 -0.374068042084)
(-0.294068427945 0.163861149177 -0.485635249175)
(0.097822540357 0.167091263778 -0.5220548109)
(0.488352058158 0.162550536793 -0.516201530145)
(0.857444994541 0.153594853056 -0.475146611094)
(1.18085584581 0.127708691842 -0.376414369774)
(1.38201876269 0.0959456622048 -0.269574101849)
(1.42850484411 0.0652010049232 -0.108450435203)
(1.30038585212 0.0257789941643 0.0968497942622)
(0.949738381125 -0.00946014521305 0.219746022115)
(0.533660812065 -0.0390737283116 0.302189522379)
(0.159513733736 -0.0556101546247 0.236589824057)
(0.0239263120709 -0.0681362018843 0.140704866033)
(-0.00199231811262 -0.153386880582 0.114677253193)
(-0.0651281376891 -0.114177335045 0.177881029111)
(-0.349438332431 -0.0576525275775 0.232285658072)
(-0.688355387603 0.0330479300127 0.143048242815)
(-0.946002868054 0.165160286979 0.0271721213736)
(-1.00628141304 0.293955021095 -0.162096491184)
(-0.883416058026 0.397469872125 -0.322308379468)
(-0.618259653212 0.475931162584 -0.40384362403)
(-0.271524883115 0.53439956495 -0.442842196074)
(0.102740439171 0.549288735477 -0.483185545856)
(0.48035464828 0.538495708317 -0.48092106698)
(0.833293646613 0.507689885547 -0.436201548614)
(1.14606400419 0.441215471973 -0.339224601326)
(1.32933515046 0.348707955664 -0.260766589715)
(1.37217751718 0.245978154182 -0.0992647078751)
(1.23668465425 0.121106198453 0.0992556111732)
(0.895895752345 0.00931408997016 0.213655483515)
(0.494703177824 -0.0848049604701 0.285069219516)
(0.14357392092 -0.138211992995 0.218589719642)
(0.0251833828831 -0.174629695016 0.13535052521)
(0.00123246269451 -0.24410361674 0.098980645143)
(-0.0207143730417 -0.187328509148 0.138946700431)
(-0.257969300924 -0.0963148681019 0.200056995283)
(-0.562740619717 0.0642253335504 0.143173487971)
(-0.798307944678 0.260471032191 0.0461580030641)
(-0.873398472849 0.469188763305 -0.122318518093)
(-0.773807175137 0.647282203687 -0.270973834086)
(-0.528338346269 0.776404881911 -0.374647135015)
(-0.213483693365 0.865885417404 -0.390248356891)
(0.120748015791 0.901138331325 -0.379942479842)
(0.454302811717 0.884883832165 -0.382141237272)
(0.772496672328 0.840898122997 -0.338518281758)
(1.03572859689 0.72412858562 -0.335643572429)
(1.21434185272 0.58590468053 -0.221962920802)
(1.24231490931 0.408112788715 -0.0726587260571)
(1.09908377341 0.20085773253 0.105617831178)
(0.780501620383 0.0164949993923 0.201213937847)
(0.408621456507 -0.136244764117 0.250242759461)
(0.102785982929 -0.221820939833 0.178960547755)
(0.0243382097686 -0.274310520392 0.120098238433)
(0.0144883023861 -0.311573707081 0.0744477916135)
(0.0557210708629 -0.254057965951 0.0840920886786)
(-0.11636551766 -0.144402340684 0.157207668251)
(-0.367410964698 0.0557074677942 0.147354521747)
(-0.572174122635 0.30127374634 0.0761242478234)
(-0.661090731487 0.572046553467 -0.0547114827565)
(-0.591051212915 0.810800136999 -0.178987573613)
(-0.401709741416 0.992611889675 -0.263843540141)
(-0.137631264799 1.09664949613 -0.306613249031)
(0.143778705837 1.13542366551 -0.315845662187)
(0.414376488555 1.12209160976 -0.308705080519)
(0.673349453104 1.06001786508 -0.286430039023)
(0.896005254789 0.940142448581 -0.232876640553)
(1.02531074181 0.749586525219 -0.141369252378)
(1.03216728549 0.511704290757 -0.015468394524)
(0.879521702092 0.240051764771 0.124891345437)
(0.595665674162 0.00191632262456 0.190765763089)
(0.274170822124 -0.190616211479 0.205097862565)
(0.0301227491034 -0.295648177708 0.123369471915)
(0.01305225095 -0.348354881725 0.0958892294445)
(0.030847789025 -0.360893556566 0.0485548034338)
(0.154882039756 -0.314823094527 0.0213344502417)
(0.0600102430659 -0.206095303608 0.103225898284)
(-0.121702232399 0.00345438021729 0.133744788742)
(-0.286644386982 0.274641921269 0.110901959031)
(-0.384999403346 0.576632186471 0.0357738451866)
(-0.353942548382 0.851582472281 -0.0518414087063)
(-0.227681291479 1.06183064283 -0.113776183421)
(-0.0403431773895 1.18816624517 -0.14568543553)
(0.168024625484 1.23760517422 -0.156376821363)
(0.3730702211 1.22557381816 -0.150922640333)
(0.561998120248 1.15584854665 -0.129017426618)
(0.711122587447 1.0153361572 -0.0885692460266)
(0.783906400044 0.799357521669 -0.0215536464251)
(0.757930481348 0.524240871829 0.0702394724287)
(0.598192462392 0.218528883994 0.157399888793)
(0.356615675139 -0.0490509782623 0.182873895544)
(0.1014753307 -0.25432769085 0.151394517933)
(-0.0667380582576 -0.360290321515 0.0602711548416)
(-0.00216030232705 -0.401511634643 0.0688420214037)
(0.0464491328932 -0.416799594145 0.000623753233287)
(0.235958835487 -0.386215482759 -0.0612926318974)
(0.223610128518 -0.290643330237 0.0259710926511)
(0.124024424344 -0.0955807027236 0.0936223582625)
(0.00934402210024 0.158900480044 0.127485614323)
(-0.081033296131 0.451424897632 0.117507012617)
(-0.0818946092386 0.732840694276 0.0858806183531)
(-0.0193139720199 0.960236008839 0.062202008397)
(0.0832961847193 1.10268122643 0.0498286160995)
(0.203795455631 1.16064138361 0.0452575458694)
(0.324223762411 1.15007224055 0.0494471443919)
(0.428892009209 1.07159470292 0.0627454587005)
(0.498058935943 0.920973379654 0.0822186065932)
(0.509937963912 0.692885872025 0.111679560887)
(0.453378438951 0.407586816529 0.151091005475)
(0.301090839282 0.106724121985 0.171021270628)
(0.113469307039 -0.146677731072 0.142604833174)
(-0.0609836548893 -0.33953115476 0.0728280480943)
(-0.147466264059 -0.433605675068 -0.0235635269889)
(-0.0193421548427 -0.459286853681 0.0207085442272)
(0.0571850391081 -0.380624853613 -0.0513352210265)
(0.292015844842 -0.395933950591 -0.144455578921)
(0.349632716248 -0.339078308487 -0.067510245028)
(0.328788334984 -0.193335541134 0.0189237611624)
(0.262034490377 0.0124732610269 0.0985112348751)
(0.185587825742 0.254526941613 0.143150508884)
(0.161624548626 0.49885880933 0.146887046358)
(0.177513005771 0.690700529636 0.161134613786)
(0.201227968689 0.809946433421 0.166497442994)
(0.236961116875 0.863264037835 0.177914888658)
(0.276771023126 0.855417733702 0.18213070069)
(0.302896961372 0.787352628084 0.182945410883)
(0.301276838477 0.657261301843 0.17897426397)
(0.262980404222 0.461048777189 0.175986418052)
(0.180940654135 0.214844399162 0.173739454667)
(0.0457930871666 -0.035021194658 0.138939045228)
(-0.0916286109768 -0.240803598832 0.0635569812195)
(-0.187080592603 -0.38502081538 -0.0236135257534)
(-0.203372543029 -0.439968957189 -0.110136608523)
(-0.0299921029206 -0.419923916893 -0.0340693779579)
(0.0690533493272 -0.308736818459 -0.0845887963861)
(0.3158888428 -0.353440716646 -0.203394386601)
(0.431011310824 -0.334388947919 -0.156373315236)
(0.472748907315 -0.250611417235 -0.0656381105026)
(0.456574122906 -0.122460985928 0.0318099188321)
(0.397343795801 0.0397802863209 0.1141985626)
(0.358953028241 0.219863688045 0.169708745116)
(0.330731480591 0.356164455308 0.216617290342)
(0.298970536739 0.442214093382 0.25294438952)
(0.269689662182 0.483884421463 0.273449414635)
(0.238691659578 0.478133274534 0.277171656938)
(0.196707555276 0.427627857161 0.264188802008)
(0.13610883699 0.328648925087 0.234020842072)
(0.0605976591038 0.184683939613 0.19311648434)
(-0.0309022393737 0.00541287893231 0.143037194262)
(-0.151110404526 -0.164018337115 0.0691486746248)
(-0.237821866989 -0.291370360578 -0.0244708891547)
(-0.270329050462 -0.373740192943 -0.116105633174)
(-0.228665030814 -0.389778747449 -0.171726709154)
(-0.0426444508667 -0.339564830209 -0.0689623153567)
(0.06862126155 -0.183691631242 -0.0814023685495)
(0.29632401452 -0.243256281403 -0.208126600617)
(0.446182434366 -0.25943646917 -0.204584796639)
(0.526667052283 -0.23369367301 -0.144576959224)
(0.550853576806 -0.176398447428 -0.0583681671443)
(0.505875470153 -0.0981627962709 0.0293183006418)
(0.466021157967 0.00329522165206 0.0939633038774)
(0.417564888442 0.0781473763639 0.152096418068)
(0.353911649388 0.120219437273 0.195450134579)
(0.286042559287 0.136378504418 0.217503068169)
(0.21469563283 0.132544285287 0.221167564254)
(0.133541561105 0.109439467898 0.206446620798)
(0.0406635639305 0.0606811747976 0.170436815976)
(-0.0531150357109 -0.0182441043705 0.117850429258)
(-0.143398199563 -0.118999564081 0.0562609355769)
(-0.249684519599 -0.20618635999 -0.0234031082134)
(-0.296237556676 -0.26341092627 -0.108832990769)
(-0.288969847227 -0.288593689374 -0.170130154512)
(-0.210981867446 -0.26894624002 -0.180504345815)
(-0.0420561682038 -0.202530171457 -0.0661138676226)
(0.0583264399959 -0.0441689088522 -0.0466479126574)
(0.231009188418 -0.0512314452272 -0.084156293164)
(0.39377180532 -0.0501303697212 -0.0874697447951)
(0.500898120537 -0.0370614709198 -0.0520215659679)
(0.57227296225 -0.0222192407945 -0.000212212964291)
(0.542063388601 -0.0114751955441 0.0546841840037)
(0.513267438476 0.00900579838202 0.0798517346423)
(0.464884140415 0.0211614179672 0.106574087974)
(0.3851392784 0.0217559282336 0.124527048577)
(0.291919493621 0.0191253167654 0.131506995712)
(0.193131107349 0.0161309302113 0.133054863072)
(0.0867944195635 0.0130695259663 0.129251348169)
(-0.0229660480134 0.00772351339599 0.115769477226)
(-0.117262144946 -0.00661899507896 0.0934594329112)
(-0.195149725734 -0.0194731447221 0.0657369397317)
(-0.282938691465 -0.0433278597537 0.0235538497836)
(-0.284231746558 -0.050773646845 -0.0313439053922)
(-0.243919140445 -0.0630675096277 -0.0659066814637)
(-0.148111741696 -0.0617159853718 -0.0635261088407)
(-0.0318605916908 -0.0493272396631 -0.0276314859006)
(0.119739240375 0.10294738469 -0.457298795983)
(0.375447236889 0.18787891846 -0.539634216245)
(0.494397723275 0.226239411489 -0.489495485333)
(0.530703998678 0.2301503829 -0.382956231313)
(0.509648960633 0.217254524803 -0.233621937582)
(0.448502817666 0.167022378441 -0.0955619560746)
(0.400469591126 0.113503967396 0.0149699916849)
(0.35730713089 0.0578630269284 0.114945140518)
(0.312952229683 0.0191829019375 0.18266980323)
(0.27287634774 0.0013518189125 0.212707959917)
(0.23219944488 0.00268285894821 0.218704361883)
(0.177859291479 0.0222362511895 0.201081682465)
(0.103178549607 0.0623975423288 0.148799622617)
(0.0141836298771 0.118472420015 0.0626418163604)
(-0.086629709024 0.170289122545 -0.0414975242065)
(-0.204425050399 0.229280887513 -0.16614361278)
(-0.299309376841 0.241974176093 -0.312961598318)
(-0.33393926283 0.238657545751 -0.419482466261)
(-0.286640104349 0.198648709855 -0.472186441213)
(-0.0940331418098 0.107525651374 -0.396689638012)
(0.213981733151 0.318351142146 -0.536995228085)
(0.447590007453 0.374183343796 -0.477381754318)
(0.495542732031 0.392898231111 -0.320665822876)
(0.474190553592 0.355904224032 -0.158181896665)
(0.422580676102 0.285522048815 0.00400424164626)
(0.360329562269 0.189077145815 0.14609179513)
(0.311667520702 0.0781428008841 0.257648726519)
(0.281219325327 -0.0235553229992 0.346980243683)
(0.266232491379 -0.0914159159392 0.411267206114)
(0.259657807651 -0.121085536347 0.445546456367)
(0.250629188959 -0.116167169786 0.453162467372)
(0.228157228186 -0.079138592077 0.432817843395)
(0.183187229795 -0.00646140150388 0.383733304608)
(0.110433643455 0.0952346622577 0.308505557097)
(0.0110760013674 0.208639307707 0.208646783128)
(-0.108759968427 0.310225238906 0.0788990625765)
(-0.224396231 0.383348622632 -0.0761621910275)
(-0.313199473419 0.421323224834 -0.236454647792)
(-0.335155613699 0.400864414153 -0.3964027277)
(-0.174821988455 0.335701669669 -0.470777116165)
(0.256545937186 0.389928179033 -0.488799020421)
(0.472523143 0.376766938871 -0.323056451251)
(0.488110761332 0.363592071817 -0.100114386265)
(0.427331658815 0.293269168691 0.0990782993685)
(0.341908272882 0.169957768723 0.260206795612)
(0.26672968429 0.0139801331384 0.381212294331)
(0.219885291941 -0.144377555313 0.459847478055)
(0.20662872466 -0.291081836042 0.52209848585)
(0.220515244981 -0.381829557087 0.568103617139)
(0.245781944454 -0.420487119126 0.595521910964)
(0.268086815915 -0.412680546834 0.605405429124)
(0.275540189915 -0.363471859245 0.593557479826)
(0.256596865308 -0.260428583884 0.565394878189)
(0.202441070128 -0.120850645749 0.519850098953)
(0.107410351355 0.0503701888544 0.452177133928)
(-0.0257358688123 0.210532805768 0.342942671499)
(-0.1718659297 0.334601423918 0.19032980706)
(-0.297276021015 0.404926986388 -0.00581034585647)
(-0.34988674865 0.416225066318 -0.233241860786)
(-0.210228848642 0.423839273125 -0.415617106659)
(0.262104540811 0.381467940506 -0.388272251589)
(0.437936055628 0.313215777665 -0.166119318793)
(0.419903071818 0.263031164877 0.09288382603)
(0.306798879595 0.141507986379 0.276197133352)
(0.180172982017 -0.0442129497742 0.384415185242)
(0.086328712844 -0.267598481808 0.432523732644)
(0.0416774778092 -0.485169494078 0.427004992736)
(0.0593520025554 -0.66406833533 0.433663374821)
(0.136182427548 -0.77886324756 0.440296041058)
(0.220797134795 -0.827615489568 0.450053680832)
(0.293242971855 -0.81658026213 0.459378121953)
(0.361392230683 -0.747866352502 0.464390143755)
(0.397456236171 -0.619527263336 0.484663619935)
(0.380079835151 -0.435963907375 0.507894628889)
(0.297210625219 -0.21718930128 0.51394804314)
(0.137028574877 0.00598862271708 0.473489872951)
(-0.05004714953 0.190094232355 0.374279677771)
(-0.225598617791 0.310960695463 0.194412963682)
(-0.310216467149 0.361076882733 -0.0697204058173)
(-0.211957821614 0.425465496317 -0.306280118527)
(0.250986971783 0.318137299748 -0.246269787666)
(0.366420311338 0.224706881704 -0.0134091234536)
(0.296537180854 0.143314870093 0.245569327294)
(0.120442071601 -0.0188806968001 0.376255712233)
(-0.0555368113559 -0.253197158548 0.39601253962)
(-0.156160034568 -0.507784395941 0.332441738913)
(-0.162306276332 -0.751212376186 0.229561475753)
(-0.0840065006611 -0.930747808229 0.149081985114)
(0.0485148741069 -1.04638222325 0.108007918629)
(0.19543900449 -1.09624823882 0.0975217468683)
(0.335732756422 -1.08218206222 0.109000511433)
(0.4597961824 -1.00344064909 0.141442806268)
(0.549906109653 -0.873039988831 0.203369101711)
(0.580377410726 -0.676995671916 0.298443584318)
(0.524495330107 -0.445923856529 0.412199918982)
(0.367124011686 -0.19702317158 0.488881378072)
(0.134103460734 0.0318995816388 0.478399034066)
(-0.10207508989 0.193718411574 0.352018477498)
(-0.239996835535 0.275725224342 0.0909348719748)
(-0.198468133966 0.366047779362 -0.155469535419)
(0.196790079861 0.226549815308 -0.119671599389)
(0.267851500245 0.132983173008 0.118867487791)
(0.137638065184 0.0389551963749 0.35796388135)
(-0.105495022314 -0.145063434513 0.416189770256)
(-0.312051511208 -0.384328976775 0.324771439783)
(-0.406408460251 -0.633015839668 0.139357585974)
(-0.373350951965 -0.861390021068 -0.0650413091231)
(-0.2343520576 -1.03285676474 -0.215761085575)
(-0.0371269857329 -1.13821644253 -0.293206892851)
(0.173597903723 -1.18026073203 -0.315713398203)
(0.376148609189 -1.1654054325 -0.302267772327)
(0.560782989252 -1.09560553296 -0.252447548231)
(0.710101440128 -0.969901429238 -0.153429107663)
(0.790879897228 -0.786717184397 0.00781921924983)
(0.766083367556 -0.563319542717 0.220144636378)
(0.615034159426 -0.32408270822 0.41926758404)
(0.354840563322 -0.0992875940798 0.525852784518)
(0.0547147182028 0.0875208256206 0.46758031948)
(-0.142271777787 0.181827454801 0.2273259344)
(-0.1439491289 0.274033932818 -0.0240544592147)
(0.144551224755 0.155083443823 -0.0159492556777)
(0.155675697261 0.0616342225081 0.222664432967)
(-0.0281486823501 -0.0301896273654 0.430203528775)
(-0.328877615988 -0.211053421025 0.40515186643)
(-0.557207732451 -0.418005238452 0.212790498778)
(-0.637031817546 -0.632240566471 -0.0740029937601)
(-0.563216812201 -0.824292762297 -0.355721096537)
(-0.367730347951 -0.967493473243 -0.550864762051)
(-0.111008137868 -1.05419764848 -0.646279066257)
(0.157172895558 -1.08636390185 -0.673919867609)
(0.4145969437 -1.07085393975 -0.657932530451)
(0.654831432815 -1.01181915403 -0.598334631778)
(0.859177774676 -0.903217149751 -0.473203986886)
(0.984928353395 -0.745926585777 -0.263054607236)
(0.988023501199 -0.554667083067 0.0203052167878)
(0.842222211912 -0.350072342084 0.315435931817)
(0.568317851386 -0.155947917776 0.528227767947)
(0.219882663931 0.015930018017 0.541648424646)
(-0.0324388556936 0.105105096025 0.331656107037)
(-0.0926030579899 0.196512866256 0.0814787388619)
(0.0884555461043 0.0941479008028 0.0756909283009)
(0.0520876464186 0.0148281869988 0.303822162281)
(-0.17875718847 -0.0599431689811 0.484209910282)
(-0.517815177149 -0.209616889411 0.396667250785)
(-0.750620191637 -0.362868662177 0.118607134092)
(-0.818470779916 -0.522776409278 -0.241117539125)
(-0.710966421064 -0.664093838507 -0.57084276571)
(-0.470650555044 -0.770808692058 -0.789642452644)
(-0.168359010726 -0.83439941924 -0.893163958378)
(0.146491499861 -0.850088080551 -0.936367204014)
(0.446218701939 -0.835403519 -0.91476156873)
(0.729144627851 -0.788355387381 -0.847907487738)
(0.980291084916 -0.711696720752 -0.696447238516)
(1.14175364468 -0.592437412749 -0.451551505794)
(1.16635183961 -0.448103378407 -0.119804757323)
(1.02904079336 -0.295343937198 0.239107622859)
(0.74138045631 -0.147996738212 0.519749455237)
(0.35086588323 -0.0195611636157 0.595436739178)
(0.0636858195325 0.0496842171675 0.412124081683)
(-0.0389022204722 0.125921568179 0.171102761102)
(0.0481501906036 0.0420134488616 0.135156068555)
(-0.0207906077537 -0.00843550644514 0.359219043504)
(-0.279585692954 -0.0573948396489 0.520408017256)
(-0.647018978546 -0.154316885096 0.388524929429)
(-0.882792079886 -0.245947432664 0.0597059816355)
(-0.939301526436 -0.342741462105 -0.342326238728)
(-0.809785784929 -0.427378314053 -0.693393662282)
(-0.539789322795 -0.496277018923 -0.92773110987)
(-0.201945120752 -0.532206196146 -1.05169894769)
(0.14352559348 -0.538613293048 -1.08183885611)
(0.472024843613 -0.527008971386 -1.05393545816)
(0.782121629376 -0.497702124284 -0.975908289373)
(1.05844141332 -0.449067450498 -0.820676141753)
(1.24722916449 -0.377219285358 -0.550100264852)
(1.28421203468 -0.289074381793 -0.191203377709)
(1.15163936501 -0.196994317789 0.201826441506)
(0.855559824311 -0.108666814533 0.521997765971)
(0.43785272638 -0.0296086002373 0.635793553698)
(0.128484961016 0.013913592587 0.467701225063)
(-0.00159645347282 0.0612008744224 0.228106838557)
(0.0281123938911 0.0041201585547 0.15789420775)
(-0.0582261435258 -0.0137237944741 0.384729275725)
(-0.336741984535 -0.0327152993795 0.536080965879)
(-0.712287798947 -0.0726096873136 0.377115984758)
(-0.944392547931 -0.0986195127989 0.0292613091364)
(-0.997856131633 -0.131078476009 -0.387832076424)
(-0.859058624147 -0.159972688372 -0.7449883043)
(-0.564959601055 -0.184870814732 -1.01211109245)
(-0.212298519536 -0.197949302283 -1.11971596324)
(0.144851892827 -0.200062878687 -1.14167140747)
(0.484754030235 -0.196444112663 -1.10985123034)
(0.807583245902 -0.186609925656 -1.02788174955)
(1.09927404467 -0.169365057026 -0.864467237214)
(1.2980102985 -0.145075664687 -0.586310314441)
(1.34179716484 -0.114781574039 -0.217444491994)
(1.21067681416 -0.0829990723165 0.188568753145)
(0.911654469133 -0.0528242721555 0.523775797804)
(0.483119742995 -0.0248838892242 0.657640737212)
(0.159885919806 -0.0086198115503 0.495001615765)