/*--------------------------------*- C++ -*----------------------------------*\
| =========                 |                                                 |
| \\      /  F ield         | OpenFOAM: The Open Source CFD Toolbox           |
|  \\    /   O peration     | Version:  3.0.1                                 |
|   \\  /    A nd           | Web:      www.OpenFOAM.org                      |
|    \\/     M anipulation  |                                                 |
\*---------------------------------------------------------------------------*/
FoamFile
{
    version     2.0;
    format      ascii;
    class       volVectorField;
    location    "4.6";
    object      ddt0(U);
}
// * * * * * * * * * * * * * * * * * * * * * * * * * * * * * * * * * * * * * //

dimensions      [0 1 -2 0 0 0 0];

internalField   nonuniform List<vector> 
15984
(
(0.000328630503032 -2.47361861807e-05 -9.99144342265e-05)
(0.000839849154895 -6.14243946973e-05 -1.98614727022e-05)
(0.00100981367827 -7.13265216872e-06 4.60892770589e-05)
(0.000768675528429 3.03982037403e-05 0.000124977351355)
(0.000246991459091 7.55129841753e-05 0.00015443188146)
(-0.000457380178897 8.09435515982e-05 0.000167412699495)
(-0.00115052614462 4.37404228655e-05 0.000165862856079)
(-0.00163935278098 -1.33686558141e-05 0.00014622846755)
(-0.00197179229308 -5.47098718726e-05 0.000121329611831)
(-0.00197345053578 -0.000139272040261 0.000104545713921)
(-0.00176702316005 -0.000145626558693 7.55656924782e-05)
(-0.00145302831541 -0.00013157969341 4.6026957474e-05)
(-0.00113150424138 -0.000100747949538 2.2078592057e-05)
(-0.000859842245984 -6.89047729752e-05 5.21224352888e-06)
(-0.000649686570353 -4.38483104538e-05 -5.43279447196e-06)
(-0.000489281931572 -2.65129862372e-05 -1.18697350512e-05)
(-0.000361821224724 -1.53771265769e-05 -1.60616793009e-05)
(-0.000252478492948 -8.31697680099e-06 -1.9494633823e-05)
(-0.000151273652715 -3.81525616504e-06 -2.21330255949e-05)
(-5.51480753902e-05 -6.34773283539e-07 -2.34696940501e-05)
(3.61952931128e-05 1.57503732175e-06 -2.34555652683e-05)
(0.000120231530529 2.68502880101e-06 -2.19281986499e-05)
(0.000191080729292 3.23002185988e-06 -1.80710375286e-05)
(0.000240278227919 3.57634271912e-06 -1.16213838876e-05)
(0.000261817500549 3.30626046136e-06 -4.61407145605e-06)
(0.000252084721244 2.90109467016e-06 3.76650746254e-06)
(0.000237116779533 5.44906536847e-07 4.49769343582e-07)
(0.000227079456921 -3.9601014936e-08 3.59549590761e-06)
(0.000219547568212 -1.30596339001e-06 3.93655996649e-07)
(0.000236658866131 -2.43350861221e-06 -5.85054976225e-06)
(0.000284261290235 -3.18165768028e-06 -1.27787395844e-05)
(0.000354800649978 -2.72251863601e-06 -1.6684766214e-05)
(0.000427527039503 -1.32098497152e-06 -1.60524727555e-05)
(0.00048450259624 5.80261303389e-07 -1.20448503933e-05)
(0.000514685870601 2.21487084465e-06 -5.07192399902e-06)
(0.000508416072871 3.45692511812e-06 4.12488218344e-06)
(0.000459906544918 4.30343346399e-06 1.47820348236e-05)
(0.000366975115388 4.87963038498e-06 2.53905250215e-05)
(0.000234066426713 4.40534462689e-06 3.41655548668e-05)
(7.97863456253e-05 2.31521875313e-06 3.87159305204e-05)
(0.000275454184315 0.0001907661718 -0.000303923653308)
(0.000877587337023 0.000279185325392 -0.000400049195953)
(0.00101611519497 0.000442199786262 -0.00032286051559)
(0.000767189117074 0.000462910853434 -0.000185948803798)
(0.000238417859306 0.000511170159819 -0.000124717417687)
(-0.000441430911523 0.00051902349512 -0.000109138961294)
(-0.00110962935576 0.000479559282477 -0.000136354952994)
(-0.00161216238601 0.000427312551707 -0.00019888164253)
(-0.00194883823581 0.000267578712165 -0.000228744956578)
(-0.00195174714414 3.84316797788e-05 -0.000210909174038)
(-0.00174233050852 -0.000111082211417 -0.000164733015319)
(-0.00142348352187 -0.000174806575069 -0.00010656604565)
(-0.00110212546466 -0.000168244847531 -6.33303848606e-05)
(-0.000836104501911 -0.000131209479199 -3.78894662017e-05)
(-0.00063264596548 -8.98792491942e-05 -2.61635352508e-05)
(-0.00047748044234 -5.62430192302e-05 -2.21833414122e-05)
(-0.000353433391565 -3.26539420248e-05 -2.15974093436e-05)
(-0.00024602069751 -1.70983608038e-05 -2.26190735281e-05)
(-0.000145847324783 -7.13101670276e-06 -2.36291143683e-05)
(-5.05739250527e-05 -4.53278603355e-07 -2.3936140816e-05)
(3.96109479033e-05 4.63387667169e-06 -2.26624553029e-05)
(0.000122659533882 7.00583705284e-06 -2.10469610227e-05)
(0.000193063860161 8.08394665621e-06 -1.68092435427e-05)
(0.000241540375276 8.38809602904e-06 -9.58109233704e-06)
(0.000262023100398 7.03896095072e-06 -2.59820164616e-06)
(0.000250672564754 5.01454602451e-06 4.38895825521e-06)
(0.000235579064388 2.53503939881e-06 1.58689212828e-06)
(0.000226277049841 -8.18069798119e-09 3.41702399549e-06)
(0.000218531115229 -2.92838666362e-06 -8.4692201196e-07)
(0.000236248878438 -5.40063189628e-06 -8.60041976031e-06)
(0.000285750587778 -6.7051362965e-06 -1.65583545223e-05)
(0.00035890909564 -5.63562104774e-06 -1.99421775967e-05)
(0.000433275502155 -3.06266044848e-06 -1.76622976601e-05)
(0.000490384953563 7.71119773317e-07 -1.13806264247e-05)
(0.00051983577346 3.96791650495e-06 -2.76688506377e-06)
(0.000512688394344 6.447711028e-06 7.24052047943e-06)
(0.00046356231249 8.16778881069e-06 1.84701441564e-05)
(0.000369695092605 9.17872599162e-06 2.96865602726e-05)
(0.000235070032315 8.21093565517e-06 3.85327161716e-05)
(7.8722792816e-05 4.06140487018e-06 4.04899810439e-05)
(0.000265205996533 0.000521207224658 -0.000322820468434)
(0.000917248616518 0.000714243284193 -0.00043737028149)
(0.00100252957828 0.000874125084389 -0.000306163990706)
(0.000716742976407 0.000843207107081 -0.000168641200769)
(0.00021602843446 0.000858433962858 -0.000115602675935)
(-0.00041682809378 0.00087467802723 -0.000101751990896)
(-0.00104223062979 0.00085607917669 -0.000115833245176)
(-0.00155330443551 0.000837087166563 -0.00016601250163)
(-0.00191204035178 0.000659553063394 -0.000221880570886)
(-0.0019514365908 0.000339384607492 -0.000248659167711)
(-0.00173872256655 6.40720675536e-05 -0.00022736346994)
(-0.00140212016889 -0.000107199924822 -0.000164713397832)
(-0.00106852366629 -0.00016280614069 -0.000103506615264)
(-0.000801521915733 -0.000150373787853 -6.16562149515e-05)
(-0.000603942819884 -0.000111905275176 -3.87298307622e-05)
(-0.000456732241129 -7.24242325248e-05 -2.86159453633e-05)
(-0.000339591136131 -4.18423540272e-05 -2.51278441294e-05)
(-0.000237092120409 -2.08588078872e-05 -2.46720809005e-05)
(-0.000140166136256 -7.48138419409e-06 -2.47875660504e-05)
(-4.66751894278e-05 9.04749247049e-07 -2.42908744887e-05)
(4.20111680124e-05 7.36430346736e-06 -2.3404501605e-05)
(0.000123629167936 1.10060837138e-05 -2.06863724251e-05)
(0.000193322407392 1.20249164574e-05 -1.63101644718e-05)
(0.000240895462085 1.17581524239e-05 -8.7088927141e-06)
(0.000260259602555 9.24673672003e-06 -1.8148234117e-06)
(0.000249115547581 5.44344491126e-06 4.32130726843e-06)
(0.000233823025517 4.77955607466e-06 2.22111259972e-06)
(0.000223781578514 2.10306520569e-07 3.23907676557e-06)
(0.000216207366921 -3.56160009015e-06 -1.54236903609e-06)
(0.000234432022358 -6.65689763118e-06 -9.85493778288e-06)
(0.000285317776883 -7.75103178874e-06 -1.83931680038e-05)
(0.000360029334504 -6.31223413326e-06 -2.15121204432e-05)
(0.000435487468042 -3.41247413431e-06 -1.83369076914e-05)
(0.000492742347514 1.05259221592e-06 -1.1422356165e-05)
(0.000521637414852 4.66297857532e-06 -1.97313441013e-06)
(0.000514055897887 7.48504246731e-06 8.50896048745e-06)
(0.000464685358784 9.63069731416e-06 2.00464003756e-05)
(0.00037033951809 1.07271660803e-05 3.16931204656e-05)
(0.000234655614006 9.67596766685e-06 4.04149655885e-05)
(7.78110791655e-05 5.26827630848e-06 4.03857980223e-05)
(0.000299035027525 0.000767443463879 -0.000275673679927)
(0.00098157406167 0.00100432227 -0.000323270525988)
(0.000974028636048 0.00113152165314 -0.000152459499226)
(0.000656463952078 0.00102357833209 -4.27698781428e-05)
(0.000195551084114 0.000995401602894 -1.74924939131e-05)
(-0.000378083465536 0.00101807135899 -1.02649228636e-06)
(-0.000960808394485 0.00103167557471 1.78398523301e-05)
(-0.00148565669946 0.00105887486162 -4.90872592117e-06)
(-0.00190453215265 0.000899971802682 -8.20501382849e-05)
(-0.00199640776859 0.000546475807127 -0.000171146005718)
(-0.00178263141265 0.000208813504252 -0.000211189351961)
(-0.0014167932102 -2.89703571659e-05 -0.000179665496345)
(-0.0010529942605 -0.000132715707871 -0.000125167635913)
(-0.000772220871874 -0.000145050968869 -7.82533157546e-05)
(-0.000573896747349 -0.000115325712409 -4.88525276152e-05)
(-0.00043236931692 -7.63591528467e-05 -3.37408022932e-05)
(-0.000322222966381 -4.36260899127e-05 -2.73973050914e-05)
(-0.000225519571895 -2.05593599319e-05 -2.54645322425e-05)
(-0.00013267356283 -5.97442200091e-06 -2.49432902758e-05)
(-4.15584707491e-05 3.19263346735e-06 -2.39232684458e-05)
(4.56741251018e-05 9.73834431996e-06 -2.25918196317e-05)
(0.000125648924048 1.38435943481e-05 -2.02100864223e-05)
(0.000194004773774 1.47385296393e-05 -1.54502627009e-05)
(0.000240535668885 1.38914327315e-05 -7.76627462686e-06)
(0.000258803749829 1.09011485626e-05 -1.1489321181e-06)
(0.000247994883793 7.62521098647e-06 2.85593538714e-06)
(0.000232446993939 3.77283797332e-06 4.36829767305e-06)
(0.000221585442329 -1.63847415813e-07 3.21228696353e-06)
(0.000214280844017 -4.19025290631e-06 -1.99057109352e-06)
(0.000233141333501 -7.32958483161e-06 -1.05427503065e-05)
(0.000285326587394 -8.11814050114e-06 -1.93896891639e-05)
(0.000361250940432 -6.43830900536e-06 -2.22626526138e-05)
(0.000437553116482 -3.36536014828e-06 -1.85802688939e-05)
(0.000494868387502 1.02204532519e-06 -1.12550503978e-05)
(0.00052321178601 4.86724146281e-06 -1.60224496961e-06)
(0.000515267519912 7.68999308204e-06 9.29224130586e-06)
(0.000465666520183 9.9807126096e-06 2.10207533982e-05)
(0.000370781644724 1.11575846429e-05 3.29068093838e-05)
(0.000234023824095 1.02013218204e-05 4.14838763769e-05)
(7.6940300337e-05 6.11333366779e-06 4.01982066659e-05)
(0.000362055062104 0.000913203747125 -0.000219688446279)
(0.00104609222005 0.00112433721005 -0.000180184030033)
(0.000943859712578 0.00120213119062 2.09261397291e-05)
(0.000609747748804 0.00103409274472 0.000101878622813)
(0.000193552562843 0.000972312762492 0.000137430129144)
(-0.000345941343585 0.00100307103548 0.000154111864483)
(-0.00088630786159 0.00103260636491 0.000158212831084)
(-0.00140559205788 0.00109484303222 0.000161097007249)
(-0.00189969487561 0.000980911705538 6.97310741292e-05)
(-0.00206105972709 0.000645776993686 -7.32520479036e-05)
(-0.00185700125821 0.00030284983807 -0.000174871336063)
(-0.00146087852419 3.94204462907e-05 -0.000181465185912)
(-0.00105767554014 -9.25929948746e-05 -0.000139078954439)
(-0.000753082810569 -0.000124298945615 -9.08248068805e-05)
(-0.000547711287406 -0.000105079263278 -5.66564147236e-05)
(-0.000408757460496 -7.08089137296e-05 -3.72945883359e-05)
(-0.00030455249797 -3.9756158485e-05 -2.83819874374e-05)
(-0.000213580586385 -1.7358141503e-05 -2.52334853893e-05)
(-0.00012487805862 -3.34306924922e-06 -2.43055016155e-05)
(-3.61994319333e-05 5.65087877345e-06 -2.31056994891e-05)
(4.93532128285e-05 1.17888698699e-05 -2.14841564203e-05)
(0.000127738226715 1.53135562458e-05 -1.90692705992e-05)
(0.000194767733165 1.60366688269e-05 -1.44740569426e-05)
(0.000240189913357 1.46718479684e-05 -6.80367851055e-06)
(0.000257999244954 1.16548167826e-05 -5.65029951884e-07)
(0.000246136160918 1.03931595422e-05 1.73699564043e-06)
(0.000230376821211 8.58689405497e-07 5.94995959096e-06)
(0.000220143171632 -7.65493493125e-07 3.11768259165e-06)
(0.000212658433158 -4.59173341289e-06 -2.33462713484e-06)
(0.000232219239715 -7.39958241253e-06 -1.11610131398e-05)
(0.000285598206217 -7.92772448346e-06 -2.01474551488e-05)
(0.000362505379151 -6.15519994898e-06 -2.27834813095e-05)
(0.000439397095349 -3.1834054308e-06 -1.87535961051e-05)
(0.000496821241748 7.62514619429e-07 -1.10587897555e-05)
(0.000524702294727 4.53069014447e-06 -1.52283934738e-06)
(0.000516345574803 7.21680024176e-06 9.76096368236e-06)
(0.000466532282835 9.3670927654e-06 2.16704053062e-05)
(0.000371143246812 1.04673459561e-05 3.37530900652e-05)
(0.000233450869121 9.73997554779e-06 4.22265265836e-05)
(7.62338826705e-05 6.31824853107e-06 4.0079981961e-05)
(0.000433316608058 0.000927765761205 -0.000175609173918)
(0.00108513649034 0.00107837742281 -5.02741829719e-05)
(0.000890251729978 0.00110329640588 0.000141363955611)
(0.000556757542695 0.000895453363559 0.000162227307077)
(0.000190354163992 0.000817842395296 0.00018976816861)
(-0.000298028269654 0.000856454178145 0.000206222234745)
(-0.000785483752483 0.000890574007785 0.000211256883251)
(-0.0012878644343 0.000974874250559 0.00027399060951)
(-0.00188031856886 0.000927340751447 0.00019619563795)
(-0.00212035850747 0.00064120014668 1.3420172797e-05)
(-0.00193988911687 0.000334381695782 -0.000136242395637)
(-0.00151944205376 8.2026015666e-05 -0.000177422124503)
(-0.00107546602877 -5.5928920981e-05 -0.000148162246297)
(-0.000742922106766 -9.77615672252e-05 -0.000100048850382)
(-0.000526802895894 -8.74190334993e-05 -6.1907272928e-05)
(-0.000388057907759 -5.95896001159e-05 -3.92440375059e-05)
(-0.000288461399369 -3.27241655725e-05 -2.82063229936e-05)
(-0.00020263590018 -1.29167393771e-05 -2.42090669717e-05)
(-0.000117736900263 -6.45257670798e-07 -2.30600307919e-05)
(-3.13015145155e-05 7.40120957207e-06 -2.2045427793e-05)
(5.26592621298e-05 1.261783102e-05 -2.02861438418e-05)
(0.000129545870654 1.55445885484e-05 -1.78738864892e-05)
(0.000195252619567 1.5840794578e-05 -1.33778330546e-05)
(0.00023971817009 1.40939366014e-05 -5.93595877737e-06)
(0.000257773778055 1.09946663766e-05 -7.15102432479e-08)
(0.000243485374886 8.46315485274e-06 1.23347933597e-07)
(0.000227614140173 1.70205414631e-06 7.89616975197e-06)
(0.00021947725835 -9.58784124887e-07 3.00832113349e-06)
(0.00021130580086 -4.65792655537e-06 -2.78363199959e-06)
(0.000231538840168 -6.92061819683e-06 -1.18462268565e-05)
(0.000285966863299 -7.29927848869e-06 -2.08330357662e-05)
(0.000363688212688 -5.59339631727e-06 -2.3245734167e-05)
(0.000441013251397 -2.90988647915e-06 -1.89567504275e-05)
(0.000498503243015 5.28003496533e-07 -1.10180966596e-05)
(0.000526033819661 3.80611384211e-06 -1.4833677321e-06)
(0.000517319602363 6.26205513064e-06 9.98024351188e-06)
(0.000467274293795 8.16672583946e-06 2.20649166973e-05)
(0.000371489424684 9.14848081633e-06 3.42828135491e-05)
(0.000233060363143 8.69784060804e-06 4.27158883287e-05)
(7.57174807591e-05 6.06269274444e-06 4.00693032764e-05)
(0.000474186846043 0.000842056990297 -0.000138533997032)
(0.00108121984787 0.000915586045479 4.81490722809e-05)
(0.000812529494322 0.000944789514828 0.000207581621171)
(0.000524763934227 0.000763123382997 0.000176845083513)
(0.000199885531884 0.00068977323943 0.00022597545468)
(-0.000248606390604 0.00073608808602 0.000239294162257)
(-0.000682769075456 0.000762664672587 0.000217902727385)
(-0.00115161196756 0.000813987864078 0.000329909553103)
(-0.00183785364956 0.000794650737041 0.000285587564705)
(-0.00216085479564 0.000558794720187 8.1607216546e-05)
(-0.00201440819452 0.000311092663371 -0.000101554119926)
(-0.00157860406601 9.70744447747e-05 -0.000171329248773)
(-0.00109911269422 -2.77146734355e-05 -0.000153688008709)
(-0.000739195699046 -7.07456426044e-05 -0.000106321353776)
(-0.000511251213858 -6.68200278385e-05 -6.51870603855e-05)
(-0.00037129269332 -4.57893100832e-05 -3.98261424347e-05)
(-0.000275059877787 -2.45060929692e-05 -2.72907857585e-05)
(-0.000193461274739 -8.59773955012e-06 -2.28121207701e-05)
(-0.000111737370653 1.54475290711e-06 -2.14367553061e-05)
(-2.72190877917e-05 7.92975970611e-06 -2.08915019767e-05)
(5.53286499561e-05 1.19673263317e-05 -1.91472441962e-05)
(0.000130937212614 1.42419927482e-05 -1.66761993294e-05)
(0.000195447510107 1.42193662815e-05 -1.23066040533e-05)
(0.000239006430268 1.23455634434e-05 -5.19219966717e-06)
(0.000256223841517 9.21055939761e-06 4.48990561288e-07)
(0.000242364286593 3.78834892982e-06 7.61642474286e-07)
(0.000226415294789 4.89013484419e-06 7.40580790641e-06)
(0.000217591203503 -8.08267147256e-07 2.7128262383e-06)
(0.000210080112149 -4.24215791229e-06 -3.2528668169e-06)
(0.000231063694083 -6.01346403511e-06 -1.25701079847e-05)
(0.000286334370576 -6.23432158975e-06 -2.14724403949e-05)
(0.000364728068403 -4.73087771698e-06 -2.36770328796e-05)
(0.000442370393652 -2.47547226879e-06 -1.91895409124e-05)
(0.000499893311415 3.40880661315e-07 -1.10759757601e-05)
(0.000527145526328 2.98403829161e-06 -1.48242151185e-06)
(0.000518158080637 5.02956946892e-06 1.0099632104e-05)
(0.000467913875245 6.65282259019e-06 2.22877033008e-05)
(0.000371822818115 7.49193501352e-06 3.4610231243e-05)
(0.000232855209673 7.25440941937e-06 4.30333941558e-05)
(7.53733578378e-05 5.37845036907e-06 4.01323677207e-05)
(0.000517462419847 0.000662533858607 -0.000113041880321)
(0.00106514692607 0.000677471137838 0.000115144644437)
(0.000749397602398 0.000737044769134 0.000260160257255)
(0.000530858729605 0.000596123738758 0.000199091215373)
(0.000234978672326 0.000513787703141 0.000296128893229)
(-0.000202096858986 0.000572642566563 0.000290738365019)
(-0.000596836954851 0.000609159554041 0.000246864527712)
(-0.0010387414483 0.000617945609774 0.00037266317324)
(-0.00179595499356 0.000614830513004 0.000355113765071)
(-0.00218444551817 0.000425156238049 0.00012941198547)
(-0.00207249852116 0.000246422721815 -7.37342412295e-05)
(-0.00162847553383 8.69569041369e-05 -0.000164961224232)
(-0.00112197557948 -1.0173787127e-05 -0.000156873258736)
(-0.000739303990007 -4.65090531024e-05 -0.000110239834477)
(-0.00050053378436 -4.61432999855e-05 -6.69154773817e-05)
(-0.000358794206203 -3.16306931592e-05 -3.94718675828e-05)
(-0.000264931184011 -1.63799008365e-05 -2.61051545545e-05)
(-0.000186363091989 -4.74721068043e-06 -2.15104100134e-05)
(-0.000107117185445 2.41486985149e-06 -1.97726769052e-05)
(-2.42356910695e-05 7.05444879358e-06 -1.97680667704e-05)
(5.73275578584e-05 9.87757311085e-06 -1.81291831287e-05)
(0.000131942567906 1.13366597023e-05 -1.55036340075e-05)
(0.000195428022671 1.13391141464e-05 -1.1389369794e-05)
(0.000238210067991 9.67957925149e-06 -4.59777644557e-06)
(0.0002543457474 7.0263099078e-06 9.13863297156e-07)
(0.000242055486624 2.18185412144e-06 2.11564079991e-06)
(0.00022594713977 4.52206929041e-06 6.064367322e-06)
(0.000215442339959 -6.47290708016e-07 2.35199262553e-06)
(0.000209061532907 -3.25999919702e-06 -3.71716893652e-06)
(0.000230714530975 -4.67885038201e-06 -1.31842441185e-05)
(0.000286684771918 -4.73413616165e-06 -2.20184048102e-05)
(0.000365572243705 -3.54627084418e-06 -2.40529069261e-05)
(0.000443435570389 -1.82933919247e-06 -1.94130013981e-05)
(0.000500959980397 2.70976120031e-07 -1.11767541862e-05)
(0.000528006426108 2.18103323242e-06 -1.49330183428e-06)
(0.000518839535302 3.73578890735e-06 1.01849520215e-05)
(0.000468442112326 5.00546412796e-06 2.24022408674e-05)
(0.000372118920532 5.66951469628e-06 3.47993155569e-05)
(0.000232778728229 5.56632759043e-06 4.32477691353e-05)
(7.51656125726e-05 4.3430191179e-06 4.02252890578e-05)
(0.000557254144353 0.000408127117905 -0.000101314885534)
(0.00105113053023 0.000401561076843 0.000143968927871)
(0.0006900811824 0.000470842953345 0.000310178715322)
(0.000569257401437 0.00036762357108 0.00021226140388)
(0.000309969678738 0.000334830237566 0.000209663684571)
(-0.000168178925692 0.000378167717593 0.000220928310473)
(-0.000524904077771 0.000388900827939 0.000295574866163)
(-0.00096442610201 0.000377421436456 0.00039744075528)
(-0.00176283994574 0.000394626073227 0.000419005294456)
(-0.00219414392899 0.000259662827244 0.000158616435966)
(-0.00211083861768 0.000153943082519 -5.44392554286e-05)
(-0.00166347136199 5.75245530703e-05 -0.000159800016317)
(-0.00113928427357 -2.93667396085e-06 -0.000158216023184)
(-0.000740617789462 -2.62753686224e-05 -0.000112289626121)
(-0.000493864157921 -2.67922989692e-05 -6.76244985648e-05)
(-0.000350534508825 -1.82441893472e-05 -3.8860766968e-05)
(-0.000258050086082 -9.03071371027e-06 -2.49243584657e-05)
(-0.000181733814167 -1.88345473162e-06 -2.00034111524e-05)
(-0.00010415843358 2.09901628654e-06 -1.89024221166e-05)
(-2.2169524308e-05 5.00565921023e-06 -1.89503121609e-05)
(5.85465099387e-05 6.63439070351e-06 -1.73684979671e-05)
(0.000132580229419 7.3690890109e-06 -1.46642021756e-05)
(0.000195423447839 7.44861980178e-06 -1.07596092402e-05)
(0.000237565758467 6.33803056343e-06 -4.18265268974e-06)
(0.000253092262635 4.6008527686e-06 1.25358875804e-06)
(0.000241646613799 1.8298773217e-06 2.85019158336e-06)
(0.000225465053134 2.50479396462e-06 5.33421416416e-06)
(0.00021409180023 -3.64411156159e-07 2.05508932737e-06)
(0.000208334070972 -1.91480471705e-06 -4.11683602058e-06)
(0.000230464207159 -2.88366078721e-06 -1.36314620984e-05)
(0.000286961377132 -2.85544544799e-06 -2.24141085722e-05)
(0.000366174954078 -2.0745654787e-06 -2.43298571629e-05)
(0.000444177925829 -9.80038091825e-07 -1.95849365518e-05)
(0.000501682533649 3.35618379333e-07 -1.12700148513e-05)
(0.000528596622456 1.5010869976e-06 -1.49341986323e-06)
(0.000519336170974 2.52212529377e-06 1.02580062047e-05)
(0.000468832346931 3.32134813126e-06 2.2459432924e-05)
(0.000372347730019 3.76539357034e-06 3.4905342345e-05)
(0.000232773375114 3.74183669628e-06 4.33862443848e-05)
(7.50543285965e-05 3.04917646203e-06 4.03209887919e-05)
(0.0005818718919 0.000125208657527 -9.87337719171e-05)
(0.00103896679112 0.000124011081627 0.000148888470351)
(0.000681596758982 0.000155579756567 0.00033195133898)
(0.00058600814638 0.000124775832093 0.000229106528762)
(0.000343508185522 0.000121443318326 0.000198247668041)
(-0.000147261285458 0.000136403932278 0.00021533693242)
(-0.000504619542312 0.0001356518324 0.000286113172718)
(-0.000933663521571 0.000119863002552 0.000394448440112)
(-0.00174046154263 0.000134360683376 0.000472504846035)
(-0.00219663830453 7.90857754728e-05 0.00017155751502)
(-0.00212901814293 4.58945550309e-05 -4.47492363718e-05)
(-0.00168066916038 1.60670315061e-05 -0.000156940265662)
(-0.00114799541351 -2.50037284536e-06 -0.000158526967176)
(-0.000741310392799 -9.26173012759e-06 -0.00011307374313)
(-0.000490525879954 -8.90172435207e-06 -6.77870916183e-05)
(-0.000346364413376 -5.76810302625e-06 -3.84256105994e-05)
(-0.000254601697402 -2.54733612624e-06 -2.41963623356e-05)
(-0.000179403458459 -1.40176778308e-07 -1.9189095906e-05)
(-0.00010267361581 1.19233431237e-06 -1.8407801579e-05)
(-2.11854760199e-05 2.13339473632e-06 -1.85210764791e-05)
(5.91497167329e-05 2.64796278114e-06 -1.69503635516e-05)
(0.000132895622475 2.91747858686e-06 -1.42186405188e-05)
(0.00019539227151 2.93424417585e-06 -1.041946318e-05)
(0.000237214014096 2.55595299329e-06 -3.97052814537e-06)
(0.000252462770082 1.93770226368e-06 1.43928453679e-06)
(0.000241330118484 1.01407516812e-06 3.17037467182e-06)
(0.000225130302852 9.67914981927e-07 5.05272645058e-06)
(0.00021346906261 3.56885935905e-08 1.90663329589e-06)
(0.000207966622098 -4.63463203205e-07 -4.35927170573e-06)
(0.000230330282303 -7.94252068941e-07 -1.38671067861e-05)
(0.000287126925613 -7.27632543523e-07 -2.26171174137e-05)
(0.000366503309985 -4.11767691523e-07 -2.44708442314e-05)
(0.000444573412693 8.22798670707e-09 -1.96719206894e-05)
(0.000502064401233 4.94476681036e-07 -1.13181787988e-05)
(0.000528926493319 9.22492946696e-07 -1.49968229928e-06)
(0.000519606460075 1.33449668403e-06 1.02573211649e-05)
(0.000469034284635 1.62627221685e-06 2.24872127743e-05)
(0.000372482782132 1.81931337177e-06 3.49627279366e-05)
(0.000232792665314 1.83628941063e-06 4.34703791575e-05)
(7.50086212911e-05 1.58363640193e-06 4.03867589226e-05)
(0.000582569338631 -0.00016278477641 -9.92787496243e-05)
(0.00104180639311 -0.000151615897036 0.000149346404166)
(0.00068556496948 -0.000171077844287 0.00033318141579)
(0.000589733094638 -0.00011920756169 0.000232636860796)
(0.000344113780906 -0.000104354109713 0.000202207385868)
(-0.000148962616015 -0.000120495706141 0.000219106501358)
(-0.000507937839994 -0.000133333502051 0.000289771358438)
(-0.000936651253641 -0.00013148987743 0.000396565587255)
(-0.00174272824724 -0.000157026607398 0.000471674330441)
(-0.00219669409965 -0.000105181286442 0.000170950363902)
(-0.00212758336216 -6.7029347405e-05 -4.52905807393e-05)
(-0.00167892930322 -2.92702793294e-05 -0.000157042253174)
(-0.00114668104915 -4.24263974739e-06 -0.000158470846936)
(-0.000740522452376 6.56928622153e-06 -0.000112977144955)
(-0.000490120303443 8.39377026718e-06 -6.77150455673e-05)
(-0.000346173399695 6.32411875973e-06 -3.83900177806e-05)
(-0.000254520192459 3.57616472887e-06 -2.41780730217e-05)
(-0.000179400952005 1.36274181612e-06 -1.91763597362e-05)
(-0.000102690697527 -1.51331671445e-07 -1.84064903367e-05)
(-2.11824272659e-05 -1.05589689914e-06 -1.85198556499e-05)
(5.91513876919e-05 -1.5767078058e-06 -1.6947725404e-05)
(0.000132905084325 -1.83411578793e-06 -1.42140291421e-05)
(0.000195402395379 -1.79808900108e-06 -1.04088370924e-05)
(0.000237209708818 -1.3978749498e-06 -3.95358007358e-06)
(0.000252444690855 -8.3961689025e-07 1.45550944757e-06)
(0.000241268891553 8.73388584833e-09 3.16358141965e-06)
(0.000225068663172 -3.87384715817e-07 5.0877009244e-06)
(0.000213454024586 4.9803746929e-07 1.91515660958e-06)
(0.000207973180245 9.64125469174e-07 -4.34851374761e-06)
(0.000230360303728 1.37530706454e-06 -1.38607023078e-05)
(0.000287164670615 1.47172958903e-06 -2.26037446659e-05)
(0.000366539948153 1.30381145607e-06 -2.44567832622e-05)
(0.000444607889087 1.03128047616e-06 -1.96551384938e-05)
(0.000502093507274 6.71542699066e-07 -1.13016279513e-05)
(0.000528958102843 3.55195395065e-07 -1.48666090675e-06)
(0.000519638580594 9.03874923009e-08 1.02775819563e-05)
(0.00046906363894 -9.32236241591e-08 2.25071746433e-05)
(0.000372510304311 -1.61208788775e-07 3.49858167247e-05)
(0.000232813360797 -1.20512055292e-07 4.34984164617e-05)
(7.5014526673e-05 3.43536246749e-08 4.04155609481e-05)
(0.000559177713166 -0.000445810986294 -0.000102999360838)
(0.00105904769283 -0.000432020881495 0.000145089629092)
(0.000701386484138 -0.000491153081808 0.000313410435363)
(0.000578823119941 -0.00037355783656 0.000222768007142)
(0.000311294734817 -0.000331117810418 0.000221802124958)
(-0.000173401054256 -0.000375110530336 0.000232100887667)
(-0.000535284617576 -0.000396559749261 0.000303004084799)
(-0.000973129414544 -0.000395037384978 0.0004014114497)
(-0.00176829164706 -0.000418164424123 0.000417722842959)
(-0.00219392176375 -0.000285838904627 0.000156720595966)
(-0.00210639734891 -0.000174403095537 -5.60008100991e-05)
(-0.00165826438361 -7.01241939525e-05 -0.000160092612335)
(-0.00113540512085 -3.37765052514e-06 -0.000158065194857)
(-0.000738305081778 2.36976375205e-05 -0.000112001865671)
(-0.000492653759974 2.63089580612e-05 -6.74036737879e-05)
(-0.00034996219839 1.87958747105e-05 -3.87368938637e-05)
(-0.000257801533105 1.00457127531e-05 -2.48570859655e-05)
(-0.000181731944629 3.1108200655e-06 -1.99420008164e-05)
(-0.00010421445166 -1.09967412755e-06 -1.89214660318e-05)
(-2.21566386243e-05 -3.93783667533e-06 -1.89455201976e-05)
(5.85497707333e-05 -5.583237445e-06 -1.73571333195e-05)
(0.000132605285233 -6.32180479424e-06 -1.46469111233e-05)
(0.000195452299896 -6.35573683274e-06 -1.07185770319e-05)
(0.000237551619706 -5.23272278628e-06 -4.12972182377e-06)
(0.000253042290826 -3.55991132854e-06 1.29869386511e-06)
(0.000241447769997 -8.02555214817e-07 2.82424356326e-06)
(0.000225279943993 -2.10134200642e-06 5.44698969705e-06)
(0.000214063703408 8.31554067396e-07 2.07099664053e-06)
(0.000208347652935 2.4093964944e-06 -4.08332323787e-06)
(0.000230552831607 3.40760743763e-06 -1.36113618407e-05)
(0.000287077095391 3.55037790257e-06 -2.23733369847e-05)
(0.000366285398352 2.92113122165e-06 -2.42883457315e-05)
(0.00044428124156 1.97232195079e-06 -1.95360683056e-05)
(0.000501773064457 7.81379353334e-07 -1.12213344077e-05)
(0.00052869353708 -2.85010214352e-07 -1.46344833541e-06)
(0.000519426970767 -1.20902349035e-06 1.02952593912e-05)
(0.000468915308359 -1.85608885178e-06 2.25206985514e-05)
(0.000372429613236 -2.17805512099e-06 3.49744574393e-05)
(0.000232834393588 -2.10364854751e-06 4.34690803246e-05)
(7.50728031523e-05 -1.51707330208e-06 4.0404861939e-05)
(0.000520296030842 -0.000699715882007 -0.000115717744997)
(0.00107646593673 -0.00071189401266 0.000115843306121)
(0.000765517654738 -0.000764498435426 0.000263679134472)
(0.000543208181122 -0.000618382175264 0.000210042746018)
(0.000235931818652 -0.000530486786305 0.000313023280466)
(-0.000208419243956 -0.000589289238746 0.000306022902767)
(-0.000610272685894 -0.000630177711294 0.00025395604903)
(-0.00105097081871 -0.000642699312544 0.000375709436093)
(-0.00180249681472 -0.000640910868018 0.000353273611613)
(-0.0021828748553 -0.000451000172891 0.000126187394528)
(-0.00206471433588 -0.000265526248257 -7.60707009132e-05)
(-0.00161985396227 -9.84481926454e-05 -0.000165315484068)
(-0.00111569199524 4.71227891578e-06 -0.000156652540032)
(-0.000735606373718 4.41348583728e-05 -0.000109759561732)
(-0.000498563091235 4.56910417336e-05 -6.65485221771e-05)
(-0.000357853715428 3.21472328979e-05 -3.92406546019e-05)
(-0.00026451235182 1.73252659692e-05 -2.59665094318e-05)
(-0.000186369006611 5.82108017548e-06 -2.1235251345e-05)
(-0.000107214448517 -1.3590354946e-06 -1.99435069261e-05)
(-2.4206060823e-05 -6.00535274308e-06 -1.97703461168e-05)
(5.73209844977e-05 -8.88297501064e-06 -1.80922209958e-05)
(0.000131975283858 -1.03662432427e-05 -1.54720403603e-05)
(0.000195468843707 -1.03300529293e-05 -1.1318084878e-05)
(0.000238180601499 -8.68740957014e-06 -4.51609475407e-06)
(0.000254288571558 -6.11131078123e-06 9.86084414523e-07)
(0.000241674436057 -1.09834839165e-06 2.02743484387e-06)
(0.000225603368818 -4.43273240103e-06 6.31874226366e-06)
(0.000215469628555 9.64521663485e-07 2.38022203433e-06)
(0.00020909306475 3.72661838094e-06 -3.69564269702e-06)
(0.000230841737317 5.09440153913e-06 -1.31435802987e-05)
(0.000286881778152 5.33651715917e-06 -2.19493001424e-05)
(0.000365757125761 4.30382388402e-06 -2.39851254386e-05)