/*--------------------------------*- C++ -*----------------------------------*\
| =========                 |                                                 |
| \\      /  F ield         | OpenFOAM: The Open Source CFD Toolbox           |
|  \\    /   O peration     | Version:  3.0.1                                 |
|   \\  /    A nd           | Web:      www.OpenFOAM.org                      |
|    \\/     M anipulation  |                                                 |
\*---------------------------------------------------------------------------*/
FoamFile
{
    version     2.0;
    format      ascii;
    class       volScalarField;
    location    "5";
    object      ddt0(epsilon);
}
// * * * * * * * * * * * * * * * * * * * * * * * * * * * * * * * * * * * * * //

dimensions      [0 2 -4 0 0 0 0];

internalField   nonuniform List<scalar> 
7968
(
-0.000116451357725
-0.000133383991241
-0.000146776963472
-0.000154866624831
-0.00015920046477
-0.000161157200778
-0.000161719211782
-0.000161566955501
-0.000161265070623
-0.00016111033286
-0.000161292671862
-0.000161570292236
-0.000162014863815
-0.000162080739786
-0.000161390650666
-0.000159290823923
-0.000154828431735
-0.000146648253962
-0.000133241234978
-0.000116393256414
-0.000133377121852
-0.000214937453614
-0.000276180113771
-0.000315292646447
-0.000338771752139
-0.000351649984269
-0.000357751423027
-0.00036003717555
-0.000360713779573
-0.000361249463895
-0.000362301442254
-0.000363563792524
-0.000364098921525
-0.000362313803404
-0.000356004942736
-0.000342316975854
-0.000317632745462
-0.000277203897006
-0.000214968531698
-0.000133218908823
-0.000146772297203
-0.000276186534224
-0.000375550954298
-0.000440657103737
-0.000481141323479
-0.0005046108702
-0.000516966904022
-0.000522865102948
-0.00052574923098
-0.000527834682609
-0.000530060430273
-0.000532064514315
-0.000532252199032
-0.000528007433622
-0.000515638684434
-0.000490619533856
-0.00044743857299
-0.000379145875842
-0.000277087413529
-0.000146580661756
-0.000154889669614
-0.000315295760497
-0.000440569302755
-0.000523814356996
-0.000576511168327
-0.000607984978162
-0.000625693537637
-0.000635417179212
-0.000643643152111
-0.00064807245277
-0.000651232992283
-0.000652713488428
-0.000650900457294
-0.000644450987523
-0.00062720947385
-0.000593417775227
-0.000536296605674
-0.000447624575558
-0.000317535004874
-0.00015471834767
-0.000159258599387
-0.000338655020402
-0.000480669005752
-0.000575940250606
-0.00063699560682
-0.000674607873648
-0.000700743655995
-0.000715937811728
-0.000725166844405
-0.000731276414571
-0.000735593556386
-0.000737574108929
-0.000734952819766
-0.0007241370563
-0.000702196530968
-0.000661829795593
-0.000594624196727
-0.000491587830603
-0.000342478068796
-0.00015916031904
-0.000161238185581
-0.000351204252911
-0.000503303941738
-0.000606151273983
-0.000673108636539
-0.000720129892908
-0.000749396646585
-0.000767197052706
-0.000778167652765
-0.00078556948588
-0.000790876367592
-0.0007934730566
-0.00079080188056
-0.000778529579478
-0.000751264911029
-0.000705193692617
-0.000630848083408
-0.000518081088496
-0.000356698813027
-0.000161264882334
-0.000161800589246
-0.000356736182032
-0.000514334100362
-0.000621850923991
-0.000696690587885
-0.000746745241888
-0.000778479349479
-0.000797905681993
-0.000809974186445
-0.00081820868244
-0.000824266472151
-0.000827474919997
-0.000825060953844
-0.000812262179516
-0.000782991927902
-0.0007307429172
-0.000651655914733
-0.000532590261444
-0.000363817691855
-0.000161981203777
-0.000161724004323
-0.000358230746435
-0.000518452273856
-0.000628923369699
-0.00070873656316
-0.000761028067848
-0.000794204806495
-0.000814484420834
-0.000827052392465
-0.000835735775381
-0.00084232157205
-0.000846098155061
-0.000844111903913
-0.000831285409921
-0.000801144411282
-0.000746673172438
-0.000662526305065
-0.00053953287787
-0.000366670418852
-0.000161832075712
-0.000161240269976
-0.000357882991285
-0.000519228101531
-0.00063408266323
-0.000714408206003
-0.00076789536417
-0.000801850432379
-0.000822474089244
-0.000835220221531
-0.000844130416199
-0.000851104226458
-0.000855298241516
-0.000853694150206
-0.000841011026544
-0.000810523390423
-0.000754950611418
-0.000667180231089
-0.000542398331914
-0.000367442149002
-0.000161648167143
-0.000160926708243
-0.000357272479977
-0.000519039325726
-0.00063557477794
-0.000716797628761
-0.000770997202076
-0.000805395930793
-0.000826230948347
-0.000839072962266
-0.000848140479377
-0.000855365869811
-0.000859721526032
-0.000858239642731
-0.000845588373673
-0.000814891744377
-0.000758768207424
-0.000670013274257
-0.000543530717018
-0.000367577600601
-0.000161489015418
-0.000160931259328
-0.000357256884399
-0.000519149030572
-0.000636021890603
-0.000717662866995
-0.000772285504687
-0.000807057176553
-0.0008281968287
-0.000841292598697
-0.000850517742552
-0.00085768580337
-0.000861883013892
-0.000860196835366
-0.000847284503243
-0.000816278496266
-0.000759816927461
-0.000670747310419
-0.000544077546661
-0.00036785894966
-0.000161516599199
-0.000161147352357
-0.000357776802011
-0.000519536995322
-0.000635368185991
-0.000716928828288
-0.000771663194918
-0.000806719576905
-0.000828222756221
-0.000841627316367
-0.00085089432972
-0.000857809308703
-0.000861636635568
-0.0008594399356
-0.000845975877853
-0.000814548141207
-0.000757969160555
-0.000669321295374
-0.00054384097007
-0.000368124794781
-0.000161718398525
-0.00016151511147
-0.000358003334694
-0.000518892114849
-0.000631159153531
-0.000712605250251
-0.000766926777792
-0.000801905607285
-0.000823620021515
-0.000837207756317
-0.000846422935883
-0.000852995810221
-0.000856252406608
-0.000853308699169
-0.000839157521924
-0.000807420628784
-0.00075126623075
-0.000666146493015
-0.000541379684514
-0.000367420356428
-0.000161862454074
-0.000161629348239
-0.000356423736445
-0.000514806133177
-0.000624494444157
-0.000701371197298
-0.000754048394399
-0.000788173149196
-0.000809543292329
-0.000822991926275
-0.000831965417208
-0.000838055816191
-0.000840611150012
-0.000836900895138
-0.000822260152344
-0.000790796866194
-0.000736289763904
-0.000655478820731
-0.000534241616059
-0.00036430059706
-0.000161933012986
-0.000161056992615
-0.000350846865449
-0.00050371373455
-0.000608748670735
-0.000678953980574
-0.000727704982438
-0.000759681035697
-0.000779779332515
-0.000792437831579
-0.000800777103312
-0.000806201259492
-0.000808059446393
-0.00080384709254
-0.000789392718118
-0.00075955039385
-0.000711718875127
-0.000634097822633
-0.00051908481648
-0.000356711523343
-0.000161101392662
-0.000159102952047
-0.000338323063482
-0.000480935926073
-0.000578035356913
-0.000641915139716
-0.000682796107387
-0.000709910654
-0.000727420963674
-0.000738443460021
-0.000745619713066
-0.000750147353283
-0.000751422883983
-0.000747323877431
-0.000734395006962
-0.000711168963179
-0.000667073797035
-0.00059674693931
-0.000491770462822
-0.000342029157977
-0.000158906082627
-0.000154782186326
-0.000315042812571
-0.000440642629003
-0.000525094690796
-0.00057977271233
-0.000613752773019
-0.00063408970624
-0.000646097294924
-0.000653811625871
-0.000659275589985
-0.000662737626703
-0.000664870781533
-0.000663006171637
-0.00065401250056
-0.000633621879789
-0.00059669401976
-0.000537124342426
-0.000447099220141
-0.000316799577433
-0.000154423270348
-0.000146707773383
-0.000275998281355
-0.000375412503918
-0.000441054837509
-0.000482565292937
-0.000507468184448
-0.000521485940315
-0.000529029744996
-0.000533334028937
-0.000536377002866
-0.00053896610358
-0.000540578302392
-0.000539637112664
-0.000533556577464
-0.000518998164995
-0.000491900243666
-0.000447208006729
-0.000378226003382
-0.000276323921318
-0.000146258461271
-0.000133341098104
-0.000214796403745
-0.000275954475945
-0.000315162101003
-0.000338948549276
-0.000352363765963
-0.000359171416777
-0.000362227967271
-0.000363624541191
-0.000364670043193
-0.000365941297638
-0.000367057102717
-0.000367036091335
-0.000364348748402
-0.000356966585915
-0.000342301016692
-0.000316975443381
-0.000276349182308
-0.000214317852535
-0.000133012253223
-0.000116438799016
-0.000133335033306
-0.000146687335947
-0.00015475045989
-0.00015908718015
-0.000161089374878
-0.000161732435926
-0.000161496632928
-0.000161336719796
-0.000161253744079
-0.000161466218244
-0.000161746814571
-0.000162101589196
-0.000162110773541
-0.000161252241449
-0.000159017315758
-0.000154491227472
-0.000146333219182
-0.000133019331748
-0.000116316818645
-0.000132759401675
-0.000211662218845
-0.000271598298307
-0.000310435196956
-0.000334356648711
-0.000348163586565
-0.00035541308493
-0.000358723724736
-0.000360051554885
-0.000360833338247
-0.000361900576271
-0.000362861193555
-0.000362590738162
-0.000359814873752
-0.000352530143906
-0.000338088812889
-0.000313082903744
-0.000272966267615
-0.000211967905861
-0.000132670326738
-0.000211625267828
-0.000257897205062
-0.000311162126645
-0.000348529915084
-0.000372423625704
-0.000386717369123
-0.000394684761674
-0.000398871439473
-0.000401064035413
-0.00040247387204
-0.00040364320945
-0.000404417211826
-0.000403968976589
-0.000400934639759
-0.000393293891711
-0.000378447559583
-0.000353214878913
-0.000314045133773
-0.000259094453451
-0.00021200266453
-0.000271480914877
-0.000311035028822
-0.000369619135938
-0.000412513059196
-0.000440886749235
-0.000458599941286
-0.000469172723349
-0.000475396468345
-0.000479254103575
-0.000482006482416
-0.000484185780362
-0.000485555922663
-0.000485144584283
-0.000481296164674
-0.00047161462162
-0.000453124089724
-0.000422396875857
-0.000376106988725
-0.000314150775299
-0.00027295824222
-0.000310146017824
-0.000348115466072
-0.000412109149886
-0.0004600350192
-0.000492537086703
-0.000513573399616
-0.000526915435014
-0.000535641904412
-0.000541651806192
-0.000545979712035
-0.000549214872969
-0.000551040814607
-0.000550397848416
-0.000545599228999
-0.000533854489288
-0.000511836542671
-0.000475903262873
-0.000422840204476
-0.000353575312017
-0.000313106395411
-0.000333750336536
-0.000371509806045
-0.000439729495805
-0.000491636765055
-0.000527597327984
-0.000551902637017
-0.000568335796491
-0.000579451840006
-0.000587261790615
-0.00059300952906
-0.000597223806546
-0.000599517123647
-0.000598651561782
-0.000592582620554
-0.000578727156638
-0.000553569588053
-0.000513238177851
-0.000454604388085
-0.000379346510599
-0.000338347679062
-0.000347061838773
-0.000385081738238
-0.000456328081459
-0.000511260710895
-0.000550340592792
-0.000577714124729
-0.000596679861355
-0.00060987712833
-0.000619248234652
-0.000626120193692
-0.000631072631161
-0.000633690936808
-0.00063262629594
-0.000625588627233
-0.000609632174934
-0.000581648233928
-0.000537743192659
-0.000474804219352
-0.00039506569981
-0.000353280095956
-0.000353632454012
-0.000392128687711
-0.000465461339736
-0.000522722163527
-0.000564578905225
-0.000594348637422
-0.000615367438586
-0.000630152144046
-0.000640652766654
-0.000648283423291
-0.000653703712288
-0.000656509454783
-0.000655277722216
-0.000647545484524
-0.00063013245023
-0.000599602406147
-0.000552913082505
-0.000486787350704
-0.000403891573772
-0.000361321119689
-0.000355985596091
-0.00039522699115
-0.000469981654505
-0.000529171002233
-0.000573008056154
-0.000604597456562
-0.000627085057471
-0.000642924563207
-0.000654106065688
-0.000662146863137
-0.000667799981624
-0.000670694289157
-0.000669362981618
-0.000661198754952
-0.000642849355931
-0.000610726734797
-0.000561661561371
-0.000493351625539
-0.000408353158845
-0.000365235553541
-0.000356503944802
-0.000396255049041
-0.000471974570296
-0.00053267965345
-0.000577818841848
-0.000610624664187
-0.00063404551498
-0.000650484379856
-0.000661984532129
-0.000670171211927
-0.000675887961683
-0.000678804507358
-0.000677420456159
-0.000669026844386
-0.000650130085781
-0.000617038040304
-0.000566461078093
-0.000496662675046
-0.000410331358557
-0.000366524723361
-0.000356233497889
-0.00039646133058
-0.000472806411463
-0.00053444571365
-0.000580467517945
-0.000614027230677
-0.000637980645876
-0.000654709800944
-0.000666311344252
-0.000674495386008
-0.0006801741524
-0.000683048750267
-0.000681603457407
-0.000673062750976
-0.000653849143202
-0.000620217150774
-0.000568874964707
-0.000498175644875
-0.000411109958869
-0.000366848363521
-0.000356324301193
-0.000396521001634
-0.000473186831217
-0.000535262050931
-0.000581734512768
-0.000615665842872
-0.000639867217584
-0.000656718829329
-0.000668343658475
-0.000676483648834
-0.00068207614702
-0.000684837382652
-0.000683248997727
-0.000674524348596
-0.000655078461888
-0.000621174019071
-0.000569548313077
-0.000498604934379
-0.000411332397064
-0.000367080444882
-0.000356670453902
-0.000396453525553
-0.000473112168935
-0.000535088559959
-0.000581562902647
-0.000615484038059
-0.000639671359205
-0.0006565143825
-0.000668128006382
-0.000676220409771
-0.000681700127092
-0.000684270726917
-0.000682430040817
-0.000673443565247
-0.00065381192406
-0.000619876598873
-0.000568440955993
-0.000497882095542
-0.000410934632141
-0.000367098815754
-0.000356240270375
-0.000395591791019
-0.000471832735162
-0.000533012734303
-0.000578975411616
-0.00061240923784
-0.000636228169001
-0.000652848157237
-0.00066434064185
-0.000672325616463
-0.000677636262176
-0.000679943289667
-0.000677778087223
-0.000668529274543
-0.000648864120201
-0.000615276967911
-0.00056480124273
-0.000495158555133
-0.000409163942399
-0.000365899146509
-0.000353716936983
-0.000392662950318
-0.000467888681495
-0.000527724201794
-0.000572212239425
-0.000604441901804
-0.000627342355972
-0.000643342089334
-0.000654442156964
-0.000662141705882
-0.000667163475682
-0.000669150385515
-0.000666691719699
-0.000657355023243
-0.000638036874228
-0.000605443144301
-0.000556808172933
-0.000488870082868
-0.000404698145524
-0.000361829532934
-0.000347117589603
-0.000385730501963
-0.000459057325726
-0.000516783822407
-0.000558758754412
-0.000588873941114
-0.000610108815283
-0.000624894778801
-0.000635158579097
-0.000642265581816
-0.00064681905381
-0.000648458018513
-0.000645860251606
-0.000636815785498
-0.000618516929142
-0.000588193389946
-0.000541803506714
-0.000476816790188
-0.000395685647074
-0.000353503421274
-0.000333774026289
-0.000372160886822
-0.000442356808279
-0.000496879628193
-0.000535719671672
-0.000562622667969
-0.000581263033957
-0.000594118700989
-0.000603001196448
-0.000609130895354
-0.000613014422126
-0.000614307428762
-0.000611835178456
-0.00060364616342
-0.000587538853441
-0.000559674877244
-0.000516842053899
-0.00045623972616
-0.000379695612404
-0.000338274911159
-0.000310132175103
-0.000348621473148
-0.000414181092395
-0.000464180367838
-0.000498974279811
-0.000522287460746
-0.000537645548729
-0.000547761451883
-0.000554689189154
-0.000559476292587
-0.000562516665794
-0.000563599279222
-0.00056178139197
-0.000555043250276
-0.000540976057425
-0.000516578190236
-0.000478544863814
-0.000423909586488
-0.00035367413216
-0.000312840461065
-0.00027141371652
-0.000311285805965
-0.000370812429603
-0.000414989378608
-0.000444809480546
-0.000464006077832
-0.000475983249572
-0.00048339653804
-0.0004881378143
-0.000491355781812
-0.000493514412761
-0.000494339328444
-0.000492891218669
-0.000487569749475
-0.000476178051326
-0.000455996641767
-0.000423856939764
-0.00037659500385
-0.000314096663351
-0.000272652596773
-0.000211534461245
-0.000257933956391
-0.000311535085636
-0.000349398256251
-0.000373903294272
-0.000388895100306
-0.000397604588531
-0.000402504806414
-0.000405301781123
-0.000407110689416
-0.000408398460347
-0.000408945917319
-0.000407934835569
-0.000404043077772
-0.000395405641246
-0.000379619882214
-0.000353681115724
-0.00031411459052
-0.000259004578055
-0.000211790200405
-0.000132737043805
-0.000211638664915
-0.000271583160849
-0.000310520805751
-0.000334688460021
-0.000348910036049
-0.000356709289759
-0.000360926835258
-0.000362784081413
-0.000363950413708
-0.000365130148923
-0.000365911645305
-0.000365160166057
-0.000361553341395
-0.000353480835386
-0.000338353186571
-0.000312926110057
-0.000272704945487
-0.000211806236485
-0.00013255816263
-0.000145377742567
-0.000268164712955
-0.000362903275348
-0.000425621121713
-0.000465585138665
-0.000490019931415
-0.000504235746627
-0.000512214147192
-0.000516846028597
-0.000520194721069
-0.000523211311859
-0.000525380561729
-0.000525138762753
-0.000520061280778
-0.000506802241773
-0.000481163492337
-0.000437966802221
-0.000370623147681
-0.000271128001122
-0.000145443454009
-0.000268098291963
-0.000306516090781
-0.000362367313237
-0.000402756183672
-0.000429462030966
-0.00044647321569
-0.000457156782727
-0.000464033527853
-0.000468868771792
-0.000472801902623
-0.000476279997966
-0.000478977043017
-0.000479857143734
-0.000477179049946
-0.000468517918664
-0.000450849498244
-0.000420697995506
-0.000374705061491
-0.000312786650718
-0.000271206218108
-0.000362498691061
-0.000361986980158
-0.000406536891843
-0.000441463148201
-0.000465767587367
-0.000482332109638
-0.000493941418127
-0.000502632173235
-0.000509804877893
-0.000516154980178
-0.000521927325894
-0.000526585534738
-0.000529071227306
-0.000527621193957
-0.000519845751314
-0.000502860115002
-0.000473609742076
-0.000429901350635
-0.00037513896832
-0.000370796915766
-0.000424531880035
-0.000401589295747
-0.000440589019225
-0.000473405080608
-0.000497506896538
-0.000515168344753
-0.000529232198076
-0.000540182473202
-0.000549938796292
-0.00055876021178
-0.00056664715618
-0.000572935699321
-0.000576500958198
-0.000575537875721
-0.000567636423668
-0.000549970659998
-0.000519711386892
-0.000475338118618
-0.000422253783904
-0.000438733700923
-0.000463394516395
-0.000427071479037
-0.000463492079798
-0.000496038694105
-0.000521320654761
-0.000541418486856
-0.000557466407312
-0.000571483281659
-0.00058406036745
-0.000595123084559
-0.000604688089144
-0.000611995286792
-0.000616057083442
-0.000614827308712
-0.000605788525615
-0.000586656067392
-0.000554463798384
-0.000508178887464
-0.000454563841315
-0.00048340145932
-0.0004862533111
-0.000442409106386
-0.000478077538673
-0.000511571317272
-0.000539227849669
-0.000561162090086
-0.000579652741195
-0.000596842398413
-0.000612162159664
-0.000625035012342
-0.000635791672535
-0.000643615605161
-0.00064795271882
-0.000646458019066
-0.000635667434387
-0.000613882251772
-0.000579365819746
-0.000530614188091
-0.000475463735553
-0.00051147280906
-0.000498438148829
-0.000450993665173
-0.000487114661929
-0.000522809932277
-0.000552245791383
-0.000575794705407
-0.000596850578659
-0.000617019383736
-0.000634556944939
-0.000648709308512
-0.000660191657557
-0.00066815212202
-0.00067251499078
-0.000670922586151
-0.000658777259408
-0.000633922157336
-0.000596622175903
-0.000545279115343
-0.000488204175074
-0.000527974096151
-0.000504016762048
-0.000455418469938
-0.000492684119827
-0.000530183868167
-0.000562005769696
-0.000587351249853
-0.000610766408477
-0.000632973029534
-0.00065194666745
-0.000666894680293
-0.00067870468329
-0.000686535063276
-0.000690601131679
-0.000688552702145
-0.000675430641688
-0.000648135038779
-0.000608121933731
-0.00055444852043
-0.000495456039326
-0.000536832122127
-0.000506037622523
-0.000457558392617
-0.000496304559467
-0.000535798346894
-0.000569724573426
-0.00059693980815
-0.000621932408819
-0.000645303504426
-0.000665053848473
-0.000680389059848
-0.000692211124465
-0.00069973868009
-0.000703306223263
-0.000700579259129
-0.000686447631721
-0.00065755664345
-0.000615537476311
-0.000559905688008
-0.000499276292386
-0.000541061702904
-0.000506661149708
-0.000458689514036
-0.00049891379662
-0.000540139361917
-0.00057582705471
-0.000604451877195
-0.000630383389154
-0.000654283387485
-0.000674270589059
-0.000689593177052
-0.000701185814011
-0.000708347002199
-0.000711446827716
-0.000708132148178
-0.000693209408999
-0.000663244809207
-0.000619915681772
-0.000562899865468
-0.000501107536356
-0.000542856314481
-0.000507152010918
-0.000459482162181
-0.000500907265374
-0.00054344567713
-0.000580295046027
-0.000609738929122
-0.000636089527492
-0.00066006029197
-0.000679879210005
-0.000694903005179
-0.000706154712454
-0.000712973982126
-0.000715721782211
-0.000712001462095
-0.000696559798137
-0.000665928895294
-0.000621835493422
-0.000564073509937
-0.00050168376742
-0.000543462017013
-0.000507418535729
-0.000459936740556
-0.000502178743624
-0.000545494308612
-0.000582831177464
-0.000612477904025
-0.000638776913557
-0.000662470937879
-0.000681864564781
-0.000696444911067
-0.000707336546904
-0.00071386052684
-0.000716323769838
-0.000712296584456
-0.000696526374996
-0.000665575720121
-0.000621230863239
-0.000563356755232
-0.000500930621085
-0.000542703594278
-0.00050615959108
-0.000459354960103
-0.000502131367646
-0.000545563383814
-0.000582839151793
-0.000612212811924
-0.000637972523237
-0.000661016894385
-0.000679746082955
-0.000693755712887
-0.000704217275666
-0.000710413137285
-0.000712524746928
-0.000708110633446
-0.000692060451932
-0.000661206204536
-0.000617265890211
-0.000559904647681
-0.000497957371795
-0.000539114817262
-0.00050115813853
-0.000456305944438
-0.000499430245799
-0.000542323579561
-0.000579052300026
-0.000608071194833
-0.000632613940042
-0.0006543653636
-0.000672042007958
-0.000685322595495
-0.000695226217405
-0.000701013338355
-0.000702577463151
-0.000697493265001
-0.000681064902158
-0.000651174266975
-0.0006085568612
-0.000552191801936
-0.000491179747202
-0.00053042331669
-0.000489222522448
-0.000448610545621
-0.00049208905276
-0.000534095167205
-0.000569369474576
-0.000597686936803
-0.000620653013985
-0.000640281043507
-0.000656330365772
-0.000668624650661
-0.00067777009822
-0.000683036621834
-0.000683849511912
-0.000677842116529
-0.000661568149958
-0.000633478934558
-0.000592712175972
-0.000538096620882
-0.000478435760576
-0.000513623005418
-0.000466168586981
-0.000433348102848
-0.000477497751687
-0.00051845684524
-0.000551612579197
-0.000578037523074
-0.000598989731844
-0.000616076164004
-0.000629976184713
-0.00064087919547
-0.000648928854282
-0.000653514999242
-0.000653602428309
-0.000647234199038
-0.00063200830338
-0.000606294889266
-0.000567391047901
-0.000515129407467
-0.000457053741952
-0.000484920865395
-0.000426644802539
-0.000406920452117
-0.000452637515727
-0.000492767531388
-0.000523858094355
-0.000547540031894
-0.000565703539733
-0.000580020538485
-0.000591404962855
-0.00060037288595
-0.000606951846853
-0.000610605204382
-0.000610116126045
-0.000604379788
-0.000590594196259
-0.0005666358925
-0.000530287768306
-0.000480708847639
-0.00042392202184
-0.000439503242809
-0.000363643804664
-0.000365488045875
-0.000414872987569
-0.000455163463525
-0.000484640293071
-0.000505777619629
-0.000521047946154
-0.000532364387909
-0.000540975349303
-0.000547588534282
-0.000552418754904
-0.000554982279734
-0.000554260572042
-0.000548695341527
-0.000536170041869
-0.000514258138728
-0.000480449485901
-0.000433086156291
-0.000375930069709
-0.000370958447754
-0.000268377816709
-0.000307995385042
-0.000366313906009
-0.000409605731999
-0.000439219227413
-0.000458901970187
-0.000471863510874
-0.000480495932545
-0.000486458449686
-0.000490784817975
-0.000493856919922
-0.000495327108342
-0.00049419305528
-0.00048885095237
-0.000477150282615
-0.00045645959723
-0.00042372408757
-0.000375903253923
-0.000312985138716
-0.000271114805852
-0.000145376285605
-0.000268592320726
-0.00036424910451
-0.000428359885767
-0.000470100007223
-0.000496537023453
-0.00051278025099
-0.000522594383876
-0.000528663620174
-0.000532832814277
-0.000535921087101
-0.000537358542678
-0.00053559168874
-0.000528327972218
-0.000512537967149
-0.000484474957397
-0.000439399838471
-0.000370985798477
-0.000271145352074
-0.000145324066109
-0.000152340847118
-0.000297788546123
-0.000408742145027
-0.000481597083522
-0.000528217589505
-0.000557725351216
-0.000576554136843
-0.000589162979032
-0.000598667893716
-0.000607133706683
-0.000615303256441
-0.000622286812355
-0.000625929312871
-0.000622779198378
-0.000608286936272
-0.000576915786535
-0.000522171889745
-0.000436226634196
-0.000310089879197
-0.000153219895506
-0.000297693019011
-0.00032576175917
-0.00037441552201
-0.000409470844868
-0.000433409727279
-0.000450157433225
-0.00046273515393
-0.000473185293731
-0.000482873770414
-0.000492430187228
-0.000501956754702
-0.000510659399717
-0.000517158398594
-0.000519237764802
-0.000514005100948
-0.000497929236684
-0.00046707129545
-0.000417810159128
-0.000350713185383
-0.00031025046911
-0.000407913323415
-0.000373765179179
-0.000398967202492
-0.00042207835788
-0.000440470941906
-0.000455490821232
-0.000468853101291
-0.000481813049938
-0.000495475010525
-0.000508297356799
-0.000520983114551
-0.000532191541997
-0.000541426808793
-0.000546309352334
-0.000544326594082
-0.000532535441774
-0.000507958074311
-0.000468659619311
-0.000419331252848
-0.00043710381881
-0.000479509777903
-0.000407793074085
-0.000421393669504
-0.000440383089498
-0.000458563136886
-0.000475496926175
-0.000492389604384
-0.000509054505089
-0.000525542592639
-0.000541235182255
-0.000556157337224
-0.000569182982853
-0.000579586870709
-0.000585400369237
-0.000583449147726
-0.000572090982318
-0.000549155407684
-0.000513579799179
-0.000472694792031
-0.00052575615124
-0.0005241428477
-0.000430221539729
-0.000438907286111
-0.000458100619908
-0.000478858294681
-0.000498846240612
-0.000518569832356
-0.000539917971268
-0.000560205352398
-0.000578123909031
-0.000594543254516
-0.000608233761905
-0.000619463183846
-0.000625763634278
-0.000622629616533
-0.00060881392929
-0.000584154606804
-0.000548664478837
-0.000510969422419
-0.000586092222602
-0.000550618502297
-0.000444618931721
-0.000452325932537
-0.000474147487834
-0.000497262239008
-0.000519118669036
-0.000542826117322
-0.000568791697569
-0.000592316871298
-0.000612093551389
-0.000629807765664
-0.000644124568958
-0.000656353042244
-0.000663614651622
-0.000659464101448
-0.000642132895477
-0.00061306993315
-0.000575269085964
-0.000537532054538
-0.000625907908218
-0.000565278824125
-0.000453764808242
-0.000462949079962
-0.000488448327521
-0.000512642050655
-0.000537122935747
-0.000564064148989
-0.000593265255966
-0.000619302874801
-0.000640479614358
-0.000659589159715
-0.000674676773715
-0.000687863010825
-0.000696166402982
-0.000691215665452
-0.000670777719491
-0.000636594957838
-0.00059503371857
-0.000555412330443
-0.00065094960676
-0.000572788105188
-0.000459749294705
-0.000471865988795
-0.000500474758175
-0.000527563334542
-0.00055415958677
-0.000583016424459
-0.000613751278682
-0.000641335044865
-0.000663963869159
-0.000684339268631
-0.00069999352917
-0.000713478902057
-0.000721930685187
-0.000716264430961
-0.000693157655369
-0.000655393927396
-0.000609382347527
-0.00056699501713
-0.00066570117058
-0.000576572723832
-0.000464122876614
-0.000480088680253
-0.000512214475485
-0.000542388906563
-0.000570760132551
-0.000600327159747
-0.000631759966081
-0.000660572407237
-0.000684509883013
-0.00070561974204
-0.000721209519143
-0.000734034952578
-0.000741563526983
-0.000734613304422
-0.000709444423643
-0.000668837536371
-0.000619377919763
-0.000574149143842
-0.000673748670937
-0.000579037495599
-0.000467911673011
-0.000488199125868
-0.000523155049152
-0.000556043874154
-0.000585934020049
-0.0006160439882
-0.000647819630335
-0.000677161637684
-0.000701464021626
-0.000722424952171
-0.000737427197132
-0.000749312525909
-0.00075573798104
-0.00074751368331
-0.00072068273734
-0.000677901408463
-0.000625569180451
-0.000578269296651
-0.000677856260731
-0.000581517141357
-0.000471532766793
-0.000494691176902
-0.000532347720221
-0.000567275590716
-0.000598435971203
-0.000629080872123
-0.000660833290169
-0.000689697407851
-0.000713281024461
-0.000733479681569
-0.000747782159861
-0.000758987138832
-0.000764671941876
-0.000755542706632
-0.000727492820413
-0.000683149356778
-0.000629009061794
-0.00058011258563
-0.000679569610049
-0.000583831343097
-0.000474773625296
-0.000499192409004
-0.000538834816496
-0.000574856065935
-0.000606877913492
-0.000638012641427
-0.000669517997284
-0.000697252840274
-0.000719442455799
-0.000738555611428
-0.000752172922108
-0.000762934143477
-0.000768203054411
-0.000758502841175
-0.000729667825092
-0.000684395581773
-0.000629635497642
-0.000579574791793
-0.000678646242299
-0.000584382019509
-0.000476823538259
-0.000502078520925
-0.000542041950997
-0.000578185552546
-0.00061049644874
-0.000641934237218
-0.000673041917233
-0.000699493387177
-0.000719999222559
-0.00073776651302
-0.000750581101702
-0.000760810728889
-0.000765502430331
-0.000755177486126
-0.000725936471143
-0.000680487546369
-0.00062588477209
-0.00057560619913
-0.000673162278021
-0.000580254865551
-0.000476081455938
-0.000501632994717
-0.000541421602229
-0.000576932296846
-0.000608924044864
-0.000639559743009
-0.000669587699641
-0.000694698181919
-0.000713791816086
-0.000730237732412
-0.000742180431199
-0.000751425265036
-0.000754749988076
-0.000743281442602
-0.000714290003665
-0.000669447652074
-0.000616500817369
-0.000566370788143
-0.000659981488766
-0.000567294090115
-0.000470277123034
-0.000496021551035
-0.000534234109156
-0.0005697969572
-0.00060077777188
-0.000629543512519
-0.00065731013863
-0.000680574462566
-0.000698768608926
-0.00071413665307
-0.000725254253654
-0.000732960977164
-0.000733964783052
-0.000721350581385
-0.000693123074954
-0.000651096867021
-0.000599476892278
-0.000549443552554
-0.00063515250257
-0.000540198381817
-0.000456543149124
-0.000483476897786
-0.000519824635672
-0.000554234488225
-0.000584093005343
-0.000610409613393
-0.000635057172708
-0.000656236097822
-0.000673383693922
-0.000687790270177
-0.000698012317586
-0.000703819189377
-0.00070232606409
-0.000688716384236
-0.000662181835592
-0.000622872711795
-0.000572511253873
-0.000522051166267
-0.000594065954289
-0.00049247928042
-0.000431470259571
-0.000462202568766
-0.000497465408611
-0.00052979283008
-0.000557608738206
-0.00058142598393
-0.00060283816169
-0.000621430888766
-0.000637115530198
-0.000650070983242
-0.000659053714097
-0.000662928403197
-0.00065970950897
-0.00064612910118
-0.000621026837557
-0.000583368716106
-0.000533625938899
-0.000481215680529
-0.000531249351662
-0.000415987593093
-0.000391342001937
-0.000431069899838