/*--------------------------------*- C++ -*----------------------------------*\
| =========                 |                                                 |
| \\      /  F ield         | OpenFOAM: The Open Source CFD Toolbox           |
|  \\    /   O peration     | Version:  3.0.1                                 |
|   \\  /    A nd           | Web:      www.OpenFOAM.org                      |
|    \\/     M anipulation  |                                                 |
\*---------------------------------------------------------------------------*/
FoamFile
{
    version     2.0;
    format      ascii;
    class       surfaceScalarField;
    location    "3.3";
    object      alphaPhi;
}
// * * * * * * * * * * * * * * * * * * * * * * * * * * * * * * * * * * * * * //

dimensions      [0 3 -1 0 0 0 0];

internalField   nonuniform List<scalar> 
45932
(
6.93423965826e-06
4.42782562278e-06
-1.13621012002e-05
1.27905058398e-05
5.30662462001e-06
-1.11629250515e-05
1.30813593991e-05
1.1094683691e-05
-1.13855651968e-05
7.13516177236e-06
1.72610214752e-05
-1.13148520149e-05
-2.06951828611e-06
2.07174989531e-05
-1.15128506627e-05
-1.19488640531e-05
2.09228393855e-05
-1.10435137915e-05
-1.97079088456e-05
1.77167194711e-05
-9.95770762524e-06
-2.28522941535e-05
1.17293089499e-05
-8.58495315136e-06
-2.12098643785e-05
5.17213680201e-06
-6.81459888692e-06
-1.7052277377e-05
7.76933996496e-07
-4.93455525463e-06
-1.26472684493e-05
-1.16506300762e-06
-3.23998287436e-06
-9.02852032652e-06
-1.6067696372e-06
-2.01201294668e-06
-6.41113306055e-06
-1.42300968575e-06
-1.19440203582e-06
-4.64010952971e-06
-1.06572224239e-06
-7.05329424234e-07
-3.48061898882e-06
-7.3522947486e-07
-4.24288471352e-07
-2.73268859134e-06
-4.87738149745e-07
-2.6021954038e-07
-2.25353156814e-06
-3.21477716698e-07
-1.57660468011e-07
-1.93926510383e-06
-2.15084315657e-07
-9.91622551354e-08
-1.7189685513e-06
-1.4866095573e-07
-7.16549581216e-08
-1.54261919293e-06
-1.08524017313e-07
-6.78486138239e-08
-1.37750426047e-06
-8.48716501042e-08
-8.02531209001e-08
-1.20700866809e-06
-7.0776983574e-08
-9.97073585649e-08
-1.02847578179e-06
-6.28205832489e-08
-1.157214942e-07
-8.46127665027e-07
-5.79143537266e-08
-1.24440063854e-07
-6.64529320503e-07
-5.69912496655e-08
-1.24628592143e-07
-4.88132515061e-07
-5.73878318058e-08
-1.19031620146e-07
-3.23816900068e-07
-5.97541090889e-08
-1.04577594095e-07
-1.77690631e-07
-6.3993994295e-08
-8.21454061811e-08
-4.79091201571e-08
-6.85862422236e-08
-6.12146809449e-08
7.13069667915e-08
-7.41578912153e-08
-4.50754530572e-08
1.8249647326e-07
-7.82284568328e-08
-3.29762443269e-08
2.82156016408e-07
-7.94887472898e-08
-2.01841502341e-08
3.55479972896e-07
-7.66463416055e-08
3.31056591498e-09
4.01442532448e-07
-7.43816256342e-08
2.84083740922e-08
4.1362378831e-07
-6.91879178115e-08
5.69966547568e-08
3.92257650783e-07
-6.53358242517e-08
8.66923652482e-08
3.43602198935e-07
-5.89712163037e-08
1.0761730511e-07
2.6445960785e-07
-5.38860801003e-08
1.33018865209e-07
1.55022610625e-07
-5.25507253174e-08
1.6197582389e-07
-5.98710083571e-08
2.14879970968e-07
6.86160925994e-06
1.27022460737e-05
-1.51360678803e-05
1.36252177658e-05
1.77963119384e-05
-1.92533301615e-05
1.41223575448e-05
3.13132234739e-05
-2.07156981006e-05
7.78744919476e-06
4.43849822577e-05
-2.07890873698e-05
-1.98077596455e-06
5.14190871052e-05
-2.09333865004e-05
-1.24092803149e-05
5.16618177057e-05
-2.03105011103e-05
-2.06390735753e-05
4.48587550888e-05
-1.89122735848e-05
-2.38186859402e-05
3.19724044329e-05
-1.70635054479e-05
-2.17819572721e-05
1.73362119321e-05
-1.42008330662e-05
-1.71871227643e-05
6.69607677963e-06
-1.05140115341e-05
-1.256241942e-05
1.13797003264e-06
-6.9277727369e-06
-8.88228516969e-06
-1.08017016497e-06
-4.20677111273e-06
-6.27566216408e-06
-1.592515204e-06
-2.4371484358e-06
-4.53986290369e-06
-1.43276560189e-06
-1.36878239412e-06
-3.41489728639e-06
-1.08739460524e-06
-7.7282933984e-07
-2.69264224978e-06
-7.66323679809e-07
-4.43698225974e-07
-2.22945191872e-06
-5.27348649467e-07
-2.57347832421e-07
-1.92588236442e-06
-3.64727998319e-07
-1.53953445203e-07
-1.71213195731e-06
-2.59034560846e-07
-1.03402976788e-07
-1.53960678889e-06
-1.92567027063e-07
-8.85067437565e-08
-1.37666059576e-06
-1.51678348727e-07
-9.61624910775e-08
-1.20746301495e-06
-1.26748001814e-07
-1.13248478351e-07
-1.02946968356e-06
-1.12745572584e-07
-1.28090142638e-07
-8.4746142311e-07
-1.05142222136e-07
-1.34802871166e-07
-6.67359965144e-07
-1.03272447159e-07
-1.33843637763e-07
-4.91735286453e-07
-1.04566586817e-07
-1.28469912837e-07
-3.27472374536e-07
-1.09416412675e-07
-1.14624329808e-07
-1.81388800885e-07
-1.17161782305e-07
-9.29381784747e-08
-5.1859411827e-08
-1.24930070338e-07
-7.3205834371e-08
6.81613513761e-08
-1.33844349087e-07
-6.0352162403e-08
1.81102215923e-07
-1.39673845782e-07
-5.15110037847e-08
2.82677454924e-07
-1.41184589349e-07
-3.98928762955e-08
3.57221217948e-07
-1.36468383255e-07
-1.4733560626e-08
4.03861295642e-07
-1.33250981882e-07
1.22185310246e-08
4.15666591436e-07
-1.26036094395e-07
4.50326814637e-08
3.93088227632e-07
-1.1876322669e-07
7.59958542419e-08
3.44665582651e-07
-1.10545509068e-07
9.99872185963e-08
2.64808098908e-07
-1.02550770808e-07
1.28511894802e-07
1.52767645589e-07
-1.00511177652e-07
1.59988224335e-07
-1.06307296345e-07
1.99189511386e-07
8.02458024243e-06
2.07832542392e-05
-1.61056257703e-05
1.60727417952e-05
3.07231414623e-05
-2.09750223845e-05
1.65357202308e-05
5.10473419317e-05
-2.01971342657e-05
9.17246972514e-06
6.97368432742e-05
-1.79886294923e-05
-1.88523166226e-06
7.95623188963e-05
-1.70855501103e-05
-1.35978423792e-05
7.97892360303e-05
-1.64148252532e-05
-2.28556235911e-05
7.00261353602e-05
-1.59096218137e-05
-2.62708813994e-05
5.13930864456e-05
-1.60054670075e-05
-2.36011986095e-05
2.98071705718e-05
-1.51406657889e-05
-1.81159967879e-05
1.3510560879e-05
-1.22997172652e-05
-1.2845161883e-05
4.366028146e-06
-8.49892908823e-06
-8.84668810656e-06
1.92877572467e-07
-5.27155810626e-06
-6.1326579612e-06
-1.23509164454e-06
-3.07148466555e-06
-4.3880378678e-06
-1.4384854697e-06
-1.73892933567e-06
-3.29165107344e-06
-1.20855655567e-06
-9.75253840798e-07
-2.60368799397e-06
-8.96961257913e-07
-5.57355058777e-07
-2.16845646825e-06
-6.35666616454e-07
-3.26942797265e-07
-1.88424142631e-06
-4.47859115777e-07
-2.01112049933e-07
-1.68324124298e-06
-3.21773082512e-07
-1.38288354804e-07
-1.51881282742e-06
-2.39579876164e-07
-1.17440454497e-07
-1.36104336782e-06
-1.87476717272e-07
-1.219942435e-07
-1.19496084238e-06
-1.55297490422e-07
-1.37555013149e-07
-1.01933963178e-06
-1.37162821175e-07
-1.51225754382e-07
-8.39184257825e-07
-1.28155009918e-07
-1.57165085883e-07
-6.60553864434e-07
-1.256663177e-07
-1.56260206218e-07
-4.86289999702e-07
-1.28323278661e-07
-1.5053172992e-07
-3.22939175439e-07
-1.3529638162e-07
-1.37495312272e-07
-1.78254533694e-07
-1.45417120951e-07
-1.1645242776e-07
-4.90279526747e-08
-1.56026509495e-07
-9.81509818501e-08
7.09812855829e-08
-1.66768234224e-07
-8.71035086198e-08
1.84981359653e-07
-1.73512011198e-07
-8.01774415149e-08
2.87397081979e-07
-1.74797190405e-07
-6.8816352801e-08
3.63528390057e-07
-1.69558475259e-07
-4.3052648323e-08
4.07887292569e-07
-1.64702269605e-07
-1.29179112224e-08
4.18780481549e-07
-1.55613485408e-07
1.86744100011e-08
3.95666797239e-07
-1.46983828888e-07
5.13247202651e-08
3.45327351895e-07
-1.37777644012e-07
7.75621446171e-08
2.63774671616e-07
-1.28221094185e-07
1.07212845565e-07
1.49798007955e-07
-1.24059173609e-07
1.37511741673e-07
-1.2182146506e-07
1.65297242428e-07
1.04754065547e-05
2.66355300897e-05
-1.6327717855e-05
2.03389238273e-05
4.00681753671e-05
-1.92085933162e-05
2.05086868084e-05
6.46618008142e-05
-1.37842536142e-05
1.1401099522e-05
8.63687399833e-05
-7.52432744163e-06
-1.80441231807e-06
9.7661679452e-05
-4.8938467554e-06
-1.56554780114e-05
9.78721012431e-05
-4.23179923303e-06
-2.66147284418e-05
8.64209066074e-05
-5.43553100782e-06
-3.05289290344e-05
6.45383849652e-05
-9.23112027725e-06
-2.69619307661e-05
3.86615080579e-05
-1.24213686989e-05
-2.00596307102e-05
1.87035876737e-05
-1.20953585382e-05
-1.37115791649e-05
7.10737190845e-06
-9.08942436903e-06
-9.09677069874e-06
1.4599464916e-06
-5.88191148603e-06
-6.11421943202e-06
-7.10582626218e-07
-3.50709389068e-06
-4.28514385769e-06
-1.25429586359e-06
-2.01329284039e-06
-3.18335876501e-06
-1.16862218712e-06
-1.14174788526e-06
-2.51742668753e-06
-9.08896585593e-07
-6.54026209199e-07
-2.10692786982e-06
-6.58177698911e-07
-3.88016608366e-07
-1.84226810603e-06
-4.68346696625e-07
-2.44199865673e-07
-1.65478597778e-06
-3.36956081856e-07
-1.72325008037e-07
-1.49935142551e-06
-2.4901893412e-07
-1.46019424871e-07
-1.34753419415e-06
-1.91959459266e-07
-1.47356434612e-07
-1.18549119672e-06
-1.56418590941e-07
-1.60942390817e-07
-1.01254903805e-06
-1.36390537791e-07
-1.7373455444e-07
-8.34494108688e-07
-1.27023436039e-07
-1.79207388192e-07
-6.57443287921e-07
-1.2458041267e-07
-1.78159068035e-07
-4.8457015893e-07
-1.28253592426e-07
-1.72966401885e-07
-3.22230357699e-07
-1.36556721384e-07
-1.61103255069e-07
-1.78167967338e-07
-1.48100071766e-07
-1.41402046384e-07
-4.90448836846e-08
-1.60331609473e-07
-1.24838282409e-07
7.15340045734e-08
-1.71797889119e-07
-1.15566710388e-07
1.86834347595e-07
-1.78784287491e-07
-1.10042745314e-07
2.90291909607e-07
-1.79588213909e-07
-9.86787629673e-08
3.67195124378e-07
-1.74258408753e-07
-7.22136165356e-08
4.11079322546e-07
-1.6817841773e-07
-4.04172478516e-08
4.2134956835e-07
-1.58350648778e-07
-7.54183474422e-09
3.98272781767e-07
-1.48820516946e-07
2.4904885764e-08
3.46803887675e-07
-1.39428016065e-07
5.31107715266e-08
2.63895163065e-07
-1.28919205321e-07
8.35975030261e-08
1.49574327449e-07
-1.22924746368e-07
1.13174026719e-07
-1.12793058921e-07
1.40531168185e-07
1.38507810422e-05
2.93223598534e-05
-1.65376167598e-05
2.58218278857e-05
4.40758707344e-05
-1.59787718804e-05
2.54916345838e-05
6.97074531575e-05
-4.71547575987e-06
1.41914956257e-05
9.13174053614e-05
6.35147894444e-06
-1.74266066671e-06
0.000102549194906
1.10466422621e-05
-1.83087881061e-05
0.000102762704635
1.1675542608e-05
-3.13738708797e-05
9.12040980021e-05
8.28190683648e-06
-3.5964111538e-05
6.91008326505e-05
2.7784865335e-08
-3.13802540685e-05
4.23138290829e-05
-8.23619983065e-06
-2.27606417269e-05
2.12573399984e-05
-1.11733937811e-05
-1.50339277386e-05
8.72880610761e-06
-9.34817855622e-06
-9.6013177731e-06
2.3870110143e-06
-6.3597053948e-06
-6.22120055793e-06
-2.104775283e-07
-3.88025488208e-06
-4.24057622357e-06
-9.89510700452e-07
-2.24543973958e-06
-3.10046950043e-06
-1.02505337145e-06
-1.28370362828e-06
-2.44119226087e-06
-8.33396602349e-07
-7.34806147819e-07
-2.04946044589e-06
-6.14417872024e-07
-4.35520301096e-07
-1.80212981537e-06
-4.3948439123e-07
-2.76220240004e-07
-1.62739806385e-06
-3.15322736657e-07
-1.96390171407e-07
-1.48081817693e-06
-2.30591804361e-07
-1.65030004933e-07
-1.33511834175e-06
-1.7434725372e-07
-1.63332773635e-07
-1.17741299517e-06
-1.39008440132e-07
-1.75134500083e-07
-1.00735525194e-06
-1.19146523002e-07
-1.87320180089e-07
-8.31490448426e-07
-1.10337878161e-07
-1.92569622591e-07
-6.56093753386e-07
-1.08270150169e-07
-1.91727971621e-07
-4.84624166644e-07
-1.12438595593e-07
-1.87307234429e-07
-3.23224236566e-07
-1.21160694705e-07
-1.76819129113e-07
-1.79630682963e-07
-1.32955869674e-07
-1.58759864143e-07
-5.03548968315e-08
-1.45484670689e-07
-1.44142466951e-07
7.1141292167e-08
-1.5665402394e-07
-1.36656806562e-07
1.87843324911e-07
-1.63293897546e-07
-1.32206180227e-07
2.9247936827e-07
-1.63634247023e-07
-1.20601154511e-07
3.70058259507e-07
-1.58473553242e-07
-9.33729227639e-08
4.14009743879e-07
-1.5200314593e-07
-6.01348089738e-08
4.23927034865e-07
-1.42272925579e-07
-2.60026961561e-08
4.01170283491e-07
-1.32130272248e-07
6.05891514968e-09
3.49218952905e-07
-1.23578585691e-07
3.60943497855e-08
2.65771707733e-07
-1.12827153834e-07
6.73466885519e-08
1.51286122868e-07
-1.06115668324e-07
9.76646927128e-08
-9.23657773441e-08
1.30844342464e-07
1.7581213382e-05
2.84637839124e-05
-1.67226742207e-05
3.16424885452e-05
4.23303969227e-05
-1.2315826553e-05
3.06630138573e-05
6.5901070993e-05
4.78584503763e-06
1.70300360272e-05
8.47873333254e-05
2.01630507111e-05
-1.69089852937e-06
9.47581582858e-05
2.65119786278e-05
-2.1030423236e-05
9.50012306923e-05
2.71009995499e-05
-3.63099151983e-05
8.46638476038e-05
2.18197422946e-05
-4.17047283604e-05
6.50477570197e-05
9.4478893314e-06
-3.61861415983e-05
4.05233561459e-05
-3.72813173325e-06
-2.58011500641e-05
2.09160676967e-05
-1.00437446565e-05
-1.66012372982e-05
9.00608489429e-06
-9.47722338018e-06
-1.02587518641e-05
2.80499566986e-06
-6.76049979205e-06
-6.41594865254e-06
1.5718494815e-07
-4.21049707044e-06
-4.24274838787e-06
-7.12657992977e-07
-2.45008477914e-06
-3.04333989572e-06
-8.29946166678e-07
-1.39454504755e-06
-2.3783057133e-06
-6.9955195612e-07
-7.98907749231e-07
-1.99896970046e-06
-5.25363990447e-07
-4.68418773227e-07
-1.76596826e-06
-3.76838572679e-07
-2.95674355639e-07
-1.60234680684e-06
-2.68780062479e-07
-2.10189047015e-07
-1.46375572468e-06
-1.94444391293e-07
-1.74760852846e-07
-1.3238182508e-06
-1.44052675671e-07
-1.7025200932e-07
-1.17032664397e-06
-1.12021240994e-07
-1.80496759051e-07
-1.00318819586e-06
-9.41170831912e-08
-1.92185116296e-07
-8.29403887994e-07
-8.64977391445e-08
-1.97642598153e-07
-6.55621063388e-07
-8.49300795591e-08
-1.97143098023e-07
-4.85488208164e-07
-8.90532103228e-08
-1.93540446886e-07
-3.24935918408e-07
-9.72503992086e-08
-1.84485562294e-07
-1.81699709335e-07
-1.08143373138e-07
-1.68070668598e-07
-5.21311739202e-08
-1.19706048513e-07
-1.55366621978e-07
7.03965793653e-08
-1.29695726486e-07
-1.4950229325e-07
1.88504954708e-07
-1.35502290184e-07
-1.45912990905e-07
2.94293946084e-07
-1.35459077904e-07
-1.33974376291e-07
3.72552392626e-07
-1.30782163944e-07
-1.05958008501e-07
4.16674620547e-07
-1.24683925688e-07
-7.1448518554e-08
4.26587918493e-07
-1.15782664852e-07
-3.64103521669e-08
4.03961203073e-07
-1.06720577578e-07
-2.78977595587e-09
3.52056153742e-07
-9.88401303234e-08
2.71597668043e-08
2.68913573375e-07
-8.8717694327e-08
5.9025216694e-08
1.54105412177e-07
-8.25645866185e-08
9.124563585e-08
-6.91431913779e-08
1.30868456345e-07
2.10567581578e-05
2.42725411925e-05
-1.68655583428e-05
3.68879405196e-05
3.55093050477e-05
-9.01010754847e-06
3.52708469246e-05
5.46926127828e-05
1.28255503918e-05
1.95412779083e-05
6.92082466005e-05
3.13086579306e-05
-1.63547838312e-06
7.7038060952e-05
3.88968403358e-05
-2.34215506881e-05
7.72922239228e-05
3.94950957256e-05
-4.07068561029e-05
6.91830514823e-05
3.27661590782e-05
-4.6936972437e-05
5.38702755113e-05
1.74075985388e-05
-4.07033497491e-05
3.40181855669e-05
2.71536738288e-07
-2.87433680372e-05
1.79405887288e-05
-8.98452733287e-06
-1.81717138396e-05
7.98058655184e-06
-9.54618352886e-06
-1.0954078225e-05
2.67580953452e-06
-7.08848211412e-06
-6.65056034711e-06
3.42417662243e-07
-4.48878245144e-06
-4.27572960222e-06
-4.67302471683e-07
-2.62021759469e-06
-3.00771180807e-06
-6.15832751878e-07
-1.48216439655e-06
-2.33020358602e-06
-5.3400170506e-07
-8.43087344583e-07
-1.95760050198e-06
-4.08370002528e-07
-4.89626632747e-07
-1.73543569283e-06
-2.93263316097e-07
-3.05767464371e-07
-1.58105683658e-06
-2.08146013653e-07
-2.15037822757e-07
-1.44908861657e-06
-1.48681693255e-07
-1.77753273825e-07
-1.31409527964e-06
-1.08011477722e-07
-1.71054127681e-07
-1.16437836561e-06
-8.19156440247e-08
-1.79839966572e-07
-9.99907005845e-07
-6.73974383418e-08
-1.91207636137e-07
-8.27966356704e-07
-6.14488574017e-08
-1.9700719506e-07
-6.55626714816e-07
-6.03569711642e-08
-1.96932744425e-07
-4.86658247146e-07
-6.3916757752e-08
-1.94127220418e-07
-3.26830385878e-07
-7.07878930829e-08
-1.86313610525e-07
-1.83867563851e-07
-7.9804156688e-08
-1.71324236474e-07
-5.39484501051e-08
-8.92872235627e-08
-1.60357440671e-07
6.95721090742e-08
-9.73888615838e-08
-1.55843424774e-07
1.88974943575e-07
-1.01926071563e-07
-1.52991556618e-07
2.95789213544e-07
-1.01639051434e-07
-1.40643823095e-07
3.74678080016e-07
-9.77239254177e-08
-1.1195450837e-07
4.189369937e-07
-9.2661651843e-08
-7.62875214738e-08
4.28912471386e-07
-8.5285910639e-08
-4.04783903399e-08
4.06546803764e-07
-7.79646130767e-08
-6.39656527416e-09
3.54787475954e-07
-7.13910583732e-08
2.43038710629e-08
2.72449205181e-07
-6.3373734147e-08
5.69867274844e-08
1.56960022397e-07
-5.75991433696e-08
9.0512425358e-08
-4.65955434972e-08
1.3439797106e-07
2.38903714176e-05
1.74448234118e-05
-1.70627003505e-05
4.10303982937e-05
2.50972370574e-05
-6.72799115239e-06
3.89962605118e-05
3.83714693244e-05
1.83552836842e-05
2.16307322902e-05
4.7854579641e-05
3.87192053841e-05
-1.56825871209e-06
5.31469435487e-05
4.70901103788e-05
-2.53452122918e-05
5.33608213185e-05
4.7708334515e-05
-4.42263715127e-05
4.79378699695e-05
4.01263536624e-05
-5.11046038756e-05
3.78140870411e-05
2.29344298285e-05
-4.43919342661e-05
2.41203172929e-05
3.18519528398e-06
-3.12143337414e-05
1.29424301023e-05
-8.17946347036e-06
-1.95291870829e-05
5.8858205876e-06
-9.59041045019e-06
-1.1577382388e-05
2.06090953591e-06
-7.336935325e-06
-6.8760683575e-06
3.43372690034e-07
-4.70230204959e-06
-4.32131584923e-06
-2.72809788311e-07
-2.74927783202e-06
-2.98813074982e-06
-4.0234967643e-07
-1.54670107828e-06
-2.29648703244e-06
-3.56937278202e-07
-8.68741436768e-07
-1.92645874636e-06
-2.75212347978e-07
-5.03215120729e-07
-1.71189049153e-06
-1.98135359016e-07
-3.09724199196e-07
-1.56434720988e-06
-1.39901302214e-07
-2.15813268788e-07
-1.43753937036e-06
-9.88854024128e-08
-1.76626704607e-07
-1.30644325436e-06
-7.06868547748e-08
-1.68440473908e-07
-1.15976766405e-06
-5.24268062842e-08
-1.76181835551e-07
-9.97489072597e-07
-4.23477688552e-08
-1.87344814719e-07
-8.27021903933e-07
-3.83552735827e-08
-1.93578450063e-07
-6.55846452856e-07
-3.76921323397e-08
-1.93860545644e-07
-4.87810507321e-07
-4.02783759244e-08
-1.91697116673e-07
-3.28544972117e-07
-4.51533982344e-08
-1.84923856551e-07
-1.85764613956e-07
-5.14962950373e-08
-1.71110913247e-07
-5.55286990012e-08
-5.81340309761e-08
-1.61408876334e-07
6.88432192546e-08
-6.36917688872e-08
-1.58084997221e-07
1.89320417505e-07
-6.66686012674e-08
-1.55746900391e-07
2.96955320289e-07
-6.62740618762e-08
-1.43008970988e-07
3.76352160588e-07
-6.34144490398e-08
-1.13713201591e-07
4.2066425734e-07
-5.98582178446e-08
-7.7121375325e-08
4.30729066177e-07
-5.46128973785e-08
-4.0743589271e-08
4.08662869678e-07
-4.95526677715e-08
-6.3517349892e-09
3.56997579811e-07
-4.48563326581e-08
2.51243713652e-08
2.74917140337e-07
-3.94253368046e-08
5.81245419684e-08
1.59324016404e-07
-3.4913097455e-08
9.28956991308e-08
-2.6361960153e-08
1.39075875695e-07
2.58380683184e-05
8.93928954042e-06
-1.73325861547e-05
4.38276202553e-05
1.27332166819e-05
-5.62556061564e-06
4.15463485698e-05
1.94002589394e-05
2.12524894774e-05
2.30447512045e-05
2.39677372566e-05
4.23884447828e-05
-1.5060335101e-06
2.66431283065e-05
5.10546059049e-05
-2.66148314087e-05
2.67701404149e-05
5.16994889405e-05
-4.65823448805e-05
2.40775577889e-05
4.38278727319e-05
-5.38991672739e-05
1.91733180228e-05
2.59576074421e-05
-4.69338196386e-05
1.22966190046e-05
4.85835474295e-06
-3.29589333387e-05
6.66247298695e-06
-7.69494875741e-06
-2.05107114021e-05
3.06254196987e-06
-9.62497220474e-06
-1.20395600555e-05
1.09176791373e-06
-7.50204279306e-06
-7.0502144961e-06
1.97849422159e-07
-4.84385580487e-06
-4.36226454188e-06
-1.26940133665e-07
-2.83385354154e-06
-2.97894991427e-06
-1.98000759136e-07
-1.5876976917e-06
-2.27511284782e-06
-1.77074149977e-07
-8.83734711422e-07
-1.90596676464e-06
-1.36019511108e-07
-5.08369326507e-07
-1.69603947957e-06
-9.77966175197e-08
-3.10294628177e-07
-1.55299562361e-06
-6.85420524531e-08
-2.14428874415e-07
-1.42966216499e-06
-4.8027638797e-08
-1.7421417316e-07
-1.30119925512e-06
-3.38931929677e-08
-1.65276685026e-07
-1.15664955565e-06
-2.47731439198e-08
-1.72220973411e-07
-9.95916816815e-07
-1.9849247028e-08
-1.83248029878e-07
-8.26462916609e-07
-1.80225135532e-08
-1.89804666421e-07
-6.56091448788e-07
-1.77476072658e-08
-1.90336726407e-07
-4.88696533097e-07
-1.90639851847e-08
-1.88632716907e-07
-3.29809559473e-07
-2.14916192343e-08
-1.82573235233e-07
-1.87140315414e-07
-2.46142680124e-08
-1.69574513095e-07
-5.66507827134e-08
-2.78291830542e-08
-1.60814492413e-07
6.83350892922e-08
-3.04529690826e-08
-1.58240760229e-07
1.89567919831e-07
-3.16830777564e-08
-1.56230477229e-07
2.97762031061e-07
-3.12792098994e-08
-1.43197791397e-07
3.77500784167e-07
-2.97175273267e-08
-1.13442247874e-07
4.2178395973e-07
-2.79299224931e-08
-7.62170283442e-08
4.31933302965e-07
-2.53015581144e-08
-3.94662438222e-08
4.10139745162e-07
-2.28850493901e-08
-4.87993454919e-09
3.58464627142e-07
-2.06387148963e-08
2.74513387983e-08
2.76518817935e-07
-1.78357077122e-08
6.03486257578e-08
1.60732147714e-07
-1.494456813e-08
9.58066075026e-08
-8.00609603273e-09
1.42361544077e-07
2.68105367403e-05
-3.2778862046e-07
-1.75434723118e-05
4.5228760544e-05
-3.83398864884e-07
-5.30163780156e-06
4.28274312046e-05
-4.680283305e-07
2.2269612799e-05
2.37251376939e-05
-5.12355736697e-07
4.35824004261e-05
-1.46982525744e-06
-5.40878004998e-07
5.23789745947e-05
-2.72244383823e-05
-5.28609032711e-07
5.30533489525e-05
-4.77328294747e-05
-4.86828535489e-07
4.50728046701e-05
-5.52658742313e-05
-4.22818352847e-07
2.71292582937e-05
-4.82041273084e-05
-3.20611839883e-07
5.5554895076e-06
-3.38441191127e-05
-2.08093718103e-07
-7.48946018428e-06
-2.10161781193e-05
-1.17983683839e-07
-9.64744413225e-06
-1.22807404639e-05
-5.99353322719e-08
-7.58376703682e-06
-7.14267841028e-06
-2.72642224891e-08
-4.91298288275e-06
-4.3851158372e-06
-9.95291766114e-09
-2.87458471329e-06
-2.97521598717e-06
-1.27968717961e-09
-1.60665613995e-06
-2.264604905e-06
2.76563352619e-09
-8.90486032453e-07
-1.89587198759e-06
4.00860810074e-09
-5.08792549701e-07
-1.6881619498e-06
4.18315813461e-09
-3.09718957018e-07
-1.54734623075e-06
3.74118225501e-09
-2.13125149499e-07
-1.4257418791e-06
2.94994511345e-09
-1.7260525127e-07
-1.29860191943e-06
2.1447696232e-09
-1.63198344331e-07
-1.15513554067e-06
1.47604763778e-09
-1.69733427838e-07
-9.95183702408e-07
8.63903643988e-10
-1.80681995927e-07
-8.26218969986e-07
4.76754550195e-10
-1.8748230845e-07
-6.56233943723e-07
3.95250571201e-10
-1.88149006901e-07
-4.89149751666e-07
4.77918118907e-10
-1.86649962298e-07
-3.30440632859e-07
7.00889666226e-10
-1.80926559944e-07
-1.87814300419e-07
1.07267135882e-09
-1.68336880975e-07
-5.71828959699e-08
1.55867598901e-09
-1.60039604582e-07
6.81267720407e-08
2.11055853391e-09
-1.5788936624e-07
1.89733912298e-07
2.66079537223e-09
-1.55963090064e-07
2.98187607376e-07
3.01506102531e-09
-1.42756660296e-07
3.78076113278e-07
3.13739673686e-09
-1.12749834413e-07
4.22297720117e-07
3.04308454551e-09
-7.52000184943e-08
4.32488916263e-07
2.77304720764e-09
-3.82712638376e-08
4.10824113767e-07
2.34847443888e-09
-3.57455986049e-09
3.59142239854e-07
2.08258747661e-09
2.89543915246e-08
2.77224010623e-07
2.01011450761e-09
6.20647822456e-08
1.612955451e-07
3.17076683542e-09
9.78014774556e-08
9.22340502534e-09
1.44051196993e-07
2.67990485029e-05
-9.57456647808e-06
-1.75523068634e-05
4.52121843857e-05
-1.34787751254e-05
-5.31778301261e-06
4.28111992372e-05
-2.03171458787e-05
2.22500960924e-05
2.37163074378e-05
-2.49801706878e-05
4.35627256526e-05
-1.46758968708e-06
-2.77056889202e-05
5.23487126213e-05
-2.72118276232e-05
-2.78055183932e-05
5.3021138434e-05
-4.77130668898e-05
-2.50293495218e-05
4.50437586888e-05
-5.52415597559e-05
-1.99911024078e-05
2.70968290028e-05
-4.81772925799e-05
-1.29129324867e-05
5.52807241771e-06
-3.38213565926e-05
-7.06124655597e-06
-7.5028018615e-06
-2.10009877484e-05
-3.28844075979e-06
-9.6499402996e-06
-1.227191447e-05
-1.20671714695e-06
-7.58232446455e-06
-7.13793637203e-06
-2.50213893036e-07
-4.91106316641e-06
-4.38273001111e-06
1.07917190068e-07
-2.87311179344e-06
-2.97410302415e-06
1.95626883501e-07
-1.60556925864e-06
-2.26421712085e-06
1.82644668315e-07
-8.8980066599e-07
-1.89580546126e-06
1.44114089812e-07
-5.085489012e-07
-1.68825771035e-06
1.06204901231e-07
-3.09598842211e-07
-1.54752975672e-06
7.60118042234e-08
-2.1302496565e-07
-1.42593756292e-06
5.39375445235e-08
-1.72603265413e-07
-1.29876951884e-06
3.82303832198e-08
-1.6327417131e-07
-1.15528113995e-06
2.77033075902e-08
-1.6973356014e-07
-9.95275801553e-07
2.15595915098e-08
-1.8071807766e-07
-8.26240691224e-07
1.8936967498e-08
-1.87513678062e-07
-6.56213511831e-07
1.84439071786e-08
-1.88097014991e-07
-4.89093659986e-07
1.99262554027e-08
-1.86592104593e-07
-3.30348466115e-07
2.27803102683e-08
-1.80849570931e-07
-1.87694116854e-07
2.66268393856e-08
-1.68232118537e-07
-5.70478320239e-08
3.08070291467e-08
-1.59914940886e-07
6.825097159e-08
3.44994105597e-08
-1.57703766267e-07
1.89819972004e-07
3.67964381217e-08
-1.5571664524e-07
2.98220044383e-07
3.70824051962e-08
-1.42476027169e-07
3.78055075891e-07
3.57522429896e-08
-1.1245619604e-07
4.22238396036e-07
3.37600845552e-08
-7.49056480226e-08
4.3239902e-07
3.05884509842e-08
-3.79814337292e-08
4.10689708542e-07
2.73242564227e-08
-3.27227438912e-09
3.58971253259e-07
2.45620265362e-08
2.923285722e-08
2.77031674558e-07
2.15678816843e-08
6.23742004757e-08
1.61151128456e-07
2.09610440747e-08
9.80786293724e-08
2.6173813839e-08
1.44185916838e-07
2.58033393161e-05
-1.80209826994e-05
-1.73569730661e-05
4.37772819332e-05
-2.57791854974e-05
-5.67355590938e-06
4.15003701935e-05
-3.92254417797e-05
2.11851818359e-05
2.30214958831e-05
-4.88158704084e-05
4.23145504487e-05
-1.49850233402e-06
-5.41455991096e-05
5.09599151106e-05
-2.65781453561e-05
-5.43260933655e-05
5.16002158162e-05
-4.65247111144e-05
-4.88213574105e-05
4.37385504921e-05
-5.38270042061e-05
-3.85523885247e-05
2.58636205322e-05
-4.6854903713e-05
-2.46659250204e-05
4.78090274524e-06
-3.28924618292e-05
-1.32916004015e-05
-7.73210737895e-06
-2.04664984815e-05
-6.0831992139e-06
-9.63123353804e-06
-1.20138455769e-05
-2.16168612268e-06
-7.49771697999e-06
-7.03640123206e-06
-3.89476745356e-07
-4.83821582896e-06
-4.35524106149e-06
2.56195389112e-07
-2.82947342513e-06
-2.97566208808e-06
4.00567113164e-07
-1.58455468675e-06
-2.27394799334e-06
3.6234607807e-07
-8.81451204354e-07
-1.90578613647e-06
2.83122758976e-07
-5.0720197129e-07
-1.69634152012e-06
2.06514298568e-07
-3.0978321106e-07
-1.55354442894e-06
1.47335018716e-07
-2.14146592962e-07
-1.43023970888e-06
1.04825060369e-07
-1.74215581697e-07
-1.30170722272e-06
7.51206690033e-08
-1.65443088687e-07
-1.15708212159e-06
5.5273650663e-08
-1.72213161652e-07
-9.96199593305e-07
4.39104614443e-08
-1.83250211232e-07
-8.265436475e-07
3.90861301224e-08
-1.89823163395e-07
-6.56032563386e-07
3.81330747538e-08
-1.90221052232e-07
-4.88531558534e-07
4.08468240201e-08
-1.88445036246e-07
-3.29538649005e-07
4.61073634818e-08
-1.8234443391e-07
-1.86784594869e-07
5.31273474396e-08
-1.69277707895e-07
-5.62549160973e-08
6.06948960479e-08
-1.60437483944e-07
6.86992946283e-08
6.72578860072e-08
-1.57728548779e-07
1.89822026422e-07
7.11922539212e-08
-1.55530411399e-07
2.97857159427e-07
7.1422049398e-08
-1.42383325875e-07
3.7743520818e-07
6.87452427517e-08
-1.12577341658e-07
4.21601448356e-07
6.49429887078e-08
-7.53544509684e-08
4.31658626758e-07
5.91544459702e-08
-3.8628543377e-08
4.09742562127e-07
5.32374884947e-08
-4.00291033347e-09
3.57937930308e-07
4.81231664956e-08
2.82374261379e-08
2.75935205179e-07
4.22889510399e-08
6.12741777593e-08
1.60284974651e-07
3.99610956572e-08
9.66387187301e-08
4.37356827144e-08
1.42708510054e-07
2.38324785909e-05
-2.47567988294e-05
-1.70967188269e-05
4.09459463029e-05
-3.60873804689e-05
-6.80530573934e-06
3.89211270394e-05
-5.54240116634e-05
1.8223386609e-05
2.15913905234e-05
-7.00550961634e-05
3.85689342401e-05
-1.55400049788e-06
-7.7921775768e-05
4.6921578526e-05
-2.52830670808e-05
-7.81382045213e-05
4.75411590809e-05
-4.41302894679e-05
-6.99401898234e-05
3.99660711194e-05
-5.09854856766e-05
-5.44788333417e-05
2.27816598773e-05
-4.42650406523e-05
-3.44567737165e-05
3.07040614417e-06
-3.11093118501e-05
-1.82150871097e-05
-8.23226261377e-06
-1.94597207756e-05
-8.13594346239e-06
-9.59687592721e-06
-1.15369661957e-05
-2.75608239885e-06
-7.32839020911e-06
-6.85430173741e-06
-3.79588073053e-07
-4.69258659993e-06
-4.31020532367e-06
4.54140635018e-07
-2.74207579356e-06
-2.98286553929e-06
6.15071357094e-07
-1.54187887053e-06
-2.2945693717e-06
5.38799987838e-07
-8.64785056043e-07
-1.92613721943e-06
4.15715613588e-07
-5.01055556231e-07
-1.7123956774e-06
3.01285679879e-07
-3.08541828599e-07
-1.56524285801e-06
2.15417752685e-07
-2.15261522372e-07
-1.43848646817e-06
1.54537560422e-07
-1.76491941865e-07
-1.30733178722e-06
1.12320191324e-07
-1.68374076543e-07
-1.16051016903e-06
8.45832901863e-08
-1.76148599704e-07
-9.97972837204e-07
6.8724818854e-08
-1.87368075963e-07
-8.2717055486e-07
6.18885917644e-08
-1.93622267829e-07
-6.55763320537e-07
6.0374940219e-08
-1.93669214732e-07
-4.87550029353e-07
6.40300883217e-08
-1.91419192227e-07
-3.28108216377e-07
7.12402051511e-08
-1.84598254652e-07
-1.8518285034e-07
8.0887448356e-08
-1.70707827226e-07
-5.48862958851e-08
9.12275436979e-08
-1.60848547662e-07
6.94237364197e-08
1.00204581259e-07
-1.57272233711e-07
1.8972498297e-07
1.05547487194e-07
-1.54668200908e-07
2.97101240221e-07
1.05757610671e-07
-1.41720372128e-07
3.76236844056e-07
1.01971776373e-07
-1.1236850251e-07
4.20350858444e-07
9.65987054039e-08
-7.57751075136e-08
4.30259453969e-07
8.86812029352e-08
-3.94407447572e-08
4.0802480384e-07
8.04547665564e-08
-4.98832550802e-09
3.56062135993e-07
7.3299071219e-08
2.67808164521e-08
2.73921109137e-07
6.49055296393e-08
5.95171685864e-08
1.5845231626e-07
6.12293143257e-08
9.41893896462e-08
6.24744484216e-08
1.3969924709e-07
2.09778927384e-05
-2.88355382375e-05
-1.68992168715e-05
3.67672819684e-05
-4.27707389717e-05
-9.10606985637e-06
3.51688268789e-05
-6.64561036238e-05
1.26305895042e-05
1.94927028197e-05
-8.54445161474e-05
3.10655219357e-05
-1.61259637118e-06
-9.54402980185e-05
3.86238349269e-05
-2.33360574242e-05
-9.56456453402e-05
3.92309189431e-05
-4.05745905402e-05
-8.52325216003e-05
3.25308610863e-05
-4.67750311462e-05
-6.54846375726e-05
1.72062667646e-05