/*--------------------------------*- C++ -*----------------------------------*\
| =========                 |                                                 |
| \\      /  F ield         | OpenFOAM: The Open Source CFD Toolbox           |
|  \\    /   O peration     | Version:  3.0.1                                 |
|   \\  /    A nd           | Web:      www.OpenFOAM.org                      |
|    \\/     M anipulation  |                                                 |
\*---------------------------------------------------------------------------*/
FoamFile
{
    version     2.0;
    format      ascii;
    class       surfaceVectorField;
    location    "3.3";
    object      Uf;
}
// * * * * * * * * * * * * * * * * * * * * * * * * * * * * * * * * * * * * * //

dimensions      [0 1 -1 0 0 0 0];

internalField   nonuniform List<vector> 
45932
(
(0.00277369595617 0.000260158423747 -0.000950039601663)
(0.00128963207955 0.000885566648569 -0.00137485847157)
(0.00165895617648 0.000654899615196 -0.00227243008881)
(0.00511619902815 0.00047961504234 -0.000818482251397)
(0.00431467148386 0.00106132467233 -0.00165591934468)
(0.00456204250578 0.000963095300426 -0.00223259040819)
(0.00523253740432 0.00106582618751 -0.000723957226781)
(0.00602564995239 0.00221893495725 -0.00176280675558)
(0.00611348618387 0.00182387273814 -0.00227711578366)
(0.00285405794932 0.00157901152432 -0.000675493131448)
(0.00467820083271 0.00345220128122 -0.00176945406527)
(0.00471087854024 0.00268085751202 -0.00226297220832)
(-0.000827816891059 0.00178650714408 -0.000644823523757)
(0.00124882250504 0.00414349708378 -0.00179809349592)
(0.00125005773863 0.00316334322891 -0.00230257059825)
(-0.00477956245033 0.00162966146688 -0.000582579299009)
(-0.00289139331981 0.00418456497431 -0.0017353408724)
(-0.0029156515979 0.00318187164312 -0.00220870374944)
(-0.00788318765347 0.00114559276931 -0.000504382560469)
(-0.0068258799853 0.0035433421818 -0.00158671948677)
(-0.0068683839733 0.00271940843118 -0.00199154184519)
(-0.00914095195185 0.000515720651262 -0.000418866996757)
(-0.00916539318963 0.00234585976384 -0.00138988408711)
(-0.00921550935778 0.00188260918753 -0.00171699073523)
(-0.00848398889404 -2.12669191979e-06 -0.000327124623845)
(-0.00928944501469 0.00103442518267 -0.00111398986098)
(-0.00938853699825 0.000955723352231 -0.00136292062382)
(-0.00682095858984 -0.000251818983737 -0.000234967927193)
(-0.00776893182132 0.000155384389502 -0.0007998537731)
(-0.00789648068016 0.000294699731846 -0.000986913640767)
(-0.00505895350373 -0.000287372253767 -0.000156807337516)
(-0.00589231105796 -0.000233014826958 -0.000514369506579)
(-0.00601843468767 -1.17015178555e-05 -0.000648001118848)
(-0.00361145004717 -0.000240722941255 -0.000101180003864)
(-0.00423207354263 -0.000321355464556 -0.000311464733421)
(-0.0043313279808 -0.000116588639145 -0.000402408421788)
(-0.00256449086168 -0.000177157433051 -6.33148906296e-05)
(-0.0029841307594 -0.000284602642948 -0.000181647470418)
(-0.00305290952143 -0.00012742719965 -0.00023888795118)
(-0.00185607346109 -0.000120761904215 -4.03392285478e-05)
(-0.00213096548103 -0.000213144795876 -0.000103393375913)
(-0.00217469472109 -0.000104417104406 -0.000141074265982)
(-0.0013922682431 -7.95200382532e-05 -2.63386721476e-05)
(-0.00157004597782 -0.000147046163201 -5.99036496921e-05)
(-0.00159590624794 -7.65203102512e-05 -8.48666825121e-05)
(-0.00109308670451 -5.20481503223e-05 -1.69710783479e-05)
(-0.00120811502441 -9.75477839989e-05 -3.52921791918e-05)
(-0.00122291401276 -5.32547070193e-05 -5.2053336126e-05)
(-0.00090141466906 -3.44049694977e-05 -1.072233597e-05)
(-0.00097587270097 -6.42954115543e-05 -2.04923191576e-05)
(-0.000984338960704 -3.68103947561e-05 -3.15510201621e-05)
(-0.000775699741116 -2.31238919572e-05 -7.32425785773e-06)
(-0.000825836468062 -4.3016145831e-05 -1.20752905991e-05)
(-0.000830855178187 -2.55379505198e-05 -1.98515841265e-05)
(-0.000687574698838 -1.61854218652e-05 -6.26802452087e-06)
(-0.000724412072321 -2.97305964485e-05 -8.08729705825e-06)
(-0.000727618917917 -1.82908116286e-05 -1.4341802676e-05)
(-0.000617031115174 -1.20571442261e-05 -7.00681442423e-06)
(-0.000648371134173 -2.17021750932e-05 -7.18163601749e-06)
(-0.000650736928336 -1.37846447128e-05 -1.35789325949e-05)
(-0.000550984479827 -9.60257416362e-06 -8.72935960675e-06)
(-0.000582041789153 -1.69707258933e-05 -8.29894422951e-06)
(-0.000583967955211 -1.1061811616e-05 -1.60613251892e-05)
(-0.000482788839419 -8.13403696482e-06 -1.05778450074e-05)
(-0.000516049997123 -1.41510048469e-05 -1.0133353345e-05)
(-0.000517592255552 -9.43293240601e-06 -1.99551636918e-05)
(-0.000411381408092 -7.23643991546e-06 -1.19077304206e-05)
(-0.000446715528437 -1.25592110179e-05 -1.17251848354e-05)
(-0.000447780373847 -8.48271100934e-06 -2.3152810093e-05)
(-0.000338450330419 -6.84964023055e-06 -1.23583299924e-05)
(-0.00037505928651 -1.15777363407e-05 -1.24556989505e-05)
(-0.000375513151595 -7.88529205169e-06 -2.48963510403e-05)
(-0.000265820344237 -6.81567496327e-06 -1.20845272536e-05)
(-0.000302829373228 -1.13931640525e-05 -1.22894703188e-05)
(-0.000302682483766 -7.79087070596e-06 -2.49306723626e-05)
(-0.000195270520148 -6.93597078967e-06 -1.11425705309e-05)
(-0.00023170026726 -1.1472780064e-05 -1.17965463294e-05)
(-0.000230967444776 -7.80828453972e-06 -2.38110636663e-05)
(-0.00012955123451 -7.30325048283e-06 -9.33668952324e-06)
(-0.000163786927033 -1.19465037805e-05 -1.04950492645e-05)
(-0.00016247806778 -8.15818550122e-06 -2.09218112184e-05)
(-7.11048083211e-05 -7.85244790646e-06 -7.2095470214e-06)
(-0.000101802499213 -1.27950255419e-05 -8.33265379392e-06)
(-0.000100199927718 -8.63664419462e-06 -1.64362670798e-05)
(-1.91929886686e-05 -8.46606092355e-06 -5.4394030087e-06)
(-4.67374157403e-05 -1.37140576693e-05 -6.42288683867e-06)
(-4.52184610548e-05 -9.14188858167e-06 -1.22491320208e-05)
(2.84957983171e-05 -9.01871034403e-06 -4.09260879023e-06)
(3.38702183635e-06 -1.48289549356e-05 -5.132920835e-06)
(4.65639303589e-06 -9.72363018229e-06 -9.02185820944e-06)
(7.29764463134e-05 -9.33882883769e-06 -2.85123359443e-06)
(5.00641183633e-05 -1.56435601412e-05 -4.21083650874e-06)
(5.10840246237e-05 -1.01648192332e-05 -6.60235665739e-06)
(0.000112846579828 -9.25731169664e-06 -8.68132970985e-07)
(9.32937834974e-05 -1.5895949662e-05 -2.96739616275e-06)
(9.42956742808e-05 -1.02696781824e-05 -4.04396291183e-06)
(0.000142182727741 -8.9717212489e-06 1.68179003624e-06)
(0.000130345859879 -1.53275988473e-05 -2.45988995341e-07)
(0.000131368754887 -1.00098866366e-05 6.55291132346e-07)
(0.000160573350346 -8.57348741039e-06 4.431195977e-06)
(0.000155257278972 -1.48746126027e-05 2.59841060108e-06)
(0.000156272019483 -9.63812596024e-06 5.67547521113e-06)
(0.000165449649334 -8.09300754008e-06 7.51239399583e-06)
(0.000166349003898 -1.38357389812e-05 5.76789020617e-06)
(0.000167471091805 -9.20847284219e-06 1.1393976015e-05)
(0.000156905036193 -7.51875228765e-06 1.01185917477e-05)
(0.000164525666208 -1.30652116672e-05 9.02087889936e-06)
(0.000165505553189 -8.88072863361e-06 1.7334067651e-05)
(0.000137443252405 -6.84730771067e-06 1.2488429071e-05)
(0.000150044751337 -1.17922781881e-05 1.12577946942e-05)
(0.000150772669455 -8.11041140087e-06 2.15199395581e-05)
(0.000105785786296 -6.52719186156e-06 1.54008710805e-05)
(0.000124394748346 -1.0775317331e-05 1.41933286536e-05)
(0.000124936170393 -7.62827382929e-06 2.66008485875e-05)
(6.2010024419e-05 -7.22533970928e-06 2.0230621845e-05)
(8.69837162682e-05 -1.05083520681e-05 1.76279529374e-05)
(8.72770466075e-05 -7.83696830301e-06 3.23923081447e-05)
(3.65454169273e-05 -1.19724961618e-05 2.31836373511e-05)
(3.8852369004e-05 -8.98759379451e-06 4.29727623902e-05)
(0.00274464373854 0.00181114235315 -0.00208073821459)
(0.0012484057251 0.00254045310256 -0.00178323944638)
(0.00158252652144 0.00201330491998 -0.00302722297698)
(0.00545008510498 0.00300072495323 -0.00260024384887)
(0.00483530619611 0.00355926421748 -0.00266450537793)
(0.00478566866392 0.00299612316313 -0.00385067319953)
(0.00564893785708 0.00490290032847 -0.00280830359407)
(0.00679630417179 0.00626264304601 -0.00287962309087)
(0.00638552535051 0.00514542119905 -0.00414314456661)
(0.00311497494939 0.00638319157389 -0.00289205442974)
(0.00526961975271 0.00887699454182 -0.00285600324566)
(0.00491801161442 0.00720901456292 -0.00415782079424)
(-0.00079231866253 0.00693280291461 -0.00288861084456)
(0.00147561414645 0.0102838145134 -0.00287896966942)
(0.00133907913874 0.00831843103547 -0.00418667971751)
(-0.00496372797112 0.00646483628149 -0.00273948106016)
(-0.00304436530267 0.0103323622106 -0.00279632065962)
(-0.00295542183552 0.00834596106561 -0.00406210215745)
(-0.00825565381453 0.00504082294961 -0.00247222101342)
(-0.0073341086163 0.00897175121796 -0.00260822448095)
(-0.00701057130124 0.00725689581368 -0.00378245646117)
(-0.00952750996833 0.00306341597484 -0.00208500695134)
(-0.00991026510397 0.00639447929884 -0.00238635065013)
(-0.00944733963872 0.00522085217527 -0.00341270298685)
(-0.008712827595 0.00128787599047 -0.00158671901024)
(-0.00990835630297 0.00346724066083 -0.0020200995262)
(-0.0095352870725 0.00290990973305 -0.0028401694693)
(-0.00687489774598 0.000218054322289 -0.00107925535249)
(-0.00811457247385 0.0013392126266 -0.00150283646432)
(-0.00794564457988 0.00119901711763 -0.00210280660604)
(-0.00502501461187 -0.00022989669073 -0.000669026902484)
(-0.00599420987921 0.000227590744572 -0.000977444682301)
(-0.00597672148883 0.000285506807777 -0.00138556015394)
(-0.00355295492634 -0.000338356589362 -0.000391932199975)
(-0.00421363899137 -0.000216036757162 -0.000583809271563)
(-0.00426388333642 -0.000101030094804 -0.000841360400631)
(-0.00251030009592 -0.0003050034326 -0.000221725955701)
(-0.00292749608403 -0.00031850466012 -0.00033320423979)
(-0.00299230822765 -0.000209394883534 -0.000487436079462)
(-0.00181597348379 -0.000231859154912 -0.000122957797057)
(-0.00207310462707 -0.000286553970308 -0.000185172970418)
(-0.00212972407204 -0.000200763210364 -0.000273764156798)
(-0.0013659783665 -0.000162391858768 -6.88571567362e-05)
(-0.00152410667602 -0.000217479482297 -0.000102428112509)
(-0.00156674120179 -0.000156805200967 -0.000154574157441)
(-0.00107706708275 -0.000110040278685 -3.88134200014e-05)
(-0.00117580715248 -0.000153265058785 -5.77119202461e-05)
(-0.00120571903219 -0.000112316189833 -8.87484380809e-05)
(-0.00089178190661 -7.42984468368e-05 -2.18452737867e-05)
(-0.000954384245936 -0.00010546954211 -3.28653699516e-05)
(-0.000975176550914 -7.80673451564e-05 -5.14786268384e-05)
(-0.000770346069278 -5.09741529046e-05 -1.28383297996e-05)
(-0.000811831875212 -7.29444269043e-05 -1.92100014552e-05)
(-0.00082672645182 -5.41336069986e-05 -3.0799668215e-05)
(-0.000684839815892 -3.63374848012e-05 -9.00090855486e-06)
(-0.000715401049078 -5.18042567652e-05 -1.24732788786e-05)
(-0.000726727058424 -3.8426902971e-05 -2.06890718287e-05)
(-0.00061582629603 -2.74114077666e-05 -8.47376582277e-06)
(-0.000642536126456 -3.85089565445e-05 -1.03058382657e-05)
(-0.000651789959218 -2.84693757028e-05 -1.77089268154e-05)
(-0.000550647376197 -2.20361050696e-05 -9.70293796779e-06)
(-0.000578067777894 -3.03294464907e-05 -1.08567191213e-05)
(-0.000586023358834 -2.23150032482e-05 -1.92389782594e-05)
(-0.000482970976505 -1.88786072297e-05 -1.12806931731e-05)
(-0.000513135135832 -2.53419186144e-05 -1.24802859989e-05)
(-0.000520032851356 -1.86177797514e-05 -2.26550366822e-05)
(-0.00041177913898 -1.70865975964e-05 -1.22731533653e-05)
(-0.000444458578715 -2.25404641569e-05 -1.38188644328e-05)
(-0.000450317455583 -1.65928741411e-05 -2.56223455376e-05)
(-0.000338983547352 -1.62917701375e-05 -1.23868392768e-05)
(-0.000373342512396 -2.10193677267e-05 -1.43070909924e-05)
(-0.000378185323935 -1.55074669019e-05 -2.69641454962e-05)
(-0.000266951754262 -1.6242898357e-05 -1.20014893946e-05)
(-0.000301686901834 -2.06455240497e-05 -1.40029126804e-05)
(-0.000305663056817 -1.53019555663e-05 -2.67719261431e-05)
(-0.000196710219124 -1.67141778344e-05 -1.1149025063e-05)
(-0.000231072670522 -2.09049232657e-05 -1.34946379832e-05)
(-0.000234218778095 -1.55760880882e-05 -2.56972241015e-05)
(-0.000131011561303 -1.77394828238e-05 -9.49101353522e-06)
(-0.000163608418111 -2.18757693465e-05 -1.22848061207e-05)
(-0.000165905748 -1.6376410608e-05 -2.29284905341e-05)
(-7.25819843973e-05 -1.90120872207e-05 -7.54599361118e-06)
(-0.000101932446632 -2.34258471254e-05 -1.02164687349e-05)
(-0.000103697931801 -1.75433058856e-05 -1.85918361577e-05)
(-2.07710307512e-05 -2.04094734104e-05 -6.11640466497e-06)
(-4.70632188663e-05 -2.4980542274e-05 -8.50942410563e-06)
(-4.86518923689e-05 -1.8732789535e-05 -1.46460489198e-05)
(2.72394018451e-05 -2.16997076426e-05 -5.25114855351e-06)
(3.09474845199e-06 -2.67643683945e-05 -7.58464677453e-06)
(1.55151254387e-06 -2.00715150759e-05 -1.20759536347e-05)
(7.2420241906e-05 -2.2379362022e-05 -4.32699907707e-06)
(5.02005283672e-05 -2.79310756953e-05 -7.02475860203e-06)
(4.87691150557e-05 -2.09946113616e-05 -1.03081668493e-05)
(0.000113056235968 -2.21576612494e-05 -2.34525218711e-06)
(9.41237435847e-05 -2.8233747162e-05 -5.87282047937e-06)
(9.3104672698e-05 -2.11910405273e-05 -7.98466091751e-06)
(0.000142879861034 -2.15142213976e-05 6.70631569496e-07)
(0.000131544616576 -2.72907006086e-05 -3.03522811714e-06)
(0.000131068357463 -2.05276622148e-05 -2.95254451816e-06)
(0.000161541055821 -2.06229434615e-05 3.93510483024e-06)
(0.000156554289009 -2.66471421113e-05 3.26833112709e-07)
(0.000156472525659 -1.99578599697e-05 2.43845882003e-06)
(0.000166266588073 -1.94510646205e-05 7.2763751097e-06)
(0.000167569919959 -2.52039498184e-05 3.83801078125e-06)
(0.000167764769 -1.88166643929e-05 9.00209276105e-06)
(0.000157236813586 -1.81271657305e-05 1.01600818458e-05)
(0.000165460581309 -2.3749181015e-05 7.24679619635e-06)
(0.000165822307394 -1.79167734367e-05 1.51956034528e-05)
(0.000137868057737 -1.66656168823e-05 1.29626942768e-05)
(0.000150586711385 -2.21055730557e-05 9.78784866607e-06)
(0.000150849328112 -1.65403152661e-05 1.99946469636e-05)
(0.00010592471791 -1.57568986302e-05 1.64204105105e-05)
(0.000124521410499 -2.05066922433e-05 1.30857268604e-05)
(0.000124542566303 -1.54808635833e-05 2.57000423233e-05)
(6.11077985741e-05 -1.62641411335e-05 2.05809684435e-05)
(8.63882193522e-05 -2.0098938865e-05 1.66827360087e-05)
(8.65274168505e-05 -1.55589771872e-05 3.19952197498e-05)
(3.51328752395e-05 -2.12583175885e-05 2.03704356477e-05)
(3.61574897191e-05 -1.65255453057e-05 3.98350065519e-05)
(0.00320983086618 0.00418664174245 -0.00236700660971)
(0.00157074858057 0.00415665550722 -0.00184493971873)
(0.00185578037675 0.00372565933065 -0.00322113336386)
(0.00642909422157 0.00667793810618 -0.00294388461993)
(0.00599827653715 0.00614463061116 -0.00280387377618)
(0.00561157073244 0.00551881890079 -0.0041950112284)
(0.0066142851792 0.0100168863319 -0.00292732274246)
(0.00825565756248 0.0102094682581 -0.00258828714011)
(0.00733657739844 0.00889187716309 -0.00403943061405)
(0.00366898398597 0.012489514797 -0.00284291848534)
(0.00633041794321 0.013947366509 -0.00215097015346)
(0.0055921648299 0.0120101818902 -0.00359772968838)
(-0.000754100985235 0.0133688429993 -0.00278667948448)
(0.00185838916259 0.0159124613874 -0.00200400048299)
(0.0015841386993 0.0136499099709 -0.00341711207497)
(-0.0054391545825 0.0125524777748 -0.0026650640804)
(-0.00335763682929 0.0159578471609 -0.00191293443832)
(-0.00314382455807 0.0136740404885 -0.00328296571059)
(-0.00914227823462 0.0101110449564 -0.00252235411766)
(-0.00831343859511 0.0140052294563 -0.00187555164606)
(-0.00760446389377 0.012013969261 -0.00318192460441)
(-0.0105083901163 0.00666814631296 -0.00232144322499)
(-0.011298087678 0.0102786200948 -0.00200675531824)
(-0.0102910536077 0.00887925180906 -0.00320109463709)
(-0.00944052610842 0.00345314923685 -0.00193621698027)
(-0.0111667912055 0.00596143374307 -0.00201871386165)
(-0.0102870446301 0.00526618671805 -0.00302813689941)
(-0.00724644886502 0.00132531416147 -0.00140102579413)
(-0.00891522459142 0.00270210993993 -0.0016880512384)
(-0.00841393175146 0.00248253239706 -0.00245994915576)
(-0.00513811232439 0.000240174235892 -0.000892227051381)
(-0.00636146728152 0.000873201851943 -0.00116096437686)
(-0.00616956558504 0.000873620488796 -0.00169979271412)
(-0.00353871631773 -0.000189980387115 -0.000525081311378)
(-0.0043201202915 3.85716690737e-05 -0.000710899740707)
(-0.00429455318141 0.000107038550498 -0.00105431886908)
(-0.00245309770201 -0.000291884214478 -0.000296651254507)
(-0.00291503443274 -0.000247021211474 -0.000409175151964)
(-0.00295441885184 -0.00017207246644 -0.0006143040897)
(-0.00175524260781 -0.000265069396311 -0.00016464328587)
(-0.00202344627105 -0.000287698848058 -0.000229934868355)
(-0.00207498496522 -0.000226903704153 -0.000347793309694)
(-0.0013166793182 -0.000203268776987 -9.12828760189e-05)
(-0.00147240796148 -0.000241712527445 -0.000127737493277)
(-0.00151727652819 -0.000197209551265 -0.000195059070378)
(-0.0010414847046 -0.000145281001939 -5.17638701963e-05)
(-0.00113442525097 -0.000179393096055 -7.20889235338e-05)
(-0.00116813357085 -0.000148778906847 -0.000111479834637)
(-0.000867382853395 -0.000101789337555 -3.02300976201e-05)
(-0.000924773883035 -0.00012713350507 -4.20483951289e-05)
(-0.000948793446472 -0.00010627213479 -6.53975759645e-05)
(-0.000753688692349 -7.20779632015e-05 -1.88449505342e-05)
(-0.000791553390843 -8.95708207303e-05 -2.58217907975e-05)
(-0.000808774816434 -7.50441541121e-05 -4.02311214013e-05)
(-0.000673282495695 -5.26763563637e-05 -1.37782085895e-05)
(-0.000701608489697 -6.43518324678e-05 -1.7701109732e-05)
(-0.000714525270559 -5.38225154457e-05 -2.7665501298e-05)
(-0.000607507815856 -4.03595160956e-05 -1.26887915643e-05)
(-0.000633025087714 -4.79110085506e-05 -1.48384635135e-05)
(-0.000643342162774 -3.99292003639e-05 -2.34945737008e-05)
(-0.000544399822626 -3.27086217296e-05 -1.36340671524e-05)
(-0.000571281237642 -3.74881720861e-05 -1.49998380195e-05)
(-0.000579932438563 -3.10993774944e-05 -2.44037931204e-05)
(-0.000477969665444 -2.81577895817e-05 -1.50184572587e-05)
(-0.000508091824078 -3.10504914056e-05 -1.64223855618e-05)
(-0.000515414360076 -2.56858026336e-05 -2.75144780681e-05)
(-0.000407726803621 -2.56744160434e-05 -1.58528020599e-05)
(-0.000440582022266 -2.74223303322e-05 -1.7591037099e-05)
(-0.000446653850523 -2.27154598667e-05 -3.02474357401e-05)
(-0.000335672403753 -2.45955985713e-05 -1.59231643959e-05)
(-0.000370293107501 -2.56202300329e-05 -1.79951187407e-05)
(-0.000375207491546 -2.12940441844e-05 -3.14345411594e-05)
(-0.000264228968746 -2.4552785458e-05 -1.5496061269e-05)
(-0.000299351657005 -2.51226235991e-05 -1.76904938034e-05)
(-0.000303317244381 -2.09804369615e-05 -3.12533162726e-05)
(-0.000194531608351 -2.53408611439e-05 -1.46304190408e-05)
(-0.00022936930099 -2.56547165688e-05 -1.71464554352e-05)
(-0.000232441562148 -2.1470703957e-05 -3.01078931755e-05)
(-0.000129197601656 -2.68582950463e-05 -1.30102613204e-05)
(-0.000162438336053 -2.7050418388e-05 -1.60472046225e-05)
(-0.000164610166144 -2.27068631844e-05 -2.75012478859e-05)
(-7.13274763779e-05 -2.86930603373e-05 -1.11798992294e-05)
(-0.000101114770123 -2.90757959834e-05 -1.40551561175e-05)
(-0.000102744119692 -2.4429530984e-05 -2.3293441172e-05)
(-1.96376048841e-05 -3.0615671758e-05 -9.97766621519e-06)
(-4.64856562898e-05 -3.11989237535e-05 -1.25729120318e-05)
(-4.79691226575e-05 -2.61978984134e-05 -1.9633990168e-05)
(2.83681868459e-05 -3.2265173545e-05 -9.35825682305e-06)
(3.64720190112e-06 -3.3348414424e-05 -1.18730014497e-05)
(2.15173231806e-06 -2.80379185723e-05 -1.74252513612e-05)
(7.3972652146e-05 -3.30553430163e-05 -8.57058000433e-06)
(5.10797935094e-05 -3.46980969973e-05 -1.15358333615e-05)
(4.96615313899e-05 -2.9209302448e-05 -1.60405785443e-05)
(0.000114944751975 -3.27007493964e-05 -6.56279640939e-06)
(9.55158370997e-05 -3.49557180554e-05 -1.03839971251e-05)
(9.45070984718e-05 -2.93960951816e-05 -1.37685192042e-05)
(0.000145403262723 -3.1801923196e-05 -3.37902657392e-06)
(0.000133086369161 -3.39081800443e-05 -7.46032898585e-06)
(0.000132618118716 -2.84881946737e-05 -8.61551642328e-06)
(0.000163151804894 -3.05779880809e-05 2.29739063719e-07)
(0.000158033396526 -3.29368334444e-05 -3.8756346881e-06)
(0.000157993099473 -2.77376679001e-05 -2.58795642094e-06)
(0.000167512278819 -2.89422093908e-05 3.8084318679e-06)
(0.000168918835903 -3.11188142955e-05 -7.40875613917e-08)
(0.000169122066344 -2.61610225541e-05 3.73132809774e-06)
(0.000158268175208 -2.72623309085e-05 6.87456301662e-06)
(0.000166454172487 -2.93926360833e-05 3.52783567353e-06)
(0.000166735365833 -2.46451633649e-05 1.02622607918e-05)
(0.000138132578062 -2.55195746575e-05 9.91088124972e-06)
(0.000151189617078 -2.75512992902e-05 6.35207653505e-06)
(0.00015125598905 -2.31194300262e-05 1.55104769099e-05)
(0.000105511130284 -2.4387536926e-05 1.33480523586e-05)
(0.0001246480656 -2.56400571028e-05 9.75720003684e-06)
(0.0001242350723 -2.1786272799e-05 2.14410030149e-05)
(5.99197980169e-05 -2.44302649769e-05 1.64722032129e-05)
(8.57788902045e-05 -2.48078774084e-05 1.31854226715e-05)
(8.53134448928e-05 -2.18211538597e-05 2.7500540974e-05)
(3.47321222008e-05 -2.43605170437e-05 1.60768650472e-05)
(3.46107079777e-05 -2.2503648548e-05 3.3057026451e-05)
(0.00419015965335 0.00605026624966 -0.00228180688519)
(0.00218515126177 0.00532711177441 -0.00185339024515)
(0.00245865366435 0.00510006137971 -0.0032655510447)
(0.00813556805993 0.00955728070973 -0.00244827629636)
(0.0077428645354 0.00801363995023 -0.00252542348963)
(0.00705930506984 0.00748248295031 -0.0038417258052)
(0.00820347225656 0.0139297844185 -0.00181193455111)
(0.0103213141458 0.0129323628222 -0.00154419277547)
(0.00894963403635 0.011689146186 -0.00275685536713)
(0.0045604365945 0.0170840265343 -0.00131205215111)
(0.00781894632165 0.0172737459618 -0.000437968965862)
(0.00672348254911 0.0154635014856 -0.00150486795099)
(-0.000721771973041 0.0181874113849 -0.00113025543684)
(0.00238690816068 0.0195323307367 -1.386098168e-06)
(0.00197960384549 0.0174181919934 -0.000978769692094)
(-0.00626220755598 0.0171251429378 -0.00112342200398)
(-0.00383033501365 0.0195744190515 9.0052791933e-05)
(-0.0034909335647 0.0174353605714 -0.000846357779435)
(-0.0106459207005 0.0139633465125 -0.00135995284663)
(-0.00972973898749 0.017284184265 -0.000159541684359)
(-0.00865830779425 0.0154131309762 -0.00108710241102)
(-0.0122116130657 0.00945714120076 -0.0017040259549)
(-0.0132743829669 0.0129076820486 -0.000897238045778)
(-0.0117729917552 0.0115600465722 -0.00184622214895)
(-0.0107848213953 0.00517146190309 -0.00177054811979)
(-0.0130110673297 0.00773230436358 -0.00156825764497)
(-0.011672397166 0.00704647851629 -0.00248427592859)
(-0.00802390312885 0.0022504757277 -0.00144798982114)
(-0.0101490957904 0.00374071660834 -0.00163493890302)
(-0.00934540607586 0.00349412260248 -0.00241907772841)
(-0.0054846801984 0.000679963182461 -0.000979637066191)
(-0.00699907206346 0.00142147076573 -0.00122693595929)
(-0.00664468450863 0.00137836036188 -0.00181789316801)
(-0.003638750246 -1.1128990054e-05 -0.000594993581293)
(-0.00457505225028 0.000291985097453 -0.000784305101788)
(-0.00447458323657 0.000320416516373 -0.00117639069393)
(-0.00244572148416 -0.000234540843273 -0.000342458765813)
(-0.00297414837373 -0.000142120049099 -0.000460920412598)
(-0.00298353979807 -0.000101483724048 -0.000701426864734)
(-0.00171408419859 -0.000257765433801 -0.000193029075763)
(-0.0020053737719 -0.000250861603545 -0.000261374371247)
(-0.00204617348703 -0.000216650368008 -0.000402666522589)
(-0.00127336189662 -0.000213211754439 -0.000108543540792)
(-0.00143355771646 -0.000233726030414 -0.000147500733395)
(-0.00147539206995 -0.000208125792836 -0.000228358075377)
(-0.00100697958508 -0.000158208743404 -6.23734484664e-05)
(-0.00109745869211 -0.00018178044193 -8.35671441373e-05)
(-0.00113098068904 -0.000163554588583 -0.000130814279259)
(-0.00084277059126 -0.000112988080838 -3.76400883063e-05)
(-0.000896479164741 -0.000131635982313 -4.93748577695e-05)
(-0.00092090551594 -0.000119020311897 -7.76124780889e-05)
(-0.000736898256052 -8.06734917782e-05 -2.46779499953e-05)
(-0.000771712650221 -9.36685627122e-05 -3.12367337322e-05)
(-0.000789241078269 -8.4611726039e-05 -4.8848649221e-05)
(-0.00066189917649 -5.88987928321e-05 -1.87613646559e-05)
(-0.00068810861311 -6.7388600645e-05 -2.21523005061e-05)
(-0.000701158942112 -6.05513942816e-05 -3.4472491453e-05)
(-0.000599722101806 -4.46668242775e-05 -1.71495099687e-05)
(-0.00062387962173 -4.97988935956e-05 -1.86357763259e-05)
(-0.000634175913895 -4.44183116017e-05 -2.92096238232e-05)
(-0.000538995225077 -3.56482549437e-05 -1.77881564289e-05)
(-0.000565049881921 -3.83846681032e-05 -1.84324427679e-05)
(-0.000573542993049 -3.39445002312e-05 -2.94750643426e-05)
(-0.000474181170659 -3.02439110299e-05 -1.89949654021e-05)
(-0.000503819220283 -3.12745422078e-05 -1.96312677569e-05)
(-0.000510872620787 -2.74529416998e-05 -3.21904438029e-05)
(-0.000405010200701 -2.73533026769e-05 -1.97333537798e-05)
(-0.000437660443041 -2.72676279202e-05 -2.07103133662e-05)
(-0.000443372496869 -2.38711677667e-05 -3.4747480882e-05)
(-0.00033379617778 -2.61542053832e-05 -1.97624481482e-05)
(-0.000368302002903 -2.53936359243e-05 -2.10655871241e-05)
(-0.000372792730994 -2.22657844345e-05 -3.58412403831e-05)
(-0.00026298467477 -2.62184378983e-05 -1.93408879696e-05)
(-0.000298113502887 -2.49051596625e-05 -2.07611470552e-05)
(-0.000301608805076 -2.19187496692e-05 -3.56314379136e-05)
(-0.000193843611711 -2.73192439984e-05 -1.85632410169e-05)
(-0.000228778399565 -2.5640513419e-05 -2.02714594619e-05)
(-0.000231351959352 -2.26362098773e-05 -3.45933971262e-05)
(-0.000128913935013 -2.91990351295e-05 -1.70920994197e-05)
(-0.000162332229682 -2.73022541247e-05 -1.93323657336e-05)
(-0.000163995740505 -2.42147163379e-05 -3.22216643208e-05)
(-7.12926315439e-05 -3.14654993756e-05 -1.544816892e-05)
(-0.000101317977674 -2.96121982581e-05 -1.75153113873e-05)
(-0.000102455671589 -2.63260543176e-05 -2.82823976918e-05)
(-1.96440976857e-05 -3.37572476485e-05 -1.44682472663e-05)
(-4.6818277005e-05 -3.20597954615e-05 -1.62710707576e-05)
(-4.78707383019e-05 -2.85709238149e-05 -2.4970637679e-05)
(2.85895965172e-05 -3.55815390388e-05 -1.40505779881e-05)
(3.46103741312e-06 -3.43542252503e-05 -1.5795671565e-05)
(2.31958133987e-06 -3.06913743663e-05 -2.3117179886e-05)
(7.47142175398e-05 -3.6384744099e-05 -1.33492504822e-05)
(5.13525014648e-05 -3.575244165e-05 -1.56146855338e-05)
(5.02282410187e-05 -3.19868256167e-05 -2.20129889e-05)
(0.000116103088045 -3.59585313397e-05 -1.12815297015e-05)
(9.63800841147e-05 -3.59138130896e-05 -1.4434974745e-05)
(9.56247286979e-05 -3.21054997814e-05 -1.97403607958e-05)
(0.000146870348238 -3.48713521998e-05 -7.95693710002e-06)
(0.0001342165908 -3.4848053007e-05 -1.14051542407e-05)
(0.000133953989717 -3.11091550219e-05 -1.44470430451e-05)
(0.00016442892938 -3.33596701276e-05 -4.17946131321e-06)
(0.000159245366908 -3.36319419953e-05 -7.63543872758e-06)
(0.000159352384862 -3.00446871569e-05 -8.08712384071e-06)
(0.000168540086158 -3.14781382367e-05 -3.5468375576e-07)
(0.000170114800818 -3.16661151396e-05 -3.69709703613e-06)
(0.000170441267955 -2.82965908046e-05 -1.51119919444e-06)
(0.000159310581032 -2.96121715716e-05 3.00534919196e-06)
(0.000167435230586 -2.97598275217e-05 2.16432027284e-07)
(0.000167757163957 -2.64400833224e-05 4.97902454435e-06)
(0.000138723081126 -2.76628265779e-05 6.19839532216e-06)
(0.000152004205122 -2.78812172764e-05 3.27987722705e-06)
(0.000151912998232 -2.47937676122e-05 1.06209221903e-05)
(0.000105559152797 -2.61419886811e-05 9.59457034974e-06)
(0.000125242063352 -2.57795246928e-05 6.72806123325e-06)
(0.000124412038442 -2.32510087665e-05 1.67186090477e-05)
(5.98301916108e-05 -2.49154063555e-05 1.27900845058e-05)
(8.62203444765e-05 -2.45808484405e-05 1.01509971819e-05)
(8.50180037064e-05 -2.28958425603e-05 2.26335390029e-05)
(3.51815612616e-05 -2.25546891276e-05 1.38479897687e-05)
(3.42291502099e-05 -2.23931015201e-05 2.81042095213e-05)
(0.00554030801097 0.00718084010813 -0.00209700684958)
(0.00297713056758 0.00586447386115 -0.00187940393284)
(0.00327929516323 0.00594335766855 -0.00330753037452)
(0.0103287286914 0.0112133950572 -0.00162133996875)
(0.0098006979625 0.00881518083399 -0.00210912728608)
(0.00890766009925 0.00859906928153 -0.00319576269651)
(0.0101966497806 0.0160320560314 -0.00017022719022)
(0.0126870980331 0.0139414941871 -0.000240266455073)
(0.0109713215601 0.0131253267269 -0.000943099345856)
(0.00567659125481 0.0194374112532 0.000872697087084)
(0.00950704086321 0.0182634779672 0.00158920509016)
(0.00814004195769 0.0170811264544 0.00127029330838)
(-0.000697071552509 0.0206222292312 0.0012189221306)
(0.00297874622443 0.0205098327242 0.00232437546653)
(0.00247262627123 0.0191151573586 0.00220932854901)
(-0.00732353062657 0.0194514516058 0.00105393311155)
(-0.00437781302216 0.0205525375823 0.00241063851373)
(-0.00395084858544 0.019127430127 0.00233511204612)
(-0.0125495782166 0.015988920125 0.000303173116493)
(-0.0113545498141 0.018240822061 0.00184898516919)
(-0.0100106678298 0.0169773903669 0.00165638663828)
(-0.0143856877351 0.01101298201 -0.000761469735851)
(-0.0155320340872 0.0138201725735 0.000447617909247)
(-0.0136546183444 0.0128781609525 5.5618666801e-06)
(-0.0125521535357 0.00620698986267 -0.00143264842821)
(-0.0151663678914 0.00846277025622 -0.000976650808368)
(-0.0134656360095 0.00800206335315 -0.00164723976178)
(-0.00910430984874 0.00286936808837 -0.00141388504118)
(-0.0116343901557 0.00425146877557 -0.00151418740472)
(-0.0105955479092 0.00410042958777 -0.0022346844808)
(-0.00601362012279 0.00101825109068 -0.00103160399489)
(-0.00781149451662 0.00174575867806 -0.0012596416191)
(-0.00732907332951 0.00172478460488 -0.00186964496112)
(-0.00384056941619 0.000158003709413 -0.000650231933093)
(-0.00493612712427 0.000477398419967 -0.000843309899323)
(-0.00477524879023 0.00049890390652 -0.00127195081825)
(-0.00248851434796 -0.000156238493602 -0.000379836018032)
(-0.00309108888712 -4.20989313911e-05 -0.000505356554539)