/*--------------------------------*- C++ -*----------------------------------*\
| =========                 |                                                 |
| \\      /  F ield         | OpenFOAM: The Open Source CFD Toolbox           |
|  \\    /   O peration     | Version:  3.0.1                                 |
|   \\  /    A nd           | Web:      www.OpenFOAM.org                      |
|    \\/     M anipulation  |                                                 |
\*---------------------------------------------------------------------------*/
FoamFile
{
    version     2.0;
    format      ascii;
    class       volScalarField;
    location    "1.3";
    object      epsilon;
}
// * * * * * * * * * * * * * * * * * * * * * * * * * * * * * * * * * * * * * //

dimensions      [0 2 -3 0 0 0 0];

internalField   nonuniform List<scalar> 
7968
(
0.0064632604421
0.00689324706518
0.00717006498472
0.00729540168949
0.00734350936921
0.00735873284469
0.00736117845279
0.00735921603105
0.00735627065134
0.0073541700812
0.00735453499666
0.00735712893991
0.00736030622143
0.00736235866062
0.00735991261789
0.00734460434025
0.00729632236257
0.00717073595697
0.00689367621722
0.00646337562731
0.0068932808507
0.00940954066191
0.0110081854843
0.0117987219523
0.0121375546015
0.0122562891815
0.0122832266806
0.0122804912218
0.0122739402013
0.0122706644445
0.0122711694999
0.0122754045292
0.0122827589544
0.0122860795736
0.0122594771204
0.0121407803612
0.0118015404004
0.0110103344542
0.0094108682425
0.00689357989663
0.007170311624
0.0110086013714
0.0136352858122
0.0150354520353
0.0156847336504
0.0159342119571
0.0160009828288
0.016004084291
0.0159964964658
0.0159928082763
0.0159934230837
0.015998245177
0.0160068871126
0.0160046009313
0.0159383378612
0.0156887752884
0.0150389445116
0.0136378872901
0.0110100476928
0.00717063111985
0.007295726313
0.011799506151
0.0150357077314
0.0168371050451
0.0177009272086
0.0180342442416
0.0181173322211
0.0181137096232
0.0180991110191
0.0180929276878
0.0180936091205
0.018101023421
0.0181167684877
0.0181213757413
0.0180388417603
0.0177054417971
0.0168410135322
0.0150385626331
0.0118010479912
0.00729603525763
0.00734388920263
0.012138077372
0.0156850992133
0.0177008395081
0.0186680935323
0.0190268598068
0.0191417699656
0.0191705771147
0.0191672049469
0.0191626029307
0.0191631215463
0.019168637482
0.0191728190975
0.0191446797167
0.0190320297902
0.0186733174345
0.0177052914177
0.0156883152931
0.0121397742761
0.00734420182757
0.00735911609082
0.0122568746544
0.0159343325931
0.0180338666446
0.0190264656877
0.019470841471
0.0196261888184
0.0196495375814
0.0196392786945
0.0196313807414
0.0196319598945
0.0196409385654
0.0196521658205
0.0196294760911
0.0194744724233
0.0190324512121
0.018039142788
0.0159381501857
0.0122590308168
0.00735948363397
0.00736153310075
0.0122834444867
0.0160005133248
0.0181162164328
0.0191413807496
0.0196258064414
0.0197711049999
0.0197777921221
0.0197558179202
0.0197426390474
0.0197433314489
0.0197578470201
0.0197810710573
0.0197752036634
0.0196299560826
0.0191451680382
0.0181225051985
0.0160051022463
0.01228600393
0.00736200131413
0.00735947577716
0.0122801984979
0.0160028170062
0.0181114634013
0.0191695732179
0.0196484117147
0.0197769594297
0.0197662886219
0.0197317728737
0.0197123996781
0.0197132904278
0.0197343620355
0.0197703355513
0.0197819329711
0.0196534152324
0.0191739727148
0.0181189317365
0.0160082301749
0.0122832686016
0.00736005523602
0.00735634971564
0.0122730198425
0.0159943160744
0.0180958129816
0.0191654606199
0.0196373569582
0.0197539940371
0.0197305651036
0.0196857058521
0.0196601097585
0.0196612211155
0.0196890041045
0.0197354490747
0.0197596603952
0.0196429999613
0.0191705050991
0.0181042276599
0.0160004078672
0.0122764804689
0.0073570342324
0.00735392526783
0.0122691157652
0.0159898236373
0.018088700272
0.0191602434209
0.0196287243746
0.0197398619798
0.0197098691134
0.0196584324952
0.0196278734201
0.0196293551397
0.0196621932961
0.0197152242158
0.0197458756572
0.0196346468542
0.0191655415663
0.0180974965697
0.0159962737298
0.0122727934978
0.00735467822966
0.00735390363343
0.0122691069696
0.0159897987641
0.0180886311218
0.0191601981653
0.0196286625337
0.0197397760843
0.0197097410227
0.0196582363402
0.0196276178218
0.0196290908005
0.019661997832
0.0197151096007
0.0197458014251
0.0196345861648
0.0191654748959
0.018097367255
0.0159961579934
0.012272716674
0.00735460881806
0.00735630100017
0.012272995762
0.0159942430025
0.0180956100559
0.0191653382586
0.0196371943034
0.0197537472459
0.0197302107197
0.0196852392445
0.0196595740977
0.0196606527199
0.0196885395022
0.0197351197707
0.0197594220661
0.0196428011189
0.0191703016901
0.0181038052655
0.0160000975977
0.0122762624078
0.00735687513345
0.00735941685744
0.012280174108
0.0160027071352
0.018111160921
0.019169387603
0.0196481654604
0.0197766087464
0.0197657942732
0.0197311756579
0.0197117668255
0.0197126481763
0.0197337939965
0.0197698767113
0.019781563232
0.0196530905381
0.0191736415693
0.0181182749649
0.0160077529034
0.0122829307063
0.00735985196854
0.00736149318898
0.0122834464421
0.0160004535771
0.0181158637345
0.0191411684049
0.0196255413659
0.0197707087859
0.0197772684489
0.019755209329
0.0197420158001
0.019742711206
0.0197572675421
0.0197805575232
0.0197747455312
0.0196295288457
0.0191447211166
0.0181216838403
0.0160045469721
0.0122856242231
0.00736178818169
0.00735909778053
0.0122570059754
0.0159343674149
0.0180336554633
0.0190259019824
0.0194705436372
0.0196258019701
0.0196490424142
0.0196387157435
0.0196307939099
0.0196313721692
0.0196403726604
0.0196516316056
0.0196289696955
0.0194739357019
0.0190313460623
0.0180382945918
0.0159375833109
0.0122586412556
0.0073592838143
0.00734389654489
0.0121382410497
0.015685308065
0.0177008059144
0.0186677094264
0.0190262082131
0.0191413952332
0.0191700938618
0.0191666440952
0.0191620001897
0.0191625005235
0.0191680266903
0.0191722287893
0.0191440940455
0.0190307635092
0.0186722728875
0.0177045374942
0.0156878078053
0.0121394184137
0.00734401360772
0.00729575564177
0.01179975784
0.015036050217
0.016837303778
0.0177007830186
0.0180337973219
0.0181166094572
0.0181126767091
0.0180978925687
0.0180915922365
0.018092217737
0.0180996474262
0.0181154496044
0.018120189743
0.0180378256653
0.0177046352451
0.0168404283218
0.0150381280753
0.0118006850038
0.00729585631512
0.0071703457837
0.011008928972
0.0136357270611
0.0150358087137
0.0156848487216
0.0159341076238
0.0160006014564
0.01600349412
0.0159957355054
0.0159919427967
0.0159924976821
0.0159973314976
0.0160060180928
0.0160038274777
0.0159376744515
0.015688256091
0.0150385355204
0.0136375729046
0.011009745693
0.00717046770232
0.00689337468458
0.00940994103118
0.0110086394134
0.0117990977837
0.0121377580583
0.0122563296494
0.0122831267973
0.0122802356858
0.0122735735901
0.0122702161566
0.0122706857339
0.0122749259283
0.0122823140769
0.0122856857181
0.012259146306
0.0121404809673
0.0118013487513
0.011010174748
0.00941062860228
0.00689347189414
0.00646327940549
0.00689334724306
0.00717017096208
0.0072954846176
0.00734355108898
0.00735873595686
0.00736113532033
0.00735912111293
0.00735612681966
0.00735396904302
0.00735429666512
0.00735689706886
0.0073600929528
0.00736216567817
0.00735974278761
0.00734446237909
0.00729620934727
0.00717064484148
0.00689356958808
0.0064632967432
0.00687865556633
0.00931776065532
0.0108827132613
0.0116618397539
0.0120004680322
0.012125009777
0.0121583823556
0.0121598446032
0.0121544393141
0.0121508318897
0.012151222114
0.0121555224771
0.0121614373334
0.0121602640797
0.0121269614506
0.0120022375112
0.0116631869545
0.0108834932156
0.00931807624703
0.00687881842594
0.00931765156672
0.0103473913711
0.0116690885657
0.0123940233868
0.0127280388153
0.0128586255459
0.0128984735932
0.0129049252745
0.0129029180109
0.0129010107631
0.0129012036093
0.012903471456
0.0129057791121
0.0128995307937
0.0128597522825
0.0127290735683
0.0123948086764
0.0116695716868
0.0103477151932
0.00931802367047
0.010882923418
0.0116691552719
0.0131024525472
0.013948347219
0.0143644905149
0.0145384344651
0.0145961585247
0.0146079077492
0.0146067186284
0.0146047062286
0.0146048872807
0.0146072408051
0.0146087275674
0.0145971880589
0.0145395360012
0.0143654841123
0.0139490836719
0.0131029033827
0.0116694797991
0.0108832477664
0.0116623539687
0.0123942344002
0.0139484813951
0.0149038451996
0.0153930751411
0.0156061014766
0.0156810396299
0.0156987377665
0.0156990757849
0.0156973685333
0.0156975518057
0.0156995988575
0.0156995588789
0.0156820765721
0.0156072254312
0.0153940787215
0.0149045721912
0.0139489134395
0.0123945517884
0.0116626062999
0.0120011771588
0.0127283242348
0.0143647161885
0.0153931626689
0.0159310053353
0.0161715576504
0.0162656457306
0.0162949170364
0.0162998710532
0.016299355838
0.0162995094048
0.0163003158174
0.0162956048651
0.0162665057688
0.0161726942778
0.0159320798621
0.0153939523176
0.0143651938793
0.0127286833536
0.0120014352203
0.0121257403636
0.0128589105478
0.0145386483959
0.0156061777436
0.0161715579656
0.0164414266464
0.0165510377668
0.0165847637957
0.016590389946
0.0165896727586
0.016589839873
0.0165908746242
0.0165855146057
0.0165519293802
0.0164423604429
0.0161726976648
0.0156071193561
0.0145392679157
0.0128594018597
0.012126133474
0.0121589736571
0.0128986458145
0.0145962405376
0.0156809812098
0.0162656455953
0.0165509977552
0.0166651378934
0.0166982015708
0.0167019130966
0.016699926727
0.0167001255847
0.0167024919744
0.016699092484
0.0166661795845
0.0165519883637
0.0162665316375
0.0156821219738
0.0145970728342
0.0128993265669
0.0121596116972
0.0121601665366
0.012904904719
0.0146077707143
0.0156984383602
0.016294770768
0.0165845805501
0.0166980432559
0.0167280790248
0.0167286681655
0.01672484338
0.0167250907276
0.0167293604258
0.0167291407085
0.0166992680636
0.0165857363021
0.0162957865771
0.0156998438018
0.0146088428515
0.0129057947091
0.0121610859497
0.0121543686854
0.0129026624075
0.0146063276666
0.0156985116648
0.0162995305858
0.0165899958321
0.0167015160481
0.0167284132111
0.0167259570689
0.0167203042779
0.0167206267668
0.0167267594702
0.0167296180895
0.0167029044724
0.0165913049616
0.0163006934242
0.0157001381644
0.0146075971647
0.0129037267372
0.0121555435305
0.0121503048769
0.0129005183178
0.0146040772253
0.0156965590954
0.0162988165479
0.0165890696903
0.0166992853262
0.0167243213264
0.016720034204
0.0167131381755
0.0167134718064
0.016720934853
0.0167256269685
0.0167007740145
0.0165904679009
0.0163000663881
0.0156982924586
0.0146054480967
0.0129016733509
0.0121516254923
0.0121502903678
0.0129005154415
0.0146040660913
0.0156965426407
0.0162988088653
0.0165890649212
0.016699280692
0.0167243197669
0.0167200357105
0.0167131432611
0.016713472609
0.0167209356057
0.016725626956
0.0167007695457
0.0165904582111
0.0163000498775
0.015698258929
0.0146054133343
0.0129016437538
0.0121515692934
0.0121543292736
0.0129026524779
0.0146062946216
0.0156984634159
0.01629950872
0.0165899825451
0.0167015064324
0.0167284088194
0.0167259524622
0.0167203009791
0.0167206304072
0.0167267657571
0.0167296187845
0.0167028918989
0.0165912777491
0.0163006443447
0.01570003531
0.0146074970046
0.0129036420805
0.0121553910083
0.0121601108738
0.0129048913221
0.014607721013
0.0156983642599
0.01629473864
0.0165845629798
0.0166980294223
0.0167280730846
0.0167286626267
0.0167248371404
0.0167250901622
0.0167293616419
0.0167291338135
0.0166992420615
0.0165856889151
0.016295704956
0.0156996778449
0.0146086847935
0.0129056650131
0.0121608639885
0.0121589378993
0.012898642602
0.0145961910254
0.0156808944849
0.016265599543
0.0165509706134
0.0166651181064
0.0166981817808
0.0167018948965
0.0166999082632
0.0167001090248
0.0167024735277
0.0166990634218
0.0166661351615
0.01655191624
0.0162664074349
0.0156819036056
0.0145968722602
0.0128991673145
0.0121593578987
0.0121257433337
0.0128589343679
0.0145386165709
0.0156060973686
0.0161714478491
0.0164413731918
0.0165509961011
0.0165847193324
0.0165903435245
0.0165896257651
0.0165897911543
0.0165908211841
0.0165854503453
0.0165518468137
0.0164422295632
0.0161724456906
0.0156068571938
0.0145390365539
0.0128592233897
0.012125877152
0.0120012312675
0.0127283749989
0.014364710127
0.0153930994065
0.0159308854017
0.016171405684
0.0162655445666
0.0162948071324
0.0162997509981
0.0162992301469
0.0162993793964
0.016300181028
0.0162954618891
0.0162663399003
0.0161724052595
0.015931774238
0.0153936626295
0.0143649369344
0.0127284830063
0.0120011751421
0.0116624606956
0.0123943149449
0.0139484998226
0.014903804631
0.015392966192
0.0156059301849
0.015680816292
0.0156984626362
0.015698765442
0.0156970358596
0.0156972073071
0.0156992533009
0.0156992163109
0.0156817418309
0.0156068927539
0.0153937566641
0.014904264795
0.0139486270236
0.0123943132128
0.0116623367803
0.0108830700334
0.0116692638058
0.0131024962554
0.0139483331459
0.0143644101148
0.0145382906396
0.0145959522873
0.0146076490934
0.0146064209885
0.0146043826847
0.0146045498033
0.0146069017274
0.0146083932339
0.0145968637384
0.0145392213577
0.0143651763346
0.0139487753654
0.0131025946208
0.0116691969937
0.0108829708113
0.00931784300722
0.0103475277804
0.0116691553109
0.0123940399169
0.0127279984154
0.0128585300736
0.0128983251974
0.0129047290086
0.0129026853997
0.0129007516526
0.0129009299789
0.0129031957488
0.0129055077447
0.0128992671
0.0128594941378
0.0127288096145
0.0123945270766
0.0116692563986
0.010347383067
0.00931777162588
0.00687866375389
0.00931783660501
0.01088277584
0.0116618748686
0.0120004411454
0.0121249111439
0.0121582030041
0.0121595852247
0.0121541131676
0.0121504524936
0.0121508161732
0.0121551235242
0.0121610605035
0.0121599170258
0.0121266418842
0.0120019308645
0.0116628733185
0.010883147133
0.00931771560162
0.00687873272597
0.00714376648187
0.0108417289159
0.0133953204087
0.0147655974161
0.0154127338371
0.0156763285823
0.0157614501723
0.0157772296874
0.0157738177268
0.0157698266141
0.0157702267292
0.0157749683154
0.0157789913919
0.0157635820901
0.0156785188683
0.0154146261065
0.0147668750355
0.0133958531882
0.0108417731672
0.00714399368132
0.0108415552412
0.0116390833548
0.0130767615219
0.0139276039054
0.0143512213174
0.0145345712025
0.0146014949756
0.0146202644135
0.0146231655073
0.0146228284656
0.0146229852958
0.0146236167176
0.0146209580031
0.0146023340155
0.0145354142146
0.0143519093469
0.0139280129864
0.0130768961004
0.0116391563252
0.01084178201
0.0133954901267
0.0130767159739
0.0142701758939
0.0150529704337
0.0154684591267
0.0156591207895
0.0157332076031
0.015755760828
0.0157599629794
0.0157598463742
0.0157599581391
0.0157602874537
0.015756268107
0.0157338297717
0.0156597448891
0.0154689590224
0.0150532589503
0.0142702870076
0.0130768585547
0.013395498848
0.0147662300646
0.0139276634405
0.0150530382547
0.015838550668
0.0162734677268
0.0164816861405
0.0165667728381
0.0165946396123
0.0166008550164
0.0166012728552
0.0166013703873
0.0166011371841
0.0165950845072
0.0165673219453
0.0164822295271
0.0162738941934
0.0158387842238
0.0150531284261
0.0139278236894
0.0147660204623
0.015413691204
0.0143513845349
0.015468599566
0.0162735355741
0.0167300138965
0.0169546544743
0.0170502367786
0.0170831985428
0.0170911580772
0.0170919319579
0.0170920262753
0.0170914204291
0.0170835909846
0.0170507208111
0.0169551473164
0.0167304253381
0.0162737703077
0.0154687057939
0.0143515839684
0.0154134078275
0.0156773505543
0.0145347539958
0.0156592671602
0.0164817596875
0.0169546754038
0.0171918026841
0.0172934487109
0.0173281603484
0.0173359197727
0.017336201179
0.0173362966012
0.0173361898822
0.0173285146447
0.0172938346483
0.0171922616099
0.0169550943594
0.0164820669576
0.0156594595665
0.0145350648219
0.0156772160186
0.015762280804
0.0146015940529
0.0157332735827
0.0165667638903
0.0170501947855
0.0172934635869
0.0173966188798
0.0174300131342
0.0174357922541
0.0174347490408
0.0174348512414
0.0174360840352
0.0174303453245
0.0173968773855
0.0172938076483
0.0170507106168
0.0165672212047
0.0157336181413
0.0146020830528
0.0157624789782
0.0157776809188
0.0146202012097
0.0157556806094
0.0165944900959
0.0170830798663
0.0173281971317
0.0174300744238
0.0174605533223
0.0174634108274
0.0174605606001
0.0174606797391
0.0174637417713
0.0174608972802
0.0174302820282
0.0173284550686
0.0170836445529
0.0165951063884
0.0157561934157
0.0146208895794
0.015778292288
0.0157737701163
0.0146229016535
0.0157597161248
0.016600555922
0.0170909363256
0.0173359080691
0.0174358184369
0.0174633668605
0.0174634414097
0.0174588153712
0.0174589362674
0.0174638272605
0.0174637601904
0.0174360357334
0.0173361679513
0.0170915588923
0.016601284457
0.0157603606302
0.0146237554916
0.0157747418909
0.015769254624
0.0146223652771
0.0157594443553
0.0166008372605
0.0170916051449
0.01733608928
0.0174346607513
0.0174603670946
0.0174586269856
0.0174528643664
0.0174530264848
0.0174590187748
0.0174607670029
0.0174348766701
0.0173363537843
0.0170922497383
0.0166016192814
0.0157601538823
0.0146233029791
0.015770424969
0.0157692344652
0.0146223646272
0.0157594345808
0.0166008253267
0.017091594296
0.0173360781512
0.0174346537436
0.0174603709687
0.0174586376021
0.0174528813201
0.0174530354273
0.0174590234358
0.0174607701944
0.0174348735828
0.017336344676
0.017092234316
0.0166015963735
0.0157601280597
0.0146232792204
0.0157703584438
0.0157737071197
0.0146228966976
0.0157596860977
0.0166005203436
0.0170909093306
0.0173358879692
0.0174358085391
0.0174633735154
0.0174634608659
0.0174588481094
0.0174589600867
0.0174638398957
0.0174637632631
0.0174360256246
0.0173361410612
0.0170915118125
0.0166012149877
0.0157602847645
0.0146236871224
0.0157745524689
0.0157775861781
0.0146201932751
0.0157556322487
0.0165944313109
0.0170830366301
0.0173281676564
0.0174300562212
0.0174605525155
0.0174634236384
0.0174605795906
0.0174606975939
0.0174637508598
0.0174608916742
0.0174302552479
0.0173284050049
0.0170835628778
0.0165949891305
0.0157560717913
0.0146207855986
0.0157780050594
0.0157621885588
0.0146015914819
0.0157332148269
0.016566684283
0.017050132012
0.0172934167523
0.0173965824923
0.0174299876066
0.0174357734372
0.0174347292569
0.0174348325513
0.0174360578681
0.0174303043081
0.0173968204487
0.0172937218076
0.0170505884253
0.016567058378
0.0157334569174
0.0146019531269
0.0157621337092
0.0156772959216
0.014534764687
0.0156592054791
0.0164816640592
0.0169545893904
0.0171917155208
0.0172933658116
0.0173280802173
0.0173358406432
0.0173361176053
0.017336210468
0.0173360966628
0.0173284097039
0.0172937139773
0.0171921174519
0.016954928208
0.0164818583218
0.0156592609411
0.0145349114647
0.0156768419455
0.0154136905208
0.0143514065312
0.0154685329055
0.0162734173168
0.0167298685318
0.0169545132481
0.0170500728314
0.0170830225674
0.017090974825
0.0170917433672
0.0170918333629
0.0170912223887
0.0170833858147
0.0170505073655
0.0169549317362
0.016730167737
0.0162735060852
0.0154684630419
0.0143513955721
0.0154130071625
0.0147662796637
0.0139276889267
0.0150529633761
0.0158384111105
0.0162732806242
0.0164814621775
0.0165665133883
0.0165943526454
0.0166005503197
0.0166009553593
0.0166010463692
0.0166008116601
0.0165947565329
0.0165669943651
0.0164819054452
0.016273568662
0.0158384644833
0.0150528301402
0.0139275754164
0.0147655753234
0.0133955821211
0.0130767402033
0.0142700967361
0.0150528249483
0.0154682605716
0.015658874547
0.0157329179748
0.0157554347886
0.0157596100434
0.0157594751171
0.0157595778995
0.0157599063916
0.0157558903367
0.0157334587816
0.0156593813033
0.0154685991153
0.0150528977282
0.0142699273841
0.0130765244136
0.0133950072206
0.0108416845088
0.0116390994471
0.0130766852919
0.0139274775124
0.0143510525608
0.0145343597503
0.0146012395818
0.0146199692566
0.0146228387797
0.0146224791483
0.0146226237915
0.0146232537572
0.0146205985423
0.0146019825997
0.0145350675777
0.0143515537623
0.0139276290857
0.0130764700402
0.0116387121829
0.0108413153304
0.0071437844114
0.0108416874597
0.0133951915546
0.0147653955959
0.0154124331519
0.0156759186866
0.0157609205787
0.0157765964421
0.0157731026608
0.0157690545079
0.0157694286041
0.0157741797121
0.0157782292876
0.015762864801
0.0156778472686
0.0154139754171
0.0147662154454
0.0133951648784
0.0108411468586
0.0071439394597
0.00726475186144
0.0116007694869
0.0147408483659
0.0165097838472
0.0173910662854
0.017774174143
0.0179115739097
0.0179465408933
0.0179488689898
0.0179462114196
0.0179466279742
0.0179500812851
0.017948428247
0.0179138799128
0.0177765020687
0.017392991975
0.0165109671796
0.0147412011591
0.0116006279994
0.00726504644908
0.0116005760735
0.012346896311
0.0139086191083
0.0148712265963
0.0153729707675
0.0156029968945
0.0156943172205
0.0157242532309
0.0157315353194
0.0157325528635
0.0157327039978
0.0157319716458
0.0157249263049
0.0156951210158
0.0156037636015
0.0153735250512
0.0148714555138
0.0139085673947
0.0123468210555
0.011600671991
0.014740997489
0.0139085157812
0.0150420139116
0.0158315262149
0.0162702513048
0.01648309752
0.0165728173695
0.0166043788233
0.016612810233
0.0166141496303
0.0166142389881
0.0166130736921
0.0166047978941
0.0165733285492
0.0164835825739
0.0162705859453
0.0158316441813
0.0150419814715
0.0139085659717
0.014740774454
0.0165104776881
0.0148712049581
0.0158315557684
0.016564194988
0.0169906640163
0.0172067379259
0.0173020724321
0.0173373695923
0.0173476319628
0.0173494400717
0.0173495063258
0.0173478268632
0.0173376359301
0.017302364719
0.0172070763062
0.0169909270074
0.0165642724079
0.0158315313618
0.0148713077913
0.0165099237893
0.0173921562829
0.0153730550758
0.0162703344567
0.0169907054098
0.0174214462579
0.0176452864848
0.0177454850866
0.0177825610222
0.0177925436782
0.0177938236412
0.0177938831826
0.0177926939884
0.0177826758947
0.0177454777746
0.0176452834702
0.0174215693848
0.0169908094171
0.0162703516057
0.0153732306046
0.01739148008
0.0177753254898
0.0156030979722
0.0164831735996
0.0172067783852
0.0176453954039
0.0178738762225
0.0179756684897
0.0180117753507
0.0180198533183
0.0180197118025
0.018019763778
0.0180199518843
0.0180116822226
0.0179751958014
0.0178732470329
0.0176451178195
0.0172069029994
0.0164833078386
0.0156034351891
0.0177748639574
0.0179124373133
0.0156943158925
0.0165728013913
0.0173021302892
0.0177458864028
0.0179760798341
0.0180761586574
0.018108704132
0.0181132030066
0.0181106901864
0.0181107558458
0.0181133061311
0.0181084656004
0.0180752446737
0.0179747570171
0.0177449830036
0.0173021316434
0.0165731203215
0.0156948961804
0.0179124814213
0.0179468733051
0.0157240645761
0.0166042099333
0.0173374954658
0.017783233991
0.0180125764468
0.0181091311241
0.0181369367844
0.0181370706653
0.0181316266511
0.0181317350911
0.0181372714978
0.0181367008681
0.0181080107856
0.0180108262711
0.017781878171
0.0173373097389
0.0166047139657
0.0157249034906
0.0179475341226
0.0179485653839
0.0157311282061
0.0166124825533
0.0173477226933
0.0177932689793
0.0180207796899
0.0181137655415
0.018137187241
0.018133296548
0.0181249466622
0.0181250738695
0.0181336206191
0.0181370666834
0.0181126463049
0.018018928331
0.0177918048155
0.017347496454
0.0166131135136
0.0157321696283
0.0179497420063
0.0179452711248
0.0157319378938
0.0166136838829
0.0173494342162
0.0177944847014
0.018020594261
0.0181111823114
0.0181315968804
0.0181247235921
0.0181143943082
0.0181145638291
0.018125068222
0.0181315063619
0.0181100675454
0.0180187336797
0.0177930239659
0.0173492347838
0.0166143740372
0.0157330792684
0.0179467261055
0.0179452325422
0.0157319376751
0.0166136731781
0.0173494236055
0.0177944731807
0.0180205844809
0.0181111779693
0.0181316015591
0.0181247307232
0.0181144018974
0.0181145684605
0.0181250678477
0.0181315052742
0.0181100653041
0.0180187289901
0.0177930138368
0.0173492187625
0.0166143498095
0.0157330570902
0.0179466320401
0.0179484357948
0.0157311221516
0.0166124491356
0.0173476924824
0.0177932417936
0.0180207655844
0.0181137664146
0.0181372043284
0.0181333311403
0.0181249920367
0.0181251027726
0.0181336327281
0.018137069614
0.0181126459987
0.0180189189269
0.0177917776512
0.0173474495019
0.0166130427712
0.0157321054344
0.0179494691152
0.0179466672582
0.0157240526746
0.0166041535629
0.0173374450096
0.0177831938003
0.0180125601358
0.018109134148
0.0181369591981
0.0181371163125
0.0181316860876
0.0181317835722
0.0181372979161
0.0181367080394
0.0181080077181
0.0180108078181
0.0177818278038
0.0173372213092
0.0166045989375
0.0157248074049
0.0179471170936
0.0179122018834
0.0156943028237
0.016572723417
0.0173020436228
0.0177458259299
0.0179760563979
0.0180761616486
0.0181087272404
0.0181132400118
0.0181107282504
0.0181107894725
0.0181133200068
0.0181084566938
0.0180752218455
0.0179747075743
0.0177448884087
0.0173019843255
0.0165729625478
0.0156947758198
0.01791198029
0.017775116455
0.0156030854858
0.0164830756475
0.0172066532737
0.0176452878687
0.0178738038675
0.0179756297152
0.0180117539094
0.0180198370226
0.0180196889946
0.018019731723
0.0180198995772
0.018011607997
0.0179751009579
0.0178731211532
0.0176449471843
0.0172066923847
0.0164831031455
0.0156032857844
0.0177743145646
0.0173920008502
0.0153730324341
0.0162702071334
0.0169905277282
0.0174212539664
0.0176451069156
0.0177453221721
0.0177824067308
0.017792386552
0.0177936590533
0.0177937088824
0.0177925036215
0.0177824687387
0.0177452525498
0.0176450362942
0.0174212922179
0.0169905215547
0.016270086524
0.015373031225
0.0173908984656
0.0165103685156
0.0148711571312
0.0158313932702
0.0165639647994
0.0169903930549
0.0172064382184
0.0173017515862
0.0173370584706
0.0173473183949
0.0173491205973
0.0173491817446
0.0173474944502
0.0173372899644
0.0173019911152
0.0172067016163
0.0169905514511
0.0165639033347
0.0158311902835
0.0148710258079
0.016509297347
0.0147409332154
0.0139084387378
0.0150418246016
0.0158312686274
0.0162699457997
0.0164827492973
0.0165724288747
0.0166039571255
0.0166123643221
0.016613688184
0.0166137717698
0.0166126081151
0.0166043377622
0.0165728772705
0.0164831423946
0.0162701529472
0.0158312134251
0.0150415586995
0.0139081722219
0.0147401104427
0.0116005730166
0.0123467902477
0.0139084172734
0.014870979321
0.0153726921675
0.0156026840931
0.0156939628837
0.0157238581055
0.0157311082091
0.0157321037387
0.015732245437
0.0157315165685
0.0157244787678
0.0156946878205
0.0156033384897
0.0153730893564
0.0148709875007
0.0139080559061
0.012346295661
0.0116000938278
0.00726477351226
0.0116005601642
0.0147404719151
0.0165092690663
0.0173903918619
0.0177733234087
0.0179105361579
0.0179453429422
0.0179475546876
0.0179448149969
0.017945204528
0.0179486888192
0.0179470905186
0.0179126428317
0.0177753719404
0.0173919458779
0.0165099754506
0.0147402514324
0.011599851255
0.00726504248601
0.00731542745751
0.0119557802561
0.0154122674235
0.0174197172949
0.0184550643213
0.018925138034
0.0191055869135
0.0191591283324
0.019168338189
0.0191677662545
0.0191682260275
0.0191696961853
0.0191613139111
0.0191083138183
0.0189278522897
0.0184572603362
0.017421068216
0.0154127485269
0.011955777723
0.00731580643179
0.0119556177587
0.0126874805116
0.0143337040204
0.0153713826941
0.0159267617834
0.016189977805
0.0162992829803
0.0163375912961
0.0163480345941
0.0163499162481
0.0163500807123
0.0163485175593
0.01633835612
0.0163002124901
0.0161908550619
0.0159273701699
0.0153716088138
0.0143336314077
0.0126874052008
0.0119557968005
0.0154124226494
0.0143335783227
0.0154634268872
0.0162737898715
0.0167352253413
0.0169660821744
0.0170676516795
0.0171055802323
0.0171165627337
0.0171185873323
0.0171186775352
0.0171168309517
0.0171059688316
0.0170680924846
0.0169665633755
0.0167355917285
0.0162739052208
0.0154633838605
0.0143336506969
0.0154122757312
0.0174204350412
0.0153713179844
0.0162737990678
0.0169956937767
0.0174272043216
0.0176524689901
0.0177555052845
0.0177954028095
0.0178067911766
0.0178085820261
0.0178086438517
0.0178069568026
0.0177955197148
0.0177554380243
0.0176523506715
0.0174272312896
0.016995805248
0.0162738053168
0.0153714950369
0.0174199379342
0.0184561673589
0.0159267786032
0.0167352634708
0.0174272598045
0.0178526494331
0.0180789824371
0.0181824256069
0.0182208975074
0.0182303946418
0.0182306806717
0.0182307295886
0.0182304567265
0.0182206614963
0.0181815981835
0.0180777684672
0.0178517521472
0.0174270959798
0.0167353902209
0.0159271323649
0.0184556443731
0.018926161006
0.0161899535696
0.0169660933247
0.0176528342258
0.018079630659
0.0183054564101
0.0184063335884
0.0184406226699
0.018445858518
0.0184431406805
0.0184432290309
0.0184459340763
0.0184400671514
0.018404537658
0.0183026259459
0.0180770801967
0.0176518506165
0.0169663373864
0.0161906379955
0.0189261709065
0.0191060325204
0.0162990640476
0.0170676387127
0.0177564739856
0.0181841903498
0.0184076050107
0.0185031437554
0.0185311172139
0.0185305462429
0.0185234317756
0.0185236632616
0.0185309272412
0.0185305951101
0.0185006804266
0.0184032483537
0.0181797716013
0.0177543005946
0.0170678451737
0.0163001823021
0.0191070371078
0.0191586831246
0.0163370873821
0.0171055470453
0.0177968611948
0.0182235178044
0.0184428701097
0.0185320736412
0.0185534879649
0.0185471474953
0.0185346503868
0.0185351045211
0.0185481502129
0.018553470114
0.018529553747
0.0184377538854
0.0182179322505
0.0177938486911
0.0171056918082
0.0163386220022
0.0191607915211
0.0191669481765
0.0163472345428
0.0171163997929
0.0178083277725
0.0182332461787
0.0184483737994
0.0185316910844
0.0185472134882
0.0185357909082
0.0185175587766
0.0185182028407
0.0185374347905
0.0185478580763
0.0185295171602
0.0184432274244
0.0182274085956
0.0178051383497
0.0171166213923
0.0163490686204
0.019169898284
0.0191655190727
0.0163488601722
0.0171182606002
0.0178100048915
0.0182334574477
0.0184455300694
0.0185242413157
0.0185340565081
0.0185166327358
0.0184939148057
0.0184946417231
0.0185185134804
0.0185349890991
0.0185222863361
0.018440489347
0.0182276702555
0.0178068729842
0.0171185661712
0.016350838814
0.019168894925
0.0191654460578
0.0163488580757
0.0171182443225
0.0178099861554
0.01823344175
0.0184455257979
0.0185242476144
0.0185340640214
0.0185166402534
0.018493922574
0.0184946403115
0.0185185027169
0.0185349791547
0.0185222811183
0.0184404883878
0.0182276677338
0.0178068611288
0.0171185424021
0.0163508171645
0.019168754834
0.0191667022413
0.0163472215733
0.0171163502609
0.0178082762217
0.0182332104853
0.0184483683561
0.0185317132704