/*--------------------------------*- C++ -*----------------------------------*\
| =========                 |                                                 |
| \\      /  F ield         | OpenFOAM: The Open Source CFD Toolbox           |
|  \\    /   O peration     | Version:  3.0.1                                 |
|   \\  /    A nd           | Web:      www.OpenFOAM.org                      |
|    \\/     M anipulation  |                                                 |
\*---------------------------------------------------------------------------*/
FoamFile
{
    version     2.0;
    format      ascii;
    class       volVectorField;
    location    "1.3";
    object      U_0;
}
// * * * * * * * * * * * * * * * * * * * * * * * * * * * * * * * * * * * * * //

dimensions      [0 1 -1 0 0 0 0];

internalField   nonuniform List<vector> 
7968
(
(0.000295577597332 0.00029975032216 -0.000612895947585)
(0.000932807182075 0.000227597479513 -0.000643725948781)
(0.00171090291568 0.000227470256033 -0.000632879762019)
(0.00234890479114 0.000299777394588 -0.000601278106859)
(0.0027425265699 0.000431318328819 -0.000571761519423)
(0.00281523598726 0.00059556939297 -0.00055040116265)
(0.00255950098294 0.000754775704089 -0.000535475380668)
(0.00201463344773 0.000889084045427 -0.000528415212725)
(0.00126353159596 0.000980768565271 -0.000526911551911)
(0.000395668702596 0.00102610999417 -0.000527833063092)
(-0.000508190764848 0.00102587193597 -0.000528472606548)
(-0.00137296099172 0.000979930979053 -0.000528820467886)
(-0.00211790337092 0.000887644579526 -0.000531518605615)
(-0.00265353153171 0.000752598323772 -0.000539790067948)
(-0.00289707509431 0.000592771866033 -0.000555709604592)
(-0.00280977537903 0.000427993425685 -0.000577909380753)
(-0.00239963602119 0.000296820856841 -0.00060788280325)
(-0.00174448967044 0.000224916982236 -0.00063934730341)
(-0.000951500265903 0.000224886540657 -0.000651235186231)
(-0.000298346329821 0.000297942586998 -0.000619939611438)
(0.000222591908646 0.000944503575213 -0.000644196339916)
(0.000875543710649 0.00088989708288 -0.000993330572382)
(0.00179747761946 0.00100323024092 -0.00114064419904)
(0.00255246518481 0.00129689805733 -0.00119209682846)
(0.00302094790614 0.00173265682407 -0.00122043164461)
(0.00311640126076 0.00223459480039 -0.00123671421812)
(0.00282782469198 0.00271635071554 -0.00125589476159)
(0.00221548049886 0.00310987884645 -0.00127914551269)
(0.00138201012163 0.00337607458159 -0.00130462550915)
(0.000431980818399 0.00350717033548 -0.00132210237133)
(-0.000551992223436 0.00350670704359 -0.00132285729017)
(-0.00149884429147 0.00337467171042 -0.00130711587139)
(-0.00232592668071 0.00310728157887 -0.00128326813234)
(-0.00292874694983 0.00271233567236 -0.00126148642611)
(-0.00320455345928 0.00222910267525 -0.00124382444831)
(-0.00309334293109 0.0017259934055 -0.00122922089362)
(-0.00260688628117 0.00128990154501 -0.00120118646377)
(-0.0018325913165 0.000996738165943 -0.00115018678988)
(-0.000892644650505 0.000885456212254 -0.00100248290439)
(-0.000224748945023 0.000945030555531 -0.0006493116963)
(0.00022297906359 0.00173496482366 -0.000636945354377)
(0.00098893586881 0.00182467280751 -0.00114115794908)
(0.00212925574731 0.00215776474495 -0.00135177789428)
(0.00306817723755 0.00276481705226 -0.00139388055715)
(0.00364862722705 0.0035802812624 -0.00136799555824)
(0.0037605813077 0.00448221917866 -0.00131728856322)
(0.00339410611542 0.00533193614131 -0.00126989970266)
(0.0026371386968 0.00601650014723 -0.00124982254759)
(0.0016332453892 0.00647578875911 -0.00125765483714)
(0.000513578310435 0.00670098000453 -0.00127187873096)
(-0.000636276888357 0.00670016969639 -0.00127276758302)
(-0.00175289564518 0.00647344088411 -0.00125987714041)
(-0.00275078600148 0.00601227934459 -0.00125383083909)
(-0.00349841139487 0.00532546117085 -0.00127561949665)
(-0.00385180364533 0.00447368444967 -0.00132537410186)
(-0.00372366610868 0.00357009227451 -0.00137702373406)
(-0.00312490855562 0.00275389386378 -0.00140388908449)
(-0.00216598241683 0.00214735611441 -0.00136256412785)
(-0.00100618724558 0.00181670226507 -0.001150366737)
(-0.000225733167568 0.00173267005237 -0.00064039747723)
(0.000295110449032 0.00238606946212 -0.000603253749871)
(0.00128244433539 0.00259340101219 -0.00119316828253)
(0.00273613390153 0.00311038765791 -0.00139240522488)
(0.00393379972683 0.00397698199692 -0.00133269191221)
(0.00466323870892 0.00509943023819 -0.00115203549189)
(0.00478006136199 0.0063166025703 -0.000919952361403)
(0.00427776812344 0.00744695920965 -0.000711607958357)
(0.00328916238538 0.00834564723096 -0.00058034927277)
(0.00201942254836 0.00894108137913 -0.000534191919397)
(0.0006392536978 0.00923010911485 -0.000531367134177)
(-0.000764016890573 0.00922870842871 -0.000532123394684)
(-0.00214130156964 0.008937465397 -0.000536225129856)
(-0.00340552143912 0.00833937768435 -0.000583833670964)
(-0.00438494475874 0.00743767041622 -0.00071734871332)
(-0.00487397924749 0.00630452677407 -0.000927495135251)
(-0.00474054687405 0.00508532549102 -0.00116135084636)
(-0.00399201279433 0.00396224835711 -0.00134377811395)
(-0.00277351308385 0.0030965375473 -0.00140421701734)
(-0.00129918859549 0.00258243656659 -0.00120286526089)
(-0.00029753971189 0.00238112117281 -0.000605530763102)
(0.000427341531649 0.00279054894451 -0.000573674724809)
(0.00171877679841 0.00307325781464 -0.0012171335694)
(0.00355168425667 0.00370277799631 -0.00136584391668)
(0.00505642348161 0.00471902432519 -0.00114956441162)
(0.00595129201341 0.00600791909942 -0.00074075875082)
(0.00605447800401 0.00738587451351 -0.000261263810866)
(0.00536969203593 0.00864928337553 0.00016284539393)
(0.00408661832469 0.00964097152978 0.000439013381662)
(0.00248763132534 0.0102892633264 0.000552038452189)
(0.000790560624053 0.0106005977347 0.000573737218245)
(-0.000918180307947 0.0105988151212 0.000572380192292)
(-0.0026121421756 0.0102837884981 0.000550364943863)
(-0.00420616474042 0.0096319195558 0.000435915031646)
(-0.00548026007628 0.00863640334639 0.00015721837895)
(-0.00615124949383 0.00736968761911 -0.000270297943964)
(-0.0060303315836 0.00598997106441 -0.000751576537399)
(-0.00511539199729 0.00470086671196 -0.00116196895048)
(-0.00358911979095 0.00368589167952 -0.00137874460578)
(-0.00173481656934 0.00305922293984 -0.00122707803235)
(-0.000429328075454 0.00278257671289 -0.000575454549203)
(0.000591619664206 0.0028720956485 -0.00055099203213)
(0.00222154312018 0.00317761049762 -0.00123470278237)
(0.0044550828471 0.00382463131266 -0.00131377342659)
(0.00627480254672 0.00484630222286 -0.000916373985375)
(0.007329776526 0.00612260023486 -0.000259304043462)
(0.00740030796276 0.00746871639706 0.000486989861742)
(0.00650766860178 0.00868446143137 0.00114262785102)
(0.00490563420907 0.00962410403415 0.00156385200182)
(0.00296142880815 0.0102278387439 0.00173215302286)
(0.000942415573674 0.0105144600133 0.00176289635044)
(-0.00107373982035 0.0105125998138 0.00176190269877)
(-0.00308999504528 0.0102211659575 0.00172959742842)
(-0.00502908185389 0.0096125490829 0.00155980089986)
(-0.00662189312228 0.0086686972096 0.00113507394752)
(-0.00749953670815 0.00744965516851 0.000476015687358)
(-0.00740986078613 0.00610182147845 -0.000272134813174)
(-0.00633389197041 0.00482604652513 -0.000930470884804)
(-0.00449223718629 0.00380618873407 -0.00132815757865)
(-0.0022366674685 0.00316233039523 -0.00124694646926)
(-0.000592727824272 0.00286269664773 -0.000552908829166)
(0.000751369492897 0.00262307093099 -0.000535669759405)
(0.00270467009534 0.0028963665565 -0.00125246150527)
(0.00530663696124 0.00346551577084 -0.00126456210109)
(0.00740722444178 0.0043518560486 -0.000706091697837)
(0.00859451618989 0.00544594897231 0.000168394647666)
(0.00861635284461 0.00658541192715 0.00114537159186)
(0.00752095031348 0.00759913091805 0.00198916156891)
(0.00562134322955 0.00837664143324 0.00251328421142)
(0.00336950568313 0.00887244970762 0.00270649631568)
(0.00107223873654 0.00910717908584 0.00273311279439)
(-0.00120741989994 0.00910498754634 0.00273251541339)
(-0.00350288054318 0.00886509534183 0.00270425553703)
(-0.00574949765951 0.00836449686874 0.00250701027802)
(-0.00763880232262 0.00758290018647 0.00197857379557)
(-0.0087181347999 0.00656619983511 0.00113083724446)
(-0.00867530035092 0.00542532210707 0.000151990409394)
(-0.00746554625532 0.00433203001566 -0.000722597926784)
(-0.00534276683202 0.00344778101468 -0.00128059443482)
(-0.00271894832467 0.00288198784591 -0.00126507817791)
(-0.000751942771565 0.00261404902144 -0.000538541924482)
(0.000886312916453 0.00208252584509 -0.000527659340545)
(0.00309961904425 0.00228819900926 -0.00127440470137)
(0.00599334648272 0.00271260571967 -0.00124279584023)
(0.00830807327836 0.00336725457809 -0.000571863286745)
(0.00958845643774 0.00416719886312 0.000446295654528)
(0.00955782666831 0.00498795214767 0.00157076895183)
(0.00829899553814 0.00570570095278 0.00251700541835)
(0.00617093353454 0.00625683032203 0.00307351306329)
(0.00368218302078 0.00660248023587 0.00326070036527)
(0.0011711089513 0.0067656725346 0.00327701553489)
(-0.00131078655294 0.00676463970724 0.00327621337917)
(-0.00381972373799 0.0065947300958 0.00325683353538)
(-0.00630266069347 0.00624534820034 0.00306621091642)
(-0.00842013772254 0.00569259048941 0.00250300471368)
(-0.00966132913656 0.00497260015842 0.00155250770976)
(-0.00966956229633 0.00415007169513 0.000427309025442)
(-0.00836580905384 0.00335108793486 -0.000591137567004)
(-0.00602852050652 0.00269834101944 -0.00126065439934)
(-0.00311306682355 0.00227690339799 -0.00128854293805)
(-0.00088656408838 0.00207609285223 -0.00053109349478)
(0.000978558386892 0.00133285010137 -0.000525276664347)
(0.00336718375255 0.00145576277968 -0.00129838540053)
(0.00645462100253 0.00170936831677 -0.00124865873106)
(0.00890606053205 0.00209784328759 -0.000523881703067)
(0.0102388700863 0.00256834973888 0.000562705088028)
(0.0101639538116 0.0030446440179 0.00173922523695)
(0.00879826743641 0.0034564941491 0.00271218194187)
(0.00651851941148 0.00377398415503 0.0032651294746)
(0.00387779409602 0.00397214314012 0.00343260271939)
(0.00123473193673 0.00406429325867 0.00343742915226)
(-0.00137767864168 0.00406212699167 0.00344051782227)
(-0.00402063399959 0.00396757858027 0.00342452651155)
(-0.00665128346454 0.0037664829628 0.00325294000695)
(-0.00891980582474 0.00344962294723 0.0026980027659)
(-0.010269418696 0.00303664417393 0.00172028769983)
(-0.0103206970699 0.00255880836646 0.000539659514055)
(-0.00896291690806 0.00208853867322 -0.00054550172741)
(-0.00648896687123 0.00170134442372 -0.00126800679685)
(-0.00337996793868 0.00145014249391 -0.00131334643672)
(-0.000978631250028 0.00133122300358 -0.000529152837978)
(0.00102437234422 0.000463603134674 -0.000525141354685)
(0.00349939436473 0.000503729304219 -0.00131456563572)
(0.00668165567073 0.000587365069266 -0.00126157250676)
(0.00919706105312 0.000715364649356 -0.000519409183698)
(0.0105532344425 0.000869340129087 0.000583711466128)
(0.0104550958594 0.00102491997726 0.00177106226075)
(0.009038788754 0.00115879802801 0.00274021575072)
(0.0066879820045 0.00126290160304 0.00328738445485)
(0.00397288572489 0.00132992177909 0.00344909430284)
(0.00126148755319 0.00135953813582 0.00344186136919)
(-0.00140719919789 0.00135733187911 0.00343794017614)
(-0.00411503155235 0.00132959716964 0.00344255538738)
(-0.00682142097262 0.00126149244295 0.0032751435742)
(-0.00916017363598 0.00115784873136 0.00272770831456)
(-0.010560919282 0.00102390438277 0.00175320834107)
(-0.0106357717292 0.000868375709653 0.000561762443273)
(-0.00925442152401 0.000714400100352 -0.000541811653083)
(-0.00671580274404 0.000587262947583 -0.00128184314344)
(-0.00351191917904 0.000505400187304 -0.00133008619336)
(-0.00102424888929 0.000468307691898 -0.000529498283919)
(0.00102467259412 -0.000444114185492 -0.000525152908401)
(0.00350016923637 -0.000484800816019 -0.00131462885444)
(0.00668301574742 -0.000567298764113 -0.00126154747831)
(0.00919888259874 -0.00069255489113 -0.000519167877219)
(0.010555275604 -0.000842829038675 0.000584282764442)
(0.0104571077706 -0.000994489512727 0.00177197894796)
(0.00904076860516 -0.00112439560591 0.00274106458454)
(0.00668993728732 -0.00122466034024 0.00328846712702)
(0.00397449877671 -0.00128849921015 0.00345091747533)
(0.00126226959092 -0.0013162759013 0.00344416742603)
(-0.00140749102985 -0.00131308336355 0.0034403476571)
(-0.00411632356746 -0.00128657178235 0.00344443080566)
(-0.00682308751218 -0.00122110805698 0.00327607935938)
(-0.00916181071887 -0.00112056712582 0.00272829537284)
(-0.0105624679843 -0.000989701467527 0.00175367406944)
(-0.0106372255307 -0.000836947692816 0.000562324908005)
(-0.00925575680766 -0.000685307793349 -0.000541456273325)
(-0.00671688730213 -0.000559196482729 -0.00128152524849)
(-0.00351260530793 -0.000475488409726 -0.00132995741361)
(-0.00102446899094 -0.000432792666308 -0.000529458381223)
(0.000979249206591 -0.0013143126787 -0.000525228009488)
(0.00336938576746 -0.00143790182127 -0.00129854932502)
(0.00645855787959 -0.00169055351711 -0.00124858298687)
(0.0089112568906 -0.00207656228815 -0.000523156721428)
(0.0102446274456 -0.00254374201335 0.000564112644367)
(0.0101698763433 -0.00301656445711 0.00174086216385)
(0.00880415264838 -0.00342486012298 0.00271486471859)
(0.00652357771976 -0.00373896883806 0.00326849057011)
(0.00388118008642 -0.00393497124526 0.00343657304691)
(0.00123674522359 -0.00402606677159 0.00344122566428)
(-0.00137765441039 -0.00402328176256 0.0034456926872)
(-0.00402322397616 -0.00392919092666 0.00342915077948)
(-0.00665536773764 -0.00372949173895 0.00325626392099)
(-0.0089244310026 -0.00341497970256 0.00270035328278)
(-0.0102739378451 -0.00300454749467 0.00172215502181)
(-0.0103250858629 -0.00252923352006 0.000541204510493)
(-0.00896703545701 -0.00206120225501 -0.000544203640704)
(-0.00649226893102 -0.00167494277535 -0.00126726875311)
(-0.00338199036568 -0.00142174620584 -0.00131293941463)
(-0.000979342464029 -0.00129707246678 -0.000528858078492)
(0.000887286441364 -0.00206590573471 -0.000527411248182)
(0.00310301421145 -0.0022723431956 -0.00127472909644)
(0.00599950474237 -0.00269619478124 -0.00124264826074)
(0.00831626321993 -0.00334884090178 -0.000570803785586)
(0.00959748280952 -0.00414614774378 0.000448750020134)
(0.00956691327149 -0.00496409277071 0.00157392666873)
(0.00830791231542 -0.00567899874485 0.00252052358339)
(0.00617844810205 -0.00622784591303 0.00307876380235)
(0.0036869961552 -0.00657177807474 0.00326639302111)
(0.00117354460729 -0.00673405021183 0.0032825266657)
(-0.00131093853976 -0.00673305556805 0.0032821920913)
(-0.00382289637063 -0.00656323041913 0.0032623405433)
(-0.00630810859686 -0.00621455743788 0.00307074852563)
(-0.00842670897259 -0.00566295484574 0.00250662622645)
(-0.00966817316968 -0.0049447019479 0.00155546311536)
(-0.00967652191619 -0.00412433943015 0.000430044519242)
(-0.00837242261262 -0.00332721395062 -0.000589195707564)
(-0.00603377486885 -0.00267507780679 -0.00125950481032)
(-0.0031162233266 -0.00225132124183 -0.00128776886357)
(-0.000887690610216 -0.00204439771743 -0.000530406508492)
(0.000752606393614 -0.00260916760169 -0.000535688081707)
(0.00270904361805 -0.00288346425587 -0.00125283148143)
(0.00531452051397 -0.0034524252778 -0.00126472888023)
(0.00741765793178 -0.00433747696083 -0.000704609222709)
(0.00860593706498 -0.00542970480615 0.000170988418395)
(0.00862797322409 -0.00656698127772 0.00114804405802)
(0.00753195178211 -0.00757868412409 0.0019940160861)
(0.00563037862836 -0.00835485550663 0.00251909960081)
(0.00337550234237 -0.00884950184743 0.00271290714672)
(0.00107512000658 -0.00908333566564 0.00273903514522)
(-0.0012075397766 -0.00908098365941 0.00273845153932)
(-0.00350626371089 -0.00884099510324 0.002710085922)
(-0.0057554364296 -0.00834057430783 0.0025121660551)
(-0.00764635667213 -0.00755947155914 0.00198316080098)
(-0.00872677521353 -0.00654400189947 0.00113509384055)
(-0.00868449213769 -0.00540485699209 0.000155391396839)
(-0.00747430694101 -0.00431292460467 -0.000720141461671)
(-0.00534972965158 -0.00342880802409 -0.00127941888528)
(-0.00272306181972 -0.00286026773979 -0.00126439243881)
(-0.000753358641627 -0.00258572220611 -0.000537781048455)
(0.000592827722135 -0.00286077933056 -0.000551141850525)
(0.0022265050906 -0.00316743960935 -0.00123610536472)
(0.00446411460257 -0.00381497385595 -0.00131415824275)
(0.00628680036103 -0.00483624687453 -0.000915588561098)
(0.0073431505197 -0.00611155978605 -0.000256793141695)
(0.00741370963906 -0.0074563543653 0.000490876514995)
(0.00651996694441 -0.00867087829555 0.00114753648862)
(0.00491565530444 -0.0096094946278 0.00156967213429)
(0.00296834596578 -0.0102124362145 0.00173838470865)
(0.000945936089785 -0.0104981655814 0.00176923208539)
(-0.00107366674361 -0.01049589529 0.00176810279957)
(-0.00309328963981 -0.0102042585864 0.00173547724139)
(-0.00503517940114 -0.00959557128994 0.00156524814365)
(-0.00663022250091 -0.00865211638108 0.00114021511985)
(-0.00750960111813 -0.00743406860134 0.000480594307929)
(-0.00742075887797 -0.00608741461611 -0.000268507447382)
(-0.00634429113864 -0.0048124254525 -0.000928187708518)
(-0.00450049498153 -0.00379206373655 -0.00132709414)
(-0.0022415235902 -0.00314493314602 -0.00124631320167)
(-0.0005940736457 -0.00283805174195 -0.000552339601719)
(0.000428933632588 -0.00278185954552 -0.000574089197106)
(0.00172395343493 -0.0030655999262 -0.00121817548195)
(0.00356095300345 -0.00369613642036 -0.00136701966204)
(0.00506900660112 -0.0047127284812 -0.00114932029001)
(0.00596541121763 -0.00600151130237 -0.000739102784232)
(0.00606886007649 -0.00737912648526 -0.000258802596081)
(0.00538305718545 -0.00864204593708 0.000167026155519)
(0.00409759246473 -0.00963311385003 0.00044421914734)
(0.00249541748875 -0.0102808125063 0.000557741670338)
(0.000794831779205 -0.0105915161981 0.000579724142533)
(-0.000917619912668 -0.0105892479526 0.000578476196023)
(-0.00261520185595 -0.0102739003474 0.00055618643222)
(-0.00421240207417 -0.00962188532079 0.000441450068307)
(-0.00548920313883 -0.00862666823803 0.000162360289091)
(-0.00616226880701 -0.00736050413131 -0.000265941333722)
(-0.00604230269973 -0.00598132697932 -0.000748487682246)
(-0.00512678141474 -0.00469240472357 -0.00116020439873)
(-0.00359818022175 -0.00367645237024 -0.00137815963691)
(-0.00174003752247 -0.00304627118069 -0.00122696971286)
(-0.000430966289283 -0.00276194710206 -0.000574875919577)
(0.000297011825572 -0.00237943566458 -0.000603873521474)
(0.00128780753223 -0.00258764205592 -0.00119469605548)
(0.00274546149641 -0.00310576530186 -0.00139411796987)
(0.00394656460993 -0.00397321369613 -0.00133355980454)
(0.00467771286395 -0.00509613918856 -0.00115122423747)
(0.00479474522456 -0.00631353471492 -0.000918207572283)
(0.00429151414449 -0.00744402866227 -0.000709112218615)
(0.00330070361743 -0.0083427123867 -0.000576678774496)
(0.00202785097814 -0.0089378768234 -0.000529930344949)
(0.000644149567264 -0.00922655759292 -0.000526700108431)
(-0.000762906970736 -0.00922481904205 -0.000527311818912)
(-0.00214391235818 -0.00893328056088 -0.000531540644884)
(-0.00341155299231 -0.00833496050853 -0.000579430943694)
(-0.00439391735511 -0.00743320819903 -0.000713528687498)
(-0.0048851197795 -0.00630009245796 -0.000924522862683)
(-0.00475276369656 -0.00508091998852 -0.00115931116641)
(-0.00400380842019 -0.00395763372506 -0.00134291201584)
(-0.00278317010473 -0.00309080818321 -0.00140421014894)
(-0.00130488146579 -0.00257325585378 -0.00120289726121)
(-0.000299684470185 -0.0023640857551 -0.000604775682318)
(0.000224967058982 -0.00173008926793 -0.000637132411529)
(0.000994453254724 -0.00181955747419 -0.00114322424455)
(0.00213865472709 -0.00215393080657 -0.00135399723267)
(0.00308106784146 -0.00276199989429 -0.00139549702656)
(0.00366333221861 -0.00357831200539 -0.00136847169206)
(0.00377566441595 -0.00448078453517 -0.00131712253167)
(0.00340823483001 -0.00533089960604 -0.00126862908702)
(0.00264916688971 -0.0060158037897 -0.00124798145463)
(0.00164235428951 -0.00647510731592 -0.00125516676312)
(0.000519187600118 -0.00670018239762 -0.00126911032566)
(-0.000634442260083 -0.00669917376824 -0.00126978148901)
(-0.0017547840605 -0.00647220211794 -0.0012570376326)
(-0.00275607455687 -0.00601074530478 -0.00125118947951)
(-0.00350662625188 -0.0053236259408 -0.0012734121735)
(-0.00386228310325 -0.00447162887359 -0.00132361064456)
(-0.00373539312392 -0.00356781565591 -0.00137609435313)
(-0.00313647022564 -0.00275146694763 -0.00140367183512)
(-0.00217581124002 -0.0021441425768 -0.00136330341589)
(-0.00101205892154 -0.00181083412278 -0.00115111275409)
(-0.000228555236703 -0.00172028412732 -0.000638802853234)
(0.00022378825074 -0.000943143526642 -0.000646439017478)
(0.000881745590231 -0.000886593922231 -0.000996079744686)
(0.0018076826702 -0.00100051549635 -0.00114316671515)
(0.00256642591204 -0.00129474261892 -0.00119386111396)
(0.00303673514682 -0.00173107540459 -0.00122123109989)
(0.00313258063734 -0.00223338820818 -0.00123670287093)
(0.00284300364768 -0.00271547562173 -0.00125547282895)
(0.00222859126007 -0.00310930465072 -0.00127805371695)
(0.00139228728808 -0.00337558780244 -0.00130311578367)
(0.000438826404559 -0.00350668951121 -0.0013203147354)
(-0.00054883547253 -0.00350613332993 -0.00132103657913)
(-0.00149927376602 -0.0033739573501 -0.00130537899334)
(-0.00232961739072 -0.00310631537091 -0.00128170340252)
(-0.00293526179842 -0.00271106675745 -0.00126017264723)
(-0.00321317152594 -0.00222764053637 -0.00124291168078)
(-0.00310333552537 -0.00172436791488 -0.00122842022084)
(-0.002617105534 -0.00128810064777 -0.00120167611905)
(-0.00184163311589 -0.000994509882576 -0.00115142614674)
(-0.000898260577458 -0.000881831038649 -0.00100325966534)
(-0.000228091075032 -0.00093755872587 -0.000648273222459)
(0.000296117605914 -0.000295587349615 -0.000615599373761)
(0.000941275208257 -0.000223143461872 -0.000646322199854)
(0.00172405037645 -0.000224171189488 -0.000634357118555)
(0.00236578517745 -0.000296985053778 -0.000601507501441)
(0.00276094514268 -0.000428855271791 -0.000571084169095)
(0.00283395053634 -0.000593071025215 -0.000549178915004)
(0.0025770224418 -0.000752384168468 -0.000533723788178)
(0.00202995062442 -0.000887074893859 -0.000526005268757)
(0.00127599835636 -0.000978715777792 -0.000524216329761)
(0.000404708305889 -0.00102400171654 -0.000525023061308)
(-0.000502697720919 -0.00102370897898 -0.000525680591358)
(-0.00137084300169 -0.000977788979419 -0.00052612660964)
(-0.0021187453574 -0.000885328951678 -0.00052897771246)
(-0.00265686747132 -0.000750084396615 -0.00053750055756)
(-0.00290219267262 -0.000590203705531 -0.000553703201683)
(-0.00281576495685 -0.000425552746912 -0.0005764333059)
(-0.00240543377984 -0.00029420440443 -0.000607046846372)
(-0.00174926999795 -0.000222447109371 -0.000639086290168)
(-0.000953223872561 -0.000222631728287 -0.000650338137247)
(-0.000299688230774 -0.000294829213396 -0.000615766745837)
(0.000389151838857 0.000393225295662 -0.00186948779543)
(0.0011319640375 0.000492441220797 -0.00201341129815)
(0.00193969393165 0.000615652143769 -0.00207122179422)
(0.00259954696585 0.000811687025164 -0.00208249662557)
(0.00299627090891 0.00105981761701 -0.00208470870434)
(0.0030528565729 0.00132769223436 -0.00208963497909)
(0.00275890141009 0.00157702659149 -0.00210039679774)
(0.00216068178933 0.00177982406271 -0.00212103436871)
(0.00134903653076 0.00191660200096 -0.00214701293626)
(0.000421053112663 0.00198395592523 -0.00216620851102)
(-0.000541731985399 0.00198381234927 -0.00216797582379)
(-0.00146640161687 0.00191611762192 -0.00215236431748)
(-0.00227151040224 0.00177886484745 -0.00212977757932)
(-0.00286004396399 0.00157537028976 -0.002112090117)
(-0.00314130883365 0.00132552577243 -0.00210413411741)
(-0.00306914261547 0.00105682743454 -0.00210141118352)
(-0.00265480196119 0.000808241386749 -0.0021009456501)
(-0.00197582116182 0.000612388352418 -0.00208990703363)
(-0.00115011266652 0.000489714558294 -0.00203158888229)
(-0.000391696174292 0.000392704613423 -0.00188318082324)
(0.00048482717402 0.00114496384493 -0.00201411306407)
(0.00127649499476 0.00129458844819 -0.00252728772551)
(0.00211058915133 0.00156667317393 -0.00275853464708)
(0.00279929301377 0.00201252889169 -0.00285135328664)
(0.00320956132311 0.00257959939752 -0.00287986211625)
(0.00326199984136 0.00319105620075 -0.00287447080383)
(0.00293947157644 0.0037614244078 -0.00286679556505)
(0.00229497775682 0.00422103911674 -0.00287709339274)
(0.00142904288134 0.00453143651928 -0.00290621150291)
(0.000446024769871 0.0046848556387 -0.00293239999239)
(-0.000571020915061 0.00468470874706 -0.00293432975499)
(-0.00155080066429 0.00453088418436 -0.00291204789917)
(-0.00241039699588 0.00421968115417 -0.00288670990487)
(-0.0030453388219 0.00375870731438 -0.00287997684069)
(-0.00335520217685 0.00318680671873 -0.0028911033203)
(-0.00328753115704 0.00257373650428 -0.00289952580547)
(-0.00286004219091 0.00200562196018 -0.0028727362611)
(-0.00215271431651 0.00155984486195 -0.00278073987318)
(-0.0013007225158 0.00128981252213 -0.00254796471031)
(-0.000492973784068 0.00114624555001 -0.00202703818495)
(0.00060679339942 0.00196554523158 -0.00207643718495)
(0.00154660143502 0.00214104295586 -0.00275921200515)
(0.0025225398852 0.00255514683596 -0.00301667459065)
(0.00331691027463 0.00322725925988 -0.00302450422446)
(0.00377710860916 0.00407555220869 -0.00288908099489)
(0.00381382724908 0.00498366363692 -0.00268458097469)
(0.00341138298813 0.00582486972072 -0.00248815215552)
(0.00264290992662 0.00649826830242 -0.00236327289697)
(0.00163652671595 0.00695070462831 -0.00232127996663)
(0.000514111351408 0.00717363418202 -0.00232152772938)
(-0.000639849400994 0.00717317499165 -0.00232323030502)
(-0.0017594138053 0.00694935001128 -0.00232615076819)
(-0.00276018167725 0.00649547232656 -0.00237178039106)
(-0.00351984557824 0.00581986651789 -0.00250069110254)
(-0.00391015737748 0.00497617422563 -0.00270140419114)
(-0.00385850727732 0.00406593973926 -0.00290904890568)
(-0.00338131594389 0.00321645615439 -0.00304703999548)
(-0.00256850569744 0.00254432107649 -0.00304049690775)
(-0.00157420115888 0.0021321425832 -0.00278074953871)
(-0.000617783635056 0.00196209608292 -0.00208832156542)
(0.000803057074108 0.00263825174637 -0.00208535460281)
(0.00199207429079 0.00284219801743 -0.00285117383309)
(0.00319374897579 0.00336222466153 -0.00302271772054)
(0.00415442390648 0.00420098983393 -0.00279565655061)
(0.00468623925694 0.00524941081336 -0.00232238423176)
(0.00468649824184 0.0063599057716 -0.00173843007949)
(0.00414923357995 0.00737655260639 -0.00120100441966)
(0.00318211509659 0.0081817344326 -0.000835728957951)
(0.00195601852886 0.00871739519573 -0.000668281250492)
(0.000618790482432 0.00897928952307 -0.000622631053038)
(-0.000744877737955 0.0089781770711 -0.000624039278227)
(-0.0020795857585 0.0087145382003 -0.000671882547749)
(-0.00330106535461 0.00817657925793 -0.000842334325058)
(-0.00426037230253 0.00736828909152 -0.00121231707827)
(-0.00478587801316 0.00634841207914 -0.00175457964462)
(-0.00477060178187 0.00523566837465 -0.00234268899206)
(-0.00422170772958 0.00418621463296 -0.00281939045703)
(-0.00324232482587 0.00334759376885 -0.00304817862491)
(-0.00202142164682 0.00282947616425 -0.0028738607511)
(-0.000814841108548 0.00263052428952 -0.00209655656436)
(0.00105085334118 0.00304743905943 -0.00208614094766)
(0.00255943896402 0.0032644556566 -0.00287591110337)
(0.00404219594018 0.00383443024162 -0.00288454251639)
(0.00520253164044 0.0047452884531 -0.00231874017705)
(0.00581066502661 0.00587058813371 -0.00138475665337)
(0.00575116690154 0.00704696085016 -0.000305096078044)
(0.00503686137364 0.00811208082545 0.000659847350461)
(0.00382289454518 0.00894469902399 0.00131320271611)
(0.00233201745956 0.00949191110397 0.00162083750471)
(0.000740980178988 0.00975695054883 0.00171149805762)
(-0.000868272005116 0.00975526296348 0.00170896929673)
(-0.00245681552855 0.00948685739044 0.0016181323612)
(-0.003944037406 0.00893626417415 0.0013078602022)
(-0.00515106034183 0.00809972403676 0.000648648849137)
(-0.00585357582012 0.00703096298564 -0.00032322262322)
(-0.00589743657745 0.00585237882352 -0.00140746114825)
(-0.00527181660632 0.00472657361232 -0.00234478942644)
(-0.00409244476041 0.0038163557804 -0.00291230268861)
(-0.00258976527996 0.00324838678774 -0.00290034441029)
(-0.00106301347769 0.0030357557182 -0.00209763688354)
(0.00131972049391 0.00311440060416 -0.00208835619966)
(0.00317188857678 0.00332709146082 -0.00286848954152)
(0.00495140477345 0.00388125286707 -0.00267662129691)
(0.00631395636729 0.00475624769392 -0.00173056649622)
(0.00698734496382 0.00582249010434 -0.000299881804978)
(0.00685256694967 0.00692443195462 0.00129710062618)
(0.0059458208141 0.00791059879768 0.00269975684128)
(0.00447106308168 0.00867081568224 0.0036281098486)
(0.00270870940068 0.00916403975989 0.00405080589096)
(0.000862668396217 0.00940090194998 0.00416926284372)
(-0.000992355174354 0.00939885940992 0.00416755665392)
(-0.0028362208438 0.00915725988588 0.00404653487244)
(-0.00459519509925 0.00865935965242 0.00362148313241)
(-0.00606342710287 0.00789473346816 0.00268538300759)
(-0.00695787498852 0.0069049266847 0.00127413529662)
(-0.00707583473534 0.00580108244255 -0.000327614784133)
(-0.00638410333552 0.0047348106523 -0.00176070175796)
(-0.0050022792024 0.00386102337061 -0.00270783131637)
(-0.00320263667983 0.0033089655631 -0.0028965228569)
(-0.00133204613482 0.00310047899997 -0.00210138173659)
(0.00156944886565 0.00282765835413 -0.00209667836137)
(0.00374342387723 0.00301161614921 -0.00285771135065)
(0.00579448298902 0.00348589504907 -0.00247598621941)
(0.00733261969598 0.00422628316223 -0.00118745532059)
(0.00805399323936 0.00511589102106 0.000672502787195)
(0.00783947334753 0.00602640299054 0.00270694867485)
(0.0067488624777 0.00682967087315 0.00446103263995)
(0.0050367587686 0.00744374077112 0.00558620796111)
(0.00303484373837 0.0078376002284 0.00607203781054)
(0.000967415736812 0.00802496299737 0.00619716115991)
(-0.00110025190771 0.00802276073521 0.00619575954636)