/*--------------------------------*- C++ -*----------------------------------*\
| =========                 |                                                 |
| \\      /  F ield         | OpenFOAM: The Open Source CFD Toolbox           |
|  \\    /   O peration     | Version:  3.0.1                                 |
|   \\  /    A nd           | Web:      www.OpenFOAM.org                      |
|    \\/     M anipulation  |                                                 |
\*---------------------------------------------------------------------------*/
FoamFile
{
    version     2.0;
    format      ascii;
    class       volScalarField;
    location    "4.3";
    object      epsilon;
}
// * * * * * * * * * * * * * * * * * * * * * * * * * * * * * * * * * * * * * //

dimensions      [0 2 -3 0 0 0 0];

internalField   nonuniform List<scalar> 
7968
(
0.000326559028495
0.000393109240601
0.000447781799845
0.000482858664354
0.000502965153577
0.000512492588674
0.000515234281345
0.000514087996119
0.000511519976255
0.000509225860987
0.000509211735086
0.00051150543322
0.000514097276804
0.000515290389643
0.000512613589597
0.000503162354932
0.000483110211454
0.000448041226762
0.000393305533143
0.000326646463052
0.000393146501721
0.000693213766287
0.000918653068151
0.00105880764779
0.00113529652465
0.00116764138539
0.00117387773943
0.00116758877017
0.00115912291164
0.00115378854727
0.00115362776473
0.00115870051514
0.00116705928548
0.001173416309
0.00116737100401
0.00113528824871
0.0010590128792
0.000918999137703
0.000693518640066
0.000393265041638
0.000447930196567
0.000918823899143
0.00127509819182
0.0014981856559
0.00162101945494
0.00167399348644
0.001685088518
0.00167709482588
0.00166592066339
0.00165907497402
0.00165869444054
0.00166492052281
0.00167581421293
0.00168389864411
0.00167310591938
0.00162049114328
0.00149798613749
0.00127515208485
0.000918967351641
0.000448001639357
0.000483055971464
0.00105912700909
0.0014983276255
0.00177099787178
0.00191643487129
0.0019735531572
0.00198006577347
0.0019655288762
0.00194988046586
0.00194144037492
0.00194079874186
0.00194818528931
0.00196334202819
0.00197808483551
0.00197203912409
0.00191533120533
0.00177022284969
0.00149788173393
0.00105892190077
0.000482997057394
0.000503197695953
0.00113557654284
0.00162114804623
0.00191636163551
0.00206288810347
0.00211059632045
0.00213462234091
0.00213835089547
0.00213175087461
0.0021258898188
0.00212526456399
0.0021301624579
0.00213640814155
0.00213287234839
0.0021088749367
0.00206157331042
0.00191521975781
0.00162024866994
0.00113499744174
0.00050297994762
0.000512733412625
0.00116786092758
0.00167391770243
0.00197307256664
0.00211004070446
0.00219615967817
0.00223425094871
0.00223926277316
0.00223136517965
0.0022241341975
0.00222333411391
0.00222937238524
0.0022369184152
0.00223231990786
0.00219480196277
0.00210908233321
0.00197204649549
0.00167288224778
0.00116712140424
0.000512398739936
0.000515449797452
0.0011739228504
0.00168462799352
0.00197890713843
0.00213391376877
0.00223384278628
0.00227150576451
0.00227121181469
0.00225795755421
0.00224745942652
0.00224643793403
0.00225544030697
0.00226831145829
0.00226927236013
0.00223250772663
0.00213315557684
0.00197835227944
0.00168375943751
0.00117316331536
0.000515066954576
0.000514250755799
0.00116742620407
0.00167628242163
0.00196383209743
0.00213732637188
0.00223855464503
0.0022709335255
0.0022626440887
0.00224203205939
0.00222700635157
0.00222577107502
0.00223901063409
0.00225915620123
0.0022683008315
0.00223711207724
0.00213670189409
0.00196371014978
0.00167567572934
0.00116678233753
0.000513873243261
0.000511616384555
0.00115881067854
0.00166496634717
0.0019481769855
0.00213073191073
0.00223076151523
0.00225789683689
0.00224230311495
0.00221400643236
0.00219341421227
0.00219199354842
0.00221056683791
0.00223832291051
0.00225483777947
0.00222909873987
0.00213007954586
0.00194817246318
0.00166452527061
0.00115828876373
0.000511263567897
0.00050924402647
0.00115340486084
0.00165818039289
0.00194010064383
0.00212519473985
0.00222400976442
0.00224804804436
0.00222801166067
0.00219415701077
0.00216895158169
0.00216740780711
0.00219045973823
0.00222370653318
0.00224467198724
0.00222212657369
0.0021244185756
0.00193997735071
0.00165776630756
0.00115292488332
0.000508891167966
0.000509140164083
0.00115322758169
0.0016579428717
0.00193983067042
0.00212493817227
0.0022237421054
0.00224774853776
0.00222765068141
0.00219369966659
0.00216839437594
0.0021668374593
0.00218997660669
0.00222331959271
0.00224434701147
0.0022218308633
0.00212412497449
0.00193963976094
0.0016574532935
0.00115268326593
0.000508751873982
0.000511400565828
0.00115831631463
0.00166428221292
0.00194737693556
0.00212999859395
0.00223000620582
0.00225707070546
0.00224134761864
0.00221286638984
0.00219210935327
0.00219065963799
0.0022093704716
0.00223731093206
0.00225395161378
0.00222827088167
0.002129245161
0.00194718808151
0.0016636438159
0.00115763206258
0.000510973865536
0.000513986680989
0.00116667733263
0.00167520006521
0.00196249564498
0.00213615450758
0.00223735141742
0.00226963067807
0.00226118103698
0.00224039790395
0.0022252309397
0.00222397028977
0.00223732461677
0.00225763147562
0.00226691981458
0.00223580372213
0.00213537941643
0.00196210633866
0.00167431850115
0.00116581224176
0.000513519257651
0.000515185264714
0.00117303946573
0.00168328888093
0.00197717495516
0.00213236419986
0.00223227325417
0.00226981970859
0.00226936050826
0.00225594366094
0.00224533673821
0.00224429350996
0.00225337526955
0.00226638658017
0.00226748281722
0.00223079482193
0.00213140471906
0.00197629802715
0.0016820972385
0.00117202239008
0.000514708210324
0.000512513398509
0.00116700080827
0.00167254037885
0.00197119662083
0.00210776043131
0.00219424357923
0.00223231816835
0.00223717156704
0.00222912695386
0.0022218091147
0.00222098423307
0.00222706802522
0.00223472206452
0.00223024076292
0.00219267982755
0.00210648336926
0.00196980127129
0.00167114411934
0.00116597318788
0.000512088205933
0.000503055281311
0.00113486076434
0.00161995865353
0.00191464743172
0.00206059690178
0.00210789284341
0.00213246673563
0.00213605555784
0.00212932136305
0.00212339492035
0.00212273866048
0.00212764322005
0.0021339576184
0.00213050231018
0.00210583293017
0.00205889606902
0.00191310076694
0.00161868173604
0.0011340112521
0.00050275738003
0.00048300507092
0.00105868123351
0.00149752111536
0.00176972088602
0.00191459181303
0.00197116147194
0.00197720071463
0.00196231997569
0.00194656861932
0.00193810025326
0.00193740855744
0.00194471920227
0.0019598551279
0.00197486731534
0.00196925104693
0.00191306274604
0.00176852266443
0.00149670051299
0.00105821629748
0.000482875311148
0.000447946236443
0.000918672458997
0.00127474091161
0.00149747516487
0.00161984896152
0.00167236096645
0.0016830539823
0.00167475435924
0.00166336884247
0.00165639236169
0.0016559495481
0.00166219015898
0.00167318828889
0.00168151132188
0.00167108364466
0.00161890742038
0.00149688376107
0.00127447174102
0.000918592759767
0.000447964961228
0.000393206000347
0.000693272861045
0.000918653632459
0.00105860953042
0.00113479709114
0.00116682992774
0.00117279806585
0.00116628750894
0.00115764901562
0.00115219740995
0.00115198479641
0.00115708401605
0.00116553827802
0.00117207105436
0.00116627022484
0.00113447468549
0.00105854900747
0.000918773374849
0.000693423240707
0.000393291680457
0.000326588680984
0.000393171324358
0.000447850360987
0.000482893154874
0.000502925862548
0.000512360673861
0.000515015469126
0.000513788390563
0.000511149148271
0.00050879310584
0.000508748267152
0.000511067433119
0.000513708421125
0.000514973012341
0.000512383588283
0.000503031194733
0.00048306892017
0.00044805080488
0.000393328642345
0.000326660546099
0.000384493510107
0.000638058184408
0.000841476850018
0.000977034941376
0.00105912793067
0.00110242303473
0.00112008372517
0.00112319259353
0.00112056925716
0.00111781177686
0.00111769191286
0.00112025435867
0.00112277906824
0.00111967007741
0.00110207848117
0.00105889082873
0.000976904779538
0.000841430545452
0.00063807224016
0.00038462317838
0.00063812115573
0.000785195820696
0.000960571744546
0.00108682191454
0.0011669622639
0.00121171593519
0.00123248713864
0.00123915820675
0.00123955439969
0.00123857467493
0.00123848483934
0.00123931478495
0.00123883580978
0.00123215179852
0.00121141513955
0.00116671708204
0.00108663166508
0.000960420433616
0.000785040922048
0.000637906060745
0.000841682636868
0.000960668925757
0.00114989451903
0.001291657984
0.00138337980265
0.0014350650099
0.00145911692886
0.00146692435033
0.00146747572075
0.00146641211139
0.00146627055833
0.00146709817304
0.00146640997172
0.0014585722201
0.00143454632017
0.00138289474874
0.00129120333321
0.00114947477016
0.000960265446883
0.00084119108447
0.000977359792566
0.00108699177204
0.00129172299441
0.00144820112941
0.00155062587048
0.00160908779496
0.0016372611099
0.00164723461555
0.00164886829754
0.00164835100952
0.00164817718852
0.00164840178642
0.00164656142846
0.00163655608458
0.0016084191676
0.0015499784399
0.00144755349559
0.00129108584643
0.00108635772636
0.000976582161333
0.00105952385588
0.00116715430248
0.00138344942662
0.00155061636484
0.00166121169133
0.00172723263375
0.00176584278837
0.00178384945512
0.0017896062318
0.00179044243633
0.0017902725021
0.00178916634407
0.00178326021133
0.00176521853224
0.00172658913805
0.00166056069755
0.00154991991102
0.00138270449462
0.00116635420281
0.00105848414371
0.00110280732075
0.00121186734213
0.00143506276656
0.0016089739835
0.00172714333572
0.00180798987062
0.00185622693298
0.0018794928923
0.0018875922524
0.00188912618435
0.0018889463706
0.0018871400169
0.00187888324109
0.00185557977459
0.00180740605014
0.00172661290147
0.00160838052201
0.00143434638096
0.00121101503953
0.0011016162783
0.00112037563911
0.00123254420505
0.00145898456054
0.00163698877378
0.00176570978398
0.0018561987469
0.00191035344182
0.00193629800595
0.00194503657649
0.00194646871861
0.00194626810691
0.00194454566365
0.00193560272582
0.00190955359221
0.00185556944552
0.00176524510698
0.0016365658132
0.00145839093099
0.00123174240144
0.00111917669615
0.0011233533228
0.00123910434684
0.00146667037565
0.00164684677175
0.00178368205551
0.0018795146857
0.00193640833488
0.00196264879465
0.0019705478763
0.00197119672079
0.00197094841501
0.00196995993981
0.00196182582847
0.00193542253126
0.0018787595519
0.00178323033753
0.00164655832928
0.00146620952955
0.00123840383839
0.00112223663142
0.00112060416524
0.0012394112454
0.00146716211051
0.0016485023197
0.00178945726237
0.00188768991661
0.00194524825749
0.00197065664061
0.00197697546068
0.00197612406551
0.00197581206363
0.00197624566785
0.00196968879904
0.00194409895425
0.00188680061754
0.00178897927449
0.00164825587197
0.00146678395244
0.00123880080986
0.00111958511019
0.00111775426953
0.00123838067559
0.0014660980022
0.00164803995156
0.00179035311748
0.00188930439073
0.0019467801749
0.00197143188818
0.00197628032852
0.00197413291594
0.0019737709243
0.00197544949386
0.00197034527892
0.00194552409435
0.00188834202496
0.00178984403594
0.00164778673372
0.00146574225007
0.0012378059698
0.00111677727782
0.00111759318678
0.00123827773812
0.00146598800852
0.00164792822219
0.00179024746008
0.00188920061793
0.00194667635311
0.00197132274383
0.00197615330676
0.00197398643877
0.00197362353932
0.00197532168966
0.00197023288952
0.00194541499423
0.00188823288005
0.00178972770921
0.00164765702637
0.00146560613034
0.00123767002723
0.00111656968998
0.00112016394304
0.00123912009483
0.00146684614947
0.00164817784583
0.00178915822414
0.00188740573708
0.00194496644482
0.00197036500051
0.00197664897315
0.00197576414254
0.00197545805819
0.00197592291202
0.00196939034213
0.00194380167534
0.00188649598914
0.00178864820921
0.001647880258
0.00146639812049
0.00123842504314
0.00111903053219
0.00112271101938
0.00123866214691
0.00146617474781
0.00164631539097
0.00178321660795
0.00187909201794
0.00193600631903
0.00196224218215
0.00197012278261
0.00197074357356
0.00197049794347
0.00196953089165
0.00196139832089
0.00193498705115
0.00187829543043
0.00178271043619
0.00164594396815
0.00146561255546
0.00123784463727
0.00112144350585
0.00111963990148
0.00123201431768
0.00145836282826
0.00163629757998
0.00176510203216
0.00185566335179
0.00190987059078
0.00193583195241
0.0019445605302
0.00194597443097
0.00194577302409
0.00194405949192
0.00193510986362
0.00190902485846
0.00185497505771
0.0017645608582
0.00163576676655
0.00145764477648
0.00123107553349
0.00111827300316
0.00110209451983
0.00121132712641
0.00143438880857
0.00160818807678
0.00172636326877
0.00180732009718
0.00185562967369
0.00187892443275
0.00188702496028
0.00188855037911
0.0018883666291
0.00188655753707
0.00187827989203
0.00185492564625
0.00180665695035
0.00172572684038
0.00160746335853
0.00143352840376
0.00121032419747
0.00110072866838
0.00105893763197
0.00116667270732
0.00138280043458
0.00154981465295
0.00166031591917
0.00172636347171
0.0017650754651
0.00178310028985
0.00178886224346
0.00178969535123
0.00178951646607
0.00178839494508
0.0017824587315
0.0017643729584
0.00172561027139
0.00165952871722
0.00154896520591
0.00138189629568
0.00116571477818
0.00105772380255
0.000976967731405
0.00108662521466
0.00129117075005
0.00144747441527
0.00154975567505
0.00160811721098
0.00163622032417
0.0016461588845
0.00164784549196
0.00164732908237
0.00164714050449
0.0016473343079
0.00164540035995
0.00163539905965
0.00160730792765
0.00154894879194
0.0014466575731
0.00129036507
0.00108583189477
0.000976024617872
0.000841491565332
0.000960430700056
0.00114947623358
0.00129106484294
0.0013826268876
0.0014341764273
0.00145811797401
0.00146584295813
0.0014663381545
0.00146523346868
0.00146506908426
0.00146589474794
0.00146522130737
0.00145743553633
0.00143349904377
0.00138197011664
0.00129043627012
0.00114889027394
0.000959877214394
0.000840858587051
0.000638096211929
0.000785057859495
0.00096027969845
0.00108637109834
0.00116634878483
0.00121094979064
0.00123159018782
0.00123815397067
0.00123846306783
0.00123742230986
0.00123730443833
0.00123814495345
0.00123770933142
0.00123110454144
0.00121048318596
0.00116593164194
0.0010860147724
0.000959975807788
0.00078477279334
0.000637783778191
0.000384531498216
0.000637941936828
0.000841244173534
0.00097667058486
0.00105859346802
0.00110169933415
0.00111918298507
0.00112213435117
0.00111937520665
0.00111651811023
0.00111635820993
0.00111895323853
0.00112156150173
0.00111858328418
0.00110115977034
0.00105816504162
0.000976366113215
0.000841049096661
0.000637852402838
0.000384644078921
0.000431423955197
0.000817946889609
0.00113516965459
0.0013518263151
0.0014874348527
0.00156324196557
0.00159875926269
0.00161073635432
0.00161220886052
0.00161110062037
0.00161084563839
0.00161150854932
0.00160973563801
0.00159761239259
0.00156207467392
0.00148634155436
0.00135087754765
0.00113443470363
0.000817544060919
0.000431593150651
0.000818057002428
0.000946585004607
0.0011432792454
0.0012942217012
0.00139651087225
0.00145903831122
0.00149282862028
0.00150828259328
0.00151391157597
0.00151533536539
0.00151523039659
0.00151362075842
0.0015078596209
0.0014923232057
0.00145849087268
0.00139594808697
0.00129366200783
0.00114273332276
0.000946023370263
0.000817256986862
0.00113546180984
0.00114338542676
0.00131024979785
0.00144980076859
0.00154803011743
0.00160958983579
0.00164365464888
0.00165981284674
0.00166598388247
0.00166760590099
0.00166748560829
0.0016656549465
0.00165934038526
0.00164308110429
0.00160894264576
0.00154730940885
0.00144900833878
0.00130940613963
0.00114246509674
0.00113398476886
0.00135229853092
0.0012944111541
0.00144987095837
0.00158774415517
0.00168758440857
0.00175181111061
0.00178847694649
0.00180716790889
0.00181500464425
0.00181721092326
0.00181707843941
0.00181465126221
0.00180668926164
0.0017878583748
0.00175110853987
0.00168677540422
0.00158680460911
0.00144881185094
0.00129319787776
0.00135028329414
0.00148802448703
0.00139674422028
0.00154812579018
0.00168759965462
0.00179132978772
0.00186116552852
0.001903209289
0.00192514990716
0.00193444363119
0.00193724125507
0.00193709511487
0.00193405197223
0.00192455768692
0.00190253700016
0.00186050950929
0.00179057082475
0.00168665906461
0.0015469835129
0.00139534040255
0.00148558559223
0.0015638302783
0.00145925325079
0.00160965261754
0.00175177594951
0.00186112623836
0.00193717065647
0.00198440046741
0.00200951681616
0.00202020551568
0.00202343032781
0.00202325720919
0.00201972172328
0.00200864175265
0.00198331450954
0.00193633530536
0.00186047455008
0.00175095285903
0.00160855093923
0.0014577882245
0.00156117139129
0.00159922087528
0.00149296502787
0.00164363926902
0.00178836657925
0.00190315569498
0.00198454526803
0.0020359410526
0.00206325681366
0.00207461107686
0.00207785421769
0.00207765048929
0.00207400750653
0.00206196502238
0.00203405570896
0.00198315470512
0.0019024611171
0.00178768965095
0.00164265489833
0.00149155997472
0.00159657920384
0.00161101524071
0.00150831600521
0.00165972401954
0.00180705474161
0.00192521115506
0.0020101016868
0.0020639238299
0.00209190009034
0.00210286419537
0.00210556836252
0.00210530439945
0.00210209350125
0.00209027070084
0.00206136230203
0.00200807271122
0.00192431919617
0.00180645361905
0.00165885609215
0.00150703399485
0.00160854482605
0.00161232234496
0.00151385080736
0.00166584389275
0.00181486884219
0.00193463936384
0.00202114771138
0.00207577297199
0.00210341423906
0.00211327388596
0.00211507917301
0.00211476575671
0.00211235142108
0.00210153363163
0.00207286626264
0.00201876746057
0.00193359237535
0.00181428458871
0.00166505077167
0.00151268530341
0.00161005458475
0.0016111216456
0.00151521592615
0.00166745809377
0.00181711083831
0.00193753118463
0.0020245411238
0.0020792596775
0.00210642984332
0.00211544194338
0.00211655479733
0.00211619833115
0.00211442921358
0.00210440739578
0.00207621030576
0.00202205410191
0.00193642533918
0.0018165162782
0.00166668801462
0.00151410278293
0.00160896008137
0.00161088537662
0.00151510485458
0.00166736421208
0.0018170310339
0.00193746683596
0.00202449241929
0.0020792320369
0.00210641498997
0.0021154289341
0.00211653944822
0.00211618360251
0.00211442197324
0.00210439395899
0.00207618097866
0.0020220057938
0.00193635403066
0.00181642277523
0.00166657075823
0.00151395463092
0.00160866275195
0.0016116381961
0.00151352642331
0.00166556861404
0.0018146350198
0.00193445202956
0.0020210137243
0.00207569173094
0.00210336715491
0.00211322932002
0.00211503421024
0.00211474041344
0.00211233080803
0.00210149470736
0.0020727830565
0.00201862528907
0.0019333822382
0.00181401254647
0.00166471402331
0.00151226772519
0.00160922272761
0.00160995980597
0.00150781328474
0.00165928672315
0.00180668113206
0.00192491153876
0.00200991172859
0.00206384695899
0.00209190047904
0.00210288472597
0.0021055926178
0.00210534086506
0.00210212377652
0.00209025843913
0.00206126066031
0.00200784988842
0.00192397645413
0.00180602192777
0.00165833084213
0.0015064038073
0.00160729577049
0.00159794086319
0.00149234716433
0.00164306926665
0.00178783064856
0.00190272344181
0.00198426772229
0.00203584583134
0.00206329044325
0.00207469692086
0.0020779502426
0.00207775157106
0.00207409145889
0.00206197901944
0.00203391828366
0.00198282542523
0.00190196508816
0.00178707156044
0.00164197571526
0.00149079272406
0.00159507932536
0.00156250844299
0.00145859862279
0.00160899734656
0.00175111013485
0.00186053170736
0.0019367069367
0.00198409900751
0.002009349944
0.00202009633713
0.00202333249149
0.00202315937801
0.00201960521788
0.002008447668
0.0019829638318
0.00193580505308
0.00185979672363
0.00175018359505
0.00160776655846
0.00145696719856
0.00155960956828
0.00148683621965
0.00139612526504
0.00154743879372
0.00168684528652
0.00179056758589
0.00186047818405
0.00190261063736
0.00192463231224
0.00193395029209
0.00193674814983
0.0019365948045
0.00193353607134
0.00192399804422
0.00190187314861
0.00185973530213
0.00178970228344
0.00168577841027
0.00154614847711
0.00139454255183
0.0014841445607
0.00135137627223
0.00129388108791
0.00144920409238
0.00158695462413
0.00168672365017
0.00175092682295
0.00178760839162
0.00180638075339
0.00181416888981
0.00181635175916
0.00181620563624
0.00181377564204
0.00180583895066
0.00178689776685
0.00175010881399
0.00168578014557
0.00158586448153
0.00144797989354
0.00129248336976
0.00134910905673
0.00113486901415
0.00114295972741
0.0013096351527
0.0014490186519
0.00154712285271
0.0016085941596
0.00164259806881
0.00165871455251
0.00166482958982
0.00166640789156
0.00166626561335
0.00166443733795
0.00165814151126
0.00164189497565
0.00160779614363
0.00154623741683
0.0014480536536
0.00130861595867
0.00114186123771
0.00113316830771
0.000817807991211
0.000946235056079
0.00114270650573
0.00129344743542
0.00139555684861
0.00145792724628
0.00149158666052
0.00150693414546
0.00151246977779
0.00151382532089
0.00151368829962
0.00151208858192
0.00150636887574
0.00149090646526
0.00145718717639
0.00139479514539
0.00129269230685
0.00114197844515
0.000945511773855
0.00081685211645
0.000431465221987
0.000817539978559
0.00113444331564
0.00135082928746
0.0014861533714
0.00156167203404
0.00159692988819
0.00160868964173
0.00160997915269
0.0016087415661
0.00160843301669
0.00160913153668
0.00160746277926
0.00159551572081
0.00156021985032
0.00148477422839
0.00134961102825
0.001133475826
0.000816976462366
0.00043161900688
0.000464468021415
0.000951525949958
0.00135494753073
0.00163450981581
0.00181405168425
0.001919134689
0.00197331480646
0.00199676840309
0.00200497480217
0.0020070683401
0.00200669025439
0.00200390609111
0.00199518166535
0.00197138274725
0.00191701775224
0.00181193068501
0.00163257906504
0.00135340237409
0.000950635179673
0.000464703033978
0.000951720324232
0.00107489923806
0.00129675222165
0.00147231006481
0.00159531736369
0.00167397962215
0.00171949716697
0.00174281255262
0.00175314139262
0.00175675180896
0.00175664033
0.0017528257332
0.00174234006553
0.00171889676028
0.00167326831742
0.00159451341861
0.00147143517362
0.00129582846352
0.00107388918242
0.000950191864353
0.00135538264214
0.00129689439897
0.00146282793563
0.0016101818609
0.00171839714438
0.00178970528589
0.00183210132595
0.00185450008853
0.00186458507939
0.00186808003203
0.00186796121293
0.00186425789595
0.00185402497174
0.00183151627812
0.0017889916192
0.00171752597097
0.00160913360123
0.00146161309565
0.00129543554621
0.0013526789039
0.00163519184307
0.00147255756935
0.00161027217461
0.00174488831426
0.00184753974569
0.00191718181225
0.00195975177396
0.00198311695674
0.0019935438737
0.00199707900782
0.00199691548357
0.00199309644777
0.00198239829921
0.00195890938606
0.0019163513433
0.00184663618935
0.001743736792
0.00160885742225
0.00147076329456
0.0016315850926
0.00181491968018
0.00159562693243
0.00171853292598
0.00184757282546
0.00194931526599
0.00202091202167
0.0020650361858
0.00208881709225
0.00209941705366
0.00210291367102
0.00210265805555
0.00209866990609
0.00208743124833
0.00206321569992
0.00201931555259
0.00194823836311
0.00184647310264
0.00171706691532
0.00159363430722
0.0018106112263
0.00192003882588
0.001674281862
0.00178982763078
0.00191718630373
0.00202106018459
0.00209460024941
0.00214043703357
0.00216490882861
0.0021754842014
0.00217875085403
0.0021783615015
0.00217426437054
0.00216245924618
0.00213694006059
0.002091338692
0.00201912492906
0.00191611928874
0.00178843008733
0.00167224075583
0.00191536973261
0.00197405966418
0.00171971205211
0.00183215405502
0.00195985617007
0.00206582104524
0.00214141180499
0.00218849806607
0.00221311269709
0.00222329122366
0.00222611301652
0.00222561513501
0.00222162090512
0.00220956664826
0.00218311319434
0.00213614087348
0.00206248334775
0.00195854179566
0.00183089684244
0.00171776764092
0.0019694407911
0.0019972415502
0.00174289474053
0.00185446544495
0.00198345272959
0.00209045628316
0.00216727861292
0.00221485703249
0.00223901182497
0.0022484045378
0.00225060087277
0.00225003442197
0.00224645841792
0.00223477964781
0.00220817256831
0.00216051155957
0.00208596149931
0.00198173346389
0.00185334039966
0.0017411349234
0.00199296930741
0.00200518108421
0.00175309151091
0.0018644968664
0.00199406884029
0.00210164354424
0.00217885949322
0.0022263114713
0.00224979457067
0.0022581883758
0.00225963227085
0.00225904643754
0.00225614384755
0.00224528341407
0.00221913646357
0.00217148620339
0.00209665677976
0.00199215887492
0.00186345429627
0.00175151406443
0.00200133322863
0.00200712697285
0.00175661487331
0.00186798647689
0.00199771358804
0.00210543315007
0.00218264151065
0.00222984246034
0.00225279728095
0.00226045952294
0.00226135120898
0.00226074230203
0.00225836898746
0.00224817110181
0.0022225209168
0.00217511661336
0.00210032193853
0.00199575098224
0.00186696691111
0.0017551273663
0.00200352251357
0.00200680890248
0.00175649588329
0.0018679016627
0.00199765638637
0.0021054100947
0.00218265638225
0.00222989547128
0.00225286830581
0.00226053340332
0.00226142495557
0.00226081499372
0.00225844645931
0.00224824140921
0.00222256986763
0.00217513022774
0.00210029183223
0.00199568002249
0.00186685634791
0.00175496338593
0.00200312050967
0.00200422360556
0.00175273097998
0.00186423966471
0.00199389506155
0.00210157457435
0.00217891424008
0.00222647533327
0.00225001595374
0.00225841549376
0.00225986037472
0.00225929054972
0.00225638789482
0.00224550584831
0.00221929260889
0.0021715294733
0.00209656666987
0.00199194796954
0.00186313196311
0.00175104449279
0.00200018144426
0.00199571954084
0.0017423242175
0.00185404637657
0.00198317207949
0.00209036143661
0.00216742178675
0.00221521761327
0.00223950323434
0.00224892909828
0.00225112988121
0.00225057148884
0.00224698439682
0.00223524889902
0.00220850062496
0.0021606153527
0.00208582577713
0.00198139486674
0.00185283051719
0.00174041674157
0.00199119830761
0.00197216208117
0.00171899673618
0.00183159534617
0.00195946464834
0.00206565730068
0.00214159023475
0.00218901351027
0.00221384073252
0.00222408792537
0.00222691638791
0.00222641823556
0.00222240294648
0.00221025841893
0.0021835728066
0.0021362593682
0.00206225568625
0.00195807331678
0.00183022675877
0.00171687867194
0.00196725902974
0.00191802292973
0.00167350088052
0.00178915005656
0.00191658345407
0.00202068188648
0.00209457665208
0.00214077691585
0.00216549164294
0.00217615442728
0.00217943081148
0.00217903698401
0.00217491385076
0.00216299763546
0.00213721576678
0.00209124027496
0.00201866464798
0.00191541926869
0.00178761972767
0.00167126466791
0.00191303564436
0.00181304255948
0.00159485423585
0.00171777675885
0.00184680911282
0.00194863445878
0.00202046689154
0.00206487870078
0.00208884695895
0.00209951083866
0.00210301000997
0.00210274314069
0.00209873039395
0.00208740568368
0.00206298231293
0.0020187812447
0.00194745755718
0.00184558788081
0.00171615582169
0.00159265014565
0.0018083905435
0.00163365319045
0.00147184424004
0.00160947706808
0.00174401201743
0.00184664024033
0.00191632356299
0.001959056972
0.00198244586873
0.00199287316908
0.00199639137415
0.00199621266552
0.00199238132099
0.00198165565401
0.0019581231252
0.00191537832279
0.00184560306671
0.00174270672222
0.00160788311769
0.00146982877717
0.00162969553388
0.00135429607884
0.00129625572209
0.0014620179704
0.00160922010094
0.00171733827397
0.00178858994685
0.0018309538537
0.00185330273705
0.00186333386015
0.00186678600662
0.00186664284455
0.00186293673407
0.00185271507248
0.00183022609172
0.00178771131344
0.0017162878544
0.00160798182224
0.00146060308525
0.00129457876575
0.0013512787406
0.000951161296237
0.00107430135906
0.0012958944677
0.00147122870788
0.00159404686951
0.00167254736142
0.00171792986242
0.00174112999954
0.00175135635333
0.00175489402459
0.00175474416713
0.0017509330812
0.00174048395695
0.00171711683688
0.00167160309892
0.00159300308699
0.00147011709202
0.00129474740005
0.00107308920755
0.000949424221408
0.000464526169905
0.000950747242658
0.00135362636304
0.00163274397228
0.00181183449978
0.00191647904253
0.00197028303908
0.0019934444014
0.00200142196224
0.00200336124318
0.00200290835921
0.0020001485233
0.00199153755506
0.00196797484382
0.0019139627764
0.00180931243856
0.00163043144127
0.00135175469468
0.000949645058296
0.000464744696815
0.00049049459506
0.00106674751046
0.00154411308497
0.00187846427194
0.00209872067663
0.00223351166248
0.00230873084658
0.0023463973138
0.00236358286716
0.00237010157975
0.00236971421132
0.00236246550848
0.00234471910472
0.00230656548834
0.00223093064221
0.00209599227005
0.00187595857232
0.00154209805685
0.00106554436562
0.000490813121287
0.00106708683514
0.00118128840749
0.00142547686603
0.0016225508828
0.0017632744292
0.00185559381548
0.00191104289399
0.00194099642196
0.00195532300817
0.00196079891894
0.00196072295788
0.00195511629894
0.00194071263613
0.00191068355902
0.00185512401643
0.00176265368629
0.00162176119595
0.00142449907924
0.00118002295096
0.00106486448048
0.00154479372643
0.00142567887964
0.00159487259152
0.00175138214804
0.00186874659403
0.00194789235183
0.00199652068341
0.0020231361605
0.00203583973979
0.00204059135995
0.00204047652335
0.00203552853065
0.00202262533075
0.00199587577438
0.00194730535324
0.0018680889928
0.00175045874768
0.00159364078314
0.00142396945141
0.00154097154553
0.00187949253683
0.0016228856761
0.00175150052851
0.0018869535903
0.00199304151191
0.00206659769357
0.00211277953246
0.00213784225027
0.00214950682785
0.00215366087954
0.00215339953996
0.00214873634502
0.0021364110061
0.00211087507138
0.00206491203618
0.00199186999589
0.00188597235191
0.00175013030488
0.001620888115
0.00187436554872
0.00210003864624
0.00176368305453
0.00186892991044
0.00199311675171
0.00209409810132
0.00216579421201
0.00221004214241
0.00223373328368
0.00224437263557
0.00224784942745
0.00224737075195
0.00224280458923
0.0022306302559
0.00220556325455
0.00216139462731
0.0020913091047
0.00199168376515
0.00186756272803
0.0017615402933
0.00209382505904
0.0022349130226
0.00185598083625
0.00194807898853
0.00206701506152
0.00216660408941
0.00223692595012
0.00227987272086
0.00230212694921
0.00231153710862
0.00231428810164
0.00231359696348
0.00230914758796
0.00229711477346
0.00227219789258
0.00222865583414
0.00216072582172
0.00206439271752