/*--------------------------------*- C++ -*----------------------------------*\
| =========                 |                                                 |
| \\      /  F ield         | OpenFOAM: The Open Source CFD Toolbox           |
|  \\    /   O peration     | Version:  3.0.1                                 |
|   \\  /    A nd           | Web:      www.OpenFOAM.org                      |
|    \\/     M anipulation  |                                                 |
\*---------------------------------------------------------------------------*/
FoamFile
{
    version     2.0;
    format      ascii;
    class       volVectorField;
    location    "4.3";
    object      U_0;
}
// * * * * * * * * * * * * * * * * * * * * * * * * * * * * * * * * * * * * * //

dimensions      [0 1 -1 0 0 0 0];

internalField   nonuniform List<vector> 
7968
(
(0.000624132253396 0.000614931956895 -0.00116362833342)
(0.00222788034917 0.00017505226213 -0.00122147700139)
(0.00447094018084 6.31249786857e-06 -0.00113183000581)
(0.00630081082756 6.66486145978e-05 -0.000936680467344)
(0.00748227754837 0.000336796326178 -0.000748232677069)
(0.00768380780363 0.000745352270046 -0.00059395035796)
(0.00705166987794 0.00109989981634 -0.00049848256525)
(0.00561339372339 0.00145558790293 -0.000432868791437)
(0.00360454602723 0.0017076682632 -0.000407338402489)
(0.00127831825393 0.00183514062988 -0.00040183010704)
(-0.00115287626929 0.0018363882224 -0.000401033515547)
(-0.00348784285251 0.00171081892387 -0.00040473522298)
(-0.00551128868165 0.00145910146343 -0.00042865451242)
(-0.00696680131733 0.0011025408739 -0.000493244560165)
(-0.00761478097103 0.000746938981334 -0.000588824489821)
(-0.00742793423577 0.000338468879014 -0.000744809797782)
(-0.00625673189482 6.99913406454e-05 -0.000935862345155)
(-0.00443609870154 1.28310690447e-05 -0.00113365703234)
(-0.00220103281846 0.00018579974556 -0.00122510873304)
(-0.000612020833404 0.000632625766704 -0.0011673335716)
(0.000182018589951 0.00220770517253 -0.00122494121461)
(0.00186484353449 0.00185044278907 -0.00274661249654)
(0.00460222385012 0.00199087121987 -0.00331571384343)
(0.00676131130904 0.00261937091913 -0.00339951351791)
(0.00808808123249 0.00363588599556 -0.00334715105591)
(0.00835484484178 0.00481045271555 -0.00325722586656)
(0.00761320572744 0.00589379602618 -0.00318546758576)
(0.0060275917001 0.00679750334685 -0.00314853799739)
(0.0038523498339 0.00742411240028 -0.00315062613675)
(0.00136014332139 0.00774030051302 -0.0031654246344)
(-0.00123392161079 0.00774509202678 -0.00316504221023)
(-0.0037369146148 0.00743697545617 -0.00314922361753)
(-0.00593033469582 0.00681450713179 -0.00314684120658)
(-0.00753649714095 0.00591102868209 -0.00318479663559)
(-0.00829608754829 0.00482780245142 -0.00325933810892)
(-0.00804363372055 0.00365478106207 -0.00335472455369)
(-0.00672584695675 0.00264238968018 -0.00341157538691)
(-0.00457251737314 0.0020204824845 -0.00333228553773)
(-0.00183601519611 0.0018869815694 -0.00276072716181)
(-0.000165462654026 0.00225152453454 -0.00122324248816)
(1.41734698516e-05 0.00445226646876 -0.0011440558902)
(0.0020042378577 0.00459009210627 -0.00331907775491)
(0.00528537271591 0.00527687919461 -0.00403160464562)
(0.00782695179263 0.00660187967792 -0.00399839182617)
(0.00933094153946 0.00838627268522 -0.00374157427174)
(0.00958783733872 0.0103289866079 -0.00345075485866)
(0.00866670278258 0.0121116500398 -0.00322100252527)
(0.00680588070009 0.0135654420047 -0.00309145660982)
(0.00432111954017 0.0145727311159 -0.00305568943687)
(0.0015193050954 0.0150835481219 -0.00306147663668)
(-0.00138032482325 0.0150924862332 -0.00305965210046)
(-0.00419709376947 0.0145967701462 -0.00305051351007)
(-0.00670609465728 0.0135973788007 -0.00308516904475)
(-0.00859163826455 0.0121445097995 -0.003216591065)
(-0.00953169355217 0.0103621971439 -0.00345040246043)
(-0.00928750825022 0.00842292060059 -0.00374704404712)
(-0.0077911435005 0.00664572896282 -0.00400965532612)
(-0.00525415034189 0.00532996798584 -0.00404646024883)
(-0.00197246319555 0.00465105039663 -0.00333024624364)
(5.32065730916e-06 0.00451673715817 -0.00113599118749)
(7.3896440667e-05 0.00628871068117 -0.000947322882538)
(0.00263143279735 0.00675602840006 -0.00340553466597)
(0.00660881235557 0.00782575593693 -0.00399954075135)
(0.00965331021477 0.00965510411642 -0.00362507840524)
(0.0113814928802 0.0119970942738 -0.00295199589285)
(0.0115744231416 0.014488610079 -0.00225866407253)
(0.01035868656 0.0167620483746 -0.00169806616493)
(0.00805749477331 0.0186018716637 -0.00134640204694)
(0.00507367642304 0.019868276047 -0.00119418085635)
(0.00177452751988 0.0205086048198 -0.00115718584829)
(-0.0016144461415 0.0205208603218 -0.00115228206628)
(-0.00493517364225 0.0199011565129 -0.00118100497325)
(-0.00795298294847 0.0186439802364 -0.00132988315937)
(-0.0102847966476 0.0168026406655 -0.00168509776819)
(-0.0115187087254 0.0145270327461 -0.00225152590338)
(-0.0113346597124 0.0120389811641 -0.00295003370854)
(-0.0096114983661 0.00970682977599 -0.00362754679169)
(-0.00657117594079 0.00788925610322 -0.00400547509089)
(-0.00259371240108 0.00682851986768 -0.00340718383837)
(-5.07241610628e-05 0.00636296797078 -0.000929439499195)
(0.000345249621119 0.00747667620149 -0.000759716175256)
(0.00364938327145 0.00809027423602 -0.00334953765234)
(0.00839430445467 0.0093389643628 -0.00374188617375)
(0.0119956521769 0.0113953712324 -0.00295008502954)
(0.0139634049137 0.0139807888546 -0.00176239699497)
(0.0140632931739 0.0167105945889 -0.000554785083958)
(0.0124829043318 0.0191823345597 0.000435162017972)
(0.00964313995815 0.0211775622468 0.00109972016736)
(0.0060399411512 0.0225554165706 0.00143652156974)
(0.00210601654171 0.0232547833611 0.00155676792449)
(-0.00191865902085 0.0232690289407 0.00156622497943)
(-0.00588439260667 0.0225933157825 0.0014618235353)
(-0.00953629525055 0.0212233420102 0.00112858106239)
(-0.0124143492332 0.0192207441905 0.000455382856006)
(-0.0140102832558 0.0167428338436 -0.000545058590682)
(-0.0139115643952 0.0140144431789 -0.00175733069447)
(-0.0119439600855 0.0114404134015 -0.00294561769774)
(-0.00834703559134 0.00939804655933 -0.00373769873777)
(-0.00360493232472 0.00815937577884 -0.00333990438872)
(-0.000319197279814 0.00754830927679 -0.000732873291734)
(0.000755792712217 0.00768412200644 -0.000605820268433)
(0.00482809936747 0.00836322714953 -0.00326165926108)
(0.0103430845803 0.00960350677242 -0.00344947932198)
(0.0144937559964 0.0115984755548 -0.0022518181178)
(0.0166966039049 0.0140948512285 -0.000545765012177)
(0.0166472514126 0.0166798099092 0.00116606500314)
(0.0146730403746 0.0189904357834 0.0025570224793)
(0.0112671904917 0.0208569748129 0.00349135908218)
(0.0070179432646 0.0221412551902 0.00396571173847)
(0.00243763780745 0.0227899300651 0.004133501192)
(-0.00222351930979 0.0228046674823 0.00414764560959)
(-0.00684755985085 0.0221807100526 0.00400357224481)
(-0.0111640218361 0.0209032711805 0.00353061824634)
(-0.0146153623483 0.0190224149547 0.00257592098587)
(-0.0165987697316 0.0167016812451 0.00116915051905)
(-0.0166389222314 0.0141153985193 -0.00054745419506)
(-0.0144292440845 0.0116296143987 -0.00224768007838)
(-0.0102837716187 0.00964887346167 -0.00344017960735)
(-0.00477559684747 0.0084186767422 -0.00324683682332)
(-0.000726013526817 0.00774277258221 -0.000573167530059)
(0.0011107270117 0.00705516289227 -0.000510672964738)
(0.00591571235845 0.00762447019574 -0.00318938166453)
(0.0121327990682 0.00868402077912 -0.00321649417902)
(0.0167759606703 0.0103832426079 -0.00168320322883)
(0.0191744915122 0.0125146770872 0.000457918518355)
(0.0189602301584 0.0147084082307 0.00257375360878)
(0.0166291017676 0.0166655897058 0.00425955354584)
(0.0127035596089 0.0182704566403 0.00539842108968)
(0.00786997606272 0.0193803299295 0.00597665208106)
(0.00272375228299 0.0199349917256 0.00618044081463)
(-0.00248551905664 0.01994802712 0.0061987873417)
(-0.00768705372198 0.0194156001719 0.00602562210773)
(-0.012608932599 0.0183140187053 0.00544559545097)
(-0.0165866540347 0.0166940532065 0.00426964107904)
(-0.0189181057962 0.0147246685763 0.00256466577818)
(-0.0191127087604 0.0125278531694 0.000445109351269)
(-0.0166996666558 0.010404146474 -0.00168476485113)
(-0.012061930589 0.00871644165628 -0.00320662204485)
(-0.00585584579913 0.00766622088475 -0.00316994086452)
(-0.00107961950352 0.00710132413153 -0.000475938175406)
(0.00146760195274 0.0056174698744 -0.000444716124728)
(0.00682160617886 0.00603725187224 -0.00315115931445)
(0.0135907214363 0.00681761058878 -0.00308448959525)
(0.0186216696328 0.00807076168421 -0.00132586352139)
(0.0211756999956 0.009658222385 0.00113275565815)
(0.0208312253325 0.0112819676258 0.00352503831146)
(0.0182349950109 0.0127161239187 0.00542036527054)
(0.0138810297779 0.013891418248 0.00673795852676)
(0.00858253900315 0.0147357031531 0.00728423518863)
(0.00296840310451 0.0151846781365 0.0073608772911)
(-0.00271167632511 0.0151956863576 0.00737675208703)
(-0.00838884828187 0.0147659967664 0.00732373785431)
(-0.0137889300125 0.0139264758698 0.00679310675832)
(-0.0182055320146 0.0127435612724 0.00542610216548)
(-0.0207958886399 0.0112974937441 0.00350576931517)
(-0.0211119229634 0.00967036072466 0.00111090035034)
(-0.018538249586 0.00808756249714 -0.00133262547479)
(-0.0135131819186 0.0068410793504 -0.00307611286532)
(-0.00675801244885 0.00606683056409 -0.00313160992932)
(-0.00143552694133 0.00565126286379 -0.000409851180216)
(0.00171984256376 0.00360694185895 -0.000418788328419)
(0.00744725530175 0.00385788287011 -0.00315229059324)
(0.014596739421 0.00432431339324 -0.00304849786643)
(0.0198866640537 0.00507144631984 -0.00117418564676)
(0.0225515091393 0.00603166307525 0.00146919681397)
(0.0221111137937 0.00700085340232 0.00399859983141)
(0.0193392432721 0.00784402350798 0.00599541162437)
(0.0147236723003 0.00855175749044 0.00728056966208)
(0.00911174395451 0.00908028274924 0.00764666298839)
(0.00314050613277 0.00933922472351 0.00778521187511)
(-0.00287045782774 0.00934555792191 0.00780294592284)
(-0.00890608967716 0.00909722484471 0.00769229114394)
(-0.0146330420681 0.00857764894806 0.00732263521223)
(-0.0193145377458 0.00786676242741 0.00600506797822)
(-0.0220793943924 0.00701702440558 0.00397758210174)
(-0.0224866257473 0.00604491329115 0.00144505128494)
(-0.0198004399189 0.00508704656377 -0.00118238768962)
(-0.0145167958742 0.00434243524339 -0.00304101444889)
(-0.00738246379896 0.003879297752 -0.00313389629523)
(-0.00168754282348 0.00363159145892 -0.000384668516882)
(0.00184656975219 0.00127899840453 -0.000412857470651)
(0.00776010481353 0.00136232830619 -0.00316651443485)
(0.0151021934773 0.00151676399633 -0.00305545885895)
(0.0205196359055 0.00176346420921 -0.00114055603712)
(0.0232421897389 0.00208473142079 0.00158095281504)
(0.0227505952343 0.00240488056695 0.00415169244094)
(0.0198870691594 0.00268129075231 0.00618074092315)
(0.015170767329 0.00292065246476 0.00734308304914)
(0.00937255373959 0.00309085945309 0.00777427540419)
(0.00322795829356 0.00317711407527 0.0079395990499)
(-0.0029493478597 0.00317930093264 0.00795638137179)
(-0.00915827164533 0.00309827501331 0.00782103557898)
(-0.0150736300766 0.00293177112121 0.00739188527245)
(-0.0198614051083 0.0026933532866 0.00619646432153)
(-0.0227191860389 0.00241621348378 0.00413533827189)
(-0.0231770947517 0.0020953927259 0.00155863131165)
(-0.0204329252921 0.00177578815096 -0.00114877523997)
(-0.0150218237821 0.00153043508603 -0.00304787505852)
(-0.00769527212203 0.00137793757881 -0.0031486122704)
(-0.00181438400776 0.00129645404123 -0.000379271265512)
(0.00184712027312 -0.00115221071572 -0.000412048460129)
(0.00776166090012 -0.00123220042161 -0.00316602344649)
(0.015105660593 -0.0013829276944 -0.00305525108598)
(0.0205243761908 -0.00162360556165 -0.00114026675821)
(0.0232476336099 -0.00193622429628 0.00158151140526)
(0.0227560219483 -0.00224768689459 0.00415209350497)
(0.0198924457268 -0.00251597242732 0.00618147087809)
(0.0151759810369 -0.00274789677023 0.00734341503647)
(0.0093764632407 -0.00291243378845 0.00777622140166)
(0.00322995793798 -0.00299450886719 0.00794253787787)
(-0.00294975419636 -0.00299464922984 0.00795947384499)
(-0.00916083813698 -0.00291455925022 0.00782340369058)
(-0.015077805698 -0.00275165565904 0.00739248021432)
(-0.0198656687434 -0.00251854381104 0.00619757918261)
(-0.0227235542855 -0.00224692133198 0.0041361849369)
(-0.0231814398447 -0.00193181360105 0.00155955153485)
(-0.0204366156647 -0.00161714021574 -0.00114783996016)
(-0.0150245114371 -0.00137445737059 -0.00304678338422)
(-0.00769647424516 -0.00122246953954 -0.00314722342124)
(-0.00181490588765 -0.00114185450056 -0.000378073730921)
(0.0017215344536 -0.00348505186421 -0.000416235026869)
(0.00745214283662 -0.0037326434216 -0.00315054878262)
(0.0146074048366 -0.00419492303681 -0.00304752899034)
(0.0199012931444 -0.00493506808457 -0.00117295407089)
(0.0225682869187 -0.00588575748689 0.00147162338359)
(0.0221275287035 -0.00684494201103 0.00400117591448)
(0.0193549787202 -0.00767913179595 0.00599847406559)
(0.0147385655344 -0.00838003536257 0.00728037802795)
(0.00912209800135 -0.00890341688365 0.00764964827773)
(0.00314618857803 -0.00915928524083 0.00779028162491)
(-0.00287059849973 -0.00916405371909 0.00780908936043)
(-0.00891290297552 -0.00891642658376 0.00769692617841)
(-0.0146453426159 -0.008400104222 0.00732300700144)
(-0.0193272286701 -0.00769372603177 0.00600882889958)
(-0.0220926147054 -0.00685032953609 0.0039809627014)
(-0.0225000620909 -0.0058850502382 0.00144849147249)
(-0.0198120944334 -0.00493329698521 -0.00117934120361)
(-0.0145253270579 -0.00419260239154 -0.00303776492275)
(-0.0073864181861 -0.00373052912195 -0.00312991446284)
(-0.00168919840706 -0.00348333405487 -0.000381135782821)
(0.00147059918228 -0.0055058053063 -0.000440457080456)
(0.00683048676954 -0.00592261918587 -0.0031481777661)
(0.0136093562963 -0.00669830910523 -0.00308229642419)
(0.0186472310298 -0.00794333386823 -0.00132235077589)
(0.021204921527 -0.00952024207829 0.00113910522331)
(0.020859572819 -0.0111324448759 0.00353329551823)
(0.0182614226848 -0.0125556895199 0.00542997914337)
(0.0139025544847 -0.0137221626201 0.00675062759735)
(0.00859904416161 -0.0145640252556 0.00728754854645)
(0.00297633538728 -0.0150089378571 0.00736680307469)
(-0.00271231414917 -0.0150191054598 0.0073833297331)
(-0.00839985546573 -0.0145915177933 0.00732764701226)
(-0.013805505857 -0.0137520690076 0.00680574052237)
(-0.0182266254868 -0.0125756601265 0.00543549800634)
(-0.0208186400187 -0.0111380124124 0.00351433605173)
(-0.021135603213 -0.00951972402613 0.00111851444661)
(-0.0185592207737 -0.00794476723661 -0.00132665677805)
(-0.0135286517714 -0.00670378580572 -0.00307090531662)
(-0.006765600496 -0.00593129608161 -0.00312567383231)
(-0.00143856749679 -0.00551550119685 -0.000404258555075)
(0.00111507588893 -0.0069593947887 -0.000505162671996)
(0.00592882262588 -0.00752617468713 -0.00318602711629)
(0.0121597187256 -0.00858093798769 -0.00321340355566)
(0.0168129775795 -0.0102718187709 -0.00167714774482)
(0.0192168059884 -0.0123928090638 0.00046902433746)
(0.0190016508754 -0.0145752598098 0.00258942739555)
(0.0166665601175 -0.0165215583617 0.00427906986916)
(0.012733588492 -0.0181181505328 0.00542147679437)
(0.00788994702378 -0.0192219484158 0.00600193516814)
(0.00273341655397 -0.0197728063607 0.00620627084272)
(-0.00248592456753 -0.0197848651011 0.00622506671648)
(-0.00769909213907 -0.0192538548692 0.0060513050331)
(-0.0126316705008 -0.0181557884846 0.00546847620194)
(-0.0166167126872 -0.0165419783656 0.00428896282425)
(-0.0189521290625 -0.0145816655777 0.00258096743923)
(-0.0191481277195 -0.0123943716671 0.000457784500579)
(-0.016731106787 -0.0102792988654 -0.00167600029257)
(-0.0120850645562 -0.00859791400709 -0.00320018674336)
(-0.00586753355696 -0.00754993511405 -0.00316314107644)
(-0.00108425299995 -0.00698428807589 -0.000468931576714)
(0.000759556123097 -0.00760608376962 -0.000600449978633)
(0.00484608422237 -0.00828405682283 -0.00325957472898)
(0.0103785471087 -0.00952087278237 -0.00344674084529)
(0.0145420733479 -0.0115086375776 -0.0022445076524)
(0.0167516196133 -0.0139962460164 -0.000531492538738)
(0.0167007085455 -0.0165714290693 0.00118704905102)
(0.0147204459736 -0.0188726738328 0.00258253921788)
(0.0113046191874 -0.0207323213474 0.00352032793899)
(0.00704284584164 -0.0220122248077 0.00399619537907)
(0.00244986817004 -0.0226581024105 0.00416411540591)
(-0.00222380059108 -0.0226718832911 0.00417866768308)
(-0.00686162641025 -0.0220483094636 0.0040348358273)
(-0.0111916434472 -0.0207725827807 0.00356029581758)
(-0.0146536210852 -0.01889653719 0.00260222997472)
(-0.0166436468765 -0.0165837927381 0.00119137329209)
(-0.0166863797969 -0.0140063273621 -0.00053117930671)
(-0.0144716926432 -0.0115282896512 -0.00223734628595)
(-0.0103154803502 -0.00955347808175 -0.00343364519804)
(-0.00479249315651 -0.00832484663976 -0.00324030784581)
(-0.00073007198046 -0.00764650867531 -0.000566398476193)
(0.00035163088892 -0.00741921315732 -0.00075496585285)
(0.00367197338607 -0.00803290763306 -0.00334945430842)
(0.00843697117611 -0.00927896910178 -0.00374106560384)
(0.01205319674 -0.0113301184981 -0.00294367170315)
(0.0140281260992 -0.0139093059974 -0.00174801539398)
(0.0141272113473 -0.0166328164186 -0.000533167654448)
(0.0125397272919 -0.0190973280224 0.000463144299005)
(0.00968870978372 -0.0210874006005 0.0011323739018)
(0.00607117268471 -0.0224616332336 0.00147217301337)
(0.00212157728476 -0.023158565118 0.00159423065948)
(-0.00191931828699 -0.0231718145283 0.00160399061733)
(-0.00590151717027 -0.0224962463018 0.00149840134041)
(-0.00956911545743 -0.0211274633324 0.00116282164848)
(-0.0124599422815 -0.0191281953698 0.000485341525858)
(-0.0140644929881 -0.0166565132277 -0.000520956230724)
(-0.0139684787584 -0.0139340159721 -0.00174008468665)
(-0.0119959813103 -0.0113658746607 -0.00293578759802)
(-0.00838676637244 -0.00932823746296 -0.00373284071342)
(-0.00362724758343 -0.00809100174756 -0.00333653320734)
(-0.000326404142994 -0.00747603778449 -0.000726719376477)
(8.0508944592e-05 -0.00624935338289 -0.000944470954602)
(0.00265623508804 -0.00671740769114 -0.00340883555734)
(0.00665538153972 -0.00778569362252 -0.00400227323872)
(0.00971581012817 -0.00961194328988 -0.0036218700549)
(0.011451287607 -0.0119504881068 -0.0029409052232)
(0.0116426941548 -0.0144383389931 -0.00224066068968)
(0.0104191626985 -0.0167080900749 -0.00167464427269)
(0.00810556020256 -0.0185452334856 -0.00131935083517)
(0.00510662192514 -0.0198095229499 -0.0011654547277)
(0.00179169095629 -0.0204480778351 -0.00112627986224)
(-0.00161310453782 -0.0204593444682 -0.00112083496993)
(-0.00495048144829 -0.0198394665574 -0.00115067485771)
(-0.00798528809964 -0.0185825720875 -0.00130017887795)
(-0.0103319248443 -0.0167425577808 -0.00165852535718)
(-0.0115759913269 -0.0144700351791 -0.00223016425757)
(-0.0113961494961 -0.0119855572612 -0.00293506317067)
(-0.00966870958601 -0.00965705092685 -0.00362006350834)
(-0.00661541999471 -0.00784259503276 -0.00400387700195)
(-0.00261879013913 -0.00678233207262 -0.00340704653918)
(-5.83551450548e-05 -0.00631271349329 -0.000924969314587)
(2.12062112821e-05 -0.00442860436286 -0.00114218554368)
(0.00203007465693 -0.00456619837591 -0.00332576840008)
(0.00533371350118 -0.0052521421095 -0.00403799637965)
(0.00789158426535 -0.00657557898968 -0.00399912126854)
(0.00940301359904 -0.00835836425328 -0.0037350312109)
(0.00965842526592 -0.0102993063176 -0.00343796551809)
(0.00872949038313 -0.0120795863192 -0.0032036196436)
(0.0068565107211 -0.013531583992 -0.00307104802172)
(0.00435686596526 -0.0145372209802 -0.00303333033377)
(0.00153877716359 -0.0150466523342 -0.00303775918963)
(-0.00137785860975 -0.0150548619775 -0.0030352974815)
(-0.00421197399721 -0.0145591881127 -0.00302626369276)
(-0.0067380457056 -0.013560264547 -0.00306165480363)
(-0.00863868078759 -0.0121083643257 -0.00319546501665)
(-0.00958954941501 -0.0103281673615 -0.00343352321227)
(-0.00935047633523 -0.00839093964383 -0.003735587207)
(-0.00785044694261 -0.00661602408918 -0.0040055189834)
(-0.00530049636231 -0.00530202230894 -0.00404902791412)
(-0.00199890022956 -0.00462348173754 -0.00333377089)
(-3.07891120358e-06 -0.00448663913613 -0.00113274197369)
(0.000189720916166 -0.00219603148694 -0.00122722295353)
(0.00189098029801 -0.00183670257676 -0.00275446924095)
(0.0046500781006 -0.00197623832238 -0.0033234298872)
(0.00682536027829 -0.00260430027517 -0.00340248330458)
(0.00815985740283 -0.00362071611575 -0.00334355804813)
(0.00842505629706 -0.00479491061878 -0.00324821526429)
(0.00767617363994 -0.00587703009961 -0.00317268005137)
(0.00607894761872 -0.0067800745863 -0.00313296008585)
(0.00388929218567 -0.00740593246644 -0.00313311742523)
(0.0013811276896 -0.00772141952723 -0.00314669612672)
(-0.00122979440741 -0.00772590368414 -0.00314572896623)
(-0.00374989724688 -0.00741784540884 -0.00313001520399)
(-0.00596004462571 -0.00679564827455 -0.00312844693073)
(-0.00758102554089 -0.00589257935683 -0.00316859195203)
(-0.00835112833565 -0.00481065886037 -0.00324655429955)
(-0.00810472100543 -0.00363858158532 -0.00334587743049)
(-0.00678350418458 -0.00262669966434 -0.00341113837209)
(-0.00461767936182 -0.00200520176233 -0.00333656686714)
(-0.00186260040657 -0.00187223507971 -0.0027661744098)
(-0.000174707606338 -0.00223615495556 -0.00122455619224)
(0.000631410980121 -0.000609883486026 -0.00116736356535)
(0.00225237676371 -0.00016845123323 -0.00122666832972)
(0.00451523532804 6.57891337397e-07 -0.00113572891386)
(0.00635969733228 -5.98572080881e-05 -0.000937722596712)
(0.00754902977059 -0.00033033967604 -0.000745397601954)
(0.00774914614428 -0.000739242463728 -0.000587463252754)
(0.00711150731195 -0.00109352376718 -0.000489886236003)
(0.00566295995948 -0.0014495731341 -0.000422508502227)
(0.00364102954225 -0.00170188220372 -0.000395879873603)
(0.00130001253205 -0.00182937240193 -0.000389714042247)
(-0.00114682979147 -0.00183060661575 -0.000388612731936)
(-0.00349746155445 -0.00170485531298 -0.000392449782806)
(-0.00553594697581 -0.00145285431862 -0.00041689393365)
(-0.0070046675694 -0.00109605665769 -0.000482854527099)
(-0.00766135051993 -0.000740575532869 -0.000580375827736)
(-0.00748000041387 -0.00033253806825 -0.000739721916966)
(-0.00630522018545 -6.36158918398e-05 -0.000934801949543)
(-0.00447432679744 -6.43803512039e-06 -0.00113545102595)
(-0.00222284011063 -0.000179725961531 -0.00122807874654)
(-0.000619323002718 -0.000626704517439 -0.00116708484294)
(0.00115477301562 0.0011445550882 -0.00448836391009)
(0.00328968660352 0.00149943760121 -0.00492706808662)
(0.00558875244575 0.00189679603528 -0.0050150116008)
(0.00738402268036 0.00245741006473 -0.00485371991537)
(0.00844065707656 0.00312262558185 -0.00463532577534)
(0.00852154612642 0.00380658988145 -0.0044392575603)
(0.00771828641217 0.00437698291873 -0.00429454776022)
(0.00610407539685 0.00486326063727 -0.00421336437318)
(0.00390325500737 0.00519817210301 -0.00420404610408)
(0.00137953114934 0.0053666068211 -0.00422128294474)
(-0.00124915728364 0.00536941551686 -0.00421967597293)
(-0.00378265816309 0.00520594823516 -0.00419887865785)
(-0.00600037374877 0.00487401328404 -0.00420534992047)
(-0.00763472953512 0.00438881437767 -0.00428543014954)
(-0.00845658786247 0.00381946968917 -0.00443211282202)
(-0.00839363493901 0.00313836680924 -0.00463396581647)
(-0.00735070258054 0.00247573229649 -0.00486074514628)
(-0.0055656914755 0.00191823998483 -0.00503050084883)
(-0.0032736382928 0.0015232182241 -0.00494667632261)
(-0.00114780706904 0.00117005170292 -0.00450699682102)
(0.00150236001966 0.0032712379756 -0.00493372201972)
(0.00374277647504 0.00373406619984 -0.00683205932054)
(0.0059628604577 0.004437797961 -0.00740575413603)
(0.0076437825853 0.00550762717857 -0.00734541128765)
(0.0085615258952 0.00680715123817 -0.00704325942283)
(0.00857993252378 0.00815078855419 -0.00667796437186)
(0.00770978548032 0.0093624092039 -0.00636529937001)
(0.00607165384076 0.010350114401 -0.00616019780854)
(0.00387972243744 0.011035627291 -0.00607207775376)
(0.00137374930037 0.0113853333469 -0.00605304054287)
(-0.00123616114732 0.0113927758613 -0.00605119705152)
(-0.00375368869369 0.0110560590875 -0.00606665680033)
(-0.00596558298346 0.0103786015741 -0.00615304736005)
(-0.00762673465425 0.00939412965653 -0.00635941611735)
(-0.00851833224671 0.00818522245277 -0.00667706288967)
(-0.00851899727391 0.00684636474542 -0.00705093706236)
(-0.0076169919732 0.0055531383309 -0.0073628092294)
(-0.00594798564273 0.00448980097586 -0.00743216470487)
(-0.00373393382126 0.00379102858603 -0.00685881430848)
(-0.00150039867331 0.0033303579336 -0.00494054418175)
(0.00189656015587 0.00557088806148 -0.00503353594519)
(0.00444193978225 0.00595467880772 -0.00741219748338)
(0.00684530605426 0.00684216220444 -0.00792726148352)
(0.00858894549961 0.00824221775599 -0.00751227751595)
(0.00947118559488 0.00995650762867 -0.00671824569801)
(0.00938552977397 0.01174420646 -0.00584273023234)
(0.00835212854123 0.0133771417462 -0.00509062622129)
(0.00652706981157 0.014703815257 -0.00457259816744)
(0.00415030870354 0.015624747679 -0.00429933069548)
(0.00146797008569 0.0160963170688 -0.00419661187021)
(-0.00131502842366 0.0161078199423 -0.00419090275053)
(-0.0040128351385 0.0156560479155 -0.00428387039856)
(-0.00641537328431 0.0147466809563 -0.00455316615725)
(-0.00826760167945 0.0134231949819 -0.00507363811707)
(-0.00932354965802 0.0117920902608 -0.00583224602074)
(-0.00942739265945 0.0100094613698 -0.00671618732357)
(-0.00856097613188 0.0083037028839 -0.00751906617796)
(-0.00683046913375 0.00691264923796 -0.00794153078117)
(-0.00443354862901 0.00603198486718 -0.00742511932632)
(-0.00189535147613 0.00565116798924 -0.00502285628287)
(0.00245716098592 0.00736978175482 -0.00487487280625)
(0.0055103897414 0.00763833067733 -0.00735589529135)
(0.00824314845379 0.00858856686441 -0.00751569955058)
(0.010147092805 0.0101497341319 -0.00646898020431)
(0.0110243867389 0.012074192553 -0.00492110322266)
(0.0107904329898 0.0140814131946 -0.00330769187459)
(0.00949823370413 0.0159116648696 -0.00194035426746)
(0.00735454010275 0.0173889570638 -0.000993161562828)
(0.00464478711777 0.0184107334205 -0.000474469818936)
(0.00163826134602 0.0189344311159 -0.000263507276598)
(-0.00146436747751 0.0189489993421 -0.00025134012245)
(-0.00449249701831 0.0184502644114 -0.000442567798592)
(-0.00723726893796 0.0174410388984 -0.000954950487976)
(-0.0094140176295 0.0159638501453 -0.00190835469198)
(-0.0107283663549 0.014131835176 -0.00328560323502)
(-0.0109768910677 0.0121279111481 -0.00490584403899)
(-0.010113160905 0.0102132758708 -0.00645804129048)
(-0.00822297295526 0.00866346947914 -0.00750886180882)
(-0.00549799480513 0.00772190925534 -0.00734549532402)
(-0.0024539083878 0.00745681222688 -0.00483843733244)
(0.00312192310615 0.00843523618631 -0.004659452617)
(0.00681027496797 0.0085621401448 -0.00705375833585)
(0.00995809888347 0.00947653223085 -0.00672160496246)
(0.0120714012565 0.0110343222346 -0.00491924740195)
(0.0129506458724 0.0129633638722 -0.00249653856341)
(0.01253251131 0.0149720855176 -3.60015292842e-05)
(0.0109301115934 0.0168152677564 0.00201742607427)
(0.00840124367134 0.0183028899983 0.00342888658618)
(0.0052786603866 0.0193319234748 0.00420705938597)
(0.00185753718924 0.0198610652321 0.00452852398357)
(-0.00166035126809 0.0198780849207 0.0045487078828)
(-0.00511237660869 0.0193779223345 0.00425973447321)
(-0.00828366526037 0.0183604844654 0.00348826985887)
(-0.0108528224852 0.0168666553522 0.00205969182785)
(-0.0124746622623 0.0150171918684 -1.32990915274e-05)
(-0.0128998610051 0.013008040508 -0.00248015618977)
(-0.0120286741987 0.0110881522892 -0.00489775323426)
(-0.00992887817584 0.00954280370106 -0.00669615823905)
(-0.00679094392629 0.00863796873153 -0.00702066399854)
(-0.00311560949586 0.00851475288293 -0.00459901533051)
(0.0038085240642 0.00852465050421 -0.00446467480462)
(0.00815688299444 0.00858686094334 -0.00668867165089)
(0.0117501610202 0.0093964004459 -0.00584217768184)
(0.0140831234181 0.0108070184573 -0.0032950071143)
(0.0149610126275 0.0125542707098 -1.83386887718e-05)
(0.0143753954901 0.0143998570625 0.00322807815808)
(0.0124668453469 0.0161108034523 0.00589624413354)
(0.00953570822142 0.0174952778752 0.00771329761595)
(0.00597062822715 0.0184540312925 0.008718142346)
(0.00209706092218 0.0189487341499 0.0091354746814)
(-0.0018767783033 0.0189670894982 0.00916616424678)
(-0.00579295478942 0.0185035437138 0.00879876930155)
(-0.00942546295863 0.0175552033003 0.00779856856118)
(-0.0124041517632 0.0161558026781 0.00594061589789)
(-0.014326319275 0.0144361171615 0.00323807052858)
(-0.0149090419415 0.0125877164735 -1.86137775203e-05)
(-0.014030537277 0.0108466931118 -0.00327819359885)
(-0.0117094263892 0.00944730741217 -0.00580861753349)
(-0.00812884287582 0.00864621191209 -0.00664204210098)
(-0.00379712365885 0.00858635842392 -0.00438835548748)
(0.00437990242299 0.007725558775 -0.0043193099986)
(0.00937168350369 0.00771898259339 -0.00637364472279)
(0.0133888433966 0.00836333560599 -0.0050828518676)
(0.0159196473864 0.00951338727887 -0.00191088890421)
(0.0168087734016 0.0109498354116 0.0020609385351)
(0.0160876069564 0.0124929937758 0.00592713713257)
(0.0139099228507 0.0139385097003 0.00908625750303)
(0.0106077519971 0.0151120980789 0.0112407466869)
(0.00662657123718 0.0159345164894 0.0124280831156)
(0.00232488986201 0.0163641622275 0.0129226864315)
(-0.00208204656632 0.0163810144987 0.0129657755735)
(-0.00643878075777 0.0159803403147 0.0125431709405)
(-0.0105101566827 0.0151689384727 0.0113599938913)
(-0.0138656622587 0.0139779293702 0.00912714154165)
(-0.0160464903333 0.0125208637561 0.00592078315232)
(-0.0167565152108 0.010975353559 0.00203898128355)
(-0.0158593198152 0.00954176049373 -0.0019085214087)
(-0.0133378088486 0.00839957224336 -0.00505066091575)
(-0.00933621909357 0.00776133331389 -0.00632127680504)
(-0.00436522198568 0.00777048983988 -0.00423665945119)
(0.00486652776203 0.00611180052213 -0.00423627606775)
(0.0103606047792 0.00607852287325 -0.00616587777374)