/*--------------------------------*- C++ -*----------------------------------*\
| =========                 |                                                 |
| \\      /  F ield         | OpenFOAM: The Open Source CFD Toolbox           |
|  \\    /   O peration     | Version:  3.0.1                                 |
|   \\  /    A nd           | Web:      www.OpenFOAM.org                      |
|    \\/     M anipulation  |                                                 |
\*---------------------------------------------------------------------------*/
FoamFile
{
    version     2.0;
    format      ascii;
    class       volScalarField;
    location    "6.7";
    object      ddt0(epsilon);
}
// * * * * * * * * * * * * * * * * * * * * * * * * * * * * * * * * * * * * * //

dimensions      [0 2 -4 0 0 0 0];

internalField   nonuniform List<scalar> 
7968
(
-4.79221355214e-05
-5.64486563759e-05
-6.33049009745e-05
-6.76417790417e-05
-7.01089711397e-05
-7.12704990044e-05
-7.16612227404e-05
-7.17525824807e-05
-7.17162117373e-05
-7.17132515806e-05
-7.20235081088e-05
-7.24124362121e-05
-7.2661381887e-05
-7.28069211217e-05
-7.23688092136e-05
-7.10390849668e-05
-6.83555759323e-05
-6.37330263349e-05
-5.65742878685e-05
-4.79159419136e-05
-5.64406372408e-05
-9.56419050468e-05
-0.000125236464995
-0.000144289561424
-0.000155889620431
-0.00016251100763
-0.00016595310174
-0.00016765111217
-0.000168707154217
-0.000169853422164
-0.000171473872033
-0.000173214556387
-0.000174307797093
-0.000173860709537
-0.00017068630427
-0.000163355606703
-0.000150145804416
-0.000128961082381
-9.73151151565e-05
-5.64647391017e-05
-6.33519894788e-05
-0.000125215561473
-0.000172641601594
-0.000204043848842
-0.000223951684362
-0.00023589562488
-0.000242697464548
-0.000246614482171
-0.000249338703293
-0.000251893253298
-0.000254671185289
-0.000257283870032
-0.000258640298867
-0.000257292604399
-0.000251286649351
-0.000238348841307
-0.000215839279286
-0.000180626135056
-0.000129101262643
-6.34460971355e-05
-6.76924687613e-05
-0.000144282811792
-0.000204017336052
-0.000244223867597
-0.000270194366916
-0.00028622034804
-0.000295898261123
-0.00030208174076
-0.000307884065815
-0.000312003467776
-0.000315396917963
-0.000317574693557
-0.000318505264316
-0.000316276904264
-0.000308084929014
-0.000290987679163
-0.000261655523125
-0.000216249105488
-0.000150493794232
-6.79884794171e-05
-7.01236874196e-05
-0.00015581922876
-0.000223689880186
-0.000269901314782
-0.000300130363279
-0.000319484031715
-0.000334063793268
-0.000343393642239
-0.000349964444822
-0.000355080370889
-0.000359242633014
-0.000362002640676
-0.000361845010029
-0.000356970850746
-0.000346746592186
-0.00032665623589
-0.000292512254303
-0.000239924305913
-0.000164138982533
-7.08198227768e-05
-7.12627754698e-05
-0.000162137573759
-0.000235103955174
-0.000285269359343
-0.000318750156924
-0.000343793709628
-0.000360095707044
-0.000370703692739
-0.000378175146097
-0.000384096373123
-0.000388943460442
-0.000392195002347
-0.000392080527244
-0.000386423322843
-0.000372675558352
-0.000349893294746
-0.000312374620699
-0.000254879314713
-0.000172340391983
-7.23396451942e-05
-7.15978509669e-05
-0.000165069949206
-0.000241055694738
-0.000293908096147
-0.000332424572141
-0.000359100603534
-0.000376500591112
-0.00038791698729
-0.000396044887283
-0.000402572906128
-0.000407990386475
-0.000411686096816
-0.000411747984676
-0.000405812211953
-0.000390901236358
-0.000364022972875
-0.000324442380469
-0.000263695462241
-0.000176925574235
-7.28374615994e-05
-7.15325103993e-05
-0.000166053760917
-0.000243810070764
-0.000298635426536
-0.000340424629888
-0.000368279574439
-0.000386396635358
-0.000398302871542
-0.000406840046125
-0.000413761330116
-0.000419615940497
-0.000423680470228
-0.000423927534189
-0.00041788876884
-0.000402414601462
-0.000374169830316
-0.000331395115328
-0.00026849591905
-0.000179141674936
-7.28697391013e-05
-7.15007708518e-05
-0.000166211605962
-0.000245091831083
-0.000301811774832
-0.000345301146747
-0.000373877184368
-0.000392438176092
-0.00040461645708
-0.000413335330258
-0.000420469324792
-0.000426612282626
-0.000430927621781
-0.00043129609701
-0.000425186485901
-0.000409365544717
-0.000380312157169
-0.000334611849776
-0.00027104725578
-0.000180121673632
-7.2864226547e-05
-7.13483935535e-05
-0.00016631193845
-0.000246055626789
-0.000305742881093
-0.000348627210233
-0.000377654375746
-0.000396529732345
-0.000408849817778
-0.00041763641755
-0.000424802458894
-0.000431085861598
-0.00043549503136
-0.000435825948761
-0.000429576407865
-0.000413477158638
-0.000383940499524
-0.000337422545173
-0.000272539464805
-0.000180628432553
-7.28046903355e-05
-7.1392789195e-05
-0.000166830134529
-0.000247263010497
-0.000307441008204
-0.000351018968902
-0.000380452873176
-0.000399591478098
-0.000412050626368
-0.000420876539263
-0.000428005898629
-0.000434188861422
-0.00043842092916
-0.000438516958843
-0.0004320138097
-0.000415622209648
-0.000385733662249
-0.000338807000057
-0.000273515522666
-0.000181118043344
-7.28188507915e-05
-7.15866324752e-05
-0.000167678627977
-0.000248539105221
-0.000307023368042
-0.000352167019236
-0.00038193134257
-0.000401265269338
-0.000413853313015
-0.000422686326831
-0.000429693396038
-0.000435503482222
-0.000439332266987
-0.000439084219514
-0.000432260709625
-0.00041558768127
-0.000385498514364
-0.000338594163476
-0.000273877250294
-0.000181483076557
-7.29926530166e-05
-7.16433577946e-05
-0.00016825476728
-0.000249033158878
-0.000306858321769
-0.000350973317689
-0.000380702233831
-0.000400082464393
-0.000412689847348
-0.0004214532172
-0.000428200661449
-0.000433537263693
-0.000436859521316
-0.000436174948705
-0.000428995763367
-0.000412129552158
-0.000382203445633
-0.000337027901598
-0.000272669663599
-0.000181056213969
-7.30133141191e-05
-7.17332900427e-05
-0.000167679019059
-0.000247352933944
-0.00030403623936
-0.000345449929996
-0.000374492008655
-0.000393578223403
-0.00040599195469
-0.000414507020011
-0.00042089508272
-0.000425726032328
-0.000428517666965
-0.000427384424809
-0.000419934758384
-0.000403155576109
-0.00037408285614
-0.000332265794104
-0.000268534717975
-0.000178997022945
-7.2812396979e-05
-7.13784832213e-05
-0.000164772119753
-0.000241597615617
-0.000295913524617
-0.000333119308256
-0.000360440189949
-0.000378641497506
-0.0003904919239
-0.000398537462149
-0.000404437847303
-0.000408735674137
-0.000411014266637
-0.000409547437427
-0.000402117052997
-0.000386231119876
-0.000361220012991
-0.000320545995128
-0.000259649519569
-0.000174223082882
-7.23813694752e-05
-7.02039339906e-05
-0.000158108981164
-0.000229502300046
-0.000279653901105
-0.000313631098869
-0.000336022152012
-0.000352034844804
-0.000362698372416
-0.000369937012928
-0.000375181545824
-0.000378905303638
-0.000380757931467
-0.000379285136451
-0.000372584822932
-0.000360727413324
-0.000337537431847
-0.000299857225052
-0.000243947655446
-0.000165580148779
-7.07240972356e-05
-6.77276149796e-05
-0.000145937815797
-0.000208428692947
-0.000251884728326
-0.000281094334178
-0.000299974722696
-0.000311878625191
-0.000319502630285
-0.000325212532437
-0.00032955016615
-0.000332673906118
-0.000334504757166
-0.000334972097456
-0.000330839160159
-0.000319953621374
-0.000299720340741
-0.000267214910459
-0.000219015948271
-0.000151196222851
-6.79039282352e-05
-6.33378982235e-05
-0.000126092772519
-0.000175245970228
-0.00020885252172
-0.000231072220337
-0.000245164786423
-0.000253760853152
-0.000259019137678
-0.000262633899638
-0.000265628112654
-0.000268342436499
-0.000270339729367
-0.000270585064054
-0.00026751460734
-0.000259300208358
-0.000243921153291
-0.000219071480114
-0.00018194803569
-0.000129200517818
-6.33008838656e-05
-5.63967801601e-05
-9.58586374444e-05
-0.000126169210535
-0.000146236296365
-0.00015888115121
-0.000166620007365
-0.000171060871673
-0.000173558960482
-0.000175190080775
-0.000176629639842
-0.000178211468802
-0.000179662060314
-0.000180128190437
-0.000178676834176
-0.000174228732664
-0.000165547353735
-0.000151183177693
-0.000129148376274
-9.71263617145e-05
-5.62620806705e-05
-4.78907369528e-05
-5.63592866438e-05
-6.31552813963e-05
-6.75130187441e-05
-7.01841257201e-05
-7.14675896541e-05
-7.1979459363e-05
-7.21540905942e-05
-7.2211627302e-05
-7.22620161138e-05
-7.24691590006e-05
-7.28985616792e-05
-7.30707914278e-05
-7.31129893923e-05
-7.24910148862e-05
-7.09834984045e-05
-6.81114269902e-05
-6.34442285814e-05
-5.63736859508e-05
-4.78143177713e-05
-5.60100796835e-05
-9.29826880371e-05
-0.000121305235071
-0.000140049264257
-0.000151988747326
-0.000159278888472
-0.000163529542693
-0.000165824402172
-0.000167303482741
-0.000168647530969
-0.00017026828478
-0.000171805887994
-0.000172442821425
-0.000171177532669
-0.000167257682381
-0.000159374301756
-0.00014599274958
-0.000125198214301
-9.46655081397e-05
-5.61480020238e-05
-9.29041054912e-05
-9.48408550759e-05
-0.000115340148485
-0.000130317612948
-0.00014043886243
-0.00014695162128
-0.000150997777199
-0.000153522038556
-0.000155252325863
-0.00015666545743
-0.000157936018364
-0.000158918749909
-0.000159126396369
-0.000157916718451
-0.000154470113479
-0.000147790721152
-0.000136751541656
-0.000120206697988
-9.77783148734e-05
-9.47189045818e-05
-0.000121171087972
-0.000115235590967
-0.000138055973014
-0.000155877698673
-0.000168525781744
-0.000177000980672
-0.000182463997687
-0.000185992483088
-0.000188409803493
-0.000190275130952
-0.000191774941349
-0.000192792895299
-0.000192779472162
-0.00019101006454
-0.000186517548914
-0.000178184938545
-0.000164833305179
-0.000145455969789
-0.000120389821528
-0.000125285189672
-0.000139815601534
-0.000130064402352
-0.000155727225649
-0.000176546985383
-0.000191780658117
-0.000202287340236
-0.000209276146207
-0.000213927429301
-0.000217131263434
-0.000219384106125
-0.000220964457871
-0.000221779392278
-0.000221324013033
-0.000218842458462
-0.000213226606402
-0.000203234186459
-0.000187607979332
-0.000165401089224
-0.000137372718672
-0.000146324319576
-0.000151545165831
-0.000139958209984
-0.000168166985786
-0.000191606464009
-0.000209157564854
-0.000221642600431
-0.000230272485289
-0.000235830174878
-0.000239451739459
-0.000241952640685
-0.000243647194761
-0.000244421619138
-0.000243547705252
-0.000240174706932
-0.000233435703643
-0.000221975906996
-0.000204409801708
-0.00017979807967
-0.000149186721551
-0.000160316107995
-0.000158464909139
-0.000146132750387
-0.000176351489893
-0.000201901948931
-0.000221489507002
-0.00023585200804
-0.000245406152497
-0.000251425156106
-0.000255294600881
-0.000257996488333
-0.000259874525182
-0.000260763106017
-0.000259775518078
-0.000255914019155
-0.000248074141801
-0.000235293262216
-0.000216166141302
-0.000189657870095
-0.00015700492917
-0.00016921773616
-0.000162178036007
-0.00014971903876
-0.000181422627608
-0.000208625387074
-0.000230052088498
-0.000245375645876
-0.000255378437337
-0.000261588713486
-0.000265586487431
-0.000268477155397
-0.000270610472075
-0.000271740375198
-0.00027084613616
-0.000266805464995
-0.000258367251312
-0.000244372414242
-0.000224009793472
-0.00019608945613
-0.000161914434992
-0.000174611792457
-0.000163897918876
-0.000151673853138
-0.000184455791992
-0.000212933209688
-0.000235478081419
-0.00025131654112
-0.000261496526326
-0.00026773590041
-0.000271792772044
-0.000274855173043
-0.000277267209036
-0.000278687797395
-0.000277986323777
-0.000273942886796
-0.000265212788437
-0.000250541516729
-0.000229037007542
-0.000200095781875
-0.00016482500757
-0.000177540769403
-0.000164358342781
-0.000152732273138
-0.000186300731611
-0.000215781749103
-0.000238860787463
-0.000254948108092
-0.000265176319462
-0.000271391040301
-0.000275479769534
-0.000278675627824
-0.000281312324454
-0.000282968131269
-0.000282438713978
-0.000278437645613
-0.000269557745767
-0.000254479375988
-0.000232202198977
-0.00020250245448
-0.000166463918588
-0.00017889546814
-0.000164725449306
-0.000153438520683
-0.000187529432871
-0.000217695172265
-0.000241022625742
-0.000257256933649
-0.000267530110967
-0.000273750418381
-0.000277866338015
-0.000281133342089
-0.000283879470144
-0.000285636840051
-0.000285166162513
-0.000281155688224
-0.000272164314416
-0.000256839802566
-0.000234153502589
-0.000203890911039
-0.000167364776843
-0.000179564318494
-0.000165314811537
-0.000154042081192
-0.000188419672989
-0.000218806575172
-0.000242324271852
-0.000258697698597
-0.000269074374896
-0.000275366846861
-0.000279520690206
-0.000282787951107
-0.000285496479784
-0.000287186892954
-0.00028663072017
-0.000282520026543
-0.000273407139587
-0.000257927974243
-0.000235045076981
-0.000204535193215
-0.00016779584042
-0.000180012203911
-0.000166024085877
-0.000154461195756
-0.000188854152645
-0.000218986871901
-0.000242593506245
-0.000259074452235
-0.000269594678772
-0.000276012710505
-0.00028020971882
-0.000283410406767
-0.000285949820173
-0.000287434466968
-0.000286680111405
-0.00028240428761
-0.00027317774793
-0.000257648673203
-0.000234797526232
-0.000204429372943
-0.000167705050612
-0.00018019944401
-0.000166389533107
-0.00015430782874
-0.000188354236347
-0.000217857408628
-0.000241191166174
-0.000257621701961
-0.000268245318941
-0.00027479812558
-0.000279033821094
-0.000282127801462
-0.000284432335802
-0.000285621462418
-0.000284616246756
-0.000280167929431
-0.000270900113983
-0.00025551314614
-0.000233072402338
-0.000203081568304
-0.000166705048574
-0.000179443595526
-0.000165128925289
-0.000152931042409
-0.000186216811477
-0.000214770033694
-0.000237154769108
-0.000253194410875
-0.000263752251941
-0.000270368819204
-0.000274618736763
-0.000277596989584
-0.000279662642718
-0.000280553695127
-0.000279324117567
-0.000274786904346
-0.000265654269098
-0.000250720012459
-0.000229138768875
-0.000199804873851
-0.000164191989118
-0.000176929028714
-0.000161493302489
-0.000149534949285
-0.000181497942635
-0.000208601344965
-0.000229359812275
-0.0002445231549
-0.000254699479718
-0.000261202082224
-0.000265397165224
-0.000268256068105
-0.00027012976761
-0.000270792507402
-0.000269458514402
-0.000265027385974
-0.000256366282195
-0.000242420671633
-0.000221885332165
-0.000193682133946
-0.000159368718086
-0.000171323095776
-0.000154245758178
-0.000143159096126
-0.000173131353724
-0.000198199805447
-0.000217097199942
-0.0002305547073
-0.00023986850233
-0.00024595657926
-0.000249952600262
-0.000252665955304
-0.000254398873482
-0.000254961891948
-0.000253725601013
-0.000249713585622
-0.000242033461408
-0.00022928750371
-0.000210085541133
-0.000183664123522
-0.000151352925334
-0.000162084272881
-0.000141854316056
-0.000132719358373
-0.000160035487168
-0.000182437093828
-0.000199067072016
-0.000210719129801
-0.000218570028001
-0.000223797389124
-0.000227355704307
-0.000229836689476
-0.000231459565776
-0.000232070679713
-0.000231232400094
-0.000228024129112
-0.000221299356454
-0.000209869520298
-0.00019258403297
-0.000168657480621
-0.000139077262154
-0.000147563382181
-0.000122366248145
-0.000117089119247
-0.000141318027225
-0.000160552160076
-0.000174502385641
-0.000184109186891
-0.000190490089623
-0.000194697044328
-0.000197577288701
-0.000199677536412
-0.000201180254129
-0.000201894003291
-0.000201341130067
-0.000198719464417
-0.000193079868342
-0.000183382712327
-0.000168562786228
-0.000147756221622
-0.000121477881629
-0.000125925569841
-9.33100599077e-05
-9.57904260515e-05
-0.00011730419985
-0.000133388461564
-0.000144579008409
-0.000152057489112
-0.000156906102792
-0.000160042667753
-0.000162175817873
-0.000163769455895
-0.000164990555953
-0.000165662160701
-0.000165336664801
-0.000163329415661
-0.000158885399903
-0.000151095351563
-0.000138950685103
-0.000121421807854
-9.8250382444e-05
-9.48683346946e-05
-5.59870211064e-05
-9.33853658552e-05
-0.00012251247225
-0.00014229705508
-0.000155359147479
-0.000163709807951
-0.000168869131576
-0.000171900885504
-0.000173864255817
-0.000175409773463
-0.000176896963718
-0.000178123492286
-0.00017819545755
-0.000175994102413
-0.000170999268215
-0.000161960856382
-0.000147506992311
-0.000125872056626
-9.48154871737e-05
-5.60625351217e-05
-6.21665361882e-05
-0.000117563911891
-0.000161503244761
-0.000192065835371
-0.000212626231408
-0.000225903616552
-0.000234157038928
-0.000239305682797
-0.000242886982551
-0.000245952606099
-0.000248911904271
-0.000251399917501
-0.000252197893559
-0.000249980155247
-0.000243075224517
-0.000229493353318
-0.000206939050819
-0.000172676291243
-0.000123525739326
-6.28586709672e-05
-0.000117421600478
-0.000111710939868
-0.000134964418074
-0.000153856039587
-0.000167596140514
-0.000176796428385
-0.000182522111652
-0.000185947366245
-0.000188119252846
-0.000189741990336
-0.000191064532924
-0.000192015102737
-0.000191976423102
-0.000190148979462
-0.000185551454616
-0.00017707592384
-0.000163589507452
-0.000144153853544
-0.000119142627416
-0.000123659664542
-0.000161212285905
-0.000134816242355
-0.00015775608174
-0.000178642830002
-0.000194587946267
-0.000205408090701
-0.00021197519846
-0.000215509623377
-0.00021727422651
-0.000218159878362
-0.000218520629424
-0.000218438549672
-0.000217392878363
-0.000214567748853
-0.000209021317406
-0.000199728775365
-0.000185782170545
-0.00016680137517
-0.000144646089021
-0.000173119848553
-0.00019155379461
-0.000153596221795
-0.000178664708887
-0.000202660739437
-0.000221348204236
-0.000234112953923
-0.000241708337369
-0.000245422047473
-0.000246682004003
-0.000246697775298
-0.000246091396543
-0.000244975056527
-0.000242819452866
-0.000238869344731
-0.000232151143274
-0.0002216564334
-0.000206553063825
-0.00018675897054
-0.00016503865274
-0.000208323324069
-0.000211743670139
-0.000167269805601
-0.000194895898121
-0.000221875087441
-0.000243146729074
-0.000257686270521
-0.000265837354959
-0.000269247379515
-0.000269830888746
-0.000269071964561
-0.000267823918149
-0.000266164900336
-0.000263434136237
-0.000258604022216
-0.000250720917522
-0.000239182975639
-0.000222948800499
-0.000202095828351
-0.000179977799742
-0.000232677696257
-0.000224456861497
-0.000176424342151
-0.000206269824417
-0.000235719008963
-0.000259100173856
-0.000274443161737
-0.000282379782123
-0.0002853092583
-0.000285265202854
-0.000283986143734
-0.000282566491788
-0.000280951647338
-0.000278348227714
-0.00027341381324
-0.000264772302358
-0.000252038625584
-0.000234918465214
-0.000213126806474
-0.000190374448765
-0.000248940426411
-0.000231948064585
-0.000182097189607
-0.00021360715608
-0.000244876606248
-0.000269415015467
-0.000284425526369
-0.000291642088242
-0.000293840233919
-0.000293232890415
-0.000291767871307
-0.000290623980191
-0.000289541176864
-0.000287624295064
-0.000283341191965
-0.000274738820284
-0.00026121188942
-0.000243148963608
-0.000220675015457
-0.00019728398663
-0.000259298560675
-0.000236154167598
-0.000185442309635
-0.000218064914714
-0.000250585234953
-0.000275271180227
-0.000289503761408
-0.000295783024053
-0.000297128758965
-0.000296100440967
-0.000294708579014
-0.000294133222297
-0.000293849503466
-0.000292796399421
-0.00028929119919
-0.000281186672533
-0.000267442961233
-0.000248877754816
-0.000225675377878
-0.000201695435986
-0.000265566670787
-0.00023862054969
-0.000187478580869
-0.000220697683797
-0.000253790743278
-0.0002783707403
-0.000291981978253
-0.000297451501259
-0.000298127023598
-0.000296859430203
-0.000295692198804
-0.000295720711645
-0.000296187584117
-0.000295861452923
-0.000292949962918
-0.000285224765654
-0.00027151858503
-0.000252633721808
-0.000228807831239
-0.000204418249321
-0.000269198836239
-0.000240471079421
-0.000188933574404
-0.000222406805541
-0.000255664824363
-0.000280105717441
-0.000293374931324
-0.000298440424948
-0.000298825192732
-0.000297528924889
-0.000296598569634
-0.000297041554133
-0.000297966458141
-0.000298042108403
-0.000295424372529
-0.000287861433609
-0.000274155342881
-0.000255079867055
-0.000230896019823
-0.000206087149418
-0.000271313656931
-0.000242252789216
-0.0001900984927
-0.00022352336271
-0.000256652891368
-0.000280993025292
-0.00029422930849
-0.000299342214625
-0.00029984315849
-0.000298701042187
-0.000297919809056
-0.000298473121251
-0.000299464267823
-0.00029957194236
-0.00029696818373
-0.000289402074421
-0.000275647229846
-0.000256445513005
-0.000232056403394
-0.000206984483067
-0.000272546788694
-0.000243709595553
-0.000190795772436
-0.000223861178671
-0.00025656086536
-0.000280813300553
-0.000294291726022
-0.000299859160354
-0.000300834594294
-0.000299989382978
-0.000299251663644
-0.000299626291361
-0.000300335265611
-0.000300163854144
-0.00029735128491
-0.000289659955691
-0.000275840344593
-0.000256589581073
-0.000232125928828
-0.000207004704195
-0.000272745734212
-0.000243881178592
-0.000190428920682
-0.000222759165141
-0.000254650313756
-0.000278681866266
-0.000292487340899
-0.000298687632626
-0.00030034452127
-0.000299910244523
-0.000299198498975
-0.000299241271508
-0.000299463147475
-0.000298826757896
-0.000295688159202
-0.000287865788898
-0.00027411739332
-0.000255047694635
-0.000230826167447
-0.00020570949435
-0.000270985784315
-0.000241313626495
-0.000188091868948
-0.000219182470605
-0.000249643989587
-0.000273298396456
-0.000287532676684
-0.000294327029278
-0.000296702823922
-0.000296761393958
-0.000296185194791
-0.000295949349829
-0.00029568264966
-0.000294536900284
-0.000291009637972
-0.000283071009749
-0.000269693415581
-0.000251019254536
-0.000227232341653
-0.000202310063108
-0.000265935569438
-0.000234296026717
-0.000182760782724
-0.000212176384615
-0.000240869835226
-0.000263370121793
-0.000277892930783
-0.000285317254276
-0.000288313312916
-0.000288957265513
-0.000288699300913
-0.000288418179388
-0.000287848447897
-0.000286309685895
-0.00028240884632
-0.000274517608018
-0.000261794513044
-0.000243718271622
-0.000220452920838
-0.000195876992657
-0.000255979924791
-0.000220900940147
-0.000173402373488
-0.000200772992188
-0.00022723815073
-0.000247883689829
-0.000261966286968
-0.000269922187651
-0.000273601969174
-0.000274916181363
-0.000275210929455
-0.0002751626797
-0.000274626479129
-0.000272968535637
-0.00026894730536
-0.000261413916023
-0.00024939565411
-0.000232084982926
-0.000209520548284
-0.000185370319681
-0.000239263348718
-0.000199031753444
-0.000159130595518
-0.000184382958269
-0.000208313716138
-0.000226898913813
-0.00023964434373
-0.000247416706808
-0.000251611956571
-0.000253614595821
-0.000254589885887
-0.000255051273239
-0.000254878086424
-0.000253500724869
-0.0002498516826
-0.000243015441344
-0.000231772462672
-0.000215291905125
-0.000193586937109
-0.000169735764474
-0.000213638261552
-0.000166273049713
-0.000139407941004
-0.000163216455652
-0.00018470433201
-0.000201177588699
-0.000212563483158
-0.000219761982356
-0.000224014817981
-0.000226518885823
-0.000228139810887
-0.000229226586448
-0.000229621077903
-0.000228787994433
-0.000225727897461
-0.000219485662596
-0.000208987581614
-0.000193373707744
-0.000172381726403
-0.000148154707102
-0.000176569229587
-0.000119740732548
-0.00011496229882
-0.00013981134092
-0.000160099683561
-0.000175082462802
-0.000185409331351
-0.000192138927619
-0.000196426170469
-0.00019927418273
-0.000201365168708
-0.000202939661867
-0.000203774677143
-0.000203323826483
-0.000200660879305
-0.00019482323561
-0.000184750411594
-0.000169409414169
-0.000148019316582
-0.000121211482201
-0.000125086681265
-6.23173848209e-05
-0.000119911896002
-0.000166734734479
-0.000200263743655
-0.000223582896958
-0.000239222306831
-0.000249340029094
-0.000255833247546
-0.000260232579252
-0.000263600630874
-0.000266388082594
-0.000268188821796
-0.000267891077188
-0.000263966954245
-0.000254837909904
-0.000238646791502
-0.000213313530997
-0.000176384317033
-0.000124978603792
-6.28484641229e-05
-6.49384147922e-05
-0.000130163852944
-0.000187889752089
-0.000231655547101
-0.000262436408928
-0.000282078820172
-0.000293260336122
-0.000299068747856
-0.000302328285269
-0.000304933450166
-0.000307538880316
-0.000310000881476
-0.000310638206956
-0.000307535638591
-0.000298313230824
-0.000280282481276
-0.000250512017702
-0.000205802265846
-0.000142902357173
-6.72059731956e-05
-0.000129958993901
-0.000124762406065
-0.00015815389197
-0.000187415488398
-0.000209051466019
-0.000222707738066
-0.000229703461927
-0.00023211016557
-0.000232045658835
-0.000230975924264
-0.000229601694167
-0.000228102228781
-0.000225888152926
-0.000221860586321
-0.000214763727111
-0.000203306928601
-0.000186327224771
-0.000163110683143
-0.000134685219001
-0.000143182992045
-0.000187553307127
-0.000158186270053
-0.000194407994216
-0.000228027878972
-0.000252960410138
-0.000268143208238
-0.000274932826763
-0.000275604079533
-0.000272880354923
-0.000268528860167
-0.000263578814399
-0.000258586581829
-0.000253323880016
-0.00024672629067
-0.000237699148113
-0.000225090140309
-0.000208083571507
-0.000186704067795
-0.000163932725063
-0.00020688364223
-0.000231334383601
-0.000187931886023
-0.000228968141105
-0.000267430396818
-0.000295689215362
-0.000312329782284
-0.000318958168806
-0.000318162205422
-0.000312648473498
-0.000305066569447
-0.000297166131178
-0.000289509433148
-0.000281825298682
-0.000272873213671
-0.000261826636201
-0.000247731117959
-0.00022999864741
-0.000208813511654
-0.00018831964798
-0.000253468666899
-0.000262337133705
-0.00021066238146
-0.000256069586608
-0.000298509063195
-0.00032925624052
-0.000346626846448
-0.000352007841932
-0.000349010147137
-0.000340929484602
-0.000330759552647
-0.000320994516112
-0.000312084572417
-0.00030372792797
-0.00029426948908
-0.000281724990451
-0.000265946829785
-0.000247337202608
-0.000226094958528
-0.00020666668685
-0.000286344742607
-0.000282458285917
-0.000226037358787
-0.000274714966577
-0.000319973083716
-0.000351705825756
-0.000367622610783
-0.000370425033746
-0.00036504130656
-0.000354744806244
-0.000342878270147
-0.000332604147837
-0.000323896639096
-0.000316529101414
-0.000308306263779
-0.000296148119278
-0.000279580133569
-0.000259814132274
-0.00023847803008
-0.000219644450533
-0.000308650332799
-0.0002943691353
-0.000235314955188
-0.000286147949784
-0.000332969626813
-0.000363646822009
-0.000376670885039
-0.000376202160892
-0.000368120458668
-0.000355961177466
-0.000343417380866
-0.000333793561248
-0.000326536317819
-0.000321262847884
-0.000315408520359
-0.000304862244325
-0.000288781698618
-0.0002684791096
-0.000246880596359
-0.000228410536766
-0.000323156147984
-0.000301036820002
-0.000240383080279
-0.00029218548744
-0.000339210401743
-0.000368139421122
-0.000378005811764
-0.00037424672746
-0.000363443186087
-0.000349936674313
-0.000337435551202
-0.000329196661873
-0.000324060062788
-0.00032117433848
-0.000317671726332
-0.00030914338881
-0.000294169801665
-0.000274256145195
-0.000252332539627
-0.000234168665144
-0.000332286443139
-0.000305131218425
-0.000243157779728
-0.000295087519856
-0.000341689305466
-0.000369055627748
-0.000376552904801
-0.000370235141374
-0.00035738069947
-0.000343013531253
-0.000330950925084
-0.000324205863478
-0.000321079350492
-0.000320191948968
-0.000318427298213
-0.000311352207157
-0.000297426954137
-0.000278081532872
-0.000256247693439
-0.000238017459471
-0.000338044611481
-0.000308460112778
-0.000244951936487
-0.000296440389675
-0.000342403076955
-0.000368749467623
-0.000374973819913
-0.000367370236088
-0.000353554369059
-0.000338945025421
-0.000327420302606
-0.000321764359813
-0.000319940964089
-0.000320250842927
-0.000319453910474
-0.000313161700079
-0.000299832622555
-0.000280841220601
-0.000259079261258
-0.000240680987989
-0.000341885003749
-0.000311759708128
-0.000246250190138
-0.000296841722988
-0.000342020100702
-0.000367862087378
-0.000373866546184
-0.000366301036562
-0.000352718569764
-0.000338487705278
-0.000327407952457
-0.000322169466722
-0.000320698618862
-0.000321287145587
-0.000320743430309
-0.000314725331162
-0.00030165536945
-0.000282817895578
-0.000261018546528
-0.000242434412079
-0.000344527921068
-0.000314502098901
-0.00024672710677
-0.000296024981834
-0.000340267993642
-0.000366088140299
-0.000372866688028
-0.000366580098723
-0.000354328593738
-0.000340996163814
-0.000330199971512
-0.000324704123873
-0.000322696949554
-0.00032275205106
-0.000321859570582
-0.000315695362378
-0.000302601821719
-0.000283746121552
-0.000261815965988
-0.000243078081654
-0.000345688652786
-0.000315079117741
-0.000245334763976
-0.000292888141105
-0.000335926019504
-0.000361900126389
-0.000369986731446
-0.000365692583001
-0.000355464930091
-0.000343430511882
-0.000332921290776
-0.000326791460578
-0.000323712347247
-0.000322720024822
-0.000321105549215
-0.000314620414486
-0.000301533137012
-0.000282775265696
-0.000260829469756
-0.000241966363424
-0.000344095165226
-0.000311130620462
-0.000240559302154
-0.000285760679742
-0.000327225196012
-0.00035355270056
-0.000363372439432
-0.000361295104112
-0.000353359851199
-0.000342853748195
-0.000332896180954
-0.000326213100852
-0.000322016084544
-0.000319785684635
-0.000317175762493
-0.000310209851001
-0.000297332158509
-0.00027891927385
-0.000257435823329
-0.000238182184447
-0.000337906074485
-0.000299953458264
-0.000230823774882
-0.000273071203183
-0.000312643102236
-0.000339247598624
-0.000351018417367
-0.000351409565734
-0.000345710106515
-0.000337071837145
-0.000328135290093
-0.000321426304342
-0.000316596119669
-0.000313309327673
-0.000309547663924
-0.000302020623172
-0.000289272469837
-0.000271391314948
-0.000250202839101
-0.000230439655596
-0.000324750911623
-0.000278941721503
-0.000214873388507
-0.000253714003828
-0.000290603819069
-0.000316707297513
-0.000330312397372
-0.000333278523741
-0.000329973433161
-0.000323541571063
-0.000316382261953
-0.000310444940333
-0.000305779269586
-0.000301981533944
-0.000297305149106
-0.000289312897362
-0.000276759582404
-0.000259565934778
-0.000238136843715
-0.000217511610971
-0.000302027546223
-0.00024583040935
-0.000192099675709
-0.000227379714597
-0.000260983613038
-0.000285614163666
-0.000299824599721
-0.000305208909664
-0.000304422882121
-0.000300522207792
-0.000295746942446
-0.000291489443391
-0.000287903861507
-0.00028441638421
-0.000279596837404
-0.000271657548183
-0.000259500458196
-0.000242346489128
-0.00022042462268
-0.000198281488413
-0.000266935315365
-0.000198768144803