/*--------------------------------*- C++ -*----------------------------------*\
| =========                 |                                                 |
| \\      /  F ield         | OpenFOAM: The Open Source CFD Toolbox           |
|  \\    /   O peration     | Version:  3.0.1                                 |
|   \\  /    A nd           | Web:      www.OpenFOAM.org                      |
|    \\/     M anipulation  |                                                 |
\*---------------------------------------------------------------------------*/
FoamFile
{
    version     2.0;
    format      ascii;
    class       surfaceScalarField;
    location    "0.9";
    object      meshPhiCN_0;
}
// * * * * * * * * * * * * * * * * * * * * * * * * * * * * * * * * * * * * * //

dimensions      [0 3 -1 0 0 0 0];

internalField   nonuniform List<scalar> 
22672
(
0
0
0
0
0
0
0
0
0
0
0
0
0
0
0
0
0
0
0
0
0
0
0
0
0
0
0
0
0
0
0
0
0
0
0
0
0
0
0
0
0
0
0
0
0
0
0
0
0
0
0
0
0
0
0
0
0
0
0
0
0
0
0
0
0
0
0
0
0
0
0
0
0
0
0
0
0
0
0
0
0
0
0
0
0
0
0
0
0
0
0
0
0
0
0
0
0
0
0
0
0
0
0
0
0
0
0
0
0
0
0
0
0
0
0
0
0
0
0
0
0
0
0
0
0
0
0
0
0
0
0
0
0
0
0
0
0
0
0
0
0
0
0
0
0
0
0
0
0
0
0
0
0
0
0
0
0
0
0
0
0
0
0
0
0
0
0
0
0
0
0
0
0
0
0
0
0
0
0
0
0
0
0
0
0
0
0
0
0
0
0
0
0
0
0
0
0
0
0
0
0
0
0
0
0
0
0
0
0
0
0
0
0
0
0
0
0
0
0
0
0
0
0
0
0
0
0
0
0
0
0
0
0
0
0
0
0
0
0
0
0
0
0
0
0
0
0
0
0
0
0
0
0
0
0
0
0
0
0
0
0
0
0
0
0
0
0
0
0
0
0
0
0
0
0
0
0
0
0
0
0
0
0
0
0
0
0
0
0
0
0
0
0
0
0
0
0
0
0
0
0
0
0
0
0
0
0
0
0
0
0
0
0
0
0
0
0
0
0
0
0
0
0
0
0
0
0
0
0
0
0
0
0
0
0
0
0
0
0
0
0
0
0
0
0
0
0
0
0
0
0
0
0
0
0
0
0
0
0
0
0
0
0
0
0
0
0
0
0
0
0
0
0
0
0
0
0
0
0
0
0
0
0
0
0
0
0
0
0
0
0
0
0
0
0
0
0
0
0
0
0
0
0
0
0
0
0
0
0
0
0
0
0
0
0
0
0
0
0
0
0
0
0
0
0
0
0
0
0
0
0
0
0
0
0
0
0
0
0
0
0
0
0
0
0
0
0
0
0
0
0
0
0
0
0
0
0
0
0
0
0
0
0
0
0
0
0
0
0
0
0
0
0
0
0
0
0
0
0
0
0
0
0
0
0
0
0
0
0
0
0
0
0
0
0
0
0
0
0
0
0
0
0
0
0
0
0
0
0
0
0
0
0
0
0
0
0
0
0
0
0
0
0
0
0
0
0
0
0
0
0
0
0
0
0
0
0
0
0
0
0
0
0
0
0
0
0
0
0
0
0
0
0
0
0
0
0
0
0
0
0
0
0
0
0
0
0
0
0
0
0
0
0
0
0
0
0
0
0
0
0
0
0
0
0
0
0
0
0
0
0
0
0
0
0
0
0
0
0
0
0
0
0
0
0
0
0
0
0
0
0
0
0
0
0
0
0
0
0
0
0
0
0
0
0
0
0
0
0
0
0
0
0
0
0
0
0
0
0
0
0
0
0
0
0
0
0
0
0
0
0
0
0
0
0
0
0
0
0
0
0
0
0
0
0
0
0
0
0
0
0
0
0
0
0
0
0
0
0
0
0
0
0
0
0
0
0
0
0
0
0
0
0
0
0
0
0
0
0
0
0
0
0
0
0
0
0
0
0
0
0
0
0
0
0
0
0
0
0
0
0
0
0
0
0
0
0
0
0
0
0
0
0
0
0
0
0
0
0
0
0
0
0
0
0
0
0
0
0
0
0
0
0
0
0
0
0
0
0
0
0
0
0
0
0
0
0
0
0
0
0
0
0
0
0
0
0
0
0
0
0
0
0
0
0
0
0
0
0
0
0
0
0
0
0
0
0
0
0
0
0
0
0
0
0
0
0
0
0
0
0
0
0
0
0
0
0
0
0
0
0
0
0
0
0
0
0
0
0
0
0
0
0
0
0
0
0
0
0
0
0
0
0
0
0
0
0
0
0
0
0
0
0
0
0
0
0
0
0
0
0
0
0
0
0
0
0
0
0
0
0
0
0
0
0
0
0
0
0
0
0
0
0
0
0
0
0
0
0
0
0
0
0
0
0
0
0
0
0
0
0
0
0
0
0
0
0
0
0
0
0
0
0
0
0
0
0
0
0
0
0
0
0
0
0
0
0
0
0
0
0
0
0
0
0
0
0
0
0
0
0
0
0
0
0
0
0
0
0
0
0
0
0
0
0
0
0
0
0
0
0
0
0
0
0
0
0
0
0
0
0
0
0
0
0
0
0
0
0
0
0
0
0
0
0
0
0
0
0
0
0
0
0
0
0
0
0
0
0
0
0
0
0
0
0
0
0
0
0
0
0
0
0
0
0
0
0
0
0
0
0
0
0
0
0
0
0
0
0
0
0
0
0
0
0
0
0
0
0
0
0
0
0
0
0
0
0
0
0
0
0
0
0
0
0
0
0
0
0
0
0
0
0
0
0
0
0
0
0
0
0
0
0
0
0
0
0
0
0
0
0
0
0
0
0
0
0
0
0
0
0
0
0
0
0
0
0
0
0
0
0
0
0
0
0
0
0
0
0
0
0
0
0
0
0
0
0
0
0
0
0
0
0
0
0
0
0
0
0
0
0
0
0
0
0
0
0
0
0
0
0
0
0
0
0
0
0
0
0
0
0
0
0
0
0
0
0
0
0
0
0
0
0
0
0
0
0
0
0
0
0
0
0
0
0
0
0
0
0
0
0
0
0
0
0
0
0
0
0
0
0
0
0
0
0
0
0
0
0
0
0
0
0
0
0
0
0
0
0
0
0
0
0
0
0
0
0
0
0
0
0
0
0
0
0
0
0
0
0
0
0
0
0
0
0
0
0
0
0
0
0
0
0
0
0
0
0
0
0
0
0
0
0
0
0
0
0
0
0
0
0
0
0
0
0
0
0
0
0
0
0
0
0
0
0
0
0
0
0
0
0
0
0
0
0
0
0
0
0
0
0
0
0
0
0
0
0
0
0
0
0
0
0
0
0
0
0
0
0
0
0
0
0
0
0
0
0
0
0
0
0
0
0
0
0
0
0
0
0
0
0
0
0
0
0
0
0
0
0
0
0
0
0
0
0
0
0
0
0
0
0
0
0
0
0
0
0
0
0
0
0
0
0
0
0
0
0
0
0
0
0
0
0
0
0
0
0
0
0
0
0
0
0
0
0
0
0
0
0
0
0
0
0
0
0
0
0
0
0
0
0
0
0
0
0
0
0
0
0
0
0
0
0
0
0
0
0
0
0
0
0
0
0
0
0
0
0
0
0
0
0
0
0
0
0
0
0
0
0
0
0
0
0
0
0
0
0
0
0
0
0
0
0
0
0
0
0
0
0
0
0
0
0
0
0
0
0
0
0
0
0
0
0
0
0
0
0
0
0
0
0
0
0
0
0
0
0
0
0
0
0
0
0
0
0
0
0
0
0
0
0
0
0
0
0
0
0
0
0
0
0
0
0
0
0
0
0
0
0
0
0
0
0
0
0
0
0
0
0
0
0
0
0
0
0
0
0
0
0
0
0
0
0
0
0
0
0
0
0
0
0
0
0
0
0
0
0
0
0
0
0
0
0
0
0
0
0
0
0
0
0
0
0
0
0
0
0
0
0
0
0
0
0
0
0
0
0
0
0
0
0
0
0
0
0
0
0
0
0
0
0
0
0
0
0
0
0
0
0
0
0
0
0
0
0
0
0
0
0
0
0
0
0
0
0
0
0
0
0
0
0
0
0
0
0
0
0
0
0
0
0
0
0
0
0
0
0
0
0
0
0
0
0
0
0
0
0
0
0
0
0
0
0
0
0
0
0
0
0
0
0
0
0
0
0
0
0
0
0
0
0
0
0
0
0
0
0
0
0
0
0
0
0
0
0
0
0
0
0
0
0
0
0
0
0
0
0
0
0
0
0
0
0
0
0
0
0
0
0
0
0
0
0
0
0
0
0
0
0
0
0
0
0
0
0
0
0
0
0
0
0
0
0
0
0
0
0
0
0
0
0
0
0
0
0
0
0
0
0
0
0
0
0
0
0
0
0
0
0
0
0
0
0
0
0
0
0
0
0
0
0
0
0
0
0
0
0
0
0
0
0
0
0
0
0
0
0
0
0
0
0
0
0
0
0
0
0
0
0
0
0
0
0
0
0
0
0
0
0
0
0
0
0
0
0
0
0
0
0
0
0
0
0
0
0
0
0
0
0
0
0
0
0
0
0
0
0
0
0
0
0
0
0
0
0
0
0
0
0
0
0
0
0
0
0
0
0
0
0
0
0
0
0
0
0
0
0
0
0
0
0
0
0
0
0
0
0
0
0
0
0
0
0
0
0
0
0
0
0
0
0
0
0
0
0
0
0
0
0
0
0
0
0
0
0
0
0
0
0
0
0
0
0
0
0
0
0
0
0
0
0
0
0
0
0
0
0
0
0
0
0
0
0
0
0
0
0
0
0
0
0
0
0
0
0
0
0
0
0
0
0
0
0
0
0
0
0
0
0
0
0
0
0
0
0
0
0
0
0
0
0
0
0
0
0
0
0
0
0
0
0
0
0
0
0
0
0
0
0
0
0
0
0
0
0
0
0
0
0
0
0
0
0
0
0
0
0
0
0
0
0
0
0
0
0
0
0
0
0
0
0
0
0
0
0
0
0
0
0
0
0
0
0
0
0
0
0
0
0
0
0
0
0
0
0
0
0
0
0
0
0
0
0
0
0
0
0
0
0
0
0
0
0
0
0
0
0
0
0
0
0
0
0
0
0
0
0
0
0
0
0
0
0
0
0
0
0
0
0
0
0
0
0
0
0
0
0
0
0
0
0
0
0
0
0
0
0
0
0
0
0
0
0
0
0
0
0
0
0
0
0
0
0
0
0
0
0
0
0
0
0
0
0
0
0
0
0
0
0
0
0
0
0
0
0
0
0
0
0
0
0
0
0
0
0
0
0
0
0
0
0
0
0
0
0
0
0
0
0
0
0
0
0
0
0
0
0
0
0
0
0
0
0
0
0
0
0
0
0
0
0
0
0
0
0
0
0
0
0
0
0
0
0
0
0
0
0
0
0
0
0
0
0
0
0
0
0
0
0
0
0
0
0
0
0
0
0
0
0
0
0
0
0
0
0
0
0
0
0
0
0
0
0
0
0
0
0
0
0
0
0
0
0
0
0
0
0
0
0
0
0
0
0
0
0
0
0
0
0
0
0
0
0
0
0
0
0
0
0
0
0
0
0
0
0
0
0
0
0
0
0
0
0
0
0
0
0
0
0
0
0
0
0
0
0
0
0
0
0
0
0
0
0
0
0
0
0
0
0
0
0
0
0
0
0
0
0
0
0
0
0
0
0
0
0
0
0
0
0
0
0
0
0
0
0
0
0
0
0
0
0
0
0
0
0
0
0
0
0
0
0
0
0
0
0
0
0
0
0
0
0
0
0
0
0
0
0
0
0
0
0
0
0
0
0
0
0
0
0
0
0
0
0
0
0
0
0
0
0
0
0
0
0
0
0
0
0
0
0
0
0
0
0
0
0
0
0
0
0
0
0
0
0
0
0
0
0
0
0
0
0
0
0
0
0
0
0
0
0
0
0
0
0
0
0
0
0
0
0
0
0
0
0
0
0
0
0
0
0
0
0
0
0
0
0
0
0
0
0
0
0
0
0
0
0
0
0
0
0
0
0
0
0
0
0
0
0
0
0
0
0
0
0
0
0
0
0
0
0
0
0
0
0
0
0
0
0
0
0
0
0
0
0
0
0
0
0
0
0
0
0
0
0
0
0
0
0
0
0
0
0
0
0
0
0
0
0
0
0
0
0
0
0
0
0
0
0
0
0
0
0
0
0
0
0
0
0
0
0
0
0
0
0
0
-6.28191051357e-10
7.13752304841e-10
2.34359985985e-07
-1.13062916724e-09
1.94474720924e-09
6.55096923133e-07
-1.13062955434e-09
2.40452450107e-09
8.41419434036e-07
-1.13062991191e-09
2.29113508315e-09
8.4131829413e-07
-1.13063029079e-09
2.17774533256e-09
8.41217154579e-07
-1.13063064e-09
2.06435520799e-09
8.41116015402e-07
-6.28191780232e-10
1.52891084598e-09
6.54716823293e-07
0
5.24827995805e-10
2.34186674006e-07
0
0
0
0
0
0
0
0
0
0
0
0
0
0
0
0
0
0
0
0
0
0
0
0
0
0
0
0
0
0
0
0
-1.70015547159e-09
2.12152610168e-09
6.64045340652e-07
-5.18624051942e-09
7.58258036062e-09
2.64807487525e-06
-7.00493631852e-09
1.22117491626e-08
4.6398183677e-06
-7.00495029792e-09
1.3177168503e-08
5.31128363092e-06
-7.00496419617e-09
1.25631581788e-08
5.31065570905e-06
-7.00497818179e-09
1.19491380907e-08
5.31002779669e-06
-7.00499222603e-09
1.13351081407e-08
5.30939989382e-06
-5.18628553619e-09
9.54888558479e-09
4.63697635513e-06
-1.70016166124e-09
5.43325858559e-09
2.64581617372e-06
0
1.40566768415e-09
6.63377551457e-07
0
0
0
0
0
0
0
0
0
0
0
0
0
0
0
0
0
0
0
0
0
0
0
0
0
0
-5.65214308325e-10
7.76724752512e-10
2.34398224062e-07
-6.04496252697e-09
6.44946101979e-09
2.64835457418e-06
-1.32979666009e-08
1.65997336864e-08
7.56586089657e-06
-1.65127582567e-08
2.3630036131e-08
1.14723203742e-05
-1.65128485666e-08
2.48352302242e-08
1.2640141003e-05
-1.65129389132e-08
2.36913363843e-08
1.26386471841e-05
-1.65130292436e-08
2.25474097484e-08
1.26371533882e-05
-1.65131196779e-08
2.14034502227e-08
1.26356596153e-05
-1.32983192842e-08
1.8503381915e-08
1.14649987822e-05
-6.04505622782e-09
1.18546955886e-08
7.5588478354e-06
-5.6521509623e-10
4.23012582043e-09
2.64546092504e-06
0
4.61851587146e-10
2.34112111922e-07
0
0
0
0
0
0
0
0
0
0
0
0
0
0
0
0
0
0
0
0
0
0
0
-1.52916352798e-09
1.39746265096e-09
6.55251998596e-07
-9.66467282018e-09
8.69862603207e-09
4.64105888203e-06
-1.8807166423e-08
2.05739337178e-08
1.14744653755e-05
-2.27289658191e-08
2.84941262897e-08
1.64125002871e-05
-2.27291584386e-08
2.97716405892e-08
1.78466805539e-05
-2.27293511054e-08
2.84066179687e-08
1.78445434757e-05
-2.27295438439e-08
2.70415493092e-08
1.78424064107e-05
-2.27297364449e-08
2.56764346243e-08
1.78402693589e-05
-1.88079765268e-08
2.23304012151e-08
1.64017077399e-05
-9.66497173116e-09
1.46919813586e-08
1.14633166648e-05
-1.52917232406e-09
5.68743401106e-09
4.63569178451e-06
0
8.3135967285e-10
6.54440773632e-07
0
0
0
0
0
0
0
0
0
0
0
0
0
0
0
0
0
0
0
0
0
0
0
-1.8704647439e-09
1.39745914212e-09
8.41695134094e-07
-1.03163371449e-08
8.6985056776e-09
5.31337000191e-06
-1.95632842939e-08
2.05733270338e-08
1.26443150455e-05
-2.35088690901e-08
2.84929655118e-08
1.7849376249e-05
-2.35090899791e-08
2.97703254952e-08
1.9352365672e-05
-2.35093108274e-08
2.84053691693e-08
1.93500275159e-05
-2.35095317383e-08
2.70403667243e-08
1.93476893597e-05
-2.35097525652e-08
2.56753182773e-08
1.93453512035e-05
-1.95642309443e-08
2.23294877417e-08
1.78375218741e-05
-1.03167165278e-08
1.46915170107e-08
1.26318868769e-05
-1.87048160306e-09
5.68734034132e-09
5.30713303743e-06
0
8.31357056402e-10
8.40645612911e-07
0
0
0
0
0
0
0
0
0
0
0
0
0
0
0
0
0
0
0
0
0
0
0
-1.75706801304e-09
1.39745550588e-09
8.41662007359e-07
-9.70210172819e-09
8.69838527695e-09
5.31315013259e-06
-1.84185778261e-08
2.0572720359e-08
1.26437910925e-05
-2.21426192623e-08
2.84918047667e-08
1.78486649078e-05
-2.2142817123e-08
2.97690104493e-08
1.93516154676e-05
-2.21430149451e-08
2.84041203751e-08
1.93492773115e-05
-2.21432128189e-08
2.70391841798e-08
1.93469391553e-05
-2.21434106731e-08
2.56742019788e-08
1.93446009991e-05
-1.8419425955e-08
2.23285743005e-08
1.783684958e-05
-9.7024419113e-09
1.46910526861e-08
1.26314308989e-05
-1.75708309659e-09
5.6872466752e-09
5.30694117521e-06
0
8.31354397464e-10
8.40613514864e-07
0
0
0
0
0
0
0
0
0
0
0
0
0
0
0
0
0
0
0
0
0
0
0
-1.64367225396e-09
1.39745193504e-09
8.4162888164e-07
-9.0878946413e-09
8.69826487747e-09
5.31293029059e-06
-1.72739658423e-08
2.05721136617e-08
1.26432672056e-05
-2.07765019244e-08
2.84906440484e-08
1.78479536046e-05
-2.07766767474e-08
2.97676953916e-08
1.93508652632e-05
-2.07768516172e-08
2.84028715291e-08
1.93485271071e-05
-2.07770263811e-08
2.70380015648e-08
1.93461889509e-05
-2.07772012904e-08
2.56730856223e-08
1.93438507947e-05
-1.72747154389e-08
2.23276607471e-08
1.7836177248e-05
-9.08819549525e-09
1.46905884149e-08
1.26309748547e-05
-1.64368568654e-09
5.68715301437e-09
5.30674928574e-06
0
8.31351751181e-10
8.4058141584e-07
0
0
0
0
0
0
0
0
0
0
0
0
0
0
0
0
0
0
0
0
0
0
0
-1.53027752452e-09
1.3974483039e-09
8.41595756932e-07
-8.47371582593e-09
8.69814450759e-09
5.31271047586e-06
-1.61294483115e-08
2.05715069292e-08
1.2642743385e-05
-1.94105171664e-08
2.84894832195e-08
1.78472423394e-05
-1.94106689377e-08
2.97663802622e-08
1.93501150588e-05
-1.94108207522e-08
2.84016226548e-08
1.93477769027e-05
-1.9410972458e-08
2.70368190369e-08
1.93454387465e-05
-1.94111243598e-08
2.56719692999e-08
1.93431005903e-05
-1.61300994151e-08
2.23267472798e-08
1.78355048779e-05
-8.47397740324e-09
1.46901240664e-08
1.26305187443e-05
-1.53028907935e-09
5.68705930871e-09
5.30655736901e-06
0
8.31349031448e-10
8.40549315789e-07
0
0
0
0
0
0
0
0
0
0
0
0
0
0
0
0
0
0
0
0
0
0
0
-1.11330475841e-09
7.76718027105e-10
6.55139665092e-07
-7.00102018386e-09
6.44904736127e-09
4.64031503415e-06
-1.36775629688e-08
1.65973106939e-08
1.14728556151e-05
-1.65607515338e-08
2.3625131587e-08
1.64104914171e-05
-1.65608767147e-08
2.48295968435e-08
1.78446092737e-05
-1.65610018852e-08
2.36859863634e-08
1.78424339783e-05
-1.65611271257e-08
2.25423431131e-08
1.78402586698e-05
-1.65612522847e-08
2.13986669674e-08
1.78380833481e-05
-1.36780985556e-08
1.84995099508e-08
1.63997020209e-05
-7.0012328977e-09
1.18528210318e-08
1.14618627693e-05
-1.11331361151e-09
4.22979752016e-09
4.63501618425e-06
0
4.61846632191e-10
6.54329082906e-07
0
0
0
0
0
0
0
0
0
0
0
0
0
0
0
0
0
0
0
0
0
0
0
-3.76284061566e-10
0
2.34347399353e-07
-3.89517806049e-09
2.12145820958e-09
2.64787726192e-06
-8.55085338139e-09
7.58186042077e-09
7.56491747742e-06
-1.06275541846e-08
1.22098975224e-08
1.14713231652e-05
-1.06276271794e-08
1.31749130172e-08
1.26391688145e-05
-1.06277001232e-08
1.25610158271e-08
1.26376084707e-05
-1.06277731726e-08
1.19471088084e-08
1.2636048104e-05
-1.06278460954e-08
1.13331919282e-08
1.26344877141e-05
-8.55115562657e-09
9.54740448623e-09
1.14638535868e-05
-3.89528184732e-09
5.43267534088e-09
7.55790828501e-06
-3.76286048354e-10
1.40561122863e-09
2.64499322363e-06
0
0
2.34060882681e-07
0
0
0
0
0
0
0
0
0
0
0
0
0
0
0
0
0
0
0
0
0
0
0
0
0
0
-9.84239076659e-10
0
6.63867241643e-07
-2.96643899891e-09
7.13742262669e-10
2.64753033085e-06
-3.99291616722e-09
1.94468487657e-09
4.63909597297e-06
-3.9929340738e-09
2.40442423084e-09
5.31052483272e-06
-3.99295200031e-09
2.2910398798e-09
5.30986950427e-06
-3.99296986822e-09
2.17765519341e-09
5.30921416632e-06
-3.99298780637e-09
2.06427006963e-09
5.30855881887e-06
-2.96650389261e-09
1.52885769572e-09
4.63618856634e-06
-9.84250901512e-10
5.24818730994e-10
2.64526403311e-06
0
0
6.63199581373e-07
0
0
0
0
0
0
0
0
0
0
0
0
0
0
0
0
0
0
0
0
0
0
0
0
0
0
0
0
0
0
0
0
-3.13309106572e-10
0
2.34272413563e-07
-5.64497109209e-10
0
6.54864164426e-07
-5.64497674201e-10
0
8.41128321491e-07
-5.64498163638e-10
0
8.41026175052e-07
-5.64498684084e-10
0
8.40924028261e-07
-5.64499246951e-10
0
8.40821881147e-07
-3.13310062686e-10
0
6.54483522472e-07
0
0
2.34099538273e-07
0
0
0
0
0
0
0
0
0
0
0
0
0
0
0
0
0
0
0
0
0
0
0
0
0
0
0
0
0
0
0
0
0
0
0
0
0
0
0
0
0
0
0
0
0
0
0
0
0
0
0
0
0
0
0
0
0
0
0
0
0
0
0
0
0
0
0
0
0
0
0
0
0
0
0
0
0
0
0
0
0
0
0
0
0
0
0
0
0
0
0
0
0
0
0
0
0
0
0
0
0
0
0
0
0
0
0
0
0
0
0
0
0
0
0
0
0
0
0
0
0
0
0
0
0
0
0
0
0
0
0
0
0
0
0
0
0
0
0
0
0
0
0
0
0
0
0
0
0
0
0
0
0
0
0
0
0
0
0
0
0
0
0
0
0
0
0
0
0
0
0
0
0
0
0
0
0
0
0
0
0
0
0
0
0
0
0
0
0
0
0
0
0
0
0
0
0
0
0
0
0
0
0
0
0
0
0
0
0
0
0
0
0
0
0
0
0
0
0
0
0
0
0
0
0
0
0
0
0
0
0
0
0
0
0
0
0
0
0
0
0
0
0
0
0
0
0
0
0
0
0
0
0
0
0
0
0
0
0
0
0
0
0
0
0
0
0
0
0
0
0
0
0
0
0
0
0
0
0
0
0
0
0
0
0
0
0
0
0
0
0
0
0
0
0
0
0
0
0
0
0
0
0
0
0
0
0
0
0
0
0
0
0
0
0
0
0
0
0
0
0
0
0
0
0
0
0
0
0
0
0
0
0
0
0
0
0
0
0
0
0
0
0
0
0
0
0
0
0
0
0
0
0
0
0
0
0
0
0
0
0
0
0
0
0
0
0
0
0
0
0
0
0
0
0
0
0
0
0
0
0
0
0
0
0
0
0
0
0
0
0
0
0
0
0
0
0
0
0
0
0
0
0
0
0
0
0
0
0
0
0
0
0
0
0
0
0
0
0
0
0
0
0
0
0
-1.13582481183e-09
1.35599798393e-09
4.20862444546e-07
-3.62033900412e-09
5.50280382988e-09
1.74782425871e-06
-4.79784451781e-09
9.4249524127e-09
3.07647739694e-06
-4.79785292027e-09
1.03040954437e-08
3.49884409921e-06
-4.79786128592e-09
9.82594258864e-09
3.49843017477e-06
-4.7978696392e-09
9.34778371645e-09
3.49801625638e-06
-4.79787797984e-09
8.86961879359e-09
3.49760234401e-06
-3.62036785261e-09
7.3854044813e-09
3.07461967235e-06
-1.13582867678e-09
3.96818460887e-09
1.74636947298e-06
0
9.03108992123e-10
4.20445833628e-07
0
0
0
0
0
0
0
0
0
0
0
0
0
0
0
0
0
0
0
0
0
0
0
0
0
0
-2.49264088285e-09
3.25688130069e-09
9.65750373414e-07
-1.02236342278e-08
1.46097065149e-08
4.78946713147e-06
-1.99298871116e-08
3.0812753822e-08
1.08131555114e-05
-2.43505187991e-08
4.16593359466e-08
1.52953926225e-05
-2.43506887197e-08
4.34278833378e-08
1.66109655379e-05
-2.43508585215e-08
4.14332446356e-08
1.66090726147e-05
-2.43510283736e-08
3.94385217437e-08
1.66071797702e-05
-2.43511982656e-08
3.74437146775e-08
1.66052870042e-05
-1.99306089854e-08
3.26467994584e-08
1.52857880193e-05
-1.02239185079e-08
2.20163921642e-08
1.08030168552e-05
-2.49266340995e-09
9.53803437053e-09
4.78396547594e-06
0
1.95291712862e-09
9.64535035199e-07
0
0
0
0
0
0
0
0
0
0
0
0
0
0
0
0
0
0
0
0
-1.02259644361e-09
1.46921070881e-09
4.2093080245e-07
-1.11681631202e-08
1.32363211531e-08
4.7899934583e-06
-3.1396558185e-08
4.03118795959e-08
1.53001201786e-05
-5.2146048568e-08
7.18990016592e-08
2.74786924904e-05
-6.09225918706e-08
9.10377493253e-08
3.52608321519e-05
-6.09234203154e-08
9.32099069757e-08
3.74241845938e-05
-6.0924248656e-08
8.89401579909e-08
3.74199616276e-05
-6.09250771922e-08
8.46701280669e-08
3.74157388677e-05
-6.09259055699e-08
8.03998171582e-08
3.7411516314e-05
-5.21499537392e-08
7.13331938711e-08
3.5237574272e-05
-3.13988453015e-08
5.13211548417e-08
2.74501709653e-05
-1.11686019903e-08
2.62026662595e-08
1.52801651177e-05
-1.02260086332e-09
7.86767097901e-09
4.78327856239e-06
0
7.89882722247e-10
4.20312261558e-07
0
0
0
0
0
0
0
0
0
0
0
0
0
0
0
0
0
-4.12040421845e-09
4.66985616103e-09
1.7482637076e-06
-2.35730664814e-08
2.55513347857e-08
1.08165228433e-05
-5.63517380282e-08
6.60468021265e-08
2.74849639997e-05
-8.72008478014e-08
1.09557735118e-07
4.42503462345e-05
-9.96284313316e-08
1.34079309608e-07
5.4449697073e-05
-9.96303254307e-08
1.36127149297e-07
5.72287210776e-05
-9.96322194932e-08
1.29889170287e-07
5.72221568268e-05
-9.96341136713e-08
1.23650691214e-07
5.72155928181e-05
-9.96360077817e-08
1.17411711955e-07
5.72090290516e-05
-8.72101973322e-08
1.05010046835e-07
5.44119706536e-05
-5.63582054632e-08
7.81112664462e-08
4.42007725462e-05
-2.3575027567e-08
4.28783495189e-08
2.744570142e-05
-4.12048051939e-09
1.51015122465e-08
1.07997468297e-05
0
2.51391940028e-09
1.74560202078e-06
0
0
0
0
0
0
0
0
0
0
0
0
0
0
0
0
0
-6.99492261262e-09
6.18065717528e-09
3.07769587904e-06
-3.17437772444e-08
3.10998489218e-08
1.53037273435e-05
-7.12439558268e-08
7.67916930345e-08
3.52788297674e-05
-1.06654253749e-07
1.24515731242e-07
5.44664630904e-05
-1.20685879236e-07
1.50877024318e-07
6.59304150999e-05
-1.20688618012e-07
1.52806961057e-07
6.90293856114e-05
-1.2069135677e-07
1.45801446463e-07
6.90212016901e-05
-1.20694095613e-07
1.38795336668e-07
6.90130178772e-05
-1.20696834357e-07
1.31788631487e-07
6.90048341726e-05
-1.06668026965e-07
1.18139578594e-07
6.5882852667e-05
-7.12541455079e-08
8.87365876916e-08
5.44025465908e-05
-3.17474329489e-08
4.98252754373e-08
3.52258342459e-05
-6.9951916075e-09
1.83597873301e-08
1.52786392066e-05
0
3.32923454268e-09
3.07284233291e-06
0
0
0
0
0
0
0
0
0
0
0
0
0
0
0
0
0
-7.54134351782e-09
6.18058962174e-09
3.50063341925e-06
-3.27192408836e-08
3.10986313825e-08
1.662251417e-05
-7.22365510355e-08
7.67863133936e-08
3.74499721734e-05
-1.07328231479e-07
1.24504269101e-07
5.72577618466e-05
-1.21187762369e-07
1.50861384371e-07
6.90438688468e-05
-1.21190619912e-07
1.52790677241e-07
7.22240430526e-05
-1.21193477398e-07
1.45786019131e-07
7.22153162595e-05
-1.21196334933e-07
1.38780765788e-07
7.22065894664e-05
-1.21199192481e-07
1.31774917046e-07
7.21978626733e-05
-1.07342668884e-07
1.18127577009e-07
6.89933686881e-05
-7.22474115195e-08
8.87283811274e-08
5.71898807257e-05
-3.27233045325e-08
4.98216680265e-08
3.73931611579e-05
-7.54169255906e-09
1.83590200569e-08
1.65949455037e-05
0
3.32919434793e-09
3.4950514746e-06
0
0
0
0
0
0
0
0
0
0
0
0
0
0
0
0
0
-7.06307594724e-09
6.18052214873e-09
3.50048893732e-06
-3.07228454087e-08
3.10974139419e-08
1.66217544952e-05
-6.79604378759e-08
7.67809337387e-08
3.74482173886e-05
-1.01078047726e-07
1.2449280697e-07
5.72551860888e-05
-1.14166613864e-07
1.50845744411e-07
6.90410328209e-05
-1.14169173759e-07
1.52774393415e-07
7.22212430169e-05
-1.1417173358e-07
1.45770591863e-07
7.22125162238e-05
-1.14174293447e-07
1.38766194849e-07
7.22037894307e-05
-1.14176853419e-07
1.31761202617e-07
7.21950626377e-05
-1.01090984926e-07
1.18115575405e-07
6.89908525116e-05
-6.79701746778e-08
8.87201745316e-08
5.71880196433e-05
-3.07264880283e-08
4.98180606195e-08
3.73920149352e-05
-7.06338890031e-09
1.83582526673e-08
1.65944176951e-05
0
3.32915408784e-09
3.49492476256e-06
0
0
0
0
0
0
0
0
0
0
0
0
0
0
0
0
0
-6.58482570847e-09
6.1804545856e-09
3.5003444727e-06
-2.87266922748e-08
3.10961964206e-08
1.66209950466e-05
-6.36851330344e-08
7.6775554136e-08
3.74464631971e-05
-9.48293029684e-08
1.24481344931e-07
5.72526110279e-05
-1.07147178193e-07
1.50830104571e-07
6.90381971068e-05
-1.07149440391e-07
1.52758109734e-07
7.22184429812e-05
-1.0715170273e-07
1.45755164465e-07
7.22097161882e-05
-1.07153964839e-07
1.38751623979e-07
7.22009893951e-05
-1.0715622718e-07
1.31747488121e-07
7.2192262602e-05
-9.4840739921e-08
1.1810357392e-07
6.89883360232e-05
-6.3693746129e-08
8.87119679992e-08
5.71861578641e-05
-2.87299137756e-08
4.9814453177e-08
3.73908681192e-05
-6.58510251373e-09
1.8357485366e-08
1.65938896605e-05
0
3.32911382307e-09
3.49479803318e-06
0
0
0
0
0
0
0
0
0
0
0
0
0
0
0
0
0
-6.10659279166e-09
6.18038700793e-09
3.50020002542e-06
-2.67307814803e-08
3.10949789483e-08
1.66202358239e-05
-5.94106365675e-08
7.67701745804e-08
3.7444709599e-05
-8.85819972391e-08
1.24469882913e-07
5.72500366637e-05
-1.0012945535e-07
1.5081446468e-07
6.90353617045e-05
-1.00131419999e-07
1.52741825915e-07
7.22156429456e-05
-1.00133384551e-07
1.45739737178e-07
7.22069161525e-05
-1.00135349174e-07
1.3873705307e-07
7.21981893594e-05
-1.00137313848e-07
1.31733773749e-07
7.21894625663e-05
-8.85919337927e-08
1.1809157237e-07
6.89858192229e-05
-5.94181259565e-08
8.87037613207e-08
5.71842953881e-05
-2.67335818354e-08
4.98108457875e-08
3.73897207099e-05
-6.10683353377e-09
1.83567179842e-08
1.65933613998e-05
0
3.32907365359e-09
3.49467128647e-06
0
0
0
0
0
0
0
0
0
0
0
0
0
0
0
0
0
-4.95498532722e-09
4.66962298701e-09
3.07716249958e-06
-2.27247201261e-08
2.55460715031e-08
1.53012835796e-05
-5.15147970799e-08
6.6021264222e-08
3.52741059478e-05
-7.75369752829e-08
1.09500915157e-07
5.44608277645e-05
-8.78865465514e-08
1.34000412612e-07
6.59254113688e-05
-8.78882441884e-08
1.36044646275e-07
6.90248344473e-05
-8.78899419159e-08
1.2981098433e-07
6.90163372387e-05
-8.78916395305e-08
1.23576822211e-07
6.90078399217e-05
-8.7893337183e-08
1.1734216009e-07
6.89993424964e-05
-7.75455318884e-08
1.04949412619e-07
6.58778754209e-05
-5.15211674582e-08
7.8070505247e-08
5.43986918093e-05
-2.27270350723e-08
4.28611825589e-08
3.52228794493e-05
-4.95517480309e-09
1.50981792286e-08
1.52768718024e-05
0
2.51378046241e-09
3.07234583856e-06
0
0
0
0
0
0
0
0
0
0
0
0
0
0
0
0
0
-2.58557125311e-09
1.46917939067e-09
1.74790623826e-06
-1.4771346205e-08
1.32340817602e-08
1.08150001298e-05
-3.57506290943e-08
4.029653408e-08
2.74833205746e-05
-5.57066570707e-08
7.18590810602e-08
4.42509294818e-05
-6.37874661781e-08
9.09787509744e-08
5.44531164236e-05
-6.37887057642e-08
9.31472586106e-08
5.7232974283e-05
-6.3789945321e-08
8.88807430434e-08
5.72257101431e-05
-6.37911848451e-08
8.46139466662e-08
5.72184457609e-05
-6.37924244438e-08
8.03468691668e-08
5.72111811366e-05
-5.57128020576e-08
7.12876617526e-08
5.44136962762e-05
-3.57549479722e-08
5.12923478482e-08
4.42014156634e-05
-1.47727237181e-08
2.61922729069e-08
2.74446623058e-05
-2.58565305195e-09
7.86622121212e-09
1.07984532328e-05
0
7.8986403323e-10
1.74523923155e-06
0
0
0
0
0
0
0
0
0
0
0
0
0
0
0
0
0
-5.69687408819e-10
0
4.20809809706e-07
-6.09471760098e-09
3.25668424027e-09
4.78903634447e-06
-1.72762039899e-08
1.46064602746e-08
1.52989135345e-05
-2.89509698047e-08
3.08001836642e-08
2.74794005113e-05
-3.3920367133e-08
4.16376602007e-08
3.52640692836e-05
-3.39209456796e-08
4.34039830348e-08
3.74281210592e-05
-3.39215241717e-08
4.14105560141e-08
3.74233022983e-05
-3.39221027126e-08
3.94170449262e-08
3.74184833312e-05
-3.39226812109e-08
3.74234496179e-08
3.74136641579e-05
-2.89537211351e-08
3.26299638961e-08
3.5239110881e-05
-1.72778756967e-08
2.2007224387e-08
2.74503588068e-05
-6.09510634955e-09
9.53577296565e-09
1.5278982724e-05
-5.69693884576e-10
1.95278557385e-09
4.78233711747e-06
0
0
4.201899789e-07
0
0
0
0
0
0
0
0
0
0
0
0
0
0
0
0
0
0
0
0
-1.18854717794e-09
0
9.65422465406e-07
-4.85307813776e-09
1.35595503982e-09
4.78835957461e-06
-9.4737377203e-09
5.50221286511e-09
1.081193992e-05
-1.16011463833e-08
9.42328340213e-09
1.52947835691e-05
-1.16012773766e-08
1.03020211468e-08
1.66105635312e-05
-1.16014083701e-08
9.82397223748e-09
1.66084436769e-05
-1.16015393176e-08
9.34591724198e-09
1.66063237441e-05
-1.16016702795e-08
8.86785625613e-09
1.66042037328e-05
-9.47431010785e-09
7.38408741081e-09
1.52845273999e-05
-4.85333836594e-09
3.96772783955e-09
1.08015974538e-05
-1.18857245082e-09
9.0307697276e-10
4.78285153167e-06
0
0
9.64207467796e-07
0
0
0
0
0
0
0
0
0
0
0
0
0
0
0
0
0
0
0
0
0
0
0
0
0
0
-4.56466711794e-10
0
4.20674872968e-07
-1.46408676488e-09
0
1.74713252222e-06
-1.94584554506e-09
0
3.07541989253e-06
-1.94585282126e-09
0
3.49770014677e-06
-1.94586008763e-09
0
3.49726883425e-06
-1.94586734302e-09
0
3.4968375157e-06
-1.94587459036e-09
0
3.49640619112e-06
-1.46411190425e-09
0
3.07352710763e-06
-4.56470077976e-10
0
1.74568433024e-06
0
0
4.20259681445e-07
0
0
0
0
0
0
0
0
0
0
0
0
0
0
0
0
0
0
0
0
0
0
0
0
0
0
0
0
0
0
0
0
0
0
0
0
0
0
0
0
0
0
0
0
0
0
0
0
0
0
0
0
0
0
0
0
0
0
0
0
0
0
0
0
0
0
0
0
0
0
0
0
0
0
0
0
0
0
0
0
0
0
0
0
0
0
0
0
0
0
0
0
0
0
0
0
0
0
0
0
0
0
0
0
0
0
0
0
0
0
0
0
0
0
0
0
0
0
0
0
0
0
0
0
0
0
0
0
0
0
0
0
0
0
0
0
0
0
0
0
0
0
0
0
0
0
0
0
0
0
0
0
0
0
0
0
0
0
0
0
0
0
0
0
0
0
0
0
0
0
0
0
0
0
0
0
0
0
0
0
0
0
0
0
0
0
0
0
0
0
0
0
0
0
0
0
0
0
0
0
0
0
0
0
0
0
0
0
0
0
0
0
0
0
0
0
0
0
0
0
0
0
0
0
0
0
0
0
0
0
0
0
0
0
0
0
0
0
0
0
0
0
0
0
0
0
0
0
0
0
0
0
0
0
0
0
0
0
0
0
0
0
0
0
0
0
0
0
0
0
0
0
0
0
0
0
0
0
0
0
0
0
0
0
0
0
0
0
0
0
0
0
0
0
0
0
0
0
0
0
0
0
0
0
-1.14102117998e-09
1.37113293532e-09
4.20879500813e-07
-3.63385780985e-09
5.55400387738e-09
1.74790473993e-06
-4.81390876036e-09
9.49684045871e-09
3.07664086877e-06
-4.8139191141e-09
1.03788268271e-08
3.49904060287e-06
-4.81392952686e-09
9.90067385689e-09
3.49862667854e-06
-4.81393986494e-09
9.4225148566e-09
3.49821276026e-06
-4.81395024354e-09
8.94434983787e-09
3.497798848e-06
-3.63389360679e-09
7.45726025687e-09
3.07478937422e-06
-1.14102595594e-09
4.01934568946e-09
1.74645753736e-06
0
9.18239577234e-10
4.20463737732e-07
0
0
0
0
0
0
0
0
0
0
0
0
0
0
0
0
0
0
0
0
0
0
0
-6.54811484729e-11
8.97856231598e-11
2.55322605921e-08
-4.57619256388e-09
6.08162947799e-09
1.7758314817e-06
-1.54095391803e-08
2.37535436513e-08
7.01142972976e-06
-2.8356744672e-08
4.6917803081e-08
1.41148894458e-05
-3.3929271673e-08
6.17773553564e-08
1.91715833301e-05
-3.3929548664e-08
6.37865201795e-08
2.06344911861e-05
-3.39298257554e-08
6.0816887551e-08
2.06321991234e-05
-3.39301028052e-08
5.78471165501e-08
2.0629907199e-05
-3.39303798645e-08
5.48772071211e-08
2.06276154131e-05
-2.83579960235e-08
4.82377495037e-08
1.91597222176e-05
-1.54101708907e-08
3.34201017635e-08
1.41016488406e-05
-4.57628616502e-09
1.5482973397e-08
7.00321177112e-06
-6.54811361352e-11
3.66373656481e-09
1.77353469748e-06
0
4.86985332774e-11
2.5495240413e-08
0
0
0
0
0
0
0
0
0
0
0
0
0
0
0
0
0
-4.40524728561e-09
6.22833188164e-09
1.77597156537e-06
-2.44636065107e-08
3.28288861487e-08
1.00867910981e-05
-5.77493112245e-08
8.09779041107e-08
2.53133838847e-05
-8.85390331696e-08
1.29240033609e-07
4.09912031324e-05
-1.00845671308e-07
1.54894610345e-07
5.06107700617e-05
-1.00847231996e-07
1.56223838278e-07
5.32413794205e-05
-1.00848792733e-07
1.48811396294e-07
5.32356669135e-05
-1.00850353382e-07
1.41398397484e-07
5.32299549034e-05
-1.0085191411e-07
1.33984841965e-07
5.32242433902e-05
-8.85467730021e-08
1.20201679702e-07
5.05780350582e-05
-5.77547621833e-08
9.11346849339e-08
4.09482150619e-05
-2.44653552602e-08
5.21008728213e-08
2.52791821266e-05
-4.40535018844e-09
1.93648556269e-08
1.00716753183e-05
0
3.37679084411e-09
1.77326079172e-06
0
0
0
0
0
0
0
0
0
0
0
0
0
0
-9.71177943877e-10
1.54095064834e-09
4.20982038355e-07
-1.73210380851e-08
2.06189524954e-08
7.01299382316e-06
-6.13342926865e-08
7.55657985466e-08
2.53181388229e-05
-1.19688554278e-07
1.5352541657e-07
5.06319724404e-05
-1.67720880109e-07
2.21494509207e-07
7.36391360602e-05
-1.86112002943e-07
2.5442991039e-07
8.70597662571e-05
-1.86116069751e-07
2.5381264731e-07
9.06483021137e-05
-1.86120136696e-07
2.41531166568e-07
9.06385395595e-05
-1.86124203692e-07
2.29248513138e-07
9.06287778274e-05
-1.86128270564e-07
2.1696468699e-07
9.06190169174e-05
-1.67741983583e-07
1.96289276967e-07
8.70002490366e-05
-1.19705972402e-07
1.54877275022e-07
7.35541720627e-05
-6.13424173528e-08
9.77457517962e-08
5.05551980134e-05
-1.73223194902e-08
4.4070194136e-08
2.52749158646e-05
-9.71183962529e-10
1.10680309099e-08
7.00111287736e-06
0
7.48400872638e-10
4.20263379246e-07
0
0
0
0
0
0
0
0
0
0
0
-3.90091334651e-09
4.88922926756e-09
1.74847541484e-06
-3.43945709765e-08
3.7450716125e-08
1.41212494508e-05
-9.88222629994e-08
1.1399915171e-07
4.10101944833e-05
-1.74748251994e-07
2.11309632993e-07
7.36611221547e-05
-2.34236679175e-07
2.91155638662e-07
0.000101840147413
-2.56531296657e-07
3.27777589854e-07
0.000117873865765
-2.56538192679e-07
3.25196188714e-07
0.00012210842736
-2.56545088717e-07
3.09232975867e-07
0.000122094803691
-2.5655198478e-07
2.93268050518e-07
0.000122081180803
-2.56558880776e-07
2.77301412703e-07
0.000122067558698
-2.34273284444e-07
2.51803095679e-07
0.000117788672129
-1.7478087692e-07
2.02391648064e-07
0.00010171389396
-9.88403572243e-08
1.3360197691e-07
7.35399206507e-05
-3.43989829376e-08
6.59714763907e-08
4.09335431098e-05
-3.9010096994e-09
1.99340308453e-08
1.40948954991e-05
0
2.37396869023e-09
1.74541135777e-06
0
0
0
0
0
0
0
0
0
0
0
-6.59924518244e-09
6.46571838062e-09
3.07805082315e-06
-4.51272245111e-08
4.46090845896e-08
1.91847986592e-05
-1.18309239825e-07
1.2912626029e-07
5.06494986449e-05
-2.00929390468e-07
2.33034296232e-07
8.71158639706e-05
-2.64295424761e-07
3.16730631678e-07
0.000117917135718
-2.87797445501e-07
3.54381497183e-07
0.000135243785511
-2.87806252215e-07
3.50985357162e-07
0.000139791677751
-2.87815058923e-07
3.33666015778e-07
0.00013977524777
-2.87823865572e-07
3.16344750438e-07
0.00013975881811
-2.87832672333e-07
2.99021561184e-07
0.000139742388769
-2.64342636263e-07
2.71818436252e-07
0.000135141294729
-2.00972862358e-07
2.19701733982e-07
0.000117764157276
-1.18335108786e-07
1.46972930956e-07
8.69656587287e-05
-4.51347056126e-08
7.45253575372e-08
5.05500372366e-05
-6.59956487121e-09
2.36843563183e-08
1.91470410308e-05
0
3.13906385975e-09
3.07250464199e-06
0
0
0
0
0
0
0
0
0
0
0
-7.08771178682e-09
6.46564508898e-09
3.50102514142e-06
-4.59687168484e-08
4.46070944561e-08
2.0651722466e-05
-1.18002998057e-07
1.2911575924e-07
5.32915455382e-05
-1.98586581273e-07
2.330086911e-07
9.07252143392e-05
-2.60078865388e-07
3.1668990186e-07
0.000122180567364