/*--------------------------------*- C++ -*----------------------------------*\
| =========                 |                                                 |
| \\      /  F ield         | OpenFOAM: The Open Source CFD Toolbox           |
|  \\    /   O peration     | Version:  3.0.1                                 |
|   \\  /    A nd           | Web:      www.OpenFOAM.org                      |
|    \\/     M anipulation  |                                                 |
\*---------------------------------------------------------------------------*/
FoamFile
{
    version     2.0;
    format      ascii;
    class       surfaceScalarField;
    location    "0.9";
    object      phi;
}
// * * * * * * * * * * * * * * * * * * * * * * * * * * * * * * * * * * * * * //

dimensions      [0 3 -1 0 0 0 0];

internalField   nonuniform List<scalar> 
22672
(
2.66061810982e-06
2.6868934989e-06
-5.34753536837e-06
5.61652196423e-06
2.45660666411e-06
-5.41254450314e-06
8.24050187308e-06
2.55771250769e-06
-5.18174310089e-06
1.00343830017e-05
3.02578259329e-06
-4.81973402002e-06
1.07219906863e-05
3.77538467847e-06
-4.46308074862e-06
1.02300105395e-05
4.65787872842e-06
-4.16600056675e-06
8.66467709841e-06
5.51579978846e-06
-3.95057665371e-06
6.24906989965e-06
6.2339108627e-06
-3.81841767199e-06
3.2754428177e-06
6.73131400171e-06
-3.75780100123e-06
3.2040689489e-08
6.98233901913e-06
-3.73904808227e-06
-3.21305847359e-06
6.984566864e-06
-3.73957339881e-06
-6.1913980599e-06
6.73768341531e-06
-3.75944212522e-06
-8.61347752908e-06
6.24394068393e-06
-3.82195158891e-06
-1.01865713257e-05
5.52851979993e-06
-3.95550993361e-06
-1.06865887412e-05
4.67232311721e-06
-4.17238656719e-06
-1.00069525293e-05
3.7909617264e-06
-4.47067981869e-06
-8.22150459747e-06
3.04188785177e-06
-4.82742166516e-06
-5.60676324072e-06
2.57408377616e-06
-5.18891747953e-06
-2.6566771189e-06
2.47222409273e-06
-5.42241097681e-06
2.70327126119e-06
-5.360013712e-06
2.43325931194e-06
5.66291613967e-06
-5.4093088858e-06
5.76166955156e-06
5.79735421441e-06
-6.66919570425e-06
8.84233507641e-06
6.41321118334e-06
-6.93621839828e-06
1.09549299238e-05
7.63822593052e-06
-6.72510979685e-06
1.17789801689e-05
9.33890460465e-06
-6.3876563647e-06
1.12484935095e-05
1.12528177927e-05
-6.06454830967e-06
9.50104937437e-06
1.30863873267e-05
-5.82324417614e-06
6.82415520764e-06
1.46026059672e-05
-5.69190286101e-06
3.56022910143e-06
1.56495124495e-05
-5.654372721e-06
2.29956440694e-08
1.61766570707e-05
-5.65718114167e-06
-3.51539016014e-06
1.61800250583e-05
-5.6571628703e-06
-6.78292949969e-06
1.56593361028e-05
-5.65419603741e-06
-9.4649953497e-06
1.46180577009e-05
-5.69212581043e-06
-1.12185047621e-05
1.31060825544e-05
-5.82412187755e-06
-1.1755301226e-05
1.12753738642e-05
-6.06632058769e-06
-1.09370953339e-05
9.36309570306e-06
-6.3904082426e-06
-8.82963323577e-06
7.66303459893e-06
-6.72868205031e-06
-5.75342185347e-06
6.4383424435e-06
-6.94054917537e-06
-2.42845700938e-06
5.82345621956e-06
-6.67627994061e-06
5.69389709486e-06
-5.41913128e-06
2.53881724054e-06
8.2941744107e-06
-5.17010003274e-06
6.38873901483e-06
8.87813117627e-06
-6.93073160045e-06
1.00616622447e-05
1.00803198923e-05
-7.34007646047e-06
1.26144246776e-05
1.20835139199e-05
-6.99810607394e-06
1.36305023606e-05
1.47036219714e-05
-6.38085847447e-06
1.30195392715e-05
1.75838499581e-05
-5.72013611256e-06
1.09612071441e-05
2.03130722377e-05
-5.16842012222e-06
7.83274804422e-06
2.2550393182e-05
-4.8193938956e-06
4.06609819498e-06
2.40885377204e-05
-4.67243867676e-06
1.96470708035e-08
2.48606112404e-05
-4.6375626267e-06
-4.02779768068e-06
2.48642474343e-05
-4.63683181061e-06
-7.7978056891e-06
2.40992272197e-05
-4.66993018566e-06
-1.09312037393e-05
2.25672821585e-05
-4.81586599797e-06
-1.29953238294e-05
2.03348036988e-05
-5.16463511178e-06
-1.36123939992e-05
1.76089174338e-05
-5.71650581458e-06
-1.26019087262e-05
1.47309010069e-05
-6.37832552632e-06
-1.0053889001e-05
1.2111877024e-05
-6.9969020064e-06
-6.38465470061e-06
1.01095763505e-05
-7.34051317544e-06
-2.53717916412e-06
8.91003547519e-06
-6.93410091871e-06
8.33299574841e-06
-5.17629941128e-06
3.01041804353e-06
1.00828664943e-05
-4.79912756734e-06
7.62081130937e-06
1.09807367401e-05
-6.71302011568e-06
1.20747246956e-05
1.26194730758e-05
-6.99309308022e-06
1.5200486792e-05
1.51935326473e-05
-6.2358109478e-06
1.6449337579e-05
1.84736820388e-05
-5.01894158504e-06
1.56886268246e-05
2.20341097484e-05
-3.68957771143e-06
1.31526458423e-05
2.53830396574e-05
-2.53401188144e-06
9.34520339705e-06
2.81142812406e-05
-1.75646817402e-06
4.82680797907e-06
2.99884108027e-05
-1.38149808677e-06
2.04298860366e-08
3.09275600762e-05
-1.26058903843e-06
-4.78704650599e-06
3.09306443481e-05
-1.25893512234e-06
-9.30912070072e-06
2.99978446941e-05
-1.37655203591e-06
-1.31221041224e-05
2.81293685126e-05
-1.74910496621e-06
-1.56647563748e-05
2.54027969032e-05
-2.52533779197e-06
-1.64322448909e-05
2.20574422488e-05
-3.68103143016e-06
-1.51899105805e-05
1.84996906282e-05
-5.01112069652e-06
-1.20696438633e-05
1.52213921298e-05
-6.22978185812e-06
-7.61968888538e-06
1.26492687391e-05
-6.98964999419e-06
-3.01092864389e-06
1.10145734398e-05
-6.71329879645e-06
1.01248585326e-05
-4.80278231254e-06
3.76233564993e-06
1.07538722387e-05
-4.43334759774e-06
9.32496156166e-06
1.17876680974e-05
-6.36956244406e-06
1.46989913507e-05
1.36175654624e-05
-6.37212659523e-06
1.84860165067e-05
1.64229956457e-05
-5.0164901476e-06
1.99867263324e-05
1.99531222493e-05
-2.98014776239e-06
1.90171072165e-05
2.37578897829e-05
-7.54153715397e-07
1.58764914717e-05
2.7322477552e-05
1.20118900026e-06
1.12242868702e-05
3.02333315979e-05
2.53316720063e-06
5.77291454315e-06
3.22383445303e-05
3.20145099724e-06
2.25987696371e-08
3.32452290297e-05
3.43265837363e-06
-5.72883509799e-06
3.32473895558e-05
3.43470150692e-06
-1.11844164934e-05
3.22449730402e-05
3.20847036622e-06
-1.58429111692e-05
3.02440797077e-05
2.54380714664e-06
-1.89910521262e-05
2.73375974224e-05
1.21336973313e-06
-1.99684659108e-05
2.37763118652e-05
-7.4142300754e-07
-1.84754810634e-05
1.99747831918e-05
-2.96804325454e-06
-1.46951563461e-05
1.64473752193e-05
-5.00627277758e-06
-9.32570706199e-06
1.36448170143e-05
-6.36496022101e-06
-3.76427476364e-06
1.18199495957e-05
-6.36676477912e-06
1.07950479499e-05
-4.43442661203e-06
4.64563610075e-06
1.02363094782e-05
-4.1280652054e-06
1.12392512775e-05
1.12357157975e-05
-6.04164968651e-06
1.75789011854e-05
1.29879756675e-05
-5.71004236193e-06
2.20463648861e-05
1.56441936626e-05
-3.68863881366e-06
2.37929849095e-05
1.89650539811e-05
-7.58523760319e-07
2.2585027636e-05
2.25314852375e-05
2.43439351218e-06
1.87986341271e-05
2.58856129408e-05
5.22329087926e-06
1.3248426421e-05
2.86416099586e-05
7.14195937158e-06
6.79724573852e-06
3.0554564526e-05
8.13498548955e-06
2.45412271584e-08
3.15216360456e-05
8.49631741851e-06
-6.74930496448e-06
3.15230368596e-05
8.49821757765e-06
-1.32046612386e-05
3.05581325397e-05
8.14221906953e-06
-1.87612727026e-05
2.86469506365e-05
7.15376971112e-06
-2.25560245843e-05
2.58943462692e-05
5.23804017079e-06
-2.37724038599e-05
2.25432954782e-05
2.44943986516e-06
-2.20345515746e-05
1.89804357641e-05
-7.43453846118e-07
-1.75751219921e-05
1.56630352737e-05
-3.67503116023e-06
-1.12408926727e-05
1.30104413543e-05
-5.6997859124e-06
-4.64845517022e-06
1.12636258562e-05
-6.0360346185e-06
1.02731587473e-05
-4.12650666379e-06
5.5036688819e-06
8.63870232147e-06
-3.9060375652e-06
1.30714207936e-05
9.46506678889e-06
-5.79707121024e-06
2.0305175071e-05
1.09130607833e-05
-5.15880221877e-06
2.53925782832e-05
1.30948835605e-05
-2.53805195387e-06
2.73561291944e-05
1.58130943418e-05
1.18845155323e-06
2.59351770288e-05
1.87370929271e-05
5.21538581565e-06
2.15568999697e-05
2.15070715419e-05
8.75685422875e-06
1.517133529e-05
2.37948621649e-05
1.12323389864e-05
7.77423246812e-06
2.53877503924e-05
1.25639323638e-05
2.58805927849e-08
2.6200533324e-05
1.30694610313e-05
-7.72397105042e-06
2.62016507827e-05
1.30712409297e-05
-1.51252160006e-05
2.53892623006e-05
1.25701219658e-05
-2.15161430237e-05
2.37960382605e-05
1.12418550677e-05
-2.59029956249e-05
2.15093628207e-05
8.77186290772e-06
-2.73326276794e-05
1.87422688539e-05
5.23069800936e-06
-2.53784356622e-05
1.58217736355e-05
1.20452321954e-06
-2.03003046106e-05
1.31073361594e-05
-2.52236331097e-06
-1.30730063301e-05
1.09294674569e-05
-5.14623869886e-06
-5.5068053243e-06
9.48685766512e-06
-5.78933076745e-06
8.66873422184e-06
-3.90230843561e-06
6.22107544626e-06
6.18639138356e-06
-3.76872398054e-06
1.45853717316e-05
6.76417881874e-06
-5.66335942186e-06
2.25395378653e-05
7.76948050174e-06
-4.81053315254e-06
2.81239938861e-05
9.27511140743e-06
-1.76463143403e-06
3.02757143413e-05
1.11461990719e-05
2.51522252679e-06
2.87063393129e-05
1.31653417277e-05
7.14116465934e-06
2.3849265167e-05
1.50880655887e-05
1.12761052768e-05
1.6771532363e-05
1.66905887311e-05
1.41820150929e-05
8.59027192965e-06
1.78192985091e-05
1.57497047685e-05
2.68376611907e-08
1.84092553782e-05
1.63546924962e-05
-8.53900548606e-06
1.84093209455e-05
1.63581489161e-05
-1.6724653585e-05
1.78192354181e-05
1.57556552801e-05
-2.38070839286e-05
1.66882764512e-05
1.41901834108e-05
-2.8671571818e-05
1.50851760361e-05
1.12886811072e-05
-3.02493093236e-05
1.31647713054e-05
7.15525933478e-06
-2.81070233671e-05
1.11489330945e-05
2.53059961802e-06
-2.25326768618e-05
9.28141574741e-06
-1.74835796844e-06
-1.45859928725e-05
7.77957727637e-06
-4.79670169357e-06
-6.22404024048e-06
6.77883491201e-06
-5.65381757754e-06
6.2080930123e-06
-3.76332195895e-06
6.71647153948e-06
3.17457473731e-06
-3.70459880512e-06
1.56278636467e-05
3.47691271191e-06
-5.62406199534e-06
2.40709821042e-05
3.9899952201e-06
-4.66356854955e-06
2.99908108812e-05
4.74827787132e-06
-1.39293645647e-06
3.22752377386e-05
5.68580827807e-06
3.17601086537e-06
3.06184299451e-05
6.7002345294e-06
8.1219452852e-06
2.54445731471e-05
7.66657173688e-06
1.25953609294e-05
1.79009549309e-05
8.48485018094e-06
1.574934545e-05
9.17796821901e-06
9.07430482992e-06
1.74679491927e-05
2.76341757959e-08
9.39127448001e-06
1.81682698628e-05
-9.12665508096e-06
9.38865873801e-06
1.81749017767e-05
-1.78559868209e-05
9.07030093419e-06
1.74782215954e-05
-2.54029174713e-05
8.47942100456e-06
1.57557542869e-05
-3.05815134781e-05
7.66048391262e-06
1.26032741861e-05
-3.22458386434e-05
6.69530363856e-06
8.13380072242e-06
-2.99708259579e-05
5.68368249302e-06
3.19027148342e-06
-2.40616482202e-05
4.74917050852e-06
-1.37687058504e-06
-1.56269858881e-05
3.99410547713e-06
-4.64910023311e-06
-6.71877935523e-06
3.48425987189e-06
-5.61351914605e-06
3.18694559451e-06
-3.69755669201e-06
6.96405341714e-06
-1.05127224399e-07
-3.68428167284e-06
1.61484680309e-05
-8.13440607351e-08
-5.62608126932e-06
2.48338707171e-05
-6.62799154562e-08
-4.62905368495e-06
3.09184753141e-05
-6.18810335278e-08
-1.27438253549e-06
3.32697298482e-05
-6.48576647461e-08
3.39945731238e-06
3.15770253848e-05
-7.13730567119e-08
8.46433642939e-06
2.62601242902e-05
-8.05446248764e-08
1.30640180364e-05
1.84962247737e-05
-8.72710386635e-08
1.63359972943e-05
9.4964299834e-06
-9.13462648272e-08
1.81654014145e-05
2.50331707488e-08
-9.49949755455e-08
1.89576078323e-05
-9.44716168831e-06
-9.65466801901e-08
1.89573375408e-05
-1.84517337229e-05
-9.6663123317e-08
1.81714788073e-05
-2.62185471319e-05
-9.39931063981e-08
1.63401833575e-05
-3.15390369388e-05
-8.79286467755e-08
1.3068876788e-05
-3.3238001417e-05
-7.85991259354e-08
8.47286465349e-06
-3.08955964585e-05
-7.04283501209e-08
3.41173053085e-06
-2.48217414346e-05
-6.50730162802e-08
-1.25955692932e-06
-1.61457208724e-05
-6.71534606625e-08
-4.61467762968e-06
-6.96557005221e-06
-8.07620163673e-08
-5.61502334315e-06
-1.01447679942e-07
-3.67710760942e-06
6.96156971986e-06
-3.38089887648e-06
-3.68571749649e-06
1.61440161609e-05
-3.63647316364e-06
-5.62723119298e-06
2.48279086741e-05
-4.11978173545e-06
-4.63030956187e-06
3.09115898819e-05
-4.86952051291e-06
-1.27597405962e-06
3.32623014367e-05
-5.81281397964e-06
3.39729288843e-06
3.15694000404e-05
-6.84033193e-06
8.46188536555e-06
2.62541639111e-05
-7.82442904828e-06
1.30591213804e-05
1.84927445615e-05
-8.65599520392e-06
1.63301205452e-05
9.49372111609e-06
-9.25535552662e-06
1.81629898302e-05
2.34531137651e-08
-9.5794959984e-06
1.89547134808e-05
-9.44816157065e-06
-9.58008376194e-06
1.89550926367e-05
-1.84503386553e-05
-9.25923294867e-06
1.81646928798e-05
-2.62135218661e-05
-8.66130658367e-06
1.63304546361e-05
-3.15307806821e-05
-7.83072749773e-06
1.30600324678e-05
-3.32285462012e-05
-6.84719877818e-06
8.46636096128e-06
-3.0886066513e-05
-5.81953532095e-06
3.40664821473e-06
-2.48131063361e-05
-4.87503534371e-06
-1.2629491313e-06
-1.61391726472e-05
-4.12456188434e-06
-4.61644944503e-06
-6.96211960248e-06
-3.6416672366e-06
-5.61605293224e-06
-3.38539264796e-06
-3.67811396631e-06
6.70910694752e-06
-6.38089412696e-06
-3.7090241716e-06
1.56145524987e-05
-6.91460698855e-06
-5.62721950273e-06
2.4053297509e-05
-7.89168915692e-06
-4.66675113366e-06
2.99696602656e-05
-9.38863802338e-06
-1.39717236889e-06
3.22515572914e-05
-1.1264078146e-05
3.1694211263e-06
3.05950175412e-05
-1.32940485818e-05
8.11028884679e-06
2.54269047326e-05
-1.52315078864e-05
1.25752015349e-05
1.78890859501e-05
-1.68449197263e-05
1.57267317404e-05
9.16913060668e-06
-1.79843409843e-05
1.74489118932e-05
2.27271323555e-08
-1.85811806085e-05
1.81480486427e-05
-9.12614379496e-06
-1.85825960542e-05
1.81513409979e-05
-1.78489324874e-05
-1.7987888875e-05
1.74514066158e-05
-2.53875209426e-05
-1.68491066373e-05
1.57263599864e-05
-3.05569133443e-05
-1.5236206307e-05
1.25748558586e-05
-3.22174573087e-05
-1.33000544526e-05
8.11340086486e-06
-2.994245421e-05
-1.12706836925e-05
3.1761667243e-06
-2.40360745612e-05
-9.39523350587e-06
-1.38613727125e-06
-1.56076614877e-05
-7.89919120238e-06
-4.65371716739e-06
-6.70834520538e-06
-6.92450738429e-06
-5.61639440248e-06
-6.39235102533e-06
-3.70133616414e-06
6.20939586388e-06
-8.81440942008e-06
-3.77579048827e-06
1.45642410453e-05
-9.60110540759e-06
-5.66825234368e-06
2.2511627619e-05
-1.10232374717e-05
-4.81574881763e-06
2.80906221346e-05
-1.31959986877e-05
-1.77155610738e-06
3.02380432647e-05
-1.5916038787e-05
2.50460113343e-06
2.86693166468e-05
-1.88467810126e-05
7.12150196994e-06
2.38212267584e-05
-2.16248499664e-05
1.12414553124e-05
1.67503599261e-05
-2.39214749958e-05
1.4147427086e-05
8.57518874988e-06
-2.55224620077e-05
1.57132829445e-05
2.09998221632e-08
-2.63399300645e-05
1.63129208325e-05
-8.53468785286e-06
-2.63411619954e-05
1.63142337979e-05
-1.67112493687e-05
-2.55245960276e-05
1.57132516183e-05
-2.3782517956e-05
-2.3923888488e-05
1.41460396305e-05
-2.86324597946e-05
-2.16284062784e-05
1.12421395678e-05
-3.02043225927e-05
-1.88515212172e-05
7.12333825013e-06
-2.80624562792e-05
-1.59218128212e-05
2.50928552371e-06
-2.24927291413e-05
-1.32029446673e-05
-1.76197687666e-06
-1.45557108449e-05
-1.10327046267e-05
-4.80344926887e-06
-6.20742219809e-06
-9.61431903172e-06
-5.65841069607e-06
-8.83116062873e-06
-3.76857324793e-06
5.48849265934e-06
-1.03872383716e-05
-3.91557546978e-06
1.3044181683e-05
-1.13523866636e-05
-5.80431505386e-06
2.02696234704e-05
-1.30817065352e-05
-5.16688312547e-06
2.53507181285e-05
-1.57290287125e-05
-2.5479835776e-06
2.73103304475e-05
-1.90494845409e-05
1.17390195509e-06
2.58914420064e-05
-2.26185473112e-05
5.19070792497e-06
2.15221965913e-05
-2.59767897348e-05
8.72122178775e-06
1.51436381537e-05
-2.87400787169e-05
1.11971834748e-05
7.75476217647e-06
-3.06581124155e-05
1.25245361199e-05
1.98601948581e-08
-3.16266870817e-05
1.30216619591e-05
-7.71576838291e-06
-3.16274237547e-05
1.30218908384e-05
-1.51057700035e-05
-3.06595209907e-05
1.25249279876e-05
-2.14851367791e-05
-2.87416103364e-05
1.11970928412e-05
-2.58557548105e-05
-2.59794425815e-05
8.7216623908e-06
-2.72770176653e-05
-2.26222520229e-05
5.19200718672e-06
-2.53222890434e-05
-1.90545175368e-05
1.17799733155e-06
-2.02499354358e-05
-1.5736567482e-05
-2.53869961113e-06
-1.30341561508e-05
-1.3092925703e-05
-5.15551630965e-06
-5.48570129546e-06
-1.1369101247e-05
-5.79362423419e-06
-1.04084624558e-05
-3.90837269633e-06
4.62816607563e-06
-1.08756584471e-05
-4.13966337385e-06
1.12077885165e-05
-1.18808488241e-05
-6.05107266314e-06
1.75379479713e-05
-1.36912863744e-05
-5.72049258272e-06
2.19990636162e-05
-1.64876324711e-05
-3.70242962298e-06
2.37425880076e-05
-2.00146414354e-05
-7.78293837243e-07
2.25360218354e-05
-2.38189088259e-05
2.40698944321e-06
1.87575653623e-05
-2.7383197603e-05
5.18491246787e-06
1.32159984408e-05
-3.02964056526e-05
7.09792917067e-06
6.77642827072e-06
-3.2302016954e-05
8.08350018855e-06
1.91443735517e-08
-3.33076730064e-05
8.43828887924e-06
-6.73845203872e-06
-3.33082973627e-05
8.43848572434e-06
-1.31787954937e-05
-3.23034477428e-05
8.08428457597e-06
-1.87215270609e-05
-3.02985565237e-05
7.09969150291e-06
-2.25013332779e-05
-2.73864336927e-05
5.18681075983e-06
-2.37099375325e-05
-2.38233151864e-05
2.40968110141e-06
-2.19714529213e-05
-2.00211513943e-05
-7.71835132881e-07
-1.75182888738e-05
-1.64972926967e-05
-3.69241903253e-06
-1.11975084712e-05
-1.37055993476e-05
-5.70808132444e-06
-4.62489224108e-06
-1.19009922999e-05
-6.04069667737e-06
-1.09003617212e-05
-4.13297951655e-06
3.74319400657e-06
-1.01728675167e-05
-4.44591064891e-06
9.29099928085e-06
-1.1048178996e-05
-6.38039495866e-06
1.46558244484e-05
-1.26712150025e-05
-6.38481399954e-06
1.84374057884e-05
-1.52368154696e-05
-5.03231641267e-06
1.99355592718e-05
-1.85121667145e-05
-3.00055051893e-06
1.89679741721e-05
-2.20687798151e-05
-7.82474287687e-07
1.58338714184e-05
-2.54143986942e-05
1.16536299024e-06
1.11912443499e-05
-2.81430456725e-05
2.48931567713e-06
5.75262087196e-06
-3.00137343795e-05
3.15038048691e-06
1.85729360119e-08
-3.09491958223e-05
3.3756035923e-06
-5.71543876323e-06
-3.09498269135e-05
3.37556918666e-06
-1.11546475121e-05
-3.00157950423e-05
3.15158001746e-06
-1.57984573391e-05
-2.81466449849e-05
2.49191820409e-06
-1.8933847917e-05
-2.54196329865e-05
1.16860503325e-06
-1.9903904745e-05
-2.20761021274e-05
-7.77145797876e-07
-1.84108431913e-05
-1.85223957733e-05
-2.99181011696e-06
-1.46369778363e-05
-1.52507318921e-05
-5.0204199607e-06
-9.28081024153e-06
-1.26895441197e-05
-6.37221513349e-06
-3.73955941449e-06
-1.10716098452e-05
-6.37062509693e-06
-1.01993340056e-05
-4.44058654798e-06
2.99135206722e-06
-8.35364130788e-06
-4.8105136148e-06
7.58701687659e-06
-8.92007946286e-06
-6.72369261327e-06
1.2032938506e-05
-1.01110893962e-05
-7.00596989267e-06
1.51551021909e-05
-1.21077616246e-05
-6.25113627244e-06
1.64029364194e-05
-1.47234849867e-05
-5.03643412507e-06
1.56443661899e-05
-1.75992958637e-05
-3.71083536823e-06
1.31143771498e-05
-2.03237396127e-05
-2.56059844963e-06
9.31615484146e-06
-2.25562592336e-05
-1.7885008194e-06
4.80980835532e-06
-2.40894827632e-05
-1.41784998422e-06
1.7765448906e-08
-2.48572175558e-05
-1.29988766584e-06
-4.77419201355e-06
-2.48580863926e-05
-1.29974221223e-06
-9.28075637805e-06
-2.40923745672e-05
-1.41682228089e-06
-1.30797461052e-05
-2.25615214629e-05
-1.7861081229e-06
-1.56109713343e-05
-2.03316129303e-05
-2.55677858941e-06
-1.63722063905e-05
-1.76103346889e-05
-3.70452596509e-06
-1.51293507064e-05
-1.47380867891e-05
-5.02716653108e-06
-1.20143269373e-05
-1.21260183799e-05
-6.23974423583e-06
-7.57642080977e-06
-1.01329809372e-05
-6.99447812534e-06
-2.98688625878e-06
-8.94566136979e-06
-6.71549305392e-06
-8.37913080826e-06
-4.80709971388e-06
2.52116600169e-06
-5.69684782329e-06
-5.17790317707e-06
6.35784651062e-06
-5.81769018026e-06
-6.93900502337e-06
1.0024849316e-05
-6.42727901191e-06
-7.35073952447e-06
1.25762132115e-05
-7.64874688304e-06
-7.01029648077e-06
1.35928066289e-05
-9.34693680938e-06
-6.39305363688e-06
1.29839500514e-05
-1.12580394318e-05
-5.73231040723e-06
1.09303599097e-05
-1.30879892831e-05
-5.18207352248e-06
7.80906413444e-06
-1.46003825397e-05
-4.83450004866e-06
4.05184790191e-06
-1.56433269745e-05
-4.68886621214e-06
1.68472197142e-08
-1.61668692389e-05
-4.65528270499e-06
-4.01782241228e-06
-1.61679354461e-05
-4.65542560682e-06
-7.77461245883e-06
-1.56466895722e-05
-4.68884983565e-06
-1.08957734627e-05
-1.46065788305e-05
-4.83374905115e-06
-1.29500435574e-05
-1.30974508571e-05
-5.17987374029e-06
-1.35610725639e-05
-1.12710190045e-05
-5.72828303507e-06
-1.25490001143e-05
-9.3635463904e-06
-6.38662176845e-06
-1.00044185148e-05
-7.66865744311e-06
-7.00196008651e-06
-6.34523315443e-06
-6.44987131011e-06
-7.34231688484e-06
-2.51520061733e-06
-5.84219836558e-06
-6.93351955645e-06
-5.71769015231e-06
-5.17665959522e-06
2.41772966941e-06
-2.69970774231e-06
-5.41481608107e-06
5.73752873346e-06
-2.46174956016e-06
-6.67567664761e-06
8.81585241817e-06
-2.56142545504e-06
-6.94410234946e-06
1.09293408509e-05
-3.02858594139e-06
-6.73356210193e-06
1.17547001595e-05
-3.77756770336e-06
-6.394631223e-06
1.12253342173e-05
-4.65907264831e-06
-6.0694985293e-06
9.47970638038e-06
-5.51553772099e-06
-5.82672161699e-06
6.80623355299e-06
-6.2318143694e-06
-5.69499795132e-06
3.54763975779e-06
-6.72719190133e-06
-5.65745179069e-06
1.78614899517e-08
-6.97628315223e-06
-5.66072838046e-06
-3.51117962864e-06
-6.97729293727e-06
-5.66153382913e-06
-6.76810332841e-06
-6.73000598549e-06
-5.65970634427e-06
-9.43982696465e-06
-6.23686553299e-06
-5.69795258346e-06
-1.11846121669e-05
-5.52313570921e-06
-5.82951111721e-06
-1.17152721136e-05
-4.66936253489e-06
-6.0709958098e-06
-1.08942703059e-05
-3.79046619904e-06
-6.39409669298e-06
-8.78821825517e-06
-3.04358217072e-06
-6.73115259346e-06
-5.71950482417e-06
-2.57810802877e-06
-6.94050737206e-06
-2.40895131589e-06
-2.47884358691e-06
-6.67394155171e-06
-2.71149771732e-06
-5.41516523654e-06
2.65065761675e-06
-5.35032769602e-06
5.60674804486e-06
-5.41779530581e-06
8.23312305415e-06
-5.18774685845e-06
1.00300280551e-05
-4.8254285456e-06
1.07190115875e-05
-4.46648241369e-06
1.0225796817e-05
-4.16578644686e-06
8.65793591142e-06
-3.94760666339e-06
6.24012251084e-06
-3.81393520897e-06
3.2660489671e-06
-3.75305906629e-06
2.50204695129e-08
-3.73520318718e-06
-3.21524402365e-06
-3.73698604035e-06
-6.18615179785e-06
-3.75906634251e-06
-8.60012960393e-06
-3.82286790619e-06
-1.0165684298e-05
-3.95757400474e-06
-1.06596989682e-05
-4.17535289937e-06
-9.97567707911e-06
-4.47450267661e-06
-8.18824954178e-06
-4.83103016033e-06
-5.57606536546e-06
-5.19031543149e-06
-2.63582171737e-06
-5.4191098885e-06
-5.34732903043e-06
3.27406411075e-06
3.3001563535e-06
-1.1921777769e-05
6.45890218127e-06
3.67854169935e-06
-1.22759548848e-05
9.17329141716e-06
4.19564976531e-06
-1.20918281133e-05
1.09828822262e-05
5.02389800065e-06
-1.16532859412e-05
1.16210804387e-05
6.06650087354e-06
-1.11678575755e-05
1.10127662155e-05
7.19509691972e-06
-1.07528712031e-05
9.27235266351e-06
8.26044926927e-06
-1.04707062469e-05
6.65237981814e-06
9.13875282535e-06
-1.03372943683e-05
3.46947539185e-06
9.74415154052e-06
-1.0319145458e-05
2.08750829677e-08
1.0049141038e-05
-1.03396846127e-05
-3.4288649308e-06
1.00508262395e-05
-1.03407513862e-05
-6.6151343379e-06
9.7488695471e-06
-1.03221278259e-05
-9.23986077679e-06
9.14602180732e-06
-1.0343325483e-05
-1.09852842854e-05
8.26956100573e-06
-1.04797201396e-05
-1.15988472224e-05
7.20510594901e-06
-1.0763999619e-05
-1.09654238026e-05
6.07697175298e-06
-1.11811461226e-05
-9.15968971253e-06
5.03468901449e-06
-1.1667919523e-05
-6.44901828586e-06
4.20726910521e-06
-1.21069375341e-05
-3.26830969116e-06
3.69137225524e-06
-1.22945743691e-05
3.31533210776e-06
-1.1943703422e-05
3.66096075216e-06
6.50103431259e-06
-1.22711682507e-05
7.07592440512e-06
7.09500973875e-06
-1.35006562908e-05
9.91361092241e-06
8.10599581349e-06
-1.36842929167e-05
1.18173932981e-05
9.68857644825e-06
-1.32936259053e-05
1.2484822492e-05
1.16750042742e-05
-1.2663654701e-05
1.18142703164e-05
1.38156058428e-05
-1.20145774648e-05
9.92353022527e-06
1.58302187091e-05
-1.1502349598e-05
7.09929557525e-06
1.74811854903e-05
-1.1210178879e-05
3.68940502045e-06
1.8618750797e-05
-1.11191601115e-05
9.34905503414e-09
1.91918474151e-05
-1.11199090848e-05
-3.6712946381e-06
1.91939032993e-05
-1.11196701172e-05
-7.08286109615e-06
1.86246198868e-05
-1.11184478004e-05
-9.90943812238e-06
1.7490107323e-05
-1.12096952492e-05
-1.18026019048e-05
1.58412012487e-05
-1.15026536968e-05
-1.24755049594e-05
1.38275300897e-05
-1.20158947135e-05
-1.1809917827e-05
1.16874076626e-05
-1.26664857279e-05
-9.90740844267e-06
9.70154906516e-06
-1.32981094416e-05
-7.07045772663e-06
8.12061629522e-06
-1.36909085841e-05
-3.6571819816e-06
7.11323832421e-06
-1.35114832505e-05
6.52755722495e-06
-1.22885700988e-05
4.18821931953e-06
9.21551795137e-06
-1.20728197386e-05
8.10426359281e-06
9.925290765e-06
-1.36770793341e-05
1.1338893297e-05
1.13300085862e-05
-1.37987498278e-05
1.34990808904e-05
1.35182338584e-05
-1.29879897877e-05
1.42410426495e-05
1.62544889357e-05
-1.17023489687e-05
1.3443748873e-05
1.91924942013e-05
-1.02997776951e-05
1.12509326941e-05
2.19462218603e-05
-9.09165578899e-06
8.01351009344e-06
2.41929623463e-05
-8.29379839821e-06
4.14739907895e-06
2.57389656386e-05
-7.92659403944e-06
4.13652866831e-09
2.65176644768e-05
-7.82016874419e-06
-4.13957806633e-06
2.65194749283e-05
-7.81873796953e-06
-8.0068972949e-06
2.57442307885e-05
-7.92226578245e-06
-1.12458827531e-05
2.42008825607e-05
-8.28769320913e-06
-1.34403624699e-05
2.19556488244e-05
-9.08463494595e-06
-1.42389769777e-05
1.92024627694e-05
-1.02928535265e-05
-1.34979212153e-05
1.62648204303e-05
-1.16968240802e-05
-1.13381993034e-05
1.35295796727e-05
-1.29846863737e-05
-8.10369133158e-06
1.13441275323e-05
-1.37985653033e-05
-4.18811964938e-06
9.94550802389e-06
-1.36819723877e-05
9.24841808859e-06
-1.20852902622e-05
5.02410812808e-06
1.10146703705e-05
-1.16223978575e-05
9.69890189715e-06
1.18172628174e-05
-1.32797980983e-05
1.35409233455e-05
1.34782047682e-05
-1.29833264552e-05
1.60859811737e-05
1.6050668824e-05
-1.13133223307e-05
1.69271117723e-05
1.92552686216e-05
-8.86087194692e-06
1.59229671183e-05
2.2684448967e-05
-6.17740870299e-06
1.32647148939e-05
2.58866532149e-05
-3.81621300841e-06
9.40048716538e-06
2.84946526026e-05
-2.19395481044e-06
4.84514605315e-06
3.02925246978e-05
-1.37974311382e-06
2.07022012229e-09
3.12001198436e-05
-1.09999755271e-06
-4.84139637507e-06
3.12012583346e-05
-1.09727994162e-06
-9.39808862219e-06
3.02959960974e-05
-1.37164883578e-06
-1.32641422623e-05
2.84997226597e-05
-2.18190908721e-06
-1.59241629822e-05
2.58924321044e-05
-3.80211263579e-06
-1.69295425477e-05
2.26900183918e-05
-6.16321621156e-06
-1.60890946534e-05
1.92613317779e-05
-8.84808682024e-06
-1.3544404244e-05
1.60583496283e-05
-1.13032473856e-05
-9.70234386593e-06
1.34897200695e-05
-1.29773047787e-05
-5.02697063454e-06
1.18367518584e-05
-1.3279911237e-05
1.10497355983e-05
-1.163105882e-05
6.07107323094e-06
1.16352901809e-05
-1.11250404679e-05
1.16916766003e-05
1.24714792948e-05
-1.26443818369e-05
1.62843674879e-05
1.42094248837e-05
-1.16960373658e-05
1.92987376486e-05
1.68813921593e-05
-8.86158364783e-06
2.02512154296e-05
2.01961479043e-05
-4.87350530004e-06
1.89791388255e-05
2.37300322244e-05
-5.27661921176e-07
1.57418763025e-05
2.70361743228e-05
3.28892646277e-06
1.1106569792e-05
2.97405974255e-05
5.92252037469e-06
5.70523064875e-06
3.16236883719e-05
7.27161245988e-06
1.46974661839e-09
3.25802442195e-05
7.75627673598e-06
-5.70257342059e-06
3.25805216476e-05
7.75946271104e-06
-1.11057791345e-05
3.1624400423e-05
7.28325668518e-06
-1.57435442537e-05
2.97415203835e-05
5.93976529059e-06
-1.89831374003e-05
2.70372506411e-05
3.30814136315e-06
-2.02563143536e-05
2.37304214991e-05
-5.08646643622e-07
-1.93046446284e-05
2.01970178888e-05
-4.8553908145e-06
-1.62909388669e-05
1.6884431794e-05
-8.84604530565e-06
-1.16982910971e-05
1.42171569104e-05
-1.16850201682e-05
-6.07625474161e-06
1.24882987895e-05
-1.26403126047e-05
1.16689860661e-05
-1.11299020169e-05
7.20156472681e-06
1.10053243751e-05
-1.06996522169e-05
1.38341431577e-05
1.17894417573e-05
-1.19921771423e-05
1.92237224948e-05
1.34064768228e-05
-1.02966596515e-05
2.27298116974e-05
1.58743255721e-05
-6.18764845983e-06
2.37884082059e-05
1.89219346072e-05
-5.42896632941e-07
2.22341630548e-05
2.21743604851e-05
5.54431653241e-06
1.83875049524e-05
2.52475371902e-05
1.08585858431e-05
1.29438598515e-05
2.77868485343e-05
1.45393448341e-05
6.63918272659e-06
2.95727942281e-05
1.64905394798e-05
1.19646231879e-09
3.04878671248e-05
1.72266572399e-05
-6.63715766219e-06
3.04875699322e-05
1.72294984783e-05
-1.29438977342e-05
2.95713451217e-05
1.65019929641e-05
-1.83902896412e-05
2.77833341348e-05
1.45583331037e-05
-2.22397857859e-05
2.52437029821e-05
1.08810768827e-05
-2.37952002764e-05
2.21694978991e-05
5.56577962858e-06
-2.27374118136e-05
1.89177271039e-05
-5.21939035034e-07
-1.92323055649e-05
1.58727113999e-05
-6.16839082507e-06
-1.38429666522e-05
1.34099816598e-05
-1.02819073187e-05
-7.20843615623e-06
1.18023178298e-05
-1.19845267966e-05
1.10348501635e-05
-1.07007655043e-05
8.2675847997e-06
9.24141879246e-06
-1.04096925219e-05
1.58480281041e-05
9.89132283587e-06
-1.14793702442e-05
2.19755200706e-05
1.12159029337e-05
-9.09569633885e-06
2.59306976258e-05
1.3223984442e-05
-3.84286920188e-06
2.70949308107e-05
1.56967336038e-05
3.24943080467e-06
2.53037880192e-05
1.83440090276e-05
1.08368814904e-05
2.09166288178e-05
2.08841973292e-05
1.75073431389e-05
1.47267850282e-05
2.29971667989e-05
2.22118417314e-05
7.55617901613e-06
2.44927376943e-05
2.48145605293e-05
5.98637228963e-10
2.52644474611e-05
2.58484191532e-05
-7.55564276074e-06
2.52643554815e-05
2.58506533472e-05
-1.47286554865e-05
2.44900472848e-05
2.48243933864e-05
-2.09200176623e-05
2.29916336719e-05
2.22248863324e-05
-2.53106597668e-05
2.08764868723e-05
1.75296997533e-05
-2.71026850426e-05
1.83355946371e-05
1.08566175258e-05
-2.59390014557e-05
1.56886427145e-05
3.26993117963e-06
-2.19850341484e-05
1.32185556894e-05
-3.82214749116e-06
-1.58580133217e-05
1.12156754481e-05
-9.07890339455e-06
-8.27545472172e-06
9.89984846958e-06
-1.1469351454e-05
9.26472187136e-06
-1.04075889622e-05
9.14539320627e-06
6.59675598466e-06
-1.02694180338e-05
1.74974609707e-05
7.06366164322e-06
-1.11877303356e-05
2.42204891774e-05
7.98653044668e-06