/*--------------------------------*- C++ -*----------------------------------*\
| =========                 |                                                 |
| \\      /  F ield         | OpenFOAM: The Open Source CFD Toolbox           |
|  \\    /   O peration     | Version:  3.0.1                                 |
|   \\  /    A nd           | Web:      www.OpenFOAM.org                      |
|    \\/     M anipulation  |                                                 |
\*---------------------------------------------------------------------------*/
FoamFile
{
    version     2.0;
    format      ascii;
    class       volScalarField;
    location    "4.8";
    object      epsilon;
}
// * * * * * * * * * * * * * * * * * * * * * * * * * * * * * * * * * * * * * //

dimensions      [0 2 -3 0 0 0 0];

internalField   nonuniform List<scalar> 
7968
(
0.000252754358456
0.000313874053994
0.000363219992604
0.000392645737697
0.000405832255614
0.000408088786351
0.000404324330317
0.000397319152752
0.000390113380701
0.000384643119686
0.000384635907809
0.000390100489587
0.000397307643688
0.000404319917018
0.000408096835441
0.000405853901952
0.000392677255872
0.000363254728757
0.000313906507391
0.000252771238864
0.000313859419837
0.000566944797731
0.000754390062811
0.000863931201093
0.000912375523528
0.000919892684511
0.000905463736483
0.000881818608497
0.00086060169163
0.000848284911256
0.000848249299383
0.000860510313139
0.000881690937949
0.000905329750461
0.000919790686556
0.000912330247419
0.000863945274852
0.000754441172693
0.000567004346324
0.000313887706148
0.000363186039124
0.000754348062202
0.00104465400809
0.0012166444608
0.00129596431719
0.00131175366059
0.00129212997892
0.00125867133138
0.00122899433382
0.00121221760242
0.0012121535889
0.00122882401092
0.00125841866539
0.00129184250617
0.00131150108296
0.00129579897321
0.0012165780979
0.00104466111654
0.00075439183699
0.000363215751591
0.000392587605957
0.000863849741528
0.00121661379527
0.00142564243382
0.00152043172062
0.00153599397307
0.00150812397929
0.00146501200777
0.00142917289688
0.00140953321887
0.00140944506077
0.00142893552373
0.00146464230283
0.00150767735215
0.00153557554596
0.00152011755021
0.00142545673921
0.0012165364826
0.000863846117312
0.000392611964163
0.000405755124287
0.000912298611093
0.00129597971366
0.00152050997056
0.00161505888592
0.00162189966702
0.00161524012767
0.00159573796774
0.00157201000931
0.00155635831504
0.00155628538284
0.00157181624613
0.00159544628925
0.00161487566168
0.00162136597905
0.00161460104432
0.00152019268851
0.0012957974404
0.00091222498303
0.000405764272286
0.0004080141217
0.000919901401968
0.00131193990798
0.00153632860304
0.00162220179505
0.00167088875331
0.00168488943554
0.00167162883607
0.00164867285752
0.00163210472039
0.00163203396194
0.001648486329
0.00167135223322
0.00168455546591
0.00167049372526
0.00162167059715
0.00153591019683
0.001311669823
0.000919765656302
0.000408004135562
0.000404260957511
0.000905595809925
0.00129256715878
0.00150884050419
0.00161571452867
0.00168516388015
0.00170480116477
0.00168973529348
0.00166252019709
0.00164254274561
0.00164247594328
0.00166234634569
0.00168948151985
0.00170450347528
0.00168484350992
0.00161536412737
0.00150840770891
0.0012922654957
0.000905422384628
0.000404230360174
0.000397268071757
0.000882057101383
0.00125931121235
0.00146602184445
0.00159647111342
0.001672193586
0.00169003333233
0.00166882911152
0.00163465839263
0.00160953753814
0.00160948042529
0.00163451529676
0.00166863122315
0.00168981517116
0.00167197123576
0.0015962363599
0.00146571062315
0.00125907349627
0.000881899643305
0.000397225991287
0.000390056249464
0.000860859798974
0.00122967433408
0.00143024019137
0.00157286363694
0.0016494105505
0.00166301059263
0.00163484761193
0.00159186290168
0.0015598856411
0.00155984831135
0.00159178068484
0.00163475421198
0.00166293285744
0.00164935179091
0.00157281009312
0.00143016093889
0.00122959533529
0.000860778797127
0.000390017545221
0.000384567251566
0.000848473413873
0.00121277513118
0.00141045062192
0.00155714182394
0.00163283045336
0.0016430628013
0.00160978013675
0.00155995221791
0.00152187397546
0.00152187495398
0.0015599704752
0.00160983862321
0.00164317531863
0.00163298771077
0.00155732633032
0.00141067733207
0.00121291950114
0.000848516897261
0.000384550354292
0.000384580305339
0.000848350806809
0.00121252354166
0.00141009185204
0.00155687291728
0.00163261245555
0.00164291551765
0.00160972433831
0.00155999226266
0.001522000433
0.00152205400422
0.00156013751126
0.00160996082819
0.00164324082841
0.00163300149776
0.00155730322605
0.00141061700363
0.00121289552798
0.000848531313688
0.000384600082472
0.000390066807659
0.000860555771511
0.0012290379784
0.00142932974353
0.00157219839865
0.00164889127413
0.00166268666537
0.00163476361476
0.00159202589001
0.00156025810205
0.00156033344732
0.00159222907895
0.00163509057482
0.00166312825837
0.00164940916519
0.00157276577324
0.00143001844065
0.00122953758705
0.0008608129428
0.000390104391859
0.000397286600061
0.000881689564357
0.00125849482113
0.00146480606235
0.00159561305376
0.00167155433165
0.00168967963833
0.00166881481871
0.00163498645708
0.00161013935363
0.0016102170423
0.0016351985641
0.00166915860047
0.00169014339032
0.00167209483133
0.001596202392
0.00146552443298
0.00125900585177
0.000881952190095
0.000397323165324
0.000404303259081
0.000905287820769
0.00129179742888
0.00150762210126
0.00161482678751
0.00168454471307
0.00170451506959
0.00168983935942
0.00166300454259
0.00164331732578
0.0016433898102
0.00166320350413
0.00169015775293
0.00170493158583
0.0016850201566
0.00161533555761
0.0015082118161
0.00129220542102
0.000905490100468
0.000404323271307
0.000408084431042
0.000919737657062
0.00131139199208
0.00153538070478
0.00162108652608
0.00167029400068
0.00168469049591
0.0016718259058
0.00164924394353
0.00163295713536
0.00163302306601
0.00164942182492
0.00167209865128
0.00168502963338
0.00167066973683
0.00162151551736
0.00153573070044
0.00131162653174
0.000919843007551
0.000408082664515
0.000405845962281
0.000912304324031
0.00129571260688
0.00151993120197
0.00161428788845
0.00162126360704
0.00161510954915
0.001595992793
0.00157261292628
0.00155722424092
0.0015572869446
0.00157277581834
0.00159622402329
0.00161536873669
0.00162151534128
0.00161447326391
0.00152005726824
0.00129578446064
0.000912318887233
0.000405826877251
0.000392672060759
0.000863978116921
0.00121658488606
0.00142540036653
0.00152004216244
0.00153565568128
0.0015080627656
0.00146533673855
0.00142986322651
0.00141050765656
0.00141057424416
0.0014300269137
0.00146554660029
0.00150825808984
0.00153578987476
0.00152010096459
0.00142541147448
0.00121656715695
0.000863942018299
0.000392646348677
0.000363249746138
0.000754522647778
0.00104476138836
0.00121662384438
0.0012958440726
0.00131164995868
0.00129218311049
0.00125896875373
0.00122954404382
0.00121297206667
0.00121303526153
0.00122969553264
0.00125914938307
0.00129233785527
0.00131174432833
0.00129587242774
0.00121660704488
0.00104472197961
0.000754479305383
0.000363227171624
0.000313899833381
0.000567087649663
0.000754521874208
0.000864004832971
0.000912393176996
0.000919910045461
0.000905548720122
0.000882030198088
0.000860954585083
0.000848759186722
0.000848807477855
0.000861065767539
0.000882161109625
0.000905659546197
0.000919978426626
0.00091241684259
0.000863992372302
0.000754493444919
0.000567059440235
0.000313884567291
0.000252767854712
0.000313922370394
0.000363281694812
0.000392707469403
0.000405887811693
0.000408141982612
0.000404384213863
0.000397401125436
0.000390223604307
0.000384783755381
0.000384804459709
0.000390266074235
0.000397446384136
0.000404418736943
0.000408159973874
0.000405891534543
0.000392699218519
0.00036327076944
0.000313913659966
0.000252759994199
0.000305340927863
0.000491245841886
0.00064872392424
0.000755258180258
0.000816268001818
0.000843293809314
0.000848270086293
0.000841233565486
0.000831299102131
0.000824493630178
0.000824471787359
0.000831246460853
0.000841165888022
0.000848205422005
0.00084325277107
0.000816262768343
0.000755284943913
0.000648769247838
0.000491292293897
0.000305363067801
0.000491215185319
0.000611589618554
0.00074883759035
0.000847635848346
0.000908300380369
0.000939248307253
0.000950077737709
0.000949331754078
0.000944494967345
0.00094066437228
0.000940642216161
0.00094443768923
0.000949251590965
0.000949991881302
0.000939178291071
0.000908262169922
0.00084763225907
0.000748860357174
0.000611625175292
0.000491250850177
0.000648661188336
0.000748814372058
0.000893209731354
0.00100107365322
0.00106912897311
0.00110475119265
0.00111775871089
0.00111747864685
0.00111225740211
0.001107948145
0.00110792286331
0.00111219020323
0.00111738046267
0.00111764604923
0.00110464845794
0.00106905534445
0.00100103543724
0.000893201936301
0.00074882682539
0.000648687741985
0.000755161664392
0.000847600117469
0.00100106485448
0.00111800667216
0.00119323430285
0.00123396064263
0.00125054725215
0.00125295707352
0.00124998721637
0.00124663449726
0.00124661101758
0.00124992387685
0.00125285966562
0.00125041720163
0.0012338287452
0.00119312210281
0.00111792596917
0.00100101538254
0.000847575877562
0.000755160116272
0.000816166500446
0.000908279460467
0.00106913995956
0.00119325640532
0.00127518221612
0.00132437621419
0.00135402555313
0.00136644195574
0.00136806591391
0.00136625613872
0.00136623566101
0.00136801301481
0.00136636576214
0.00135393024251
0.00132425172567
0.00127504319952
0.00119313459684
0.00106904554824
0.00090821166431
0.000816122814483
0.000843236377638
0.00093927985374
0.00110481983973
0.00123404445237
0.00132442664401
0.00139110646632
0.00143323544073
0.00145309597901
0.00145797139964
0.00145706110343
0.00145704160234
0.00145792328275
0.00145303165617
0.00143316019875
0.00139101122764
0.00132429597166
0.00123389730546
0.00110469081637
0.000939174401803
0.000843149018306
0.000848292759847
0.000950184204608
0.00111790677151
0.0012507118335
0.00135411977817
0.00143328784458
0.00148408684765
0.00150838873746
0.00151449232111
0.00151337916553
0.0015133609296
0.00151444970989
0.00150833539122
0.00148402631068
0.00143321309333
0.00135401810469
0.001250567587
0.00111776840784
0.000950061091797
0.000848175418798
0.00084133665054
0.000949499800723
0.00111768443554
0.00125315274915
0.00136658697296
0.00145322147939
0.00150848201871
0.00153417940533
0.0015400717549
0.00153790089533
0.0015378883084
0.00154004566247
0.00153414897347
0.00150844349926
0.0014531701673
0.00136651637691
0.00125305417815
0.00111757532207
0.000949393912501
0.000841223813881
0.000831429721891
0.000944673704856
0.00111247025829
0.00125018717399
0.00136824543711
0.00145816651202
0.00151468596195
0.00154018503
0.00154343525105
0.00153855998429
0.0015385592619
0.00154344037775
0.00154019616359
0.00151469299577
0.00145816078896
0.00136822525746
0.00125015284967
0.00111242715752
0.000944623283258
0.00083136552068
0.000824585998486
0.000940798399492
0.00110811485187
0.00124679874501
0.00136643189742
0.00145728434297
0.00151362609491
0.00153808172171
0.00153863516849
0.00153118713084
0.00153120367234
0.00153868395422
0.00153815470754
0.0015137058187
0.0014573504706
0.00136648422255
0.00124684845806
0.00110816451734
0.000940832749629
0.000824609919542
0.000824506009738
0.000940707362412
0.00110801378991
0.00124670998427
0.0013663632283
0.00145723068357
0.00151359020229
0.00153807485199
0.00153866566694
0.00153125278611
0.00153128984365
0.00153876385952
0.00153821667731
0.00151375155021
0.00145737957817
0.00136649838986
0.00124685038227
0.00110816067849
0.000940832273627
0.000824630115579
0.000831238711982
0.000944446941016
0.00111221433718
0.00124996067063
0.00136807991822
0.00145804700131
0.00151461658779
0.00154018864524
0.00154352991381
0.00153873806385
0.00153878274495
0.00154364739648
0.00154035894167
0.00151481492121
0.00145823993854
0.00136826568251
0.0012501595091
0.0011124188896
0.000944622742848
0.00083141588742
0.000841117264283
0.000949215518342
0.00111735167268
0.0012528441353
0.001366376645
0.00145308714837
0.00150842484689
0.00153422393288
0.00154023807963
0.00153817479708
0.00153821829197
0.0015403536285
0.0015343921631
0.00150862211765
0.00145328599769
0.00136657677832
0.00125306424832
0.00111756771033
0.000949396854783
0.000841295484356
0.000848124357845
0.000949924322591
0.00111758155064
0.00125036272905
0.00135390234101
0.0014331698858
0.00148406389174
0.00150848552628
0.00151472518701
0.00151372665591
0.0015137663963
0.00151483178576
0.00150864061343
0.00148424207487
0.00143335111825
0.00135408759285
0.00125057165811
0.00111776549717
0.000950071023123
0.000848261094069
0.000843167910012
0.000939105430091
0.00110457651126
0.00123375680471
0.00132419975721
0.00139099997989
0.00143323586106
0.00145321421759
0.00145821518864
0.00145740917593
0.0014574452402
0.00145831089698
0.0014533515963
0.00143339174792
0.00139115602942
0.00132435487688
0.00123390465907
0.00110469754155
0.00093919378959
0.000843242660006
0.000816197978422
0.000908212151627
0.00106901163728
0.00119307353392
0.00127499230846
0.00132426927254
0.00135403237312
0.0013665591752
0.00136829342794
0.00136657526323
0.00136660975851
0.00136838292649
0.00136668369734
0.00135416842134
0.00132439611475
0.00127509688406
0.00119315496933
0.00106906905852
0.000908243847071
0.000816217567952
0.000755256494308
0.000847626871166
0.00100104863863
0.00111793828752
0.0011931360665
0.00123388930863
0.00125055919659
0.00125307642181
0.00125021144883
0.00124694681106
0.00124698158933
0.00125030008386
0.00125319476863
0.00125067992551
0.0012339868298
0.00119320117027
0.0011179762153
0.00100106417806
0.000847622557204
0.000755246663474
0.000648771935833
0.000748903859742
0.000893279644014
0.00100110052301
0.00106911933615
0.00110474306816
0.00111780191449
0.0011176090654
0.00111248642737
0.00110826590198
0.00110830192816
0.00111257548653
0.00111772127751
0.00111790752933
0.0011048214833
0.00106916437393
0.00100111772218
0.00089327624923
0.000748885960925
0.000648755543471
0.00049129799449
0.000611707074499
0.000748960411987
0.000847728203215
0.000908356524855
0.00093929326712
0.000950152808311
0.000949473861843
0.000944718942231
0.0009409649221
0.000940999569122
0.000944801752404
0.000949574648756
0.000950243962967
0.00093935809373
0.000908391118693
0.000847737582634
0.000748953044823
0.000611689917581
0.000491282942724
0.000305350628784
0.0004913752002
0.000648883590465
0.000755393290196
0.000816365726425
0.000843377520212
0.000848384652644
0.000841425148858
0.000831584394672
0.000824865193863
0.000824908090266
0.000831684052614
0.000841546394974
0.000848497725544
0.000843464884068
0.000816422252091
0.000755422786684
0.000648895577056
0.000491374920056
0.000305337822175
0.000355357080483
0.000632641832077
0.000875144667289
0.00104492390618
0.00114708592715
0.0011975964099
0.00121464984174
0.00121498714422
0.0012114587628
0.00120950562524
0.0012094675705
0.00121136212877
0.00121485490537
0.00121451280463
0.00119749470166
0.00114704698065
0.00104494554404
0.000875205117213
0.000632707580436
0.00035538368572
0.000632608760301
0.000751352257862
0.000912649003585
0.00103752492323
0.00112103658777
0.00116968582752
0.00119346863151
0.00120245990169
0.00120479125301
0.00120512607908
0.00120509865296
0.0012047187579
0.00120235676119
0.00119335491713
0.00116958923986
0.00112098033153
0.0010375139643
0.000912673888356
0.000751396782085
0.000632665889458
0.000875072648811
0.000912635133784
0.00104629234956
0.00115742262979
0.00123505740818
0.00128237911811
0.00130684923046
0.00131662336338
0.00131849818322
0.00131794623331
0.00131792372638
0.00131843758966
0.00131653516413
0.00130674717468
0.00128228098506
0.00123498555601
0.00115738483248
0.00104628515134
0.000912650173395
0.000875113557308
0.00104481117745
0.00103750654014
0.00115742211013
0.00126267353171
0.00133929384809
0.00138888361945
0.00141739886095
0.00143248443446
0.00143690212996
0.00143712557257
0.00143710962693
0.00143685952757
0.00143242352144
0.00141732990785
0.00138878734976
0.00133920538588
0.00126260340193
0.00115737252275
0.00103747463755
0.00104479999905
0.00114698352713
0.00112104170085
0.0012350761147
0.00133930713427
0.00141965770214
0.00147877827294
0.00151604679424
0.00153564845917
0.00154265770816
0.00154378639526
0.0015437732782
0.00154262322774
0.00153560156337
0.00151599155647
0.00147870684195
0.00141956556698
0.00133920831145
0.00123498223264
0.00112095512842
0.00114690029577
0.0011975826198
0.00116975385567
0.00128244008742
0.00138891909278
0.00147878587176
0.00154716545515
0.00159285477017
0.00161775495596
0.00162721976593
0.00162912416067
0.00162911032657
0.00162718496916
0.00161771132256
0.00159280808124
0.00154710943427
0.00147870860542
0.00138880591745
0.00128231308439
0.00116961965433
0.00119742666608
0.00121478933163
0.00119362502894
0.00130696002896
0.00141742756445
0.00151605346321
0.0015928667494
0.0016456429016
0.00167459794174
0.00168540064035
0.00168740688053
0.00168739418543
0.00168537156573
0.00167456479922
0.0016456045409
0.00159282021924
0.0015159912457
0.0014173392198
0.00130682745377
0.00119347017919
0.00121458950123
0.00121527644019
0.00120268685487
0.00131676890167
0.00143253096233
0.0015356674361
0.00161781449507
0.00167468743813
0.00170523191597
0.00171521923924
0.0017159048318
0.00171590030009
0.00171521353523
0.0017052280815
0.00167466659362
0.00161777807192
0.0015356203618
0.0014324606735
0.00131666377175
0.001202556169
0.00121509543207
0.0012117930389
0.00120502308847
0.00131863911273
0.0014369502604
0.00154270162544
0.00162734712478
0.00168560812557
0.00171537484533
0.00172275860813
0.00172108649577
0.00172109691319
0.00172278928981
0.0017154116953
0.00168562732528
0.00162734504519
0.00154268660254
0.00143692167921
0.00131859617488
0.00120496503945
0.00121170650946
0.00120975024216
0.00120528611716
0.00131803417504
0.00143715103659
0.00154384033679
0.00162929817484
0.00168769047352
0.00171615336044
0.00172119432523
0.00171759599413
0.00171761822607
0.00172125601523
0.0017162378826
0.00168777273177
0.00162935631824
0.00154387828369
0.00143718304399
0.00131807857721
0.00120533597825
0.00120981683364
0.00120956688499
0.00120514712873
0.00131792264232
0.00143707365453
0.00154378239832
0.00162925084205
0.00168765812039
0.00171614856409
0.00172122529965
0.00171765305061
0.00171768577337
0.00172131384879
0.00171627746396
0.00168780149519
0.00162937248755
0.00154387982155
0.00143717306402
0.00131805714052
0.00120530667897
0.00120979179598
0.0012113360651
0.00120466700498
0.00131835040795
0.00143675177335
0.00154255564956
0.00162723151145
0.00168553222407
0.00171536616075
0.00172283314561
0.00172122306881
0.00172126004678
0.0017229324463
0.00171551003017
0.00168569296881
0.00162737799036
0.00154268466795
0.00143689108022
0.00131853679348
0.0012048869419
0.0012116461463
0.00121470622324
0.00120222143993
0.00131638296328
0.00143226572556
0.00153547462431
0.00161766437249
0.00167459206416
0.00170523486514
0.00171533013487
0.00171609767456
0.0017161325653
0.00171542604859
0.00170537303161
0.00167474208481
0.00161780328743
0.00153560352443
0.00143241014598
0.00131657590458
0.00120244489268
0.00121501817847
0.00121426810031
0.00119316341763
0.00130656037427
0.00141715628902
0.00151584744041
0.00159271407827
0.00164555174674
0.00167461421494
0.00168553924125
0.00168764055952
0.00168767150201
0.00168562557586
0.00167473718758
0.0016456817926
0.00159283102807
0.00151595652205
0.00141727560195
0.00130672135591
0.00119334221687
0.00121451151147
0.001197221798
0.00116938452087
0.00128209303733
0.00138861770507
0.0014785734946
0.00154701785924
0.00159277060656
0.00161776577095
0.00162734076507
0.00162933647416
0.00162936539024
0.00162741902708
0.00161787323001
0.00159288054971
0.00154711119613
0.00147865586217
0.00138871164443
0.00128219663602
0.00116948873549
0.00119735770239
0.00114680231485
0.00112080226255
0.00123483006363
0.00133906677337
0.00141945208188
0.0014786347636
0.0015159609567
0.00153563122029
0.00154272407245
0.00154392848205
0.0015439576984
0.00154279958006
0.00153572915643
0.00151605561
0.00147870777759
0.00141950458454
0.00133911267292
0.00123487202285
0.0011208331368
0.00114684020449
0.00104476763143
0.00103739279345
0.00115728910273
0.00126251927041
0.00133913179461
0.00138874206418
0.00141731431526
0.00143245757054
0.00143694836579
0.00143724281856
0.00143727461102
0.00143702806268
0.00143255686805
0.00141740483341
0.0013888041372
0.00133916230799
0.00126253161129
0.001157288219
0.00103737652656
0.00104475189019
0.000875101003578
0.000912620830484
0.00104626161586
0.00115735493622
0.00123495364812
0.0012822647604
0.00130676476856
0.00131660098058
0.0013185567298
0.0013180844968
0.00131812107673
0.00131864605071
0.0013167077638
0.00130685553491
0.00128231993193
0.00123497182163
0.00115734793985
0.00104623797687
0.000912585036883
0.000875071191062
0.000632642427686
0.000751405296753
0.000912698463172
0.00103752901484
0.00112098298066
0.00116959713793
0.00119339313217
0.00120244459427
0.00120485772842
0.00120527327738
0.00120531270084
0.00120495051964
0.00120255167279
0.00119348005775
0.00116964596243
0.00112099257107
0.00103751188505
0.000912666931172
0.000751367685776
0.000632612510361
0.00035531595211
0.000632745481397
0.000875269988149
0.00104499187506
0.00114707757506
0.00119754698171
0.00121463555837
0.00121508182243
0.00121168140826
0.00120983912765
0.00120989749735
0.00121181743166
0.00121524573934
0.00121478463291
0.00119765637835
0.00114713889276
0.00104501608668
0.000875270057149
0.000632729432605
0.000355290079294
0.000411883297338
0.00079068434204
0.00112386355123
0.0013590505953
0.00150480152209
0.00158337796105
0.0016223860694
0.00164698638898
0.00166969767661
0.00168618887981
0.00168612779032
0.00166953358442
0.00164674882455
0.00162212415703
0.0015831655921
0.00150469195187
0.00135904490725
0.00112392600389
0.000790760560285
0.000411911482516
0.000790669990748
0.000915825805916
0.00111683722885
0.00127894351555
0.00139201711457
0.00146188466886
0.00150148968099
0.00152449983361
0.00153967911264
0.00154846478621
0.0015484281632
0.00153957902481
0.00152435458849
0.00150132803901
0.00146174856132
0.00139194091484
0.001278932181
0.00111687306882
0.000915884245708
0.000790751755724
0.00112381563676
0.00111684179316
0.00126081746691
0.00138716602046
0.0014785471337
0.00153662507683
0.00156968172646
0.00158619835892
0.00159351340568
0.00159628591299
0.00159625966519
0.00159344084847
0.00158609198761
0.00156955877981
0.00153650790503
0.00147846731946
0.00138713292661
0.00126082341903
0.00111687266797
0.00112387922796
0.00135896386799
0.00127895202185
0.00138717736674
0.00149054370176
0.0015694831598
0.00162360392805
0.00165987265538
0.00167846583144
0.001685095918
0.00168630289339
0.00168628782528
0.00168505425037
0.00167840762846
0.00165980352667
0.00162350674844
0.00156939832653
0.00149047833114
0.0013871360716
0.0012789290531
0.00135895478323
0.00150474629261
0.00139205472675
0.00147858200502
0.00156949555801
0.00164706059574
0.00170984324824
0.00175112461653
0.00177235637623
0.00177890499229
0.00177922282483
0.00177920947915
0.00177886717168
0.00177230787806
0.00175107638616
0.00170979052549
0.00164701458179
0.00156940543962
0.00147848839361
0.00139196341989
0.00150463261393
0.00158346505336
0.00146199584853
0.00153669758763
0.00162361588534
0.00170982014436
0.00177965586048
0.00182673056134
0.00184988582864
0.00185571681029
0.00185516977756
0.00185514891052
0.00185566032648
0.00184981427492
0.00182666575251
0.00177960251011
0.00170976753762
0.00162351334579
0.00153656362286
0.00146183973243
0.00158323889187
0.00162270886958
0.00150170485401
0.0015697907194
0.00165984049493
0.00175105402595
0.00182671846111
0.00187712885663
0.00189996182347
0.00190386584483
0.00190193572872
0.00190191371696
0.0019038111704
0.00189989735581
0.00187705736635
0.00182665579757
0.00175100599189
0.00165976696912
0.00156965065287
0.00150151655823
0.00162240954252
0.00164751695474
0.00152479078609
0.00158632583092
0.00167840771773
0.00177226746127
0.00184992986784
0.00190010853089
0.00192085024099
0.00192145436244
0.0019169120806
0.00191690472675
0.00192144288866
0.00192084313473
0.00190005865057
0.00184986153466
0.0017722178734
0.00167835085949
0.00158621740647
0.00152462985514
0.00164724014135
0.00167023540201
0.0015399446379
0.00159361416725
0.00168502971712
0.00177884783937
0.00185585242417
0.00190418108585
0.00192169729778
0.00191768835574
0.00190998536607
0.00191000343453
0.00191773583503
0.00192174734126
0.00190419083259
0.00185582877796
0.00177882213217
0.00168500797759
0.00159357837582
0.00153987774414
0.00167009531635
0.00168652201529
0.00154859603622
0.00159630297814
0.00168621688818
0.00177920192887
0.00185538480341
0.00190235340577
0.00191726255679
0.00191012299721
0.00190038133042
0.00190040901388
0.00191019803742
0.00191736480546
0.00190245488142
0.00185544638899
0.00177923183965
0.00168625337993
0.00159636768687
0.00154866866084
0.00168659647086
0.00168620167194
0.00154837282771
0.00159613711464
0.00168610922177
0.00177911802822
0.00185530319679
0.00190228956436
0.00191724057467
0.00191015191239
0.00190043746212
0.00190047126671
0.00191024393281
0.00191738555138
0.00190247040955
0.00185544755096
0.00177920950835
0.00168621183031
0.00159630408776
0.00154858070528
0.00168648117146
0.00166939236654
0.00153935303365
0.00159317191177
0.00168474490523
0.00177862778942
0.00185564156446
0.0019040130414
0.00192162348127
0.00191772607357
0.00191008647963
0.00191012495176
0.00191782987325
0.00192178282037
0.00190420340283
0.00185580404029
0.00177874232415
0.00168488186287
0.00159339590887
0.00153963531208
0.00166978738343
0.00164639501512
0.00152398781376
0.00158571309565
0.00167801411248
0.00177196363597
0.00184962492929
0.00189984989367
0.00192074054575
0.00192148479382
0.00191703073608
0.00191706692525
0.00192158900767
0.00192089707572
0.00190001729388
0.00184975937201
0.00177205825714
0.00167814318078
0.00158593864253
0.00152427155596
0.00164679697441
0.00162158826321
0.00150086786093
0.00156912270154
0.00165939487412
0.00175071501311
0.00182638654198
0.00187683439216
0.0018998277043
0.00190391078498
0.00190210439041
0.00190213569513
0.00190400534178
0.0018999655802
0.00187696766237
0.00182647349122
0.00175077053473
0.00165949161493
0.00156930437991
0.00150108861922
0.00162189496681
0.00158255729492
0.00146126442974
0.0015360643308
0.00162310590121
0.00170945574685
0.00177932896105
0.0018264364484
0.00184971846516
0.0018557089221
0.00185529122548
0.00185532074261
0.00185579242436
0.00184982902262
0.00182653075927
0.00177937529481
0.00170948296682
0.00162317303052
0.00153617250903
0.00146138105333
0.00158270281758
0.00150410827082
0.00139149493495
0.00147805753597
0.00156902526433
0.00164671447199
0.001709508689
0.0017508081809
0.00177209708652
0.00177874588925
0.00177916293825
0.001779192426
0.00177882394694
0.00177218835332
0.00175087417785
0.00170953304594
0.00164671894485
0.00156904009323
0.00147808604061
0.00139150773664
0.00150410276048
0.00135855044441
0.00127856871018
0.0013867902936
0.00149014626045
0.0015690901361
0.00162321959267
0.00165951894784
0.00167814652521
0.00168484434197
0.00168613117811
0.00168616408103
0.00168492655512
0.00167823837657
0.00165958272028
0.0016232394654
0.00156907378115
0.00149012151103
0.00138675952275
0.00127851297586
0.00135846389766
0.00112355088891
0.00111660853987
0.00126056479866
0.00138685845042
0.00147817796266
0.00153621128849
0.00156926327517
0.00158581715963
0.00159320175854
0.00159605554171
0.00159609455435
0.00159329493341
0.00158591754506
0.00156932811765
0.00153622285755
0.00147814423719
0.00138680234714
0.00126049502974
0.00111652193471
0.00112344918175
0.000790491856897
0.000915703865282
0.00111668678627
0.00127870445508
0.00139165903444
0.001461419192
0.00150097068729
0.00152399043973
0.0015392156141
0.00154806493278
0.00154810345724
0.00153930155249
0.00152407425568
0.00150101152261
0.00146140370748
0.00139159465921
0.0012786154682
0.0011165910516
0.000915610142181
0.000790405053758
0.000411719644933
0.00079059870837
0.00112373786271
0.00135879756523
0.00150438216881
0.00158281664943
0.00162177749262
0.00164642661178
0.00166920598706
0.00168576428782
0.00168581553106
0.00166931518389
0.00164653617509
0.00162184433733
0.00158282528732
0.00150433329643
0.00135871875769
0.00112365060153
0.000790518036036
0.000411661321299
0.000491242279584
0.00102151628556
0.00148746530878
0.00182473931195
0.00205113377079
0.00219713215461
0.00230297618414
0.00240242953013
0.00249743678181
0.00255971590959
0.00255964475885
0.00249723473541
0.00240211724601
0.00230260689752
0.00219681986862
0.00205095806398
0.0018247097611
0.00148752732215
0.00102159643299
0.000491273028964
0.00102154311748
0.00114893363399
0.00141155809489
0.00163555179401
0.00180021817697
0.00190995589784
0.00198314663998
0.00203914306911
0.00208491085513
0.00211303289534
0.00211299416047
0.00208479898801
0.00203897494967
0.00198295901742
0.00190981163599
0.00180016204524
0.00163558267953
0.00141163843632
0.00114902597533
0.00102166017528
0.00148747379489
0.00141158954215
0.00157447235569
0.00172640643344
0.001836860352
0.00190697722932
0.00194910396241
0.00197396576561
0.00198882308307
0.00199646964791
0.00199643789863
0.00198873182469
0.00197382824612
0.00194894544063
0.00190684159526
0.00183679437057
0.00172641983797
0.00157453919382
0.0014116737836
0.00148758904906
0.00182471157869
0.00163559037379
0.00172642778306
0.00182530329298
0.00190222507203
0.00195579596795
0.00199449626501
0.0020132070401
0.00201802409566
0.00201767934944
0.00201766180769
0.00201797088174
0.00201312827877
0.00199440189707
0.00195567633404
0.00190213608974
0.00182526914494
0.00172644724509
0.00163563629405
0.00182476416722
0.00205112655755
0.00180026893144
0.00183690516132
0.00190223934199
0.00197143949114
0.00203141287272
0.0020710092984
0.00208626940474
0.00208407676843
0.00207843851746
0.00207842336997
0.00208402516662
0.00208619464773
0.00207093133262
0.00203134283283
0.00197138539907
0.00190216380873
0.00183685953415
0.00180025123812
0.00205107074735
0.0021972648969
0.00191005549956
0.00190705136387
0.00195579281217
0.00203136539918