/*--------------------------------*- C++ -*----------------------------------*\
| =========                 |                                                 |
| \\      /  F ield         | OpenFOAM: The Open Source CFD Toolbox           |
|  \\    /   O peration     | Version:  3.0.1                                 |
|   \\  /    A nd           | Web:      www.OpenFOAM.org                      |
|    \\/     M anipulation  |                                                 |
\*---------------------------------------------------------------------------*/
FoamFile
{
    version     2.0;
    format      ascii;
    class       surfaceScalarField;
    location    "4.9";
    object      meshPhiCN_0;
}
// * * * * * * * * * * * * * * * * * * * * * * * * * * * * * * * * * * * * * //

dimensions      [0 3 -1 0 0 0 0];

internalField   nonuniform List<scalar> 
22672
(
0
0
0
0
0
0
0
0
0
0
0
0
0
0
0
0
0
0
0
0
0
0
0
0
0
0
0
0
0
0
0
0
0
0
0
0
0
0
0
0
0
0
0
0
0
0
0
0
0
0
0
0
0
0
0
0
0
0
0
0
0
0
0
0
0
0
0
0
0
0
0
0
0
0
0
0
0
0
0
0
0
0
0
0
0
0
0
0
0
0
0
0
0
0
0
0
0
0
0
0
0
0
0
0
0
0
0
0
0
0
0
0
0
0
0
0
0
0
0
0
0
0
0
0
0
0
0
0
0
0
0
0
0
0
0
0
0
0
0
0
0
0
0
0
0
0
0
0
0
0
0
0
0
0
0
0
0
0
0
0
0
0
0
0
0
0
0
0
0
0
0
0
0
0
0
0
0
0
0
0
0
0
0
0
0
0
0
0
0
0
0
0
0
0
0
0
0
0
0
0
0
0
0
0
0
0
0
0
0
0
0
0
0
0
0
0
0
0
0
0
0
0
0
0
0
0
0
0
0
0
0
0
0
0
0
0
0
0
0
0
0
0
0
0
0
0
0
0
0
0
0
0
0
0
0
0
0
0
0
0
0
0
0
0
0
0
0
0
0
0
0
0
0
0
0
0
0
0
0
0
0
0
0
0
0
0
0
0
0
0
0
0
0
0
0
0
0
0
0
0
0
0
0
0
0
0
0
0
0
0
0
0
0
0
0
0
0
0
0
0
0
0
0
0
0
0
0
0
0
0
0
0
0
0
0
0
0
0
0
0
0
0
0
0
0
0
0
0
0
0
0
0
0
0
0
0
0
0
0
0
0
0
0
0
0
0
0
0
0
0
0
0
0
0
0
0
0
0
0
0
0
0
0
0
0
0
0
0
0
0
0
0
0
0
0
0
0
0
0
0
0
0
0
0
0
0
0
0
0
0
0
0
0
0
0
0
0
0
0
0
0
0
0
0
0
0
0
0
0
0
0
0
0
0
0
0
0
0
0
0
0
0
0
0
0
0
0
0
0
0
0
0
0
0
0
0
0
0
0
0
0
0
0
0
0
0
0
0
0
0
0
0
0
0
0
0
0
0
0
0
0
0
0
0
0
0
0
0
0
0
0
0
0
0
0
0
0
0
0
0
0
0
0
0
0
0
0
0
0
0
0
0
0
0
0
0
0
0
0
0
0
0
0
0
0
0
0
0
0
0
0
0
0
0
0
0
0
0
0
0
0
0
0
0
0
0
0
0
0
0
0
0
0
0
0
0
0
0
0
0
0
0
0
0
0
0
0
0
0
0
0
0
0
0
0
0
0
0
0
0
0
0
0
0
0
0
0
0
0
0
0
0
0
0
0
0
0
0
0
0
0
0
0
0
0
0
0
0
0
0
0
0
0
0
0
0
0
0
0
0
0
0
0
0
0
0
0
0
0
0
0
0
0
0
0
0
0
0
0
0
0
0
0
0
0
0
0
0
0
0
0
0
0
0
0
0
0
0
0
0
0
0
0
0
0
0
0
0
0
0
0
0
0
0
0
0
0
0
0
0
0
0
0
0
0
0
0
0
0
0
0
0
0
0
0
0
0
0
0
0
0
0
0
0
0
0
0
0
0
0
0
0
0
0
0
0
0
0
0
0
0
0
0
0
0
0
0
0
0
0
0
0
0
0
0
0
0
0
0
0
0
0
0
0
0
0
0
0
0
0
0
0
0
0
0
0
0
0
0
0
0
0
0
0
0
0
0
0
0
0
0
0
0
0
0
0
0
0
0
0
0
0
0
0
0
0
0
0
0
0
0
0
0
0
0
0
0
0
0
0
0
0
0
0
0
0
0
0
0
0
0
0
0
0
0
0
0
0
0
0
0
0
0
0
0
0
0
0
0
0
0
0
0
0
0
0
0
0
0
0
0
0
0
0
0
0
0
0
0
0
0
0
0
0
0
0
0
0
0
0
0
0
0
0
0
0
0
0
0
0
0
0
0
0
0
0
0
0
0
0
0
0
0
0
0
0
0
0
0
0
0
0
0
0
0
0
0
0
0
0
0
0
0
0
0
0
0
0
0
0
0
0
0
0
0
0
0
0
0
0
0
0
0
0
0
0
0
0
0
0
0
0
0
0
0
0
0
0
0
0
0
0
0
0
0
0
0
0
0
0
0
0
0
0
0
0
0
0
0
0
0
0
0
0
0
0
0
0
0
0
0
0
0
0
0
0
0
0
0
0
0
0
0
0
0
0
0
0
0
0
0
0
0
0
0
0
0
0
0
0
0
0
0
0
0
0
0
0
0
0
0
0
0
0
0
0
0
0
0
0
0
0
0
0
0
0
0
0
0
0
0
0
0
0
0
0
0
0
0
0
0
0
0
0
0
0
0
0
0
0
0
0
0
0
0
0
0
0
0
0
0
0
0
0
0
0
0
0
0
0
0
0
0
0
0
0
0
0
0
0
0
0
0
0
0
0
0
0
0
0
0
0
0
0
0
0
0
0
0
0
0
0
0
0
0
0
0
0
0
0
0
0
0
0
0
0
0
0
0
0
0
0
0
0
0
0
0
0
0
0
0
0
0
0
0
0
0
0
0
0
0
0
0
0
0
0
0
0
0
0
0
0
0
0
0
0
0
0
0
0
0
0
0
0
0
0
0
0
0
0
0
0
0
0
0
0
0
0
0
0
0
0
0
0
0
0
0
0
0
0
0
0
0
0
0
0
0
0
0
0
0
0
0
0
0
0
0
0
0
0
0
0
0
0
0
0
0
0
0
0
0
0
0
0
0
0
0
0
0
0
0
0
0
0
0
0
0
0
0
0
0
0
0
0
0
0
0
0
0
0
0
0
0
0
0
0
0
0
0
0
0
0
0
0
0
0
0
0
0
0
0
0
0
0
0
0
0
0
0
0
0
0
0
0
0
0
0
0
0
0
0
0
0
0
0
0
0
0
0
0
0
0
0
0
0
0
0
0
0
0
0
0
0
0
0
0
0
0
0
0
0
0
0
0
0
0
0
0
0
0
0
0
0
0
0
0
0
0
0
0
0
0
0
0
0
0
0
0
0
0
0
0
0
0
0
0
0
0
0
0
0
0
0
0
0
0
0
0
0
0
0
0
0
0
0
0
0
0
0
0
0
0
0
0
0
0
0
0
0
0
0
0
0
0
0
0
0
0
0
0
0
0
0
0
0
0
0
0
0
0
0
0
0
0
0
0
0
0
0
0
0
0
0
0
0
0
0
0
0
0
0
0
0
0
0
0
0
0
0
0
0
0
0
0
0
0
0
0
0
0
0
0
0
0
0
0
0
0
0
0
0
0
0
0
0
0
0
0
0
0
0
0
0
0
0
0
0
0
0
0
0
0
0
0
0
0
0
0
0
0
0
0
0
0
0
0
0
0
0
0
0
0
0
0
0
0
0
0
0
0
0
0
0
0
0
0
0
0
0
0
0
0
0
0
0
0
0
0
0
0
0
0
0
0
0
0
0
0
0
0
0
0
0
0
0
0
0
0
0
0
0
0
0
0
0
0
0
0
0
0
0
0
0
0
0
0
0
0
0
0
0
0
0
0
0
0
0
0
0
0
0
0
0
0
0
0
0
0
0
0
0
0
0
0
0
0
0
0
0
0
0
0
0
0
0
0
0
0
0
0
0
0
0
0
0
0
0
0
0
0
0
0
0
0
0
0
0
0
0
0
0
0
0
0
0
0
0
0
0
0
0
0
0
0
0
0
0
0
0
0
0
0
0
0
0
0
0
0
0
0
0
0
0
0
0
0
0
0
0
0
0
0
0
0
0
0
0
0
0
0
0
0
0
0
0
0
0
0
0
0
0
0
0
0
0
0
0
0
0
0
0
0
0
0
0
0
0
0
0
0
0
0
0
0
0
0
0
0
0
0
0
0
0
0
0
0
0
0
0
0
0
0
0
0
0
0
0
0
0
0
0
0
0
0
0
0
0
0
0
0
0
0
0
0
0
0
0
0
0
0
0
0
0
0
0
0
0
0
0
0
0
0
0
0
0
0
0
0
0
0
0
0
0
0
0
0
0
0
0
0
0
0
0
0
0
0
0
0
0
0
0
0
0
0
0
0
0
0
0
0
0
0
0
0
0
0
0
0
0
0
0
0
0
0
0
0
0
0
0
0
0
0
0
0
0
0
0
0
0
0
0
0
0
0
0
0
0
0
0
0
0
0
0
0
0
0
0
0
0
0
0
0
0
0
0
0
0
0
0
0
0
0
0
0
0
0
0
0
0
0
0
0
0
0
0
0
0
0
0
0
0
0
0
0
0
0
0
0
0
0
0
0
0
0
0
0
0
0
0
0
0
0
0
0
0
0
0
0
0
0
0
0
0
0
0
0
0
0
0
0
0
0
0
0
0
0
0
0
0
0
0
0
0
0
0
0
0
0
0
0
0
0
0
0
0
0
0
0
0
0
0
0
0
0
0
0
0
0
0
0
0
0
0
0
0
0
0
0
0
0
0
0
0
0
0
0
0
0
0
0
0
0
0
0
0
0
0
0
0
0
0
0
0
0
0
0
0
0
0
0
0
0
0
0
0
0
0
0
0
0
0
0
0
0
0
0
0
0
0
0
0
0
0
0
0
0
0
0
0
0
0
0
0
0
0
0
0
0
0
0
0
0
0
0
0
0
0
0
0
0
0
0
0
0
0
0
0
0
0
0
0
0
0
0
0
0
0
0
0
0
0
0
0
0
0
0
0
0
0
0
0
0
0
0
0
0
0
0
0
0
0
0
0
0
0
0
0
0
0
0
0
0
0
0
0
0
0
0
0
0
0
0
0
0
0
0
0
0
0
0
0
0
0
0
0
0
0
0
0
0
0
0
0
0
0
0
0
0
0
0
0
0
0
0
0
0
0
0
0
0
0
0
0
0
0
0
0
0
0
0
0
0
0
0
0
0
0
0
0
0
0
0
0
0
0
0
0
0
0
0
0
0
0
0
0
0
0
0
0
0
0
0
0
0
0
0
0
0
0
0
0
0
0
0
0
0
0
0
0
0
0
0
0
0
0
0
0
0
0
0
0
0
0
0
0
0
0
0
0
0
0
0
0
0
0
0
0
0
0
0
0
0
0
0
0
0
0
0
0
0
0
0
0
0
0
0
0
0
0
0
0
0
0
0
0
0
0
0
0
0
0
0
0
0
0
0
0
0
0
0
0
0
0
0
0
0
0
0
0
0
0
0
0
0
0
0
0
0
0
0
0
0
0
0
0
0
0
0
0
0
0
0
0
0
0
0
0
0
0
0
0
0
0
0
0
0
0
0
0
0
0
0
0
0
0
0
0
0
0
0
0
0
0
0
0
0
0
0
0
0
0
0
0
0
0
0
0
0
0
0
0
0
0
0
0
0
0
0
0
0
0
0
0
0
0
0
0
0
0
0
0
0
0
0
0
0
0
0
0
0
0
0
0
0
0
0
0
0
0
0
0
0
0
0
0
0
0
0
0
0
0
0
0
0
0
0
0
0
0
0
0
0
0
0
0
0
0
0
0
0
0
0
0
0
0
0
0
0
0
0
0
0
0
0
0
0
0
0
0
0
0
0
0
0
0
0
0
0
0
0
0
0
0
0
0
0
0
0
0
0
0
0
0
0
0
0
0
0
0
0
0
0
0
0
0
0
0
0
0
0
0
0
0
0
0
0
0
0
0
0
0
0
0
0
0
0
0
0
0
0
0
0
0
0
0
0
0
0
0
0
0
0
0
0
0
0
0
0
0
0
0
0
0
0
0
0
0
0
0
0
0
0
0
0
0
0
0
0
0
0
0
0
0
0
0
0
0
0
0
0
0
0
0
0
1.14028530167e-10
-2.94825978057e-10
1.05056051237e-08
2.04959242227e-10
-8.00086707461e-10
2.93608671378e-08
2.04959036563e-10
-9.84303622659e-10
3.7701082882e-08
2.04958894794e-10
-9.32375069407e-10
3.76819523428e-08
2.04958745587e-10
-8.80446452132e-10
3.76628218038e-08
2.04958547896e-10
-8.28517864287e-10
3.76436912526e-08
1.14028173648e-10
-6.09665632022e-10
2.92915282772e-08
0
-2.08335100688e-10
1.04742229206e-08
0
0
0
0
0
0
0
0
0
0
0
0
0
0
0
0
0
0
0
0
0
0
0
0
0
0
0
0
0
0
0
0
2.82891708104e-10
-8.79269185176e-10
2.9595073601e-08
8.64968522916e-10
-3.12060601043e-09
1.18079350331e-07
1.16797800644e-09
-4.98806777896e-09
2.06944555079e-07
1.16797432296e-09
-5.34732342768e-09
2.36852343148e-07
1.16797062872e-09
-5.06539160472e-09
2.36726061044e-07
1.16796698318e-09
-4.78345942331e-09
2.36599778579e-07
1.16796321059e-09
-4.50152681207e-09
2.36473495733e-07
8.64953487637e-10
-3.76571047872e-09
2.0642370871e-07
2.82888315383e-10
-2.13493242091e-09
1.17693023813e-07
0
-5.51393548199e-10
2.94762571806e-08
0
0
0
0
0
0
0
0
0
0
0
0
0
0
0
0
0
0
0
0
0
0
0
0
0
0
8.52002843303e-11
-3.23655392252e-10
1.03841859612e-08
9.26225512353e-10
-2.66614779983e-09
1.17487819388e-07
2.01859069995e-09
-6.79432112381e-09
3.35758825605e-07
2.49348295753e-09
-9.58007863895e-09
5.09147404278e-07
2.49348431185e-09
-9.99396292816e-09
5.60835378557e-07
2.49348572806e-09
-9.46735737577e-09
5.60534489734e-07
2.4934870591e-09
-8.94075041925e-09
5.60233599982e-07
2.49348850402e-09
-8.41414224022e-09
5.5993270934e-07
2.01858958071e-09
-7.22088322425e-09
5.07854387655e-07
9.26216362203e-10
-4.61386989008e-09
3.34642752545e-07
8.51998018815e-11
-1.64847929828e-09
1.17007467625e-07
0
-1.79506151416e-10
1.03315715223e-08
0
0
0
0
0
0
0
0
0
0
0
0
0
0
0
0
0
0
0
0
0
0
0
2.12551798031e-10
-5.82023680243e-10
2.89099516898e-08
1.32813118218e-09
-3.59150047928e-09
2.04781702881e-07
2.53302993443e-09
-8.40162979259e-09
5.06250808306e-07
3.03587696748e-09
-1.15181716555e-08
7.24002523773e-07
3.03590441527e-09
-1.19415397293e-08
7.87041385335e-07
3.03593190236e-09
-1.13124551185e-08
7.86631149108e-07
3.03595940373e-09
-1.06833686085e-08
7.86220912373e-07
3.03598690367e-09
-1.00542803775e-08
7.85810675151e-07
2.53314246082e-09
-8.6787992839e-09
7.22205911097e-07
1.32816758206e-09
-5.69640541502e-09
5.04587164687e-07
2.12551984719e-10
-2.20998944186e-09
2.03944741743e-07
0
-3.22808741238e-10
2.87634400393e-08
0
0
0
0
0
0
0
0
0
0
0
0
0
0
0
0
0
0
0
0
0
0
0
2.28661210091e-10
-5.82023858819e-10
3.69316660446e-08
1.22783751662e-09
-3.59150554157e-09
2.33035023925e-07
2.26857815461e-09
-8.40165639263e-09
5.54381385817e-07
2.69834296642e-09
-1.15182223108e-08
7.8239130808e-07
2.69838680448e-09
-1.19415934562e-08
8.48007425453e-07
2.69843063193e-09
-1.13124996669e-08
8.47573430532e-07
2.69847444962e-09
-1.06834040429e-08
8.47139435594e-07
2.69851828209e-09
-1.0054306627e-08
8.46705440667e-07
2.2687656776e-09
-8.67881677628e-09
7.80467020854e-07
1.22791233878e-09
-5.69641420744e-09
5.52555082513e-07
2.28664521249e-10
-2.20999163155e-09
2.32075331131e-07
0
-3.22808845193e-10
3.67441300364e-08
0
0
0
0
0
0
0
0
0
0
0
0
0
0
0
0
0
0
0
0
0
0
0
1.76736428601e-10
-5.82024002234e-10
3.6694855362e-08
9.46015138802e-10
-3.59151061778e-09
2.3154548458e-07
1.7423441294e-09
-8.40168294561e-09
5.50836700477e-07
2.06978776384e-09
-1.15182729874e-08
7.77372278175e-07
2.06983069675e-09
-1.19416471168e-08
8.42554262924e-07
2.06987361863e-09
-1.13125442165e-08
8.42120267975e-07
2.0699164683e-09
-1.06834393996e-08
8.41686273053e-07
2.06995945437e-09
-1.00543328299e-08
8.41252278113e-07
1.74252779202e-09
-8.67883427123e-09
7.75428274599e-07
9.46088473263e-10
-5.69642293526e-09
5.48976075417e-07
1.76739764448e-10
-2.20999375256e-09
2.30571651274e-07
0
-3.22808897591e-10
3.65068000379e-08
0
0
0
0
0
0
0
0
0
0
0
0
0
0
0
0
0
0
0
0
0
0
0
1.24811517687e-10
-5.82024142586e-10
3.64580447951e-08
6.64188878792e-10
-3.59151568882e-09
2.3005594899e-07
1.21609709177e-09
-8.40170955767e-09
5.47292024356e-07
1.44121428577e-09
-1.15183236092e-08
7.7235325354e-07
1.4412563172e-09
-1.19417009161e-08
8.3710110038e-07
1.44129832717e-09
-1.13125887972e-08
8.36667105448e-07
1.44134029281e-09
-1.06834748405e-08
8.36233110525e-07
1.44138225927e-09
-1.00543590341e-08
8.35799115601e-07
1.21627676112e-09
-8.67885183399e-09
7.70389523046e-07
6.64260634082e-10
-5.69643171205e-09
5.45397059127e-07
1.24814711385e-10
-2.2099958903e-09
2.29067967618e-07
0
-3.22808941874e-10
3.62694698533e-08
0
0
0
0
0
0
0
0
0
0
0
0
0
0
0
0
0
0
0
0
0
0
0
7.28864785376e-11
-5.82024312886e-10
3.62212344036e-08
3.82358725178e-10
-3.59152074009e-09
2.28566417207e-07
6.89837001777e-10
-8.40173613097e-09
5.43747357363e-07
8.12622445133e-10
-1.1518374272e-08
7.6733423416e-07
8.12663558361e-10
-1.19417545805e-08
8.31647937858e-07
8.12704608931e-10
-1.13126332764e-08
8.31213942945e-07
8.12745710446e-10
-1.06835101847e-08
8.30779948003e-07
8.12786818975e-10
-1.00543851625e-08
8.30345953051e-07
6.90012736398e-10
-8.67886940262e-09
7.65350766257e-07
3.82428913969e-10
-5.69644049036e-09
5.41818033706e-07
7.288962758e-11
-2.20999806623e-09
2.27564280194e-07
0
-3.22808969943e-10
3.60321395415e-08
0
0
0
0
0
0
0
0
0
0
0
0
0
0
0
0
0
0
0
0
0
0
0
2.21399069951e-11
-3.23655713846e-10
2.80376644306e-08
1.06164480707e-10
-2.66616489643e-09
1.98405590968e-07
1.752756949e-10
-6.79442584189e-09
4.90274183047e-07
1.98609487199e-10
-9.58029163378e-09
7.00969784258e-07
1.98654345286e-10
-9.99419266319e-09
7.61930828645e-07
1.986991773e-10
-9.4675478744e-09
7.61540621749e-07
1.98744126022e-10
-8.94090174434e-09
7.61150415358e-07
1.98788994986e-10
-8.41425438917e-09
7.60760209518e-07
1.75468978956e-10
-7.22095825425e-09
6.99174476984e-07
1.06243696981e-10
-4.61390683961e-09
4.88533935016e-07
2.21437318572e-11
-1.6484873256e-09
1.97534806956e-07
0
-1.79506211327e-10
2.78908684499e-08
0
0
0
0
0
0
0
0
0
0
0
0
0
0
0
0
0
0
0
0
0
0
0
-1.28896860205e-12
0
9.98698675653e-09
-5.92610488003e-11
-8.79271800695e-10
1.12584811839e-07
-1.60947604112e-10
-3.1206353113e-09
3.21325610392e-07
-2.10307348379e-10
-4.98814659401e-09
4.86928558017e-07
-2.10271737822e-10
-5.34741502602e-09
5.36265644076e-07
-2.10236054903e-10
-5.06546756114e-09
5.35999621744e-07
-2.10200430137e-10
-4.78351974873e-09
5.35733600326e-07
-2.10164818715e-10
-4.50157155348e-09
5.35467579838e-07
-1.60798222263e-10
-3.76574053537e-09
4.85715387557e-07
-5.92073185684e-11
-2.13494623106e-09
3.20211114083e-07
-1.2878024595e-12
-5.51395170691e-10
1.12100440883e-07
0
0
9.93459549872e-09
0
0
0
0
0
0
0
0
0
0
0
0
0
0
0
0
0
0
0
0
0
0
0
0
0
0
-4.49632341659e-11
0
2.80908314472e-08
-1.52515273296e-10
-2.94826271698e-10
1.11894805342e-07
-2.13189358043e-10
-8.00089130459e-10
1.95892121141e-07
-2.13178513838e-10
-9.84307695446e-10
2.24125342275e-07
-2.13167665252e-10
-9.32378409585e-10
2.24013425112e-07
-2.13156753814e-10
-8.80449135052e-10
2.23901508306e-07
-2.13145956831e-10
-8.28519909276e-10
2.23789591882e-07
-1.52475591436e-10
-6.09667026256e-10
1.95406262965e-07
-4.49557964138e-11
-2.08335458557e-10
1.1151331943e-07
0
0
2.79720680909e-08
0
0
0
0
0
0
0
0
0
0
0
0
0
0
0
0
0
0
0
0
0
0
0
0
0
0
0
0
0
0
0
0
-3.01172007263e-11
0
9.84455169746e-09
-5.4243651111e-11
0
2.75092680162e-08
-5.42432456383e-11
0
3.53200961949e-08
-5.42428747852e-11
0
3.53014932425e-08
-5.42424784319e-11
0
3.52828903305e-08
-5.42421826997e-11
0
3.52642873958e-08
-3.01164910351e-11
0
2.74402548823e-08
0
0
9.81295951956e-09
0
0
0
0
0
0
0
0
0
0
0
0
0
0
0
0
0
0
0
0
0
0
0
0
0
0
0
0
0
0
0
0
0
0
0
0
0
0
0
0
0
0
0
0
0
0
0
0
0
0
0
0
0
0
0
0
0
0
0
0
0
0
0
0
0
0
0
0
0
0
0
0
0
0
0
0
0
0
0
0
0
0
0
0
0
0
0
0
0
0
0
0
0
0
0
0
0
0
0
0
0
0
0
0
0
0
0
0
0
0
0
0
0
0
0
0
0
0
0
0
0
0
0
0
0
0
0
0
0
0
0
0
0
0
0
0
0
0
0
0
0
0
0
0
0
0
0
0
0
0
0
0
0
0
0
0
0
0
0
0
0
0
0
0
0
0
0
0
0
0
0
0
0
0
0
0
0
0
0
0
0
0
0
0
0
0
0
0
0
0
0
0
0
0
0
0
0
0
0
0
0
0
0
0
0
0
0
0
0
0
0
0
0
0
0
0
0
0
0
0
0
0
0
0
0
0
0
0
0
0
0
0
0
0
0
0
0
0
0
0
0
0
0
0
0
0
0
0
0
0
0
0
0
0
0
0
0
0
0
0
0
0
0
0
0
0
0
0
0
0
0
0
0
0
0
0
0
0
0
0
0
0
0
0
0
0
0
0
0
0
0
0
0
0
0
0
0
0
0
0
0
0
0
0
0
0
0
0
0
0
0
0
0
0
0
0
0
0
0
0
0
0
0
0
0
0
0
0
0
0
0
0
0
0
0
0
0
0
0
0
0
0
0
0
0
0
0
0
0
0
0
0
0
0
0
0
0
0
0
0
0
0
0
0
0
0
0
0
0
0
0
0
0
0
0
0
0
0
0
0
0
0
0
0
0
0
0
0
0
0
0
0
0
0
0
0
0
0
0
0
0
0
0
0
0
0
0
0
0
0
0
0
0
0
0
0
0
0
0
0
0
0
0
0
0
2.40344279155e-10
-4.3714590398e-10
1.89909919245e-08
7.62084493801e-10
-1.74823059027e-09
7.88583583947e-08
1.0075165929e-09
-2.94431389189e-09
1.38792452389e-07
1.00751379483e-09
-3.15293640859e-09
1.5780410548e-07
1.00751098282e-09
-2.93354267309e-09
1.57721095517e-07
1.00750820359e-09
-2.71414871073e-09
1.57638085319e-07
1.00750546333e-09
-2.49475449976e-09
1.57555074908e-07
7.62074886042e-10
-2.00874814744e-09
1.38448978155e-07
2.4034298957e-10
-1.04485927824e-09
7.86074691457e-08
0
-2.29775099355e-10
1.89160448811e-08
0
0
0
0
0
0
0
0
0
0
0
0
0
0
0
0
0
0
0
0
0
0
0
0
0
0
4.9357574956e-10
-1.06727921967e-09
4.33281982332e-08
2.00913238094e-09
-4.71781264566e-09
2.15004562136e-07
3.87418646891e-09
-9.85269254292e-09
4.85701493551e-07
4.71006674279e-09
-1.31804012586e-08
6.87209458334e-07
4.71003739047e-09
-1.35029221217e-08
7.46159688387e-07
4.71000801955e-09
-1.25822384388e-08
7.45727708184e-07
4.70997872492e-09
-1.16615513443e-08
7.45295724877e-07
4.70994936955e-09
-1.07408609415e-08
7.44863738462e-07
3.87405151917e-09
-9.02196003081e-09
6.85367722791e-07
2.00905810891e-09
-5.80067873055e-09
4.84046814514e-07
4.93567079597e-10
-2.38834432692e-09
2.1411148722e-07
0
-4.69884619375e-10
4.31126540656e-08
0
0
0
0
0
0
0
0
0
0
0
0
0
0
0
0
0
0
0
0
1.88506642941e-10
-4.88987540746e-10
1.87731376839e-08
2.05213919348e-09
-4.3386291282e-09
2.13877522576e-07
5.61872771341e-09
-1.32233084046e-08
6.83571156335e-07
9.14533191756e-09
-2.36173111197e-08
1.22813538366e-06
1.06131593486e-08
-2.97124996249e-08
1.57614291307e-06
1.06131232595e-08
-2.99392084488e-08
1.67244486168e-06
1.06130871985e-08
-2.79588622518e-08
1.6714493957e-06
1.06130511224e-08
-2.59785048935e-08
1.67045392157e-06
1.06130150467e-08
-2.39981363689e-08
1.66945843922e-06
9.1451476196e-09
-2.05764818851e-08
1.57184558043e-06
5.61858411163e-09
-1.40920223612e-08
1.22391977799e-06
2.05207478621e-09
-6.715526081e-09
6.80708629498e-07
1.88504669542e-10
-1.87303271524e-09
2.12803366055e-07
0
-1.77934876095e-10
1.86597591926e-08
0
0
0
0
0
0
0
0
0
0
0
0
0
0
0
0
0
7.0487193906e-10
-1.55347534328e-09
7.76031116025e-08
3.924602707e-09
-8.45052696576e-09
4.80348190403e-07
9.02319367145e-09
-2.19791533033e-08
1.22081221139e-06
1.3651477453e-08
-3.65926988332e-08
1.96569877413e-06
1.54847097361e-08
-4.44937181192e-08
2.41885603616e-06
1.54848182111e-08
-4.4481394444e-08
2.54170556554e-06
1.54849266539e-08
-4.1579403874e-08
2.54023861321e-06
1.54850351749e-08
-3.86773934495e-08
2.53877165128e-06
1.54851435765e-08
-3.57753631589e-08
2.53730467969e-06
1.36519997519e-08
-3.09747396729e-08
2.41247717407e-06
9.02351997896e-09
-2.19921048571e-08
1.95916823971e-06
3.9246662568e-09
-1.12609973571e-08
1.2158172198e-06
7.04861283705e-10
-3.64088656147e-09
4.77962224125e-07
0
-5.65391933595e-10
7.71338942457e-08
0
0
0
0
0
0
0
0
0
0
0
0
0
0
0
0
0
1.09093757647e-09
-2.05561682029e-09
1.35894989043e-07
4.71300669857e-09
-1.0330209802e-08
6.7552410148e-07
1.01071770476e-08
-2.56903593355e-08
1.55691322926e-06
1.47535541979e-08
-4.1810243028e-08
2.40339979397e-06
1.65610782108e-08
-5.03350323834e-08
2.90907790907e-06
1.65614837769e-08
-5.02073971218e-08
3.0451063105e-06
1.65618893329e-08
-4.69446754859e-08
3.04347604639e-06
1.65622949382e-08
-4.36819301883e-08
3.041845778e-06
1.65627006538e-08
-4.0419161205e-08
3.0402155053e-06
1.47555845557e-08
-3.50930829078e-08
2.90191183042e-06
1.01086593117e-08
-2.51796211499e-08
2.39583755157e-06
4.71352379082e-09
-1.32019132638e-08
1.55078013016e-06
1.090967634e-09
-4.46145034033e-09
6.72235239122e-07
0
-7.48212025177e-10
1.35083866911e-07
0
0
0
0
0
0
0
0
0
0
0
0
0
0
0
0
0
1.0384747207e-09
-2.05562034919e-09
1.53642394305e-07
4.23732659956e-09
-1.03302712356e-08
7.29147041023e-07
8.87558037769e-09
-2.56906253039e-08
1.64208198904e-06
1.28094129134e-08
-4.18107916758e-08
2.50996898662e-06
1.43305826728e-08
-5.03357499866e-08
3.02620025816e-06
1.43311524531e-08
-5.02080860811e-08
3.16480694054e-06
1.43317223261e-08
-4.69452459956e-08
3.16318715594e-06
1.43322920851e-08
-4.36823821893e-08
3.16156737138e-06
1.4332861986e-08
-4.04194947595e-08
3.1599475868e-06
1.28122842093e-08
-3.50933054504e-08
3.01894747625e-06
8.87772844315e-09
-2.51797378958e-08
2.50210732997e-06
4.2381295544e-09
-1.32019494922e-08
1.63557094257e-06
1.03854356357e-09
-4.46145594995e-09
7.25566564627e-07
0
-7.48212219069e-10
1.52724053415e-07
0
0
0
0
0
0
0
0
0
0
0
0
0
0
0
0
0
8.19145880517e-10
-2.05562381318e-09
1.52661073301e-07
3.31756579425e-09
-1.03303325937e-08
7.2452472704e-07
6.89836262373e-09
-2.56908912085e-08
1.63168912795e-06
9.91308069625e-09
-4.18113402705e-08
2.494022036e-06
1.10747028344e-08
-5.03364676773e-08
3.00682935054e-06
1.10752608457e-08
-5.02087750834e-08
3.14445547019e-06
1.1075818847e-08
-4.69458164135e-08
3.14283568561e-06
1.1076376859e-08
-4.36828341375e-08
3.14121590103e-06
1.10769348352e-08
-4.04198282887e-08
3.13959611646e-06
9.91589250742e-09
-3.50935280762e-08
2.99941484353e-06
6.90046614365e-09
-2.51798546061e-08
2.48579905032e-06
3.31835213169e-09
-1.32019857899e-08
1.62487044644e-06
8.19213217259e-10
-4.46146149321e-09
7.20827057595e-07
0
-7.48212464803e-10
1.51733751819e-07
0
0
0
0
0
0
0
0
0
0
0
0
0
0
0
0
0
5.99814636482e-10
-2.05562735664e-09
1.51679754701e-07
2.3977715864e-09
-1.03303940961e-08
7.19902444302e-07
4.92103299239e-09
-2.56911572877e-08
1.6212963489e-06
7.01654936756e-09
-4.18118889007e-08
2.47807518179e-06
7.81858598299e-09
-5.03371853151e-08
2.98745848611e-06
7.81913224497e-09
-5.02094641213e-08
3.12410399986e-06
7.81967838302e-09
-4.69463869938e-08
3.1224842153e-06
7.82022454302e-09
-4.36832862939e-08
3.12086443073e-06
7.82077071408e-09
-4.04201618705e-08
3.11924464613e-06
7.01930161567e-09
-3.50937506169e-08
2.97988216768e-06
4.92309180407e-09
-2.51799713793e-08
2.4694906742e-06
2.39854109052e-09
-1.32020220695e-08
1.61416986825e-06
5.99880611352e-10
-4.46146711743e-09
7.16087519302e-07
0
-7.4821263371e-10
1.50743447835e-07
0
0
0
0
0
0
0
0
0
0
0
0
0
0
0
0
0
3.80481021994e-10
-2.05563081351e-09
1.50698438509e-07
1.47794375264e-09
-1.0330455387e-08
7.15280192851e-07
2.94359154672e-09
-2.56914231893e-08
1.61090365197e-06
4.11981898885e-09
-4.18124375066e-08
2.46212842403e-06
4.56223221056e-09
-5.03379028014e-08
2.96808766486e-06
4.56276654011e-09
-5.0210153015e-08
3.10375252955e-06
4.56330104189e-09
-4.69469573999e-08
3.10213274497e-06
4.56383536968e-09
-4.36837382067e-08
3.10051296039e-06
4.56436979045e-09
-4.04204952791e-08
3.0988931758e-06
4.12251166208e-09
-3.50939732154e-08
2.96034944871e-06
2.94560576154e-09
-2.51800881255e-08
2.45318220171e-06
1.4786965675e-09
-1.3202058251e-08
1.60346920796e-06
3.80545541184e-10
-4.46147255601e-09
7.11347949753e-07
0
-7.4821281056e-10
1.49753141449e-07
0
0
0
0
0
0
0
0
0
0
0
0
0
0
0
0
0
1.55586340639e-10
-1.55348740238e-09
1.31672644999e-07
5.58205838683e-10
-8.45079100864e-09
6.54303613399e-07
9.84189561028e-10
-2.198041066e-08
1.50752066948e-06
1.2587665672e-09
-3.65954064879e-08
2.32641307024e-06
1.34876001705e-09
-4.44973214301e-08
2.81505229089e-06
1.34936868255e-09
-4.44848687212e-08
2.94632951216e-06
1.349977377e-09
-4.15822808559e-08
2.94486354044e-06
1.35058604839e-09
-3.86796732982e-08
2.94339757303e-06
1.35119462587e-09
-3.57770456888e-08
2.94193160987e-06
1.26182654708e-09
-3.09758593354e-08
2.80789766976e-06
9.86461196065e-10
-2.1992684736e-08
2.317974078e-06
5.59042401645e-10
-1.12611725836e-08
1.50050788133e-06
1.55659792491e-10
-3.64091285469e-09
6.50677671721e-07
0
-5.65392646097e-10
1.30843358732e-07
0
0
0
0
0
0
0
0
0
0
0
0
0
0
0
0
0
1.58413445273e-12
-4.88989162885e-10
7.43896506378e-08
-1.24790395849e-10
-4.33873910182e-09
4.59601246729e-07
-4.90900600799e-10
-1.32240534039e-08
1.16679089669e-06
-9.26697875975e-10
-2.36191905902e-08
1.8772709538e-06
-1.11768293928e-09
-2.97151613114e-08
2.30887605124e-06
-1.11707882759e-09
-2.9941814389e-08
2.42583521659e-06
-1.11647473269e-09
-2.79610209064e-08
2.42473532889e-06
-1.11587057598e-09
-2.59802161723e-08
2.42363545083e-06
-1.11526642804e-09
-2.39994003801e-08
2.42253558238e-06
-9.23703787418e-10
-2.05773150343e-08
2.30341109869e-06
-4.88786556523e-10
-1.40924356303e-08
1.87076576554e-06
-1.24097411742e-10
-6.71564033325e-09
1.16152365937e-06
1.63041469721e-12
-1.87304811631e-09
4.57108909697e-07
0
-1.77934972034e-10
7.39237659806e-08
0
0
0
0
0
0
0
0
0
0
0
0
0
0
0
0
0
-1.88572794201e-11
0
1.78221697888e-08
-2.76555442099e-10
-1.06728864295e-09
2.02382756775e-07
-8.83979792031e-10
-4.71796435174e-09
6.45605749412e-07
-1.56083402717e-09
-9.85327170323e-09
1.15839753298e-06
-1.85941552323e-09
-1.31813634429e-08
1.48555854301e-06
-1.85906154498e-09
-1.35039021752e-08
1.57608246786e-06
-1.85870755848e-09
-1.2583050808e-08
1.57539951977e-06
-1.85835366599e-09
-1.16621961564e-08
1.57471657986e-06
-1.85799976271e-09
-1.07413380556e-08
1.57403364811e-06
-1.55914658637e-09
-9.02226784616e-09
1.48216974526e-06
-8.8294219245e-10
-5.80081784679e-09
1.15448925064e-06
-2.76304122056e-10
-2.38837676527e-09
6.4275320996e-07
-1.88528065667e-11
-4.69886462389e-10
2.01304824101e-07
0
0
1.77095160953e-08
0
0
0
0
0
0
0
0
0
0
0
0
0
0
0
0
0
0
0
0
-1.03766296235e-10
0
4.05960956469e-08
-4.55639461397e-10
-4.37147733017e-10
2.0106888659e-07
-9.32660688378e-10
-1.74825570849e-09
4.53404584189e-07
-1.15460633388e-09
-2.94438576196e-09
6.40827740391e-07
-1.15450918374e-09
-3.15302053571e-09
6.95627093676e-07
-1.15441212747e-09
-2.93361243523e-09
6.95314166506e-07
-1.1543149729e-09
-2.71420416032e-09
6.9500124243e-07
-1.15421791789e-09
-2.49479549809e-09
6.94688321448e-07
-9.32234156439e-10
-2.00877381804e-09
6.39333346386e-07
-4.55442524072e-10
-1.04486884401e-09
4.51866667447e-07
-1.03747015536e-10
-2.29775754375e-10
2.00183403525e-07
0
0
4.03806917167e-08
0
0
0
0
0
0
0
0
0
0
0
0
0
0
0
0
0
0
0
0
0
0
0
0
0
0
-7.06952299535e-11
0
1.75665814674e-08
-2.25860902162e-10
0
7.29191230398e-08
-2.99635941889e-10
0
1.28288900926e-07
-2.99629645308e-10
0
1.45840125456e-07
-2.99623372945e-10
0
1.45766238616e-07
-2.9961702324e-10
0
1.45692352004e-07
-2.99610759861e-10
0
1.45618465639e-07
-2.25839181509e-10
0
1.27964343654e-07
-7.06923210094e-11
0
7.26654261457e-08
0
0
1.74909628757e-08
0
0
0
0
0
0
0
0
0
0
0
0
0
0
0
0
0
0
0
0
0
0
0
0
0
0
0
0
0
0
0
0
0
0
0
0
0
0
0
0
0
0
0
0
0
0
0
0
0
0
0
0
0
0
0
0
0
0
0
0
0
0
0
0
0
0
0
0
0
0
0
0
0
0
0
0
0
0
0
0
0
0
0
0
0
0
0
0
0
0
0
0
0
0
0
0
0
0
0
0
0
0
0
0
0
0
0
0
0
0
0
0
0
0
0
0
0
0
0
0
0
0
0
0
0
0
0
0
0
0
0
0
0
0
0
0
0
0
0
0
0
0
0
0
0
0
0
0
0
0
0
0
0
0
0
0
0
0
0
0
0
0
0
0
0
0
0
0
0
0
0
0
0
0
0
0
0
0
0
0
0
0
0
0
0
0
0
0
0
0
0
0
0
0
0
0
0
0
0
0
0
0
0
0
0
0
0
0
0
0
0
0
0
0
0
0
0
0
0
0
0
0
0
0
0
0
0
0
0
0
0
0
0
0
0
0
0
0
0
0
0
0
0
0
0
0
0
0
0
0
0
0
0
0
0
0
0
0
0
0
0
0
0
0
0
0
0
0
0
0
0
0
0
0
0
0
0
0
0
0
0
0
0
0
0
0
0
0
0
0
0
0
0
0
0
0
0
0
0
0
0
0
0
0
2.75728919655e-10
-3.18189171138e-10
1.91089869655e-08
8.74471189012e-10
-1.24997285221e-09
7.93436857835e-08
1.15621383201e-09
-2.06066221405e-09
1.39641315386e-07
1.1562111319e-09
-2.14533739296e-09
1.58768127714e-07
1.15620837405e-09
-1.92594474289e-09
1.58685118839e-07
1.15620570832e-09
-1.70655188333e-09
1.58602109736e-07
1.15620297846e-09
-1.48715874088e-09
1.58519100412e-07
8.74461877228e-10
-1.12512217395e-09
1.39299609613e-07
2.75727691781e-10
-5.46629727947e-10
7.90949461344e-08
0
-1.10821462816e-10
1.90342802356e-08
0
0
0
0
0
0
0
0
0
0
0
0
0
0
0
0
0
0
0
0
0
0
0
1.51144981689e-11
-2.23705857855e-11
1.15293264681e-09
1.04730982263e-09
-1.4691483476e-09
8.01683147461e-08
3.47382570745e-09
-5.73234718413e-09
3.16657754788e-07
6.32564742473e-09
-1.12866663918e-08
6.37793883638e-07
7.54126283875e-09
-1.45908749796e-08
8.66491912474e-07
7.5411843351e-09
-1.44990674366e-08
9.3240174593e-07
7.54110579462e-09
-1.31271669089e-08
9.3183426627e-07
7.54102741961e-09
-1.17552608867e-08
9.31266781155e-07
7.54094889905e-09
-1.03833493554e-08
9.30699290547e-07
6.32529200908e-09
-8.3381581166e-09
8.6409040206e-07
3.47364358142e-09
-5.06214540173e-09
6.35596708324e-07
1.04728225814e-09
-1.92922132628e-09
3.15342620056e-07
1.51145175843e-11
-3.60634830077e-10
7.9776063592e-08
0
-3.56515791505e-12
1.14606757967e-09
0
0
0
0
0
0
0
0
0
0
0
0
0
0
0
0
0
9.53665826835e-10
-1.55541501612e-09
7.97171794534e-08
5.19017872462e-09
-8.3346211547e-09
4.53190449331e-07
1.19926166103e-08
-2.08203978856e-08
1.13803526215e-06
1.81643256724e-08
-3.31879704704e-08
1.84361382927e-06
2.06086630529e-08
-3.90121435338e-08
2.27665114958e-06
2.06083792511e-08
-3.79722540445e-08
2.3943962799e-06
2.06080953491e-08
-3.45279632577e-08
2.39282601688e-06
2.06078115258e-08
-3.10836503673e-08
2.39125573414e-06
2.06075277636e-08
-2.76393154321e-08
2.38968543165e-06
1.81629099676e-08
-2.28973360198e-08
2.26999925427e-06
1.19915924071e-08
-1.5513896015e-08
1.83710011286e-06
5.18981827867e-09
-7.46761323328e-09
1.13324658215e-06
9.53632649194e-10
-2.1364363372e-09
4.50923947376e-07
0
-2.48070533283e-10
7.92410098116e-08
0
0
0
0
0
0
0
0
0
0
0
0
0
0
1.97972642068e-10
-3.95951682644e-10
1.87822055613e-08
3.48437999915e-09
-5.31122234593e-09
3.13297835171e-07
1.19108049659e-08
-1.99421089695e-08
1.13150013272e-06
2.27264208725e-08
-4.10725720276e-08
2.26349763208e-06
3.14653715794e-08
-5.91258103482e-08
3.29280730188e-06
3.47837349792e-08
-6.66870276292e-08
3.8934733385e-06
3.47834465594e-08
-6.4332060449e-08
4.05301680598e-06
3.47831580994e-08
-5.86011336687e-08
4.05036110022e-06
3.47828696435e-08
-5.28701603012e-08
4.04770536184e-06
3.47825811182e-08
-4.71391404128e-08
4.04504959084e-06
3.14638636333e-08
-3.95657830926e-08
3.88225382741e-06
2.27251365922e-08
-2.80946565595e-08
3.28151401438e-06
1.19101434387e-08
-1.51708687104e-08
2.25427164261e-06
3.48423121794e-09
-5.38494817644e-09
1.12596331178e-06
1.97970342006e-10
-9.20947956956e-10
3.11450335794e-07
0
-3.3061060414e-11
1.86498517351e-08
0
0
0
0
0
0
0
0
0
0
0
7.44516797979e-10
-1.25783455481e-09
7.76388490223e-08
6.30791434849e-09
-9.88135275497e-09
6.27257631266e-07
1.74279541532e-08
-3.07807482531e-08
1.82164768148e-06
3.01059231173e-08
-5.77869431211e-08
3.27209931812e-06
3.98642559426e-08
-7.95024001787e-08
4.52430456566e-06
4.34946502684e-08
-8.79870963784e-08
5.23717955519e-06
4.34949216475e-08
-8.45268426191e-08
5.42420933561e-06
4.34951930577e-08
-7.70588943447e-08
5.42087818266e-06
4.34954643485e-08
-6.959087814e-08
5.41754699869e-06
4.34957357199e-08
-6.21227939841e-08
5.41421578369e-06
3.9865670619e-08
-5.2455519289e-08
5.22308418538e-06
3.01071144656e-08
-3.80463902174e-08
4.50983417698e-06
1.74285382895e-08
-2.16075999507e-08
3.25956698792e-06
6.30800388826e-09
-8.52611897596e-09
1.81313393484e-06
7.44504666944e-10
-1.81343684138e-09
6.23659636893e-07
0
-1.05111325386e-10
7.70906486699e-08
0
0
0
0
0
0
0
0
0
0
0
1.16126151374e-09
-1.66437044069e-09
1.35960167919e-07
7.47334338425e-09
-1.1850785371e-08
8.46984250481e-07
1.87516520481e-08
-3.51225408525e-08
2.23522694325e-06
3.10347793427e-08
-6.41945342501e-08
3.84372589009e-06
4.02821910479e-08
-8.71545164233e-08
5.20253930439e-06
4.36877689915e-08
-9.5909966771e-08
5.96732267485e-06
4.3689062431e-08
-9.20213747953e-08
6.16690364386e-06
4.36903559706e-08
-8.3911160419e-08
6.16352594419e-06
4.36916494249e-08
-7.58008697046e-08
6.16014823186e-06
4.36929428772e-08
-6.76905025976e-08
6.15677050679e-06
4.02890739091e-08
-5.72596179563e-08
5.95290896641e-06
3.10409910558e-08
-4.17940459501e-08
5.18739339856e-06
1.87552482705e-08
-2.40866445605e-08
3.83006425401e-06
7.47435051888e-09
-9.79846772156e-09
2.22530770556e-06
1.16129688547e-09
-2.20554653477e-09
8.42265431838e-07
0
-1.3913467359e-10
1.3501252642e-07
0
0
0
0
0
0
0
0
0
0
0
1.11867477045e-09
-1.66437471167e-09
1.53719105033e-07
6.74018076383e-09
-1.18508968775e-08
9.06064321509e-07
1.64465594199e-08
-3.51231137458e-08
2.33677877101e-06
2.68618342221e-08
-6.41958961056e-08