/*--------------------------------*- C++ -*----------------------------------*\
| =========                 |                                                 |
| \\      /  F ield         | OpenFOAM: The Open Source CFD Toolbox           |
|  \\    /   O peration     | Version:  3.0.1                                 |
|   \\  /    A nd           | Web:      www.OpenFOAM.org                      |
|    \\/     M anipulation  |                                                 |
\*---------------------------------------------------------------------------*/
FoamFile
{
    version     2.0;
    format      ascii;
    class       volScalarField;
    location    "0.2";
    object      p;
}
// * * * * * * * * * * * * * * * * * * * * * * * * * * * * * * * * * * * * * //

dimensions      [1 -1 -2 0 0 0 0];

internalField   nonuniform List<scalar> 
7700
(
2116.99
2119.42
2120.55
2120.56
2119.73
2118.55
2117.35
2116.24
2115.21
2114.23
2113.25
2112.25
2111.21
2110.15
2109.09
2108.06
2107.12
2106.34
2105.81
2105.65
2106.02
2107.12
2109.19
2112.55
2117.56
2124.68
2134.41
2147.38
2164.29
2185.95
2213.34
2247.84
2290.45
2341.69
2402.1
2471.97
2550.62
2635.2
2719.56
2793.9
2846.15
2873.89
2866.22
2834.83
2852.95
2946.55
2068.87
2071.28
2072.4
2072.39
2071.56
2070.39
2069.2
2068.09
2067.05
2066.06
2065.05
2064.02
2062.95
2061.85
2060.74
2059.66
2058.66
2057.82
2057.21
2056.96
2057.23
2058.22
2060.17
2063.38
2068.23
2075.16
2084.68
2097.4
2114
2135.26
2161.97
2194.67
2234.15
2281.77
2338.33
2404.35
2479.56
2562.22
2648.04
2728.24
2790.15
2822.29
2814.91
2770.61
2738.71
2867.27
2019.73
2022.1
2023.18
2023.15
2022.32
2021.17
2019.99
2018.88
2017.83
2016.79
2015.74
2014.64
2013.5
2012.31
2011.11
2009.93
2008.82
2007.83
2007.08
2006.66
2006.73
2007.5
2009.19
2012.12
2016.64
2023.18
2032.27
2044.5
2060.52
2081.08
2106.92
2138.79
2177.58
2223.91
2278.26
2340.35
2409.13
2482.79
2558.27
2631.45
2695.41
2739.78
2751.48
2737.13
2745.86
2856.6
1969.56
1971.88
1972.91
1972.85
1972.02
1970.89
1969.72
1968.61
1967.53
1966.45
1965.32
1964.12
1962.87
1961.56
1960.22
1958.89
1957.59
1956.41
1955.42
1954.75
1954.53
1954.96
1956.27
1958.76
1962.78
1968.76
1977.21
1988.7
2003.87
2023.45
2048.17
2078.77
2115.97
2160.27
2211.98
2270.77
2335.45
2403.86
2472.79
2538.84
2598.78
2650.49
2692
2733.08
2792.83
2892.7
1918.39
1920.65
1921.61
1921.5
1920.67
1919.57
1918.43
1917.31
1916.19
1915.02
1913.79
1912.47
1911.07
1909.6
1908.08
1906.53
1905
1903.54
1902.25
1901.23
1900.62
1900.6
1901.39
1903.3
1906.65
1911.87
1919.44
1929.95
1944
1962.31
1985.58
2014.52
2049.77
2091.79
2140.76
2196.38
2257.64
2322.68
2388.8
2452.97
2512.96
2570.2
2630.27
2706.45
2802.67
2919.39
1866.26
1868.44
1869.31
1869.14
1868.31
1867.23
1866.11
1864.98
1863.8
1862.53
1861.17
1859.69
1858.11
1856.43
1854.67
1852.86
1851.03
1849.24
1847.57
1846.11
1845
1844.4
1844.55
1845.71
1848.21
1852.46
1858.94
1868.2
1880.86
1897.58
1919.07
1946.01
1978.99
2018.45
2064.54
2117
2175
2237.04
2301.07
2364.86
2426.82
2488.23
2554.58
2639.54
2747.16
2867.58
1813.18
1815.28
1816.05
1815.81
1814.97
1813.91
1812.8
1811.64
1810.38
1808.99
1807.47
1805.8
1804
1802.07
1800.03
1797.9
1795.71
1793.51
1791.37
1789.38
1787.66
1786.37
1785.72
1785.97
1787.44
1790.51
1795.65
1803.4
1814.35
1829.16
1848.52
1873.09
1903.45
1940.03
1982.98
2032.14
2086.81
2145.79
2207.43
2270.07
2332.41
2394.92
2460.25
2538.05
2632.1
2739.92
1759.2
1761.2
1761.85
1761.52
1760.68
1759.64
1758.53
1757.31
1755.95
1754.42
1752.7
1750.81
1748.75
1746.53
1744.16
1741.65
1739.03
1736.35
1733.66
1731.04
1728.61
1726.5
1724.91
1724.08
1724.31
1725.97
1729.51
1735.45
1744.37
1756.92
1773.76
1795.55
1822.89
1856.2
1895.68
1941.23
1992.31
2047.89
2106.53
2166.65
2226.81
2286.42
2345.07
2406.36
2468.37
2536.15
1704.35
1706.25
1706.75
1706.34
1705.48
1704.45
1703.31
1702.03
1700.54
1698.82
1696.89
1694.75
1692.39
1689.83
1687.07
1684.13
1681.02
1677.78
1674.45
1671.11
1667.84
1664.78
1662.09
1660
1658.78
1658.8
1660.46
1664.27
1670.8
1680.68
1694.58
1713.14
1736.98
1766.54
1802.07
1843.57
1890.58
1942.18
1996.92
2053
2108.27
2160.52
2206
2240.97
2252.79
2229.23
1648.67
1650.46
1650.8
1650.29
1649.41
1648.37
1647.19
1645.81
1644.16
1642.24
1640.06
1637.62
1634.93
1631.99
1628.8
1625.36
1621.69
1617.82
1613.76
1609.59
1605.37
1601.21
1597.26
1593.72
1590.84
1588.94
1588.42
1589.76
1593.51
1600.28
1610.73
1625.53
1645.29
1670.51
1701.5
1738.31
1780.59
1827.43
1877.26
1927.76
1975.64
2016.24
2041.87
2037.72
1986.53
1739.21
5.40855
5.40668
5.4035
5.39949
5.39488
5.38982
5.3845
5.3788
5.37261
5.36581
5.35831
5.35001
5.34087
5.33089
5.32008
5.30848
5.29616
5.28322
5.26974
5.25585
5.24166
5.22728
5.21284
5.19847
5.18427
5.17037
5.15689
5.14391
5.13155
5.11991
5.10905
5.09907
5.09002
5.08197
5.07498
5.06909
5.06434
5.06075
5.05836
5.05717
5.36251
5.36033
5.35689
5.35266
5.34794
5.34277
5.33748
5.33181
5.32566
5.31892
5.31146
5.3032
5.2941
5.28413
5.27332
5.26171
5.24937
5.23638
5.22286
5.2089
5.19464
5.1802
5.16571
5.15127
5.13701
5.12306
5.10952
5.09649
5.08409
5.0724
5.0615
5.05148
5.0424
5.03433
5.02731
5.0214
5.01663
5.01303
5.01063
5.00944
5.31662
5.31421
5.31053
5.30612
5.30121
5.29581
5.29053
5.28491
5.27885
5.27222
5.26486
5.25669
5.24765
5.23773
5.22692
5.21529
5.2029
5.18983
5.17621
5.16214
5.14776
5.13319
5.11855
5.10398
5.0896
5.07552
5.06186
5.04872
5.03621
5.02442
5.01344
5.00334
4.9942
4.98606
4.979
4.97304
4.96824
4.96462
4.9622
4.961
5.27218
5.26929
5.26481
5.25981
5.25445
5.24895
5.24357
5.23804
5.23215
5.2257
5.21852
5.2105
5.20156
5.19169
5.1809
5.16923
5.15676
5.14358
5.1298
5.11556
5.10099
5.08621
5.07137
5.0566
5.04201
5.02774
5.0139
5.00059
4.98792
4.97599
4.96487
4.95466
4.94541
4.93718
4.93004
4.92402
4.91917
4.91551
4.91307
4.91185
5.22885
5.22515
5.21942
5.21361
5.20766
5.20196
5.19652
5.19116
5.18552
5.17935
5.17244
5.16463
5.15584
5.14605
5.13527
5.12355
5.11097
5.09762
5.08364
5.06916
5.05432
5.03927
5.02415
5.0091
4.99425
4.97971
4.96562
4.95209
4.93921
4.92708
4.91579
4.90542
4.89602
4.88768
4.88043
4.87433
4.86941
4.8657
4.86323
4.862
5.187
5.18199
5.17458
5.16735
5.16059
5.15464
5.14923
5.14417
5.13893
5.13317
5.12662
5.1191
5.11051
5.10083
5.09006
5.07827
5.06554
5.05198
5.03773
5.02293
5.00777
4.99237
4.97689
4.96149
4.94629
4.93143
4.91703
4.90321
4.89006
4.87769
4.86618
4.8556
4.84604
4.83754
4.83017
4.82396
4.81896
4.81519
4.81267
4.81142
5.14642
5.13947
5.12946
5.12053
5.11283
5.10668
5.10151
5.09694
5.0923
5.08713
5.08108
5.07395
5.06562
5.05606
5.04531
5.03342
5.02049
5.00667
4.99209
4.97693
4.96133
4.9455
4.92959
4.91375
4.89814
4.88288
4.86811
4.85394
4.84046
4.8278
4.81602
4.80521
4.79543
4.78676
4.77923
4.7729
4.76779
4.76395
4.76138
4.7601
5.10818
5.09771
5.08324
5.07244
5.0638
5.05771
5.05309
5.04932
5.04557
5.04121
5.03584
5.0292
5.02119
5.01179
5.00104
4.98902
4.97586
4.9617
4.94672
4.93109
4.915
4.89865
4.88222
4.86588
4.84977
4.83405
4.81884
4.80425
4.7904
4.77739
4.7653
4.75422
4.7442
4.73531
4.72761
4.72113
4.7159
4.71197
4.70935
4.70804
5.06657
5.05305
5.03437
5.02209
5.0127
5.00714
5.00362
5.00114
4.99867
4.99542
4.99091
4.98491
4.9773
4.96807
4.95731
4.94513
4.93167
4.91711
4.90163
4.88546
4.86879
4.85183
4.8348
4.81786
4.80118
4.78491
4.76919
4.75414
4.73986
4.72645
4.71401
4.70261
4.69231
4.68318
4.67528
4.66863
4.66327
4.65924
4.65655
4.65521
5.02284
5.01129
4.98234
4.96813
4.95836
4.95423
4.9527
4.95219
4.95155
4.94975
4.94636
4.94114
4.934
4.92498
4.91419
4.90179
4.88796
4.87291
4.85685
4.84003
4.82268
4.80502
4.78729
4.76967
4.75234
4.73545
4.71916
4.70357
4.6888
4.67495
4.66211
4.65035
4.63975
4.63035
4.62222
4.61538
4.60988
4.60574
4.60298
4.6016
1591.69
1593.36
1593.53
1592.92
1592
1590.94
1589.69
1588.18
1586.35
1584.19
1581.72
1578.95
1575.88
1572.5
1568.82
1564.82
1560.52
1555.92
1551.04
1545.93
1540.62
1535.21
1529.82
1524.61
1519.81
1515.69
1512.64
1511.1
1511.6
1514.74
1521.16
1531.52
1546.48
1566.58
1592.21
1623.49
1660.14
1701.28
1745.11
1788.66
1827.35
1853.22
1854.64
1794.76
1653.74
974.746
1533.17
1534.71
1534.69
1533.97
1533
1531.89
1530.54
1528.87
1526.81
1524.38
1521.59
1518.45
1514.94
1511.08
1506.84
1502.22
1497.2
1491.78
1485.97
1479.78
1473.24
1466.41
1459.37
1452.25
1445.23
1438.56
1432.58
1427.68
1424.38
1423.24
1424.89
1430
1439.25
1453.24
1472.43
1497.05
1526.97
1561.29
1598.06
1633.71
1662.64
1673.59
1653.06
1549.78
1371.28
854.213
1473.37
1474.77
1474.54
1473.7
1472.68
1471.49
1470.01
1468.13
1465.82
1463.08
1459.93
1456.36
1452.39
1447.98
1443.12
1437.79
1431.97
1425.64
1418.78
1411.39
1403.47
1395.04
1386.14
1376.86
1367.32
1357.74
1348.38
1339.61
1331.89
1325.76
1321.81
1320.72
1323.18
1329.85
1341.29
1357.88
1379.66
1405.89
1434.57
1461.91
1482.1
1482.52
1450.88
1345.24
1175.96
882.881
1412.32
1413.57
1413.12
1412.15
1411.05
1409.75
1408.1
1405.99
1403.39
1400.3
1396.75
1392.72
1388.21
1383.2
1377.65
1371.54
1364.84
1357.49
1349.48
1340.76
1331.3
1321.08
1310.1
1298.38
1286.01
1273.1
1259.88
1246.67
1233.85
1221.9
1211.4
1202.98
1197.35
1195.22
1197.25
1203.93
1215.68
1232.2
1251.59
1270.81
1284.96
1281.66
1248.96
1160.88
1007.14
798.753
1350.04
1351.12
1350.44
1349.35
1348.14
1346.71
1344.85
1342.47
1339.54
1336.07
1332.07
1327.53
1322.44
1316.77
1310.47
1303.5
1295.81
1287.36
1278.06
1267.87
1256.71
1244.52
1231.22
1216.79
1201.22
1184.56
1166.96
1148.65
1129.96
1111.28
1093.12
1076.06
1060.78
1048.01
1038.52
1032.9
1031.62
1036
1044.24
1054.95
1064.15
1061.17
1034.35
966.775
837.934
660.892
1286.56
1287.47
1286.56
1285.32
1284
1282.39
1280.29
1277.6
1274.3
1270.41
1265.93
1260.84
1255.11
1248.71
1241.58
1233.67
1224.92
1215.24
1204.56
1192.76
1179.73
1165.36
1149.51
1132.07
1112.93
1092.06
1069.5
1045.39
1019.97
993.562
966.485
939.191
912.298
886.516
862.894
842.073
823.777
810.774
800.738
804.375
817.427
822.816
807.985
761.692
668.18
533.046
1221.92
1222.65
1221.5
1220.11
1218.64
1216.83
1214.45
1211.42
1207.72
1203.37
1198.36
1192.66
1186.25
1179.06
1171.03
1162.11
1152.2
1141.19
1128.99
1115.44
1100.38
1083.64
1064.99
1044.23
1021.15
995.567
967.407
936.737
903.705
868.439
830.965
791.543
750.752
709.083
667.992
628.685
594.792
560.165
529.823
524.791
535.062
550.949
561.549
547.512
495.028
409.772
1156.15
1156.7
1155.3
1153.76
1152.12
1150.07
1147.38
1143.97
1139.84
1134.99
1129.41
1123.06
1115.9
1107.87
1098.88
1088.85
1077.69
1065.26
1051.42
1035.98
1018.73
999.416
977.733
953.349
925.911
895.081
860.656
822.618
780.972
735.574
686.061
632.593
575.678
513.873
447.29
376.488
307.098
228.429
137.142
123.314
135.608
169.78
230.199
286.28
301.913
273.48
1089.31
1089.65
1088.02
1086.31
1084.48
1082.16
1079.12
1075.31
1070.71
1065.33
1059.14
1052.1
1044.14
1035.2
1025.18
1013.98
1001.48
987.523
971.926
954.465
934.864
912.788
887.826
859.505
827.296
790.655
749.223
702.877
651.533
595.043
532.414
462.633
385.011
293.426
192.696
75.6688
17.0165
2.06999
-3.04851
-2.46777
1.46189
7.7902
20.392
53.4713
109.036
139.227
1021.43
1021.57
1019.69
1017.82
1015.78
1013.15
1009.74
1005.5
1000.41
994.463
987.628
979.846
971.046
961.141
950.028
937.585
923.664
908.083
890.624
871.012
848.908
823.887
795.407
762.843
725.446
682.354
632.996
577.316
515.705
448.302
370.979
279.894
176.872
64.6287
12.9932
-3.80921
-7.94844
-8.34401
-8.38845
-8.44708
-8.1267
-7.40109
-5.75691
-1.71684
10.0096
39.5448
952.579
952.494
950.392
948.342
946.062
943.108
939.304
934.604
928.997
922.462
914.949
906.392
896.707
885.793
873.532
859.781
844.366
827.077
807.654
785.77
761.02
732.875
700.651
663.572
620.534
570.187
512.014
446.566
374.709
295.172
197.66
94.3529
20.4877
-2.99923
-7.73815
-8.23716
-8.59751
-8.76268
-8.8677
-8.97319
-9.0649
-9.10055
-9.01807
-8.56061
-6.83814
-0.928017
882.8
882.491
880.173
877.941
875.405
872.104
867.888
862.716
856.573
849.424
841.208
831.845
821.241
809.28
795.825
780.712
763.741
744.667
723.189
698.923
671.394
639.965
603.809
561.939
512.714
454.462
387.116
310.78
225.784
134.025
39.9716
2.3211
-6.6843
-7.92574
-8.48522
-8.66236
-8.79572
-8.93871
-9.07783
-9.2182
-9.35777
-9.47865
-9.57507
-9.63205
-9.51851
-8.73084
812.16
811.622
809.106
806.688
803.881
800.219
795.578
789.925
783.233
775.455
766.518
756.33
744.782
731.745
717.063
700.547
681.968
661.046
637.436
610.699
580.292
545.457
505.176
458.292
402.769
336.264
257.439
164.953
74.8082
14.9211
-4.44383
-7.67392
-8.21774
-8.46933
-8.66729
-8.83215
-8.97315
-9.11859
-9.2575
-9.38893
-9.51833
-9.64807
-9.78775
-9.9553
-10.1493
-10.2648
740.73
739.962
737.268
734.66
731.57
727.538
722.469
716.331
709.085
700.672
691.004
679.978
667.474
653.344
637.413
619.469
599.253
576.443
550.66
521.397
488.062
449.723
405.297
354.001
292.116
214.128
120.687
34.1124
0.259493
-6.81753
-7.73933
-8.23402
-8.4669
-8.64303
-8.81245
-8.96978
-9.10731
-9.23828
-9.3685
-9.50027
-9.63708
-9.78286
-9.94869
-10.1538
-10.4152
-10.673
668.583
667.586
664.738
661.936
658.555
654.151
648.655
642.034
634.238
625.189
614.79
602.926
589.464
574.241
557.061
537.691
515.84
491.139
463.172
431.359
395.118
353.385
305.682
250.161
177.51
89.0291
17.2616
-3.81656
-7.32935
-7.88759
-8.142
-8.38256
-8.60182
-8.7779
-8.92818
-9.06787
-9.1989
-9.33268
-9.47217
-9.61705
-9.76937
-9.93467
-10.1242
-10.3518
-10.6302
-10.9292
595.787
594.567
591.591
588.588
584.915
580.143
574.23
567.136
558.799
549.127
538.01
525.323
510.923
494.633
476.231
455.468
432.017
405.45
375.326
341.06
302.246
257.728
206.66
141.765
62.3125
7.50746
-4.90986
-7.21263
-7.92115
-8.15467
-8.34465
-8.54711
-8.728
-8.87574
-9.01051
-9.14443
-9.28431
-9.4312
-9.58531
-9.74669
-9.91887
-10.1076
-10.3232
-10.5753
-10.8673
-11.1771
522.423
520.992
517.915
514.711
510.754
505.626
499.314
491.77
482.916
472.648
460.84
447.358
432.053
414.734
395.144
373.04
348.082
319.775
287.733
251.307
210.279
162.278
104.643
39.1385
0.287137
-5.60244
-6.92445
-7.73923
-8.15154
-8.37004
-8.5325
-8.68167
-8.81743
-8.94649
-9.07909
-9.22103
-9.37261
-9.53263
-9.70149
-9.88055
-10.0731
-10.2856
-10.5244
-10.8014
-11.1095
-11.4207
448.572
446.983
443.839
440.419
436.193
430.725
424.037
416.066
406.722
395.882
383.403
369.142
352.965
334.668
313.947
290.655
264.509
234.724
201.121
161.892
116.897
64.0661
19.1188
-3.54575
-5.91278
-6.06978
-7.03956
-7.9548
-8.37496
-8.55862
-8.66312
-8.76769
-8.88137
-9.00691
-9.14619
-9.29778
-9.46017
-9.63325
-9.81756
-10.0142
-10.2251
-10.454
-10.7084
-10.999
-11.3006
-11.6088
374.26
372.533
369.358
365.695
361.211
355.418
348.376
340.005
330.209
318.843
305.725
290.738
273.825
254.78
233.023
208.809
181.978
150.34
114.739
72.3789
32.22
-0.755813
-6.531
-6.00686
-5.74991
-5.8947
-7.01125
-8.20906
-8.53384
-8.65278
-8.72712
-8.81843
-8.93092
-9.06256
-9.21021
-9.37127
-9.5449
-9.73136
-9.93131
-10.1455
-10.375
-10.6198
-10.8771
-11.1359
-11.4219
-11.7188
299.61
297.517
294.389
290.534
285.849
279.773
272.448
263.78
253.688
241.982
228.335
212.712
195.356
175.997
152.867
127.397
100.356
66.5131
34.541
4.71005
-5.10465
-6.7383
-6.29025
-6.08626
-5.95636
-5.95582
-7.13451
-8.39036
-8.61245
-8.67302
-8.74805
-8.84859
-8.97059
-9.11127
-9.268
-9.43927
-9.62488
-9.82536
-10.0417
-10.2749
-10.5257
-10.7919
-11.0673
-11.3358
-11.6128
-11.9459
225.116
222.673
219.722
215.693
210.87
204.553
197.031
188.187
177.979
166.191
151.986
135.416
117.269
98.1576
73.3235
47.993
28.5782
5.54814
-3.66123
-6.71303
-6.65238
-6.42678
-6.33123
-6.25151
-6.14019
-6.17189
-7.39631
-8.33696
-8.57363
-8.65084
-8.74812
-8.86558
-8.99989
-9.15086
-9.31755
-9.4998
-9.69813
-9.91367
-10.1481
-10.403
-10.6797
-10.9754
-11.2878
-11.6137
-11.9875
-12.359
150.842
148.977
145.994
141.181
136.081
129.438
121.53
112.228
101.642
90.065
75.5476
58.0973
41.4754
28.4541
10.2353
0.534081
-4.89556
-6.26256
-6.32477
-6.36262
-6.49148
-6.50272
-6.45893
-6.39523
-6.31674
-6.4815
-7.71864
-8.27267
-8.4882
-8.61242
-8.73836
-8.87171
-9.01835
-9.18003
-9.35721
-9.55097
-9.76272
-9.99444
-10.249
-10.529
-10.8363
-11.17
-11.5303
-11.9046
-12.3103
-12.7306
77.9764
72.4571
69.9787
64.8237
59.8736
53.5953
46.4688
38.6078
30.4015
23.156
13.4087
4.49265
-0.663862
-4.41038
-5.70012
-5.87518
-6.01634
-6.16831
-6.33563
-6.47746
-6.56882
-6.58889
-6.56379
-6.5344
-6.50305
-6.6249
-7.9951
-8.30069
-8.43942
-8.57962
-8.72373
-8.86874
-9.02595
-9.1977
-9.38535
-9.59083
-9.81648
-10.0654
-10.3418
-10.6499
-10.9922
-11.3733
-11.7896
-12.2239
-12.6867
-13.1468
21.5482
9.09391
9.8239
7.95652
6.09514
4.02271
1.76908
-0.515192
-2.68482
-4.57728
-5.07442
-5.15564
-5.38727
-5.59051
-5.72456
-5.8991
-6.08185
-6.26819
-6.43387
-6.57081
-6.65856
-6.69816
-6.69711
-6.69635
-6.66192
-6.80844
-8.12412
-8.30128
-8.40845
-8.55191
-8.70348
-8.85656
-9.02215
-9.20275
-9.40025
-9.61729
-9.85702
-10.1237
-10.4228
-10.7605
-11.1419
-11.5779
-12.0683
-12.6214
-13.272
-13.9335
-3.64154
-4.27214
-4.67118
-4.78972
-4.84999
-4.90981
-4.97976
-5.06386
-5.16037
-5.24179
-5.25711
-5.31696
-5.44965
-5.61997
-5.7869
-5.95981
-6.14531
-6.33927
-6.52425
-6.68786
-6.80864
-6.87957
-6.89948
-6.91641
-6.89031
-7.07687
-8.05922
-8.28783
-8.38496
-8.52292
-8.67566
-8.83401
-9.00588
-9.19392
-9.40033
-9.62825
-9.88159
-10.1655
-10.4868
-10.8538
-11.2753
-11.7689
-12.348
-13.075
-14.0393
-15.1343
-4.9967
-4.93992
-4.88265
-4.88941
-4.92711
-4.9764
-5.03643
-5.10638
-5.18351
-5.25839
-5.32125
-5.40047
-5.51656
-5.66399
-5.83033
-6.01266
-6.21529
-6.43561
-6.65924
-6.86831
-7.03451
-7.14293
-7.18679
-7.21293
-7.2054
-7.3791
-7.90156
-8.25943
-8.35947
-8.48693
-8.63844
-8.79987
-8.97611
-9.17003
-9.38407
-9.6217
-9.88742
-10.1872
-10.5286
-10.9215
-11.3781
-11.9213
-12.5778
-13.4669
-14.6589
-16.0562
-5.01823
-4.98203
-4.96862
-4.97798
-5.00638
-5.04713
-5.09883
-5.15944
-5.2267
-5.29778
-5.37272
-5.46235
-5.57688
-5.71831
-5.88557
-6.0787
-6.30467
-6.56306
-6.83669
-7.10176
-7.31999
-7.4723
-7.54331
-7.56739
-7.55066
-7.57802
-7.80797
-8.19058
-8.31802
-8.44025
-8.59051
-8.75344
-8.93228
-9.13033
-9.35033
-9.59596
-9.87213
-10.1852
-10.5434
-10.9568
-11.4386
-12.0119
-12.7111
-13.6648
-14.8162
-16.0563
-5.06197
-5.04557
-5.04478
-5.05622
-5.08086
-5.11622
-5.16142
-5.21545
-5.27717
-5.34638
-5.42504
-5.51875
-5.63375
-5.77394
-5.94414
-6.1495
-6.4076
-6.71451
-7.04303
-7.37207
-7.65717
-7.87189
-7.96692
-7.94823
-7.84722
-7.72652
-7.84253
-8.14803
-8.27454
-8.38845
-8.53391
-8.6954
-8.87462
-9.07466
-9.29842
-9.54979
-9.83388
-10.1573
-10.5284
-10.9566
-11.4539
-12.0378
-12.7372
-13.6269
-14.5547
-15.602
-5.1136
-5.10853
-5.11282
-5.12577
-5.14851
-5.18063
-5.22166
-5.27135
-5.32957
-5.3971
-5.47614
-5.57073
-5.68583
-5.82637
-6.00139
-6.22273
-6.52106
-6.87028
-7.25288
-7.68742
-8.07336
-8.3476
-8.44902
-8.338
-8.10369
-7.85681
-7.92372
-8.14754
-8.23473
-8.33442
-8.47079
-8.62698
-8.80376
-9.00314
-9.228
-9.48231
-9.77133
-10.1014
-10.4817
-10.9209
-11.4296
-12.0192
-12.7026
-13.4671
-14.1329
-15.1048
-5.16644
-5.16744
-5.17455
-5.18868
-5.21058
-5.24064
-5.2789
-5.32557
-5.38114
-5.44681
-5.52482
-5.61872
-5.73296
-5.87375
-6.05344
-6.29238
-6.62688
-7.00158
-7.43915
-7.97153
-8.39673
-8.71306
-8.82232
-8.64328
-8.28894
-7.93484
-8.05347
-8.16518
-8.19103
-8.27857
-8.40127
-8.54888
-8.72017
-8.91594
-9.13883
-9.39285
-9.68371
-10.0151
-10.4007
-10.8484
-11.3686
-11.9709
-12.6604
-13.3893
-14.0585
-14.7729
-5.21852
-5.22318
-5.23149
-5.24613
-5.26748
-5.29609
-5.33231
-5.37665
-5.42992
-5.4935
-5.56962
-5.66157
-5.77348
-5.91294
-6.09523
-6.34778
-6.69946
-7.07793
-7.52779
-8.06912
-8.48001
-8.82219
-8.9417
-8.75392
-8.31168
-8.03137
-8.16901
-8.14759
-8.14761
-8.21614
-8.32359
-8.46049
-8.62367
-8.81283
-9.03018
-9.27959
-9.56654
-9.89774
-10.2836
-10.7355
-11.2663
-11.8894
-12.6155
-13.4249
-14.3227
-14.9302
-5.26806
-5.27476
-5.28356
-5.29835
-5.31918
-5.34662
-5.38117
-5.42349
-5.47453
-5.53575
-5.60935
-5.69828
-5.80642
-5.94226
-6.1233
-6.38174
-6.73205
-7.09484
-7.49731
-7.98021
-8.34551
-8.64934
-8.7531
-8.58186
-8.26268
-8.15547
-8.16821
-8.08791
-8.08442
-8.13907
-8.23434
-8.36029
-8.51355
-8.69338
-8.90166
-9.14214
-9.42038
-9.7439
-10.1232
-10.572
-11.1081
-11.7544
-12.5404
-13.5103
-14.6933
-15.3535
-5.31418
-5.32196
-5.33087
-5.34553
-5.36576
-5.3921
-5.4251
-5.46549
-5.51422
-5.57274
-5.64313
-5.72808
-5.83136
-5.96082
-6.13515
-6.39125
-6.73271
-7.08498
-7.43537
-7.81159
-8.11044
-8.32184
-8.40091
-8.29735
-8.13883
-8.11666
-8.04693
-7.98786
-7.99431
-8.04407
-8.13102
-8.24696
-8.38928
-8.55739
-8.75302
-8.97977
-9.24304
-9.55051
-9.91321
-10.3472
-10.876
-11.5336
-12.3863
-13.5449
-14.9524
-16.0412
-5.35677
-5.36473
-5.3736
-5.38788
-5.40741
-5.43262
-5.46406
-5.50243
-5.54866
-5.60405
-5.67045
-5.7503
-5.84684
-5.96699
-6.13006
-6.37168
-6.69722
-7.04845
-7.37575
-7.6794
-7.92101
-8.07299
-8.1267
-8.0705
-7.99009
-7.96745
-7.89439
-7.86069
-7.87955
-7.93111
-8.01285
-8.11984
-8.25051
-8.40476
-8.58425
-8.79225
-9.03369
-9.31587
-9.64976
-10.0524
-10.55
-11.1853
-12.0407
-13.2558
-14.8904
-16.8627
-5.39569
-5.40304
-5.41179
-5.42555
-5.44425
-5.46824
-5.49804
-5.53426
-5.57774
-5.62961
-5.69141
-5.7651
-5.85309
-5.96102
-6.10579
-6.31735
-6.60818
-6.94305
-7.27161
-7.57777
-7.81257
-7.93405
-7.95896
-7.89966
-7.82148
-7.76566
-7.72245
-7.71722
-7.7477
-7.80252
-7.88053
-7.979
-8.0973
-8.23579
-8.39598
-8.5806
-8.7938
-9.04187
-9.33449
-9.68705
-10.1237
-10.6836
-11.4412
-12.5376
-14.1839
-16.7208
-5.43063
-5.43689
-5.44553
-5.45861
-5.47637
-5.49906
-5.52712
-5.56108
-5.60164
-5.64973
-5.70658
-5.7736
-5.85232
-5.94654
-6.06805
-6.23815
-6.47223
-6.75683
-7.05619
-7.34925
-7.58386
-7.68843
-7.67358
-7.62642
-7.58941
-7.54999
-7.54139
-7.5616
-7.60338
-7.6613
-7.7357
-7.82539
-7.93053
-8.05164
-8.19
-8.34763
-8.52756
-8.73443
-8.97538
-9.26169
-9.61054
-10.0477
-10.6186
-11.4272
-12.6665
-14.5457
-5.46156
-5.46633
-5.47477
-5.48717
-5.5039
-5.52522
-5.55147
-5.58312
-5.62073
-5.66504
-5.71698
-5.77754
-5.84761
-5.92928
-6.02895
-6.15853
-6.32921
-6.53832
-6.76388
-6.98083
-7.15831
-7.27073
-7.32225
-7.33451
-7.33158
-7.33413
-7.35564
-7.4009
-7.45127
-7.51084
-7.58071
-7.66091
-7.75199
-7.85449
-7.96931
-8.09763
-8.24118
-8.40256
-8.58574
-8.79669
-9.04373
-9.3377
-9.69567
-10.159
-10.7979
-11.6147
-5.48782
-5.49195
-5.49982
-5.51145
-5.52711
-5.547
-5.57143
-5.60078
-5.63549
-5.67614
-5.72345
-5.77815
-5.84085
-5.91262
-5.99641
-6.09755
-6.2215
-6.36872
-6.53051
-6.68915
-6.82694
-6.93532
-7.01595
-7.0685
-7.10432
-7.14315
-7.19096
-7.24293
-7.29643
-7.35466
-7.41833
-7.48798
-7.56423
-7.64743
-7.73798
-7.83617
-7.9424
-8.05729
-8.1818
-8.31705
-8.46372
-8.62136
-8.78863
-8.96433
-9.13134
-9.20018
-5.50996
-5.51365
-5.52093
-5.53175
-5.5463
-5.56478
-5.58741
-5.6145
-5.64641
-5.6836
-5.72661
-5.77601
-5.83231
-5.89618
-5.96894
-6.05273
-6.14959
-6.25962
-6.37931
-6.50037
-6.61278
-6.71043
-6.79346
-6.86335
-6.92337
-6.9798
-7.03515
-7.08848
-7.14126
-7.19531
-7.25114
-7.30937
-7.37038
-7.43424
-7.50076
-7.56947
-7.63958
-7.71008
-7.77953
-7.84562
-7.90408
-7.94784
-7.96647
-7.94162
-7.83304
-7.56326
-5.52837
-5.53173
-5.53842
-5.54843
-5.5619
-5.57898
-5.59985
-5.62476
-5.65401
-5.68793
-5.72695
-5.7715
-5.82202
-5.87897
-5.943
-6.01493
-6.09536
-6.18385
-6.27828
-6.37471
-6.46877
-6.55728
-6.63804
-6.70964
-6.77346
-6.83229
-6.88708
-6.93831
-6.98736
-7.03509
-7.08187
-7.12812
-7.1739
-7.21895
-7.2626
-7.3037
-7.34062
-7.37118
-7.39241
-7.39995
-7.38709
-7.34427
-7.25807
-7.10685
-6.85418
-6.44449
-5.54351
-5.54656
-5.55271
-5.56194
-5.57435
-5.59007
-5.60924
-5.63207
-5.65878
-5.68964
-5.72495
-5.76504
-5.81025
-5.86091
-5.91737
-5.97995
-6.04877
-6.12337
-6.20228
-6.28308
-6.3631
-6.44007
-6.51224
-6.57858
-6.63927
-6.69501
-6.74604
-6.79282
-6.83605
-6.87607
-6.91311
-6.94725
-6.97827
-7.0056
-7.02818
-7.04447
-7.05227
-7.04874
-7.03012
-6.99123
-6.92496
-6.82176
-6.66875
-6.44821
-6.13704
-5.70969
-5.55581
-5.55858
-5.56422
-5.57269
-5.58409
-5.59849
-5.61604
-5.63687
-5.66118
-5.68915
-5.72101
-5.75699
-5.79733
-5.84224
-5.8919
-5.9464
-6.00561
-6.06905
-6.13569
-6.20402
-6.27231
-6.3389
-6.40234
-6.46161
-6.51638
-6.56651
-6.61186
-6.65251
-6.68862
-6.72023
-6.7473
-6.76964
-6.78677
-6.79788
-6.80171
-6.79646
-6.77973
-6.74843
-6.69861
-6.62522
-6.52172
-6.37974
-6.18882
-5.93662
-5.60904
-5.1918
-5.56569
-5.56821
-5.57337
-5.58111
-5.59152
-5.60467
-5.62065
-5.63958
-5.66159
-5.68684
-5.71547
-5.74765
-5.78352
-5.8232
-5.86675
-5.91415
-5.96521
-6.01946
-6.07613
-6.13414
-6.19226
-6.24921
-6.30385
-6.35528
-6.40284
-6.44606
-6.48453
-6.51803
-6.54638
-6.56936
-6.58665
-6.59784
-6.60228
-6.59899
-6.58663
-6.56334
-6.52672
-6.47376
-6.4008
-6.30335
-6.17588
-6.01185
-5.8037
-5.54373
-5.22509
-4.83835
-5.57352
-5.57581
-5.58051
-5.58755
-5.59701
-5.60894
-5.62342
-5.64052
-5.66036
-5.68302
-5.70862
-5.73725
-5.76899
-5.80389
-5.84193
-5.88302
-5.92693
-5.97325
-6.02135
-6.07042
-6.11953
-6.16766
-6.21386
-6.25728
-6.2972
-6.33297
-6.36406
-6.39003
-6.41048
-6.42497
-6.43301
-6.434
-6.42717
-6.41148
-6.38557
-6.34767
-6.29556
-6.22653
-6.13738
-6.02439
-5.88327
-5.70924
-5.49735
-5.24302
-4.94288
-4.59409
-5.57964
-5.58171
-5.58596
-5.59232
-5.60087
-5.61163
-5.62465
-5.64001
-5.65776
-5.67796
-5.7007
-5.726
-5.7539
-5.78439
-5.8174
-5.85281
-5.89037
-5.9297
-5.97028
-6.01145
-6.05245
-6.09248
-6.13069
-6.16631
-6.19861
-6.2269
-6.25058
-6.26908
-6.28184
-6.2883
-6.28785
-6.27977
-6.26323
-6.23717
-6.2003
-6.151
-6.08735
-6.00707
-5.9075
-5.78571
-5.63854
-5.46275
-5.25535
-5.01432
-4.7371
-4.4251
-5.58431
-5.58616
-5.58998
-5.5957
-5.60336
-5.61298
-5.62461
-5.63829
-5.65404
-5.67191
-5.69193
-5.7141
-5.73841
-5.76482
-5.79322
-5.82347
-5.8553
-5.88838
-5.92225
-5.95634
-5.99003
-6.02262
-6.05339
-6.08163
-6.10663
-6.12773
-6.14427
-6.15564
-6.1612
-6.1603
-6.15226
-6.13632
-6.11163
-6.07718
-6.03177
-5.97401
-5.90226
-5.81469
-5.70919
-5.58357
-5.43565
-5.26335
-5.0649
-4.83974
-4.58705
-4.30881
-5.58777
-5.58942
-5.59282
-5.59791
-5.60471
-5.61325
-5.62353
-5.63559
-5.64944
-5.66509
-5.68253
-5.70175
-5.72271
-5.74533
-5.76949
-5.79501
-5.82164
-5.84908
-5.8769
-5.90464
-5.93172
-5.95754
-5.98148
-6.00288
-6.02109
-6.03546
-6.04534
-6.05009
-6.04907
-6.04159
-6.02695
-6.00439
-5.97306
-5.93204
-5.88028
-5.81658
-5.73961
-5.64788
-5.53989
-5.41411
-5.26907
-5.10355
-4.91684
-4.70823
-4.47877
-4.23037
-5.59024
-5.59169
-5.59469
-5.59917
-5.60515
-5.61263
-5.62163
-5.63215
-5.64418
-5.65771
-5.67272
-5.68918
-5.70701
-5.72611
-5.74635
-5.76755
-5.78946
-5.81179
-5.83417
-5.85616
-5.87728
-5.89699
-5.91473
-5.92989
-5.94189
-5.95011
-5.95393
-5.95271
-5.94582
-5.93259
-5.91234
-5.88432
-5.84776
-5.80181
-5.74557
-5.67804
-5.59818
-5.50484
-5.39696
-5.27349
-5.13353
-4.97642
-4.80196
-4.61015
-4.40214
-4.17982
-5.59191
-5.59318
-5.59579
-5.59968
-5.60487
-5.61134
-5.61911
-5.62815
-5.63846
-5.64999
-5.66272
-5.67658
-5.6915
-5.70735
-5.72399
-5.74125
-5.75887
-5.77659
-5.79406
-5.8109
-5.82666
-5.84088
-5.85304
-5.8626
-5.86901
-5.87171
-5.87011
-5.86362
-5.85162
-5.83349
-5.80858
-5.7762
-5.73566
-5.6862
-5.62707
-5.55743
-5.47651
-5.38347
-5.27754
-5.15804
-5.02447
-4.8766
-4.71454
-4.53866
-4.35004
-4.1504
-5.59297
-5.59405
-5.59629
-5.59962
-5.60405
-5.60957
-5.61617
-5.62381
-5.63249
-5.64214
-5.65273
-5.66418
-5.67639
-5.68925
-5.7026
-5.71627
-5.73001
-5.74358
-5.75665
-5.76887
-5.77986
-5.78918
-5.79637
-5.80095
-5.80242
-5.80025
-5.79391
-5.78285
-5.76651
-5.7443
-5.71563
-5.67989
-5.63646
-5.58471
-5.52398
-5.45363
-5.37305
-5.28165
-5.17893
-5.06447
-4.93806
-4.79968
-4.6497
-4.48858
-4.31733
-4.13745
-5.59358
-5.59449
-5.59638
-5.59918
-5.60289
-5.6075
-5.61299
-5.61932
-5.62646
-5.63436
-5.64296
-5.65217
-5.6619
-5.67202
-5.68237
-5.69278
-5.70303
-5.71287
-5.72202
-5.73014
-5.7369
-5.74189
-5.74472
-5.74493
-5.74209
-5.7357
-5.72529
-5.71037
-5.69041
-5.6649
-5.6333
-5.59509
-5.54971
-5.49665
-5.43537
-5.36537
-5.28618
-5.1974
-5.09872
-4.98994
-4.87098
-4.74202
-4.6035
-4.45593
-4.30022
-4.13762
-5.59391
-5.59467
-5.59621
-5.59851
-5.60155
-5.6053
-5.60975
-5.61485
-5.62057
-5.62684
-5.6336
-5.64076
-5.64821
-5.65583
-5.66347
-5.67096
-5.67808
-5.6846
-5.69027
-5.69478
-5.69782
-5.69904
-5.69806
-5.6945
-5.68795
-5.67797
-5.66415
-5.64602
-5.62314
-5.59504
-5.56127
-5.52135
-5.47484
-5.42129
-5.36028
-5.29142
-5.21439
-5.12891
-5.03479
-4.93196
-4.8205
-4.70065
-4.57287
-4.43767
-4.29586
-4.1485
-5.59413
-5.59473
-5.59596
-5.59778
-5.60019
-5.60314
-5.60663
-5.61059
-5.61499
-5.61976
-5.62483
-5.63011
-5.6355
-5.64087
-5.64607
-5.65094
-5.65528
-5.65888
-5.66149
-5.66284
-5.66265
-5.66061
-5.65637
-5.64959
-5.63991
-5.62694
-5.61031
-5.58961
-5.56444
-5.53441
-5.49912
-5.45818
-5.4112
-5.35783
-5.29774
-5.23064
-5.15628
-5.07452
-4.98524
-4.88847
-4.78436
-4.67319
-4.55538
-4.43145
-4.30211
-4.16827
-5.59437
-5.59482
-5.59577
-5.59715
-5.59897
-5.60119
-5.60378
-5.60669
-5.60988
-5.61328
-5.61682
-5.62041
-5.62394
-5.62729
-5.63032
-5.63287
-5.63476
-5.6358
-5.63575
-5.63437
-5.63141
-5.62658
-5.61958
-5.61011
-5.59784
-5.58243
-5.56355
-5.54086
-5.514
-5.48262
-5.44641
-5.40501
-5.35813
-5.30548
-5.2468
-5.18189
-5.11058
-5.03277
-4.94844
-4.85768
-4.76067
-4.65769
-4.54911
-4.43546
-4.31734
-4.19554
-5.59478
-5.5951
-5.59578
-5.59676
-5.59804
-5.59958
-5.60135
-5.60331
-5.60541
-5.60757
-5.60973
-5.6118
-5.61367
-5.61523
-5.61634
-5.61686
-5.61662
-5.61543
-5.61309
-5.60939
-5.60407
-5.59691
-5.58762
-5.57594
-5.56157
-5.54424
-5.52364
-5.49946
-5.47143
-5.43923
-5.40259
-5.36124
-5.31493
-5.26343
-5.20655
-5.14414
-5.0761
-5.00238
-4.92301
-4.8381
-4.74785
-4.65254
-4.55251
-4.44823
-4.34026
-4.22924
-5.5955
-5.5957
-5.59613
-5.59674
-5.59753
-5.59846
-5.5995
-5.6006
-5.6017
-5.60276
-5.60369
-5.60441
-5.60482
-5.60481
-5.60425
-5.60301
-5.60093
-5.59784
-5.59356
-5.58789
-5.58062
-5.57153
-5.56038
-5.54693
-5.53093
-5.51213
-5.49027
-5.46508
-5.43633
-5.40377
-5.36715
-5.32626
-5.28089
-5.23089
-5.17609
-5.11641
-5.05177
-4.98218
-4.90769
-4.82843
-4.74459
-4.65646
-4.56433
-4.46864
-4.36985
-4.26854
-5.59663
-5.59673
-5.59694
-5.59722
-5.59757
-5.59795
-5.59833
-5.59866
-5.5989
-5.59897
-5.59882
-5.59836
-5.59749
-5.59612
-5.59412
-5.59137
-5.58773
-5.58305
-5.57715
-5.56986
-5.561
-5.55036
-5.53774
-5.52292
-5.5057
-5.48584
-5.46314