/*--------------------------------*- C++ -*----------------------------------*\
| =========                 |                                                 |
| \\      /  F ield         | OpenFOAM: The Open Source CFD Toolbox           |
|  \\    /   O peration     | Version:  3.0.1                                 |
|   \\  /    A nd           | Web:      www.OpenFOAM.org                      |
|    \\/     M anipulation  |                                                 |
\*---------------------------------------------------------------------------*/
FoamFile
{
    version     2.0;
    format      ascii;
    class       volScalarField;
    location    "5.2";
    object      ddt0(k);
}
// * * * * * * * * * * * * * * * * * * * * * * * * * * * * * * * * * * * * * //

dimensions      [0 2 -3 0 0 0 0];

internalField   nonuniform List<scalar> 
7968
(
-0.000182480071464
-0.000197245356607
-0.000208266500716
-0.000214541157929
-0.00021770484655
-0.000219048562026
-0.000219397892831
-0.000219458879816
-0.000219191225268
-0.000219144465489
-0.000219672151188
-0.000219930644574
-0.000220360960999
-0.000220463587632
-0.000220034004389
-0.000218540955054
-0.000215167794734
-0.000208646553974
-0.000197419167721
-0.000182533158285
-0.000197244794425
-0.000263802210273
-0.000307800758643
-0.000333620799108
-0.000348314128
-0.000356184300656
-0.000359986307002
-0.000361683333528
-0.000362588193885
-0.000363590448826
-0.000365043666893
-0.000366444197528
-0.000367235766691
-0.000366479334577
-0.000362811754327
-0.000354290693419
-0.000338262615005
-0.000310663409235
-0.00026494818469
-0.000197396852227
-0.000208264644866
-0.000307812196181
-0.000373010727351
-0.000411713695949
-0.000434394437491
-0.000447241871347
-0.000454206586517
-0.000458052480921
-0.000460613790204
-0.000462953019905
-0.000465437213371
-0.000467692750393
-0.000468759415803
-0.000467161787609
-0.000460779502848
-0.000446832127194
-0.000421565091757
-0.00037928211002
-0.000310486019854
-0.00020856753748
-0.000214550701579
-0.00033356836572
-0.000411564737829
-0.000458214055874
-0.000486020452476
-0.00050236459139
-0.000512012277361
-0.000518176319097
-0.000525113833104
-0.000528929971789
-0.000532132906028
-0.000534355174277
-0.000534204077582
-0.000531830921544
-0.00052341510247
-0.00050558070268
-0.00047390196444
-0.000421776537341
-0.000338107139425
-0.000215028608151
-0.000217712722655
-0.000348017416033
-0.000433746619139
-0.000485364569427
-0.000516630068116
-0.000535978916187
-0.000551281336767
-0.0005601356484
-0.000566541360055
-0.000571626686853
-0.000575819932982
-0.00057861884814
-0.000578740314109
-0.000574368549159
-0.000564037724473
-0.000543262727938
-0.000506962730959
-0.000448019732085
-0.00035451212013
-0.000218402312587
-0.000219029033546
-0.000355394885519
-0.000445636074267
-0.000500399336671
-0.000534494171599
-0.000559763430259
-0.000575143239336
-0.000585629867067
-0.000593350114382
-0.00059952280034
-0.000604546865896
-0.000607845609494
-0.000608063222572
-0.00060303076608
-0.000589981457924
-0.000567170960981
-0.000527476223932
-0.000463775996331
-0.000363837110548
-0.000219958729786
-0.000219322231772
-0.00035844689451
-0.000451170099413
-0.000508064587973
-0.000547701464973
-0.000572824841422
-0.000589697415392
-0.000601481564767
-0.000610223997244
-0.000617184797651
-0.000622826591121
-0.000626510209113
-0.000626819749622
-0.00062142344412
-0.000607271166292
-0.000580786426971
-0.000539672194585
-0.000472700675737
-0.000368670829422
-0.000220478979994
-0.000219246855149
-0.000359161564854
-0.000453158643521
-0.000511720058275
-0.000553749693227
-0.0005802086802
-0.000598236100089
-0.000610902889274
-0.00062027552655
-0.000627739852846
-0.000633813405432
-0.000637797505643
-0.000638215425836
-0.000632627877366
-0.000617839454066
-0.000590061698834
-0.000546486018343
-0.000477395258204
-0.000370866037377
-0.000219943756846
-0.000219136296752
-0.0003589034701
-0.000453559667469
-0.000516354239687
-0.000556934668619
-0.000584275483849
-0.000603073225204
-0.000616246403715
-0.000625969878952
-0.000633739229796
-0.000640136438012
-0.000644308676733
-0.00064479298852
-0.00063909306309
-0.000623919830385
-0.000595345056199
-0.00054873423803
-0.000479772058549
-0.000371792053419
-0.000219771777078
-0.000218900274403
-0.000358589635025
-0.000453588894813
-0.000517381861251
-0.000558610170506
-0.000586584880481
-0.000605861779693
-0.000619339347392
-0.000629242038574
-0.000637202345056
-0.000643848018806
-0.00064804329462
-0.000648453238142
-0.000642622928731
-0.000627183605701
-0.000598153565636
-0.000550858399229
-0.000481078069936
-0.000372305578044
-0.000219696098524
-0.000219079568579
-0.000358758900847
-0.00045391034179
-0.000517962220224
-0.000559587922812
-0.000587938156525
-0.000607519365406
-0.000621222734854
-0.000631302826792
-0.000639387023449
-0.000645980984522
-0.000650002647483
-0.000650222043332
-0.000644179195376
-0.000628494771206
-0.00059919072145
-0.000551632568451
-0.000481856059104
-0.000372895973559
-0.000219874820771
-0.000219258468071
-0.000359281338399
-0.000454482467999
-0.000518048254882
-0.000559780521273
-0.000588224472645
-0.00060791728052
-0.000621739539556
-0.000631902673469
-0.000639888769684
-0.000646173403494
-0.000649980672243
-0.000649957297552
-0.000643643583371
-0.000627735973494
-0.00059834589221
-0.00055100112357
-0.000481907343944
-0.00037326689902
-0.000220220818199
-0.000219353299708
-0.000359648903875
-0.000454582586828
-0.000514885132258
-0.000558152474439
-0.000586389039326
-0.000605888796936
-0.000619623037725
-0.000629670105911
-0.000637413800751
-0.000643343893768
-0.000646835541467
-0.00064647162504
-0.000639853719792
-0.000623816375228
-0.00059468756146
-0.000550940803984
-0.000480444487286
-0.000372774570361
-0.000220380224262
-0.000219494164645
-0.000359012903574
-0.000452930515869
-0.000512022097649
-0.00055311946233
-0.000580514004377
-0.000599360124032
-0.000612620319261
-0.000622299885576
-0.000629664589545
-0.000635161744275
-0.000638238924121
-0.000637496317099
-0.000630659384474
-0.000614775563377
-0.000586516972822
-0.000544999321509
-0.000476121007263
-0.000370670224628
-0.000220755362884
-0.000219210437654
-0.000356027600635
-0.000447530086051
-0.000504608479508
-0.00054142790254
-0.000567913767338
-0.00058550974904
-0.000597786672406
-0.000606706528163
-0.00061344541574
-0.000618382905834
-0.000620995375359
-0.000619950599432
-0.000613182173551
-0.000598167334333
-0.000575126311413
-0.000532895325968
-0.000467084856621
-0.000365714206392
-0.000220612045128
-0.000217920917528
-0.000348702243391
-0.000435539739138
-0.000489213165502
-0.000523140090325
-0.000545156379656
-0.000560809974938
-0.000571483390245
-0.000579183118904
-0.000584974278534
-0.000589176984239
-0.000591336997514
-0.000590235318732
-0.000584173828657
-0.000574107835507
-0.000550619225209
-0.000511764246885
-0.000450861113161
-0.00035614572277
-0.000219011916836
-0.000214776873199
-0.000334243567273
-0.000413017663971
-0.00046114955467
-0.000490970986782
-0.000509590604799
-0.000521428371861
-0.00052933255619
-0.000535097380067
-0.000539626123573
-0.000542974653942
-0.000546185883253
-0.000546468761866
-0.000542280418063
-0.000531583431081
-0.000511342247731
-0.000477565887803
-0.000423925116575
-0.000339766782899
-0.000215121504289
-0.0002084715602
-0.000308363969791
-0.000373938608167
-0.000413424711133
-0.000437254086897
-0.000451510428399
-0.000459976300767
-0.000465211230349
-0.000468905930833
-0.000472001514448
-0.000474776593517
-0.000476769961655
-0.000477030380609
-0.000474091874795
-0.000466069325814
-0.000450485582728
-0.000423868199877
-0.000380690998809
-0.000311799503767
-0.000208575909309
-0.000197396325448
-0.000264157145355
-0.000308252955606
-0.000334295379391
-0.000349365537925
-0.000357789424266
-0.000362259332812
-0.00036463183521
-0.000366157139112
-0.000367590674896
-0.000369284970838
-0.000370682259357
-0.000371110673527
-0.000369734625365
-0.000365283918779
-0.000356021203619
-0.000339511236865
-0.00031160668217
-0.000265700552739
-0.000197590307319
-0.000182542510031
-0.000197394690393
-0.000208453351728
-0.000214738304126
-0.00021792020741
-0.000219310186261
-0.000219720252668
-0.000219347146062
-0.000219188336081
-0.000219185282946
-0.000219686726957
-0.000220151902783
-0.000220533189871
-0.000221071635209
-0.000220572311008
-0.000219009788269
-0.000215498713278
-0.00020888687897
-0.000197695447436
-0.000182658842972
-0.000196947016304
-0.00026308721069
-0.000306701768627
-0.000332355317787
-0.000347137009439
-0.000355309724806
-0.000359550321183
-0.00036140832863
-0.000362603723397
-0.00036368596043
-0.00036521188646
-0.000366472334391
-0.000366792685102
-0.000365540751001
-0.000361417368053
-0.000352588016649
-0.000336464644967
-0.000309045416557
-0.000263813145204
-0.000197073326372
-0.000262977073903
-0.00051783097053
-0.000635683592072
-0.000703631147735
-0.000743801656998
-0.000767564969054
-0.000781742877881
-0.000790660018049
-0.000797040489137
-0.000802439913913
-0.000807339315861
-0.000811203098836
-0.000812541188508
-0.000808901182605
-0.000796803680264
-0.000771515185873
-0.000726377409469
-0.000650940782455
-0.000524743347554
-0.000264100381022
-0.000306481630245
-0.000635360730344
-0.00078558645248
-0.000873529141557
-0.000926980344407
-0.000960092261252
-0.000981354806959
-0.000996158624806
-0.00100732625468
-0.00101704505625
-0.00102563752486
-0.00103224598368
-0.00103478644124
-0.00102986248976
-0.00101294328693
-0.000977932619346
-0.000916491520184
-0.000815832222304
-0.000650661613662
-0.000309335825442
-0.00033193246838
-0.000702424328039
-0.000872366346741
-0.000973309508475
-0.00103625495642
-0.00107706174845
-0.00110487123324
-0.00112672597339
-0.00114129464365
-0.00115506800706
-0.00116715448218
-0.00117630743018
-0.0011798979708
-0.00117379123793
-0.00115295818457
-0.00111043037085
-0.00103688873214
-0.000918347787093
-0.000727057900202
-0.000336801796521
-0.000346341324649
-0.000741026596626
-0.000923604706403
-0.00103369999345
-0.00110440065288
-0.00115355584851
-0.00118502677496
-0.00121019535267
-0.00123078526582
-0.00124866200545
-0.00126384603803
-0.00127499816648
-0.00127922990987
-0.00127215269479
-0.0012479182818
-0.00119928059186
-0.00111631257056
-0.00098443241636
-0.000774745256307
-0.000353250805746
-0.000353939949529
-0.000762428805282
-0.000953265928778
-0.00107030755772
-0.00114846965262
-0.00119994732435
-0.001237929748
-0.00126791363908
-0.00129276932813
-0.00131392838103
-0.00133145401529
-0.00134393706438
-0.00134834976005
-0.00134010452029
-0.00131299925964
-0.00125918471412
-0.00116885557973
-0.00102696120126
-0.000804232338797
-0.000362748272672
-0.000357405911089
-0.000773466252676
-0.000969831808238
-0.00109222680037
-0.00117398149954
-0.00123101444198
-0.00127390098031
-0.0013079563564
-0.00133605974853
-0.0013595556018
-0.00137853727545
-0.00139170917333
-0.00139598691936
-0.00138658696579
-0.00135703507295
-0.00129926025856
-0.00120301780768
-0.0010537613836
-0.000821903222994
-0.000367869522881
-0.000358450450121
-0.00077859918314
-0.000978900354151
-0.00110742753826
-0.00119085005727
-0.00125193770063
-0.00129856425783
-0.0013356378553
-0.00136587649914
-0.00139069680127
-0.00141042986857
-0.00142382397216
-0.00142781136414
-0.0014174539993
-0.00138600599267
-0.00132510581366
-0.00122335312409
-0.00106999894325
-0.000832047612518
-0.000370892897314
-0.000358234399796
-0.000780717675047
-0.000983539680212
-0.00111346868844
-0.0012017942999
-0.00126620056583
-0.00131549226529
-0.00135444773548
-0.00138591610485
-0.00141131820196
-0.00143120667163
-0.00144445805521
-0.00144815575889
-0.00143707954781
-0.00140430424531
-0.00134136894767
-0.00123784299113
-0.00107965722918
-0.000837558624782
-0.00037197885204
-0.000358076655458
-0.000781765771083
-0.000986535239806
-0.00111857328006
-0.00120953301594
-0.00127615127313
-0.0013270806494
-0.0013670049347
-0.00139893917384
-0.00142437298507
-0.00144406839431
-0.00145702220519
-0.00146036112698
-0.00144875164848
-0.00141505847815
-0.00135071794291
-0.00124538561136
-0.00108477899173
-0.000840361712129
-0.000372467377334
-0.000358338522779
-0.000782607559171
-0.000988762347441
-0.00112243239047
-0.0012150016432
-0.0012828771967
-0.00133458225416
-0.00137481933663
-0.00140670889662
-0.00143188575962
-0.00145120588152
-0.00146376029068
-0.0014666391719
-0.00145445807804
-0.00142002479999
-0.00135475684682
-0.00124836036366
-0.00108670553985
-0.000841375609297
-0.000372965861132
-0.000358797684332
-0.000783207692119
-0.000990096446065
-0.00112472727531
-0.00121782889639
-0.00128599050678
-0.00133767452635
-0.00137768496053
-0.00140916372985
-0.00143390798398
-0.00145273630341
-0.00146478205664
-0.00146702379824
-0.00145416089497
-0.00141908070912
-0.00135330122821
-0.00124651726338
-0.00108528094996
-0.000840451435036
-0.000373250119535
-0.00035908548274
-0.000782578683592
-0.000989222244199
-0.00112465532489
-0.00121610775744
-0.00128341973145
-0.00133421882371
-0.00137341182382
-0.00140410554323
-0.00142817421899
-0.00144636370285
-0.00145770974012
-0.00145912672416
-0.00144550479913
-0.0014099600819
-0.00134413436937
-0.00123630780999
-0.00107865243642
-0.000836378516883
-0.000372533487417
-0.000357976413969
-0.00077855792966
-0.000982951141796
-0.00111481091291
-0.00120589845551
-0.00127130050987
-0.00132014693824
-0.00135763479543
-0.00138696158872
-0.00140994368761
-0.00142717491876
-0.00143760209499
-0.00143814298062
-0.00142392174661
-0.00138843669983
-0.0013238237106
-0.00122045093153
-0.00106449823132
-0.000827024312482
-0.000369734833266
-0.00035450523764
-0.00076801144657
-0.000967549556791
-0.00109502871848
-0.00118220690944
-0.00124420071734
-0.00128975259745
-0.00132443799297
-0.00135150166702
-0.00137272513806
-0.00138852230795
-0.00139780182741
-0.00139753211016
-0.00138315606352
-0.00134861614599
-0.00128653642008
-0.00118793320332
-0.00103827589089
-0.00080932037854
-0.000364009247593
-0.000346841604579
-0.000746274074599
-0.000937042294491
-0.00105730878997
-0.00113815488409
-0.00119503055409
-0.00123562883329
-0.00126623861459
-0.00129001778779
-0.00130863270694
-0.00132240201
-0.00133018454223
-0.00132935581716
-0.00131554468206
-0.00128326777041
-0.00122602617959
-0.00113435952473
-0.000994689251287
-0.000779068943191
-0.000354224887582
-0.000332287786839
-0.000706487749044
-0.000882975539642
-0.000992306850439
-0.00106415947465
-0.00111311410763
-0.00114761300707
-0.00117296282096
-0.0011925027078
-0.00120766310374
-0.00121873698156
-0.00122400191682
-0.00122337902351
-0.0012116384068
-0.00118330170562
-0.0011326826258
-0.00105130513168
-0.000926091837541
-0.000730070715155
-0.000337449658293
-0.000306623832322
-0.000637653082002
-0.00079200281672
-0.000885528029574
-0.000945204689634
-0.00098443277159
-0.00101107417711
-0.00103000129306
-0.00104420740649
-0.0010552288246
-0.00106341969781
-0.00106788416109
-0.00106679481311
-0.00105687754952
-0.00103399623905
-0.000992737008367
-0.000925517939384
-0.000820255936541
-0.000652163596407
-0.000309680771861
-0.000262962875665
-0.00051829810599
-0.0006377158493
-0.000708138293965
-0.000751338877315
-0.000778333751696
-0.00079560394741
-0.000807195041626
-0.000815520920169
-0.000821970256691
-0.000826906725678
-0.000829733812527
-0.000828973838056
-0.000822322365658
-0.000806725210599
-0.000777911689994
-0.000729747171442
-0.000652188195024
-0.000524954317731
-0.000264268348808
-0.000197056052022
-0.000263314182299
-0.000307086866641
-0.000332984728344
-0.000348131855174
-0.000356795626818
-0.000361618145007
-0.000364612065189
-0.00036628157102
-0.000367677633125
-0.000369316689315
-0.00037055978381
-0.000370571408799
-0.000368208147532
-0.000363387829898
-0.000353907864839
-0.000337292083769
-0.00030957801893
-0.000264185693485
-0.000197311578391
-0.000207114793866
-0.000302903312609
-0.000364131067095
-0.00039998547956
-0.000421148333266
-0.000433711821085
-0.000441305596401
-0.000446212163265
-0.000449888479672
-0.000453308335645
-0.000456816342731
-0.000459762356204
-0.000461183440348
-0.000459774172458
-0.000453613688566
-0.0004400987243
-0.000415596389079
-0.000374506471737
-0.000307389578572
-0.000207633101361
-0.000302687320892
-0.000618340784883
-0.000757395824355
-0.000836324207267
-0.000883517434834
-0.000913209117519
-0.000933613975623
-0.000949474446602
-0.000963470903492
-0.000976746134487
-0.000989277149235
-0.000999966211255
-0.00100659977449
-0.00100581984871
-0.000993023083453
-0.000962082406392
-0.00090457633008
-0.000807582487619
-0.000645683253169
-0.000307884404972
-0.000363531662111
-0.000756520764078
-0.00092591134433
-0.00102384168548
-0.00108491056309
-0.00112580766373
-0.00115620166903
-0.00118095900815
-0.00120360688239
-0.00122493138184
-0.00124458539209
-0.00126096869412
-0.00127122196729
-0.00127083759488
-0.00125397254648
-0.00121303577976
-0.00113788581706
-0.00101328635729
-0.000808133812552
-0.000375261228137
-0.000398721964745
-0.000833713663214
-0.00102179811883
-0.00113288928263
-0.00120508329257
-0.00125645743718
-0.00129820461913
-0.00133020402634
-0.00136011061455
-0.00138827564279
-0.00141390528582
-0.00143493190007
-0.00144772039578
-0.00144686579221
-0.00142613450882
-0.00137711071427
-0.00128858106131
-0.00114404764415
-0.000909139403715
-0.000417118953459
-0.000418827470007
-0.000877999478198
-0.00107919655196
-0.00120104469707
-0.00128361065575
-0.00134520236969
-0.00139252022062
-0.00143357454274
-0.00147143676153
-0.00150578057332
-0.0015362946618
-0.00156056300748
-0.0015750772954
-0.00157341755733
-0.00154772986649
-0.00149189464067
-0.00139235939159
-0.00123207037465
-0.000974897719097
-0.000443374595358
-0.000429862348238
-0.000903262888323
-0.00111431459164
-0.00124580666653
-0.00133905661922
-0.00140488536993
-0.00145786696635
-0.00150784105044
-0.00155352618874
-0.00159296013211
-0.00162726561528
-0.00165368780358
-0.00167025734862
-0.00166908997911
-0.00163864533231
-0.00157328031843
-0.0014651446578
-0.00129229633495
-0.00101821883014
-0.000459697994911
-0.000435453132004
-0.00091762863911
-0.00113663205942
-0.00127714352778
-0.00137592114767
-0.00144494225218
-0.00150437580404
-0.00156308719848
-0.0016153164737
-0.00165830649327
-0.00169514417348
-0.0017226768606
-0.0017408452791
-0.00174119332481
-0.00170771173998
-0.00163354429639
-0.0015162403656
-0.00133341811099
-0.00104659747838
-0.000469530661695
-0.000437948362332
-0.000926055387688
-0.00115151619779
-0.00129937082457
-0.00140311270646
-0.00147564967071
-0.00154135515371
-0.00160584914334
-0.00166212415759
-0.00170711677519
-0.00174496343549
-0.00177271615894
-0.00179134894713
-0.00179205267223
-0.00175712612274
-0.00167631355937
-0.00155153536992
-0.00136106610626
-0.00106483277935
-0.00047517928627
-0.000438925414566
-0.000931635473839
-0.00116280600321
-0.00131627886649
-0.00142524101174
-0.00150211698249
-0.00157171950287
-0.0016391473415
-0.00169720178354
-0.00174274545242
-0.00178044083871
-0.00180770712405
-0.00182593625897
-0.00182604817281
-0.00178954813521
-0.00170517039254
-0.00157537829905
-0.00137892958996
-0.00107614140066
-0.000478240708322
-0.000439454519927
-0.000936193047133
-0.00117252875439
-0.00133059658916
-0.00144395985459
-0.00152414640786
-0.00159585835651
-0.00166436144365
-0.00172261330526
-0.00176763885544
-0.00180447730032
-0.00183089574335
-0.00184841368069
-0.00184772887074
-0.00180991839246
-0.00172331181045
-0.00159027501657
-0.00138876289568
-0.00108264434582
-0.000479873869286
-0.000440180424076
-0.000940339187549
-0.00118064406435
-0.00134255971128
-0.00145902698489
-0.00154122584607
-0.00161385423911
-0.00168235843943
-0.00173994413539
-0.00178392219792
-0.00181963748361
-0.00184503402053
-0.00186166218054
-0.00186010059751
-0.00182116853741
-0.00173294081139
-0.00159779222467
-0.00139378920136
-0.00108545412
-0.000480756561401
-0.000440957360849
-0.000943800841531
-0.00118676029327
-0.00135120416878
-0.00146927263199
-0.00155216092382
-0.00162464740245
-0.00169237393942
-0.00174882758761
-0.00179159601114
-0.00182615376758
-0.00185041537552
-0.00186588762784
-0.00186320458978
-0.00182315877205
-0.00173377949393
-0.00159761084864
-0.00139410865287
-0.00108438482853
-0.000480604717774
-0.000441068004874
-0.000945290116538
-0.00118920152933
-0.0013540717225
-0.00147256758518
-0.00155532072638
-0.00162648688045
-0.00169240664655
-0.00174707931982
-0.00178839907605
-0.00182163922595
-0.00184452241978
-0.00185826243303
-0.00185370326032
-0.00181219179917
-0.00172256884729
-0.00158700670362
-0.00138518820338
-0.00107775177454
-0.000478512472493
-0.000439386215121
-0.00094212932989
-0.00118432662209
-0.00134644094794
-0.00146447908706
-0.00154777915297
-0.00161584469589
-0.0016779549484
-0.0017295160904
-0.00176889245965
-0.00180035612991
-0.00182157953582
-0.00183270419124
-0.00182493976269
-0.00178128278141
-0.00169423230409
-0.00156143076962
-0.00136430123339
-0.00106282705467
-0.000473334974949
-0.000434177457067
-0.000930337299913
-0.00116711977392
-0.00132366395865
-0.00143803038722
-0.00152081065983
-0.00158528169424
-0.00164116303675
-0.00168787218513
-0.00172466724205
-0.00175363974892
-0.0017729834406
-0.00178069704199
-0.0017686009286
-0.00172437373715
-0.00164198198575
-0.00151740503397
-0.00132661198797
-0.00103571002682
-0.000463442320845
-0.000422930597345
-0.000904239363049
-0.0011307817759
-0.00127818730799
-0.00138325397905
-0.00146207572098
-0.00152208511142
-0.00157110997591
-0.00161194612394
-0.0016451156541
-0.00167108749759
-0.00168810668875
-0.00169251492673
-0.00167810209606
-0.00163555700791
-0.00156321206916
-0.00144475797554
-0.00126538031489
-0.000991173140509
-0.000446549964267
-0.000401964763475
-0.000855585802111
-0.00106572498726
-0.00119984870388
-0.00129326538422
-0.00136184580618
-0.00141452225193
-0.00145647614661
-0.0014909197231
-0.00151926138571
-0.00154128015435
-0.00155526785988
-0.00155687646744
-0.00154414692279
-0.00150777935312
-0.00144110258532
-0.00133398126649
-0.00117169825999
-0.000921818397431
-0.000419328818307
-0.000365430108047
-0.000771173693217
-0.000956804857302
-0.00107248252795
-0.00115069345884
-0.00120652111043
-0.0012484558967
-0.00128154018602
-0.0013084542185
-0.00133055044712
-0.00134771144409
-0.00135864423494
-0.00135985933535
-0.00134789848728
-0.00131702618791
-0.00126071857768
-0.00117016152016
-0.00103167327359
-0.000815695199598
-0.000376375978297
-0.000303273326058
-0.000624608885976
-0.000772416177666
-0.00086171066055
-0.000919539652664
-0.000959078208013
-0.000987725428817
-0.00100974798711
-0.00102744909871
-0.00104192512042
-0.00105311635206
-0.00106005030388
-0.00106047599018
-0.00105144122888
-0.00102891992503
-0.000987702926021
-0.000920478489519
-0.000815450303731
-0.000648126910433
-0.000308232031485
-0.00020731468033
-0.000303896483354
-0.000366591084708
-0.000404336115392
-0.00042763430963
-0.000442383812153
-0.000452015346306
-0.000458641708545
-0.000463553049297
-0.000467605517094
-0.000471093448914
-0.000473341211388
-0.000473334840432
-0.000469889237478
-0.000461334112553
-0.000445387039423
-0.00041875349279
-0.000376092332405
-0.000308069616272
-0.000208020946967
-0.000210787746242
-0.000313634472837
-0.000376178984106
-0.000411574738998
-0.000432466092557
-0.000445839438699
-0.000455588480433
-0.000463851666423
-0.000471799076694
-0.000480007672989
-0.00048846734615
-0.000496237853704
-0.000501991844924
-0.000503898645232
-0.00049951798365
-0.000485665192062
-0.000458055939982
-0.000410226463345
-0.000331238625031
-0.000212975136789
-0.000313266353092
-0.00062465628381
-0.00075379345007
-0.000825692720721
-0.000869883862401
-0.000900534316158
-0.000925635945856
-0.000949748339368
-0.000974963845415
-0.0010013425807
-0.00102795155675
-0.00105268057193
-0.00107232699942
-0.00108254914367
-0.00107771657453
-0.00105065794762
-0.000991886659548
-0.000887204509016
-0.000708810790559
-0.00033197223938
-0.000375041682172
-0.000752661061756
-0.000911883594489
-0.00100631836395
-0.001069516401
-0.0011166417874
-0.0011560475585
-0.00119308708711
-0.00123059281713
-0.00126831190463
-0.00130328374113
-0.00133453624066
-0.00135896101678
-0.00137047808704
-0.00136201012481
-0.00132488940799
-0.00124792789299
-0.00111458256393
-0.000890667485839
-0.000412049110305
-0.000409302200867
-0.000822822971532
-0.00100445375591
-0.00111817496644
-0.00119959763548
-0.00126230115335
-0.00131437969926
-0.00136302182287
-0.00140980690664
-0.00145407098204
-0.001496004973
-0.00153251628294
-0.00156031165509
-0.0015720170548
-0.00155746492416
-0.0015098880605
-0.00141843243351
-0.0012637089102
-0.00100722002841
-0.000462969716016
-0.000428411499995
-0.000863727861112
-0.00106398028672
-0.00119586527057
-0.00129161232806
-0.00136218729249
-0.00142233836007
-0.00148494892855
-0.00154348676483
-0.00159432360749
-0.00164214342084
-0.00168232231422
-0.00171541218618
-0.00173078621814
-0.00171028890926
-0.00164920527907
-0.00154204667994
-0.00136958705027
-0.00108730084048
-0.000496497858709
-0.000439046335151
-0.000888566662875
-0.00110457729801
-0.00125194962175
-0.00135191081668
-0.00142446615872
-0.00149502680229
-0.00157311906765
-0.00164329693768
-0.00170062638293
-0.00175348344121
-0.00179723470412
-0.00183687069713
-0.00185949544243
-0.00183737602272
-0.00176236683546
-0.00163567131042
-0.00144723236318
-0.00114424088474
-0.000518993246262
-0.00044499748253
-0.000905008960534
-0.00113449926156
-0.00129404561733
-0.00139106761716
-0.00146752793458
-0.00154792393552
-0.00163926082656
-0.00171948087604
-0.00178176649151
-0.00183899952747
-0.00188571857819
-0.00193083674361
-0.0019608183206
-0.00193910533241
-0.00185416895479
-0.00170821043909
-0.00150463426324
-0.0011852464496
-0.000534030721357
-0.000448542395508
-0.000917921547228
-0.00115895814504
-0.00132275798898
-0.00142528142583
-0.00150583241997
-0.00159366846721
-0.00169290181549
-0.0017795095651
-0.00184550855571
-0.00190551498983
-0.0019538141561
-0.00200160560398
-0.00203512941124
-0.0020141647736
-0.00192229381603
-0.00176599504573
-0.00154708749634
-0.00121462448408
-0.000543852898555
-0.000451106036873
-0.000930252362524
-0.00118251605891
-0.00135259375549
-0.00146052317744
-0.00154479960963
-0.00163593237021
-0.00173859254956
-0.00182851219826
-0.00189642884515
-0.00195710988601
-0.00200533067991
-0.00205320775095
-0.00208686481869
-0.0020648011466
-0.0019690406058
-0.00180602793804
-0.00157616335465
-0.00123502475313
-0.000550042092974
-0.000453595972026
-0.000943182146564
-0.00120617902813
-0.0013820039876
-0.00149472412816
-0.00158176179539
-0.00167443949988
-0.00177813128341
-0.00186867978192
-0.00193619738623
-0.00199568612731
-0.00204267904327
-0.00208955814273
-0.00212226800583
-0.00209881469586
-0.00200049792478
-0.00183325802001
-0.0015977881926
-0.00124858396302
-0.000553829704998
-0.000456484356947
-0.000956247973188
-0.00122616879723
-0.00140833784884
-0.00152502826538
-0.00161433083506
-0.00170794559142
-0.00181141540684
-0.00190066538352
-0.00196614090011
-0.002023447337
-0.0020685589384
-0.0021140006554
-0.00214558274091
-0.00212082792387
-0.00202047707928
-0.00185010248419
-0.00161027651522
-0.00125610910263
-0.000555889372521
-0.000459524802223
-0.000968445383766
-0.00124254178873
-0.00142915388259
-0.00154832276991
-0.00163905377077
-0.0017330178767
-0.00183540994623
-0.00192226390913
-0.00198492631559
-0.00203969686133
-0.00208263472054
-0.00212625537018
-0.00215637074685
-0.002130231885
-0.00202823861231
-0.00185577392189
-0.00161278146615
-0.00125716949613
-0.000555917760876
-0.000461886586252
-0.000977679275159
-0.0012533247488
-0.00144227916607
-0.00156290485259
-0.00165417674612
-0.00174718908939
-0.00184719090266
-0.00193062028063
-0.00198996359092
-0.00204181589572
-0.00208213700512
-0.00212284916982
-0.00214986127913
-0.00212111548852
-0.00201803618397
-0.00184575679761
-0.00160604487139
-0.00124990898964
-0.000552867688459
-0.00046215733831
-0.000980505627531
-0.0012537923578
-0.00144495493963
-0.00156653972789
-0.00165809737652
-0.00174647239174
-0.00184034006159
-0.00191829833277
-0.00197406856177
-0.0020226619339
-0.00206010984584
-0.0020961014934
-0.00211656879117
-0.00208273236812
-0.00198112634844
-0.00181275717359
-0.00158115144886
-0.00123065014641
-0.000545223652079
-0.000458258995217
-0.000972146269456
-0.00123720417679
-0.00142266965916
-0.0015500289223
-0.00164166440597
-0.00172311357542
-0.00180592584694
-0.00187543903609
-0.00192778107308
-0.00197305079323
-0.00200765061734
-0.0020368957608
-0.00204708322276
-0.00200858294946
-0.00191157513418
-0.00175646573862
-0.00153439223237
-0.001195019841
-0.000531004402085
-0.000447335498084
-0.000946760326271
-0.00119732123286
-0.00137065438154
-0.00149724169555
-0.00158907174407
-0.00166334186735
-0.00173331828604
-0.00179357250161
-0.00184166699133
-0.00188356482055
-0.00191513813709
-0.00193659865418
-0.00193644881424
-0.00189527125062
-0.00180744135367
-0.00166743916314
-0.00145783529711
-0.00113716607099
-0.000507663593218
-0.000425353662814
-0.000896363869039
-0.00112526468892
-0.00128026122402
-0.00139485875343
-0.00148131759786
-0.00154921668023
-0.00160834903914
-0.00165936581762
-0.0017030616877
-0.00174031371619
-0.00176850333655
-0.0017828690481
-0.00177497951735
-0.00173765240561
-0.00166014952607
-0.00153393120484
-0.0013420905718
-0.00104936941583
-0.000471652999258
-0.000385999602897
-0.000808253741253
-0.00100725137149
-0.00113841450201
-0.00123339253098
-0.0013059179414
-0.00136399470645
-0.00141268246076
-0.00145441143941
-0.00149135616848
-0.00152269433287
-0.00154730987795
-0.00155752029941
-0.00154878125402
-0.00151503845156
-0.0014481337053
-0.00133872741922
-0.0011728621454
-0.000919509582399
-0.000417201100129
-0.00031818547357
-0.000655726191257
-0.000812123355034
-0.000911084687438
-0.000980189499601
-0.00103218172728
-0.00107406892442
-0.00110975871937
-0.00114108554593
-0.001168604486
-0.00119148466329
-0.00120804646973
-0.00121438504026
-0.00120672708822
-0.0011802801305
-0.00112920231733
-0.00104592463143
-0.000918606862457
-0.000721953527728
-0.000333833409201
-0.000211474373926
-0.000319149579245
-0.000388557631339
-0.00043152403261