/*--------------------------------*- C++ -*----------------------------------*\
| =========                 |                                                 |
| \\      /  F ield         | OpenFOAM: The Open Source CFD Toolbox           |
|  \\    /   O peration     | Version:  3.0.1                                 |
|   \\  /    A nd           | Web:      www.OpenFOAM.org                      |
|    \\/     M anipulation  |                                                 |
\*---------------------------------------------------------------------------*/
FoamFile
{
    version     2.0;
    format      ascii;
    class       volVectorField;
    location    "6.2";
    object      U;
}
// * * * * * * * * * * * * * * * * * * * * * * * * * * * * * * * * * * * * * //

dimensions      [0 1 -1 0 0 0 0];

internalField   nonuniform List<vector> 
7968
(
(5.49227613213e-05 4.32337766186e-05 -9.84227563891e-05)
(0.000469370990306 -0.000149850959484 -0.000171854460537)
(0.00120291669862 -0.000247985854685 -0.000154930234773)
(0.00182322282589 -0.000285863941073 -6.68556460548e-05)
(0.00226116042064 -0.000254938976133 3.62119031494e-05)
(0.00240478382086 -0.000180204336089 0.000135694355508)
(0.00226831432099 -0.000102636416088 0.000207878630334)
(0.00187620370821 -2.63631782945e-05 0.00026391188472)
(0.00128870542776 3.02880023826e-05 0.000293345416497)
(0.000592292833727 5.8554754016e-05 0.000303337901779)
(-0.00012865446406 5.64382898697e-05 0.000298001092616)
(-0.000793278101831 2.60539293569e-05 0.00027933930784)
(-0.00132812527565 -2.78398860625e-05 0.000246038124844)
(-0.00167285316834 -9.61678963082e-05 0.000192451256987)
(-0.00179842048484 -0.000162176035162 0.000128060688667)
(-0.00168418858135 -0.000219187536128 4.29423008292e-05)
(-0.001340897476 -0.000235292043393 -4.52818679353e-05)
(-0.000860813252383 -0.000192800480882 -0.000122283487736)
(-0.000298661175072 -0.000103493445077 -0.00013878045724)
(-9.10957292294e-06 6.33534438313e-05 -7.62723105023e-05)
(-0.000131844466978 0.000408123844129 -0.000161638071873)
(0.000333073408355 0.000254564258541 -0.000856765545254)
(0.00129153601894 0.00022173185431 -0.00109085448301)
(0.00205423138651 0.000281928895894 -0.00106717149255)
(0.0025638759148 0.000428480116749 -0.000950397914531)
(0.00272501928013 0.000617971067111 -0.000796834670794)
(0.00255438116103 0.000791844995296 -0.000650855400955)
(0.00209676567945 0.00093519287665 -0.000520266947245)
(0.00142406300855 0.00102833125427 -0.000427572521604)
(0.000633754603133 0.00106971975907 -0.000384489762868)
(-0.000180293557769 0.00106047673759 -0.000391504947012)
(-0.00092813088417 0.00100291147087 -0.000443351998625)
(-0.00153037702961 0.000901543725311 -0.000531389719284)
(-0.00192074477368 0.000763685206063 -0.000642463946853)
(-0.00206141263437 0.000607971214691 -0.000760006256746)
(-0.00192341704057 0.000451121536551 -0.000876741174349)
(-0.00151468125496 0.000338403408275 -0.000960856496672)
(-0.000916684200286 0.000300333585523 -0.000968203673745)
(-0.000167090032111 0.000334331435618 -0.000758653005664)
(0.000158082223572 0.000460069506564 -0.000146999771042)
(-0.000228034701276 0.00107513764324 -0.000143587546792)
(0.000309390586892 0.00113827077247 -0.00109731217139)
(0.00141202499754 0.00124535680326 -0.00137169483749)
(0.00225362540777 0.00143408068212 -0.00129970404198)
(0.00279097613081 0.00169031736989 -0.00111470426031)
(0.00294342180723 0.00196961755886 -0.000898761473299)
(0.00273580681406 0.00221254185848 -0.000701949664752)
(0.0022280735884 0.00240327986826 -0.000539396912933)
(0.00149995299023 0.00252494915021 -0.000429309142337)
(0.000653472991443 0.00257400899801 -0.000380047779247)
(-0.000214128163473 0.00255486994941 -0.000391973701934)
(-0.00101121837859 0.00247200382747 -0.000458392940349)
(-0.00165617491005 0.00232951437373 -0.000568660678563)
(-0.00208122743697 0.00213834739866 -0.000712472769265)
(-0.0022428017046 0.00191368499304 -0.000873893367806)
(-0.00210408245244 0.00167287651541 -0.00103950636015)
(-0.00166548271149 0.0014612925441 -0.00117381501517)
(-0.000999905244109 0.00130926513098 -0.00121498686658)
(-0.000135242687249 0.00121847205353 -0.000968016741716)
(0.000242253472185 0.00114489123782 -0.000132954490853)
(-0.000267989395932 0.00164278351327 -6.0381529339e-05)
(0.000370706122471 0.00184461990249 -0.00109224484727)
(0.00160485057769 0.00203037203828 -0.00132104716122)
(0.00251812231373 0.00228913116744 -0.0011577277487)
(0.00307128954311 0.00260346915016 -0.000882307030969)
(0.00319691742847 0.00292751777648 -0.00059460772692)
(0.00293691237945 0.00320448460061 -0.000349111691118)
(0.0023658101737 0.00341758024447 -0.000160824289801)
(0.00157471173552 0.00355048660761 -4.32902685489e-05)
(0.000670591829788 0.00360221716024 4.44078801571e-06)
(-0.000249207542732 0.00357855213645 -1.49214960033e-05)
(-0.00109706158049 0.00348537458575 -9.40843819105e-05)
(-0.0017910441956 0.00332743254619 -0.000220806602892)
(-0.00226083460504 0.00311437050776 -0.000399296871186)
(-0.00245639437064 0.00286007444255 -0.00060818603386)
(-0.00233109081208 0.00258053807339 -0.00083552649531)
(-0.00187329549093 0.00231896503397 -0.00104318824492)
(-0.00114739213595 0.00210400518626 -0.00115738560973)
(-0.000177790035868 0.00194016809724 -0.000947951732675)
(0.000278110961252 0.00173924195192 -5.36711409993e-05)
(-0.000242519748698 0.00204955786842 3.35063410017e-05)
(0.00051395545983 0.00232549876732 -0.000998270313236)
(0.00186163880091 0.00254161920826 -0.00116218064387)
(0.00283432917748 0.00281661574252 -0.000908352496824)
(0.00339130292482 0.00313459655862 -0.000546316789274)
(0.00347831838217 0.00345456106766 -0.000191575127231)
(0.00315596598518 0.00372298396687 9.33873861784e-05)
(0.00251154884456 0.00392685535905 0.00030475202463)
(0.00165172931878 0.00405217216535 0.00043030331221)
(0.000687402888181 0.00410003749624 0.000474662479577)
(-0.000286692195914 0.00407681647008 0.000447066444601)
(-0.00118564220177 0.00398898689672 0.000355700157779)
(-0.00193235537228 0.00384246764153 0.00020557472806)
(-0.00245453416895 0.00364277934805 -3.13105862623e-08)
(-0.00269198526768 0.00340139730078 -0.000248129809051)
(-0.00259010244243 0.00313086722527 -0.000532491348665)
(-0.00212457238565 0.002869488389 -0.000809854039618)
(-0.00135020383328 0.00264040349326 -0.000996134004312)
(-0.000290637722236 0.00244771799012 -0.0008410201554)
(0.000257751832075 0.00217380140342 4.04690258885e-05)
(-0.000173730886075 0.00219081538985 0.0001241556784)
(0.000699261346348 0.00249080792937 -0.00086622638302)
(0.00214125706586 0.0027005928962 -0.000970201439102)
(0.00316103662797 0.00294984336138 -0.000643692024446)
(0.00371479098819 0.00323002863564 -0.000213219753677)
(0.00375510928748 0.00350377999432 0.00018646462644)
(0.00336868141978 0.003731102657 0.000500267168771)
(0.002652840802 0.00390366782831 0.000722464922372)
(0.00172631593446 0.00400855991941 0.000845822844182)
(0.000704957063545 0.00404772926246 0.000882476670609)
(-0.000318901351896 0.0040286724199 0.000847372519944)
(-0.00126550709215 0.00395808032303 0.000749725480032)
(-0.00206186760709 0.00384060871006 0.000590448162707)
(-0.00263432337381 0.00368080591879 0.000370404306649)
(-0.00291677302402 0.00348728113778 9.62191562015e-05)
(-0.00284558966448 0.00326504565601 -0.00022690838193)
(-0.00238112155382 0.00304357358483 -0.000556299552542)
(-0.00157071076427 0.0028397406164 -0.000799100857584)
(-0.000441856886325 0.002652831273 -0.000695555812525)
(0.000196682222047 0.00235174718472 0.000135923255504)
(-9.99035105815e-05 0.00206940150683 0.00019022108262)
(0.000871065734393 0.00234560360929 -0.000735929376849)
(0.00238698031097 0.00252198722705 -0.000790433506237)
(0.00344339928007 0.00272052163127 -0.000413528016061)
(0.00398942634058 0.00293968668083 5.80629802214e-05)
(0.00398784111764 0.00315020105543 0.000487438109765)
(0.00354824080014 0.00332579925999 0.000815073169097)
(0.00277168559494 0.00345843903538 0.0010393621767)
(0.00178919980202 0.00353690200896 0.00115533922818)
(0.000721540152394 0.00356556768062 0.00118203200764)
(-0.000340948983826 0.00355290482827 0.00113988388167)
(-0.0013235883791 0.00350533242946 0.00103958278373)
(-0.00215820392231 0.00342580638642 0.000878812833876)
(-0.00277130412324 0.00331636569003 0.000654708428465)
(-0.00309027401301 0.00318202685703 0.00037153742215)
(-0.00304902290061 0.00302486058685 2.69323391456e-05)
(-0.0025915146738 0.00286340215048 -0.000331220770967)
(-0.00175852515892 0.00270700694077 -0.000611324643908)
(-0.00058207673878 0.00254947660037 -0.000551316966162)
(0.00013098659191 0.00226914503174 0.000208754753862)
(-2.52408037418e-05 0.00171222638891 0.000244639613683)
(0.00101491730056 0.00193153822176 -0.000615397153209)
(0.00258220266167 0.00206056579095 -0.000638012083187)
(0.0036638555859 0.00219720035279 -0.000231107496332)
(0.00420137895243 0.00234367734162 0.000264711541922)
(0.0041677968618 0.00248397843007 0.00070649068364)
(0.00368641436506 0.0026002361792 0.0010377172174)
(0.0028616642953 0.00268676159842 0.00125765643461)
(0.00183660217039 0.00273819805666 0.00135365309311)
(0.000734372900355 0.00275718553153 0.00136291493733)
(-0.000354384989719 0.00275050549049 0.00131618832512)
(-0.00135727562464 0.00272552826231 0.0012271504017)
(-0.0022168767474 0.00268921400497 0.00107278377934)
(-0.00285920842825 0.00263688024773 0.000853217529644)
(-0.00320570292447 0.00256910965572 0.000572442985237)
(-0.00318901990929 0.00248493475147 0.000222527596107)
(-0.00274209014502 0.00239367137288 -0.0001489927088)
(-0.00189890452443 0.00229565982177 -0.00044881503696)
(-0.000695410062865 0.00218201621121 -0.000418635696183)
(6.71979308656e-05 0.00195478414666 0.000264789878991)
(3.1490360027e-05 0.0011663570685 0.00027356087876)
(0.00111131958006 0.00130690390815 -0.000524786445449)
(0.00271161681928 0.00138292517417 -0.00052972760602)
(0.00380741219458 0.00145750772526 -0.000114778692647)
(0.00433720875662 0.0015344120157 0.000395084785556)
(0.00428255972767 0.00160817879289 0.000838444626957)
(0.00377287828461 0.00166887654667 0.00116535577084)
(0.00291841929497 0.00171491639951 0.00136744753839)
(0.00186446335884 0.00174040121309 0.00144601431827)
(0.000743529941751 0.0017501978375 0.00144617800549)
(-0.000354807601079 0.00175280351386 0.00139095554936)
(-0.00136616772857 0.00175476649687 0.00129869248352)
(-0.00223112171612 0.0017566313988 0.00116724101025)
(-0.00288938655816 0.00175678781576 0.000960254742496)
(-0.00325333345334 0.00174988895841 0.000690440813601)
(-0.00325511108722 0.00173417795866 0.000346426667964)
(-0.00282118089034 0.00170894809462 -2.76406153515e-05)
(-0.00197984468786 0.00166904326578 -0.000329861650788)
(-0.000767812954915 0.00160482916954 -0.000317074516518)
(1.79255610973e-05 0.00145003023426 0.000298759952661)
(6.23279708977e-05 0.000505000645636 0.000284785822039)
(0.00115776161853 0.000556618340127 -0.000476141182533)
(0.00276986836589 0.000577736732599 -0.000473030933726)
(0.0038698842771 0.000593935200335 -5.67172005816e-05)
(0.00439524273702 0.000608991728364 0.000453775806421)
(0.00433049309007 0.000623938634815 0.000892839384735)
(0.00380825879147 0.000636609742134 0.00121252611583)
(0.00294206932354 0.000647156387218 0.00139926085007)
(0.00187684681813 0.000654214145912 0.00147114854046)
(0.000753707299502 0.000663104386523 0.00146086968722)
(-0.000340829021493 0.000678367614601 0.0013994457625)
(-0.00134612626695 0.000704020494947 0.00130679187597)
(-0.00220753249755 0.000740753582176 0.00118304934399)
(-0.00286581489698 0.000784479801871 0.00099185576136)
(-0.00323628577392 0.000829113914784 0.000733975339051)
(-0.00324893323122 0.000872459031058 0.000400708434025)
(-0.00282784980743 0.000904783232671 3.35866100766e-05)
(-0.00199808540419 0.000918434004038 -0.000264393605545)
(-0.000796133415807 0.00090512791925 -0.000260247782569)
(-8.91635430411e-06 0.000833907112177 0.000313458459644)
(6.46721713166e-05 -0.000191854114687 0.000281562162601)
(0.00115467021218 -0.000231532190927 -0.000473200210681)
(0.00275898338285 -0.000264358153828 -0.000471371906844)
(0.00385451184823 -0.000303020266409 -5.9116395847e-05)
(0.00437857889901 -0.000345576953135 0.000446511266206)
(0.00431540902009 -0.000384543503385 0.000880957455212)
(0.00379695527797 -0.00041481120658 0.00119614962486)
(0.00293620974412 -0.000435518823281 0.0013788471915)
(0.00187921994057 -0.000440003390339 0.00144551998177)
(0.000767641736906 -0.000427541676787 0.0014305255743)
(-0.000312334496034 -0.000397111925191 0.00136614295302)
(-0.00130162178006 -0.000348191095726 0.00127347278831)
(-0.00214798409128 -0.000280440803587 0.0011530881335)
(-0.00279562170655 -0.000198435198784 0.000966354661252)
(-0.00316122723723 -0.000108048794971 0.000716001718097)
(-0.00317622050627 -1.21986496089e-05 0.00039260587187)
(-0.00276691774511 7.23977391923e-05 3.52469869475e-05)
(-0.0019568601559 0.000135415396096 -0.000255265972363)
(-0.000781397835093 0.000171142392461 -0.000251166634811)
(-1.05515428088e-05 0.000184414104177 0.000310626668974)
(3.8887117401e-05 -0.000844539382745 0.000265057612224)
(0.00110252041032 -0.000969814155351 -0.000514164318872)
(0.00268026646041 -0.00105434361537 -0.000522753428682)
(0.00376355297286 -0.00114760990582 -0.000119484997393)
(0.00428995479857 -0.00124775825578 0.000375774496848)
(0.00424000865737 -0.00134114141356 0.000805805641136)
(0.00374167495249 -0.00141428930278 0.00111984531274)
(0.0029037702274 -0.00146379666991 0.00131135581405)
(0.00187438941269 -0.00148101036936 0.00137564983398)
(0.000787331626601 -0.00146413972264 0.001362982414)
(-0.000268850995308 -0.00141774361973 0.00130008286421)
(-0.00123372670535 -0.00134424461977 0.00120815070384)
(-0.00205682089696 -0.00124507475381 0.00108138231109)
(-0.00268234011916 -0.00112475400199 0.000891751021334)
(-0.00303238543539 -0.000988801809892 0.000644115063041)
(-0.00304122169689 -0.000841623239176 0.000329063496196)
(-0.00264186597561 -0.000706013251848 -1.6471097684e-05)
(-0.00185851411462 -0.000595009469064 -0.000296773815518)
(-0.000723971656084 -0.000513108811608 -0.000283930229712)
(1.19195170177e-05 -0.000423542757599 0.000292816867694)
(-1.26923604777e-05 -0.00138022782673 0.000232623877212)
(0.00100319338405 -0.00157802805466 -0.00059380712687)
(0.00253578111048 -0.00170950832494 -0.000621114961492)
(0.00359827262582 -0.00185733379225 -0.000232877359743)
(0.00413102008351 -0.00201882071988 0.000240686932495)
(0.0041060753868 -0.00217015737838 0.000661908212172)
(0.00364353734717 -0.00228954657356 0.00097383620237)
(0.00284761319309 -0.00236971525718 0.0011748922307)
(0.00186162173202 -0.00240043356442 0.00125614840527)
(0.000812960008257 -0.00238476013193 0.00124823917911)
(-0.000209543113037 -0.00232391337968 0.00119217503811)
(-0.00114190036079 -0.00222564578072 0.0010972623509)
(-0.00193447706288 -0.00209484059266 0.000955667541586)
(-0.00252614021892 -0.00193200776375 0.000763762272793)
(-0.00285093946944 -0.00174663695247 0.000518298084814)
(-0.00284623330425 -0.00154580123003 0.000214109742655)
(-0.00245518287251 -0.00135743501995 -0.000112930726153)
(-0.00170511233324 -0.00119872737071 -0.000377751961656)
(-0.000625769601146 -0.0010750831636 -0.000348623701209)
(5.55201879038e-05 -0.000924484809664 0.000262361051199)
(-8.15563558286e-05 -0.00173357922887 0.000178639064174)
(0.000860902249097 -0.00198211175545 -0.000700056238808)
(0.00233290812018 -0.0021534625749 -0.000758232002456)
(0.00336609656062 -0.00235361730085 -0.00040463075553)
(0.00390715461253 -0.00257625685962 3.98334597457e-05)
(0.0039185045588 -0.00278638221411 0.000444179841751)
(0.00350524233148 -0.00295373034656 0.000748930307402)
(0.0027679739812 -0.00306877874378 0.000951347762568)
(0.00183874654197 -0.00311792358952 0.00104617364645)
(0.00083994871332 -0.00310397791889 0.00105500525304)
(-0.000139014250101 -0.00303437166405 0.00100221844646)
(-0.0010304169712 -0.00291488099207 0.0009035216152)
(-0.00177927568112 -0.00274966838288 0.000761475340631)
(-0.00232832312109 -0.00254408038536 0.000572700800352)
(-0.00261955762967 -0.00230892591686 0.000335586340029)
(-0.00259591941101 -0.002055668504 5.00221112441e-05)
(-0.00221281721442 -0.00181580004018 -0.00025029789545)
(-0.00150304869707 -0.00161283335031 -0.000487086797509)
(-0.000493136689805 -0.00145495114671 -0.000433026635017)
(0.000114051438994 -0.00126166875924 0.000219635861582)
(-0.000149704631294 -0.00186401300053 0.00011529098798)
(0.000695158364241 -0.00213340690909 -0.000814831620872)
(0.00208799622514 -0.00233151295579 -0.000918462359228)
(0.00308291026976 -0.00257286741362 -0.000616139787903)
(0.00363232739368 -0.00284502982447 -0.000215047755758)
(0.00368953055671 -0.00310699221472 0.000158438754638)
(0.00333615040413 -0.0033155345502 0.000448861601357)
(0.00266849489389 -0.00346078434801 0.000649557941991)
(0.00180584051062 -0.00352867080466 0.000753008140457)
(0.000865501922935 -0.00352126353035 0.000773214580085)
(-6.12983139867e-05 -0.00344611860196 0.000729302095111)
(-0.000902707847009 -0.00331030805243 0.000635912324657)
(-0.00160034642645 -0.00311971136703 0.000498781631217)
(-0.00209946027874 -0.00288074543277 0.00031949724507)
(-0.00235033786008 -0.00260562225981 9.99906674802e-05)
(-0.00230345379996 -0.00230968679981 -0.000154567645975)
(-0.00192945332637 -0.00202946045067 -0.000417339587977)
(-0.00126763003422 -0.00179363577553 -0.000611929573811)
(-0.000341475817279 -0.00161350869218 -0.000522614696174)
(0.000173740646312 -0.00140084232898 0.000166052924368)
(-0.000211460632935 -0.00175239973915 3.05587776284e-05)
(0.000521644656688 -0.00200039303408 -0.000931119594378)
(0.00181915177249 -0.0022007261711 -0.00108818151981)
(0.00276722056295 -0.00245977363409 -0.000854951491572)
(0.00332136535878 -0.00275945471914 -0.000519471040551)
(0.00342751905068 -0.00305655969515 -0.000189536302869)
(0.00314254405195 -0.00329698604021 7.34770345285e-05)
(0.00255288016844 -0.00346650586704 0.000265192592879)
(0.00176512892667 -0.0035510362907 0.000373094167181)
(0.00089078381544 -0.0035523791866 0.000404114140993)
(2.29805476221e-05 -0.00347804374395 0.000371537896535)
(-0.000762290725622 -0.00333518549571 0.000289046797197)
(-0.00140376128643 -0.00313142997439 0.000165602873557)
(-0.00184938842712 -0.00287364070827 6.22867890312e-06)
(-0.00205657727561 -0.00257536015043 -0.000181430397131)
(-0.00198700419237 -0.00225702360995 -0.000393871927337)
(-0.00162503754481 -0.00195863225855 -0.000601980547844)
(-0.00101769482028 -0.00171204840012 -0.000740588360463)
(-0.000186782698737 -0.00152972053369 -0.000610241370465)
(0.000227004093581 -0.00133332005737 9.66570438141e-05)
(-0.000232350881717 -0.00139864373057 -5.76333337532e-05)
(0.000390813621653 -0.00158110482404 -0.00101526490015)
(0.00157764024317 -0.00175179818852 -0.00122919359579)
(0.00246848172727 -0.00199167460809 -0.00107905327802)
(0.00302047310129 -0.00228268595723 -0.000823602054003)
(0.00316778066669 -0.00257878442546 -0.000555037844031)
(0.00294772985814 -0.00282350467253 -0.000325992881891)
(0.00243484118216 -0.00299995330447 -0.000151361595862)
(0.00172020099211 -0.00309346148801 -4.67517115319e-05)
(0.000910223018545 -0.00310430409377 -7.74126285918e-06)
(0.000100668778087 -0.00303996267488 -2.80479360847e-05)
(-0.000630000742213 -0.00290694799419 -9.51245362223e-05)
(-0.00121666845289 -0.0027117215311 -0.000194678590255)
(-0.00161000267464 -0.0024635734095 -0.000326222550444)
(-0.00177711278768 -0.00217619090871 -0.00047497066884)
(-0.00168946418245 -0.00187135895957 -0.000632113513586)
(-0.00134395677947 -0.00159020685324 -0.000773890937029)
(-0.000795600175911 -0.001366305861 -0.000846265566906)
(-6.97077507342e-05 -0.0012093782825 -0.000673292635486)
(0.00024565744039 -0.00106163072938 2.74073125803e-05)
(-0.000192370451705 -0.000900257321984 -0.000134940731699)
(0.000338597528926 -0.000959816520112 -0.00101960138114)
(0.00140052902677 -0.00105822086173 -0.00127364331782)
(0.00222283475066 -0.00123189498144 -0.00120653189709)
(0.00276011730744 -0.00146704459462 -0.00103317792698)
(0.00293526469799 -0.00171962641793 -0.000829164062986)
(0.00276819541551 -0.00193332019277 -0.000642460082374)
(0.00231985425261 -0.00209226461842 -0.000488863417127)
(0.00166930815869 -0.00218221132125 -0.00038645772249)
(0.000917755728859 -0.00220148596006 -0.000341771119707)
(0.00016083770451 -0.00215597860563 -0.000351720158084)
(-0.000519690701515 -0.00205070917161 -0.000404918893369)
(-0.00105902240182 -0.00189074709577 -0.000487549289245)
(-0.00140969564549 -0.00168578841986 -0.000587520877454)
(-0.00154533556452 -0.00144883669661 -0.00069310529995)
(-0.00144750692564 -0.00120101502316 -0.000794144189888)
(-0.00112437837792 -0.0009813859585 -0.000870072268751)
(-0.000638073679508 -0.000821693099999 -0.000877876234884)
(-1.76587578486e-05 -0.000727129749756 -0.000673460098021)
(0.000219746559265 -0.000667037774984 -2.81466542855e-05)
(-0.000102209610816 -0.000314193332039 -0.000150592386397)
(0.000365091172543 -0.000176057498264 -0.000797331877863)
(0.00129323788681 -0.000148887308511 -0.00101466545615)
(0.00203960784111 -0.000205201965043 -0.000991521616925)
(0.00254957444027 -0.000337688869676 -0.000879685507184)
(0.00273355809783 -0.000508225600215 -0.000732168329509)
(0.00260175389774 -0.000662223340841 -0.000591200012337)
(0.002202359022 -0.000784646618534 -0.000466044502634)
(0.00160566521141 -0.000859478544666 -0.000377847655009)
(0.000907707062969 -0.000886637651022 -0.00033766038204)
(0.000200430717026 -0.000868110239173 -0.000343401761342)
(-0.000435715430702 -0.000806349944445 -0.000385494288642)
(-0.000937197451957 -0.000706142033708 -0.000451367439455)
(-0.0012574069688 -0.000574652182575 -0.000526932698907)
(-0.00137533453833 -0.000425170091116 -0.000600031400865)
(-0.00127801356914 -0.000276020138196 -0.000663510442378)
(-0.000981250548672 -0.000163347690953 -0.000700311238809)
(-0.000554269991283 -0.000113194681507 -0.000680241074444)
(-3.18620080197e-05 -0.000122663469102 -0.000501717513739)
(0.000158955792766 -0.000209464075445 -2.94950383584e-05)
(7.17375859928e-05 -1.23269743224e-05 -8.74822438402e-05)
(0.000493845234824 0.000163666733526 -0.00015883054746)
(0.00121304759328 0.000250399090388 -0.000142873513489)
(0.00182821109762 0.000284128677513 -5.95347159128e-05)
(0.00226815726313 0.000257505368522 3.8559997247e-05)
(0.0024312818822 0.000190393622116 0.000135240782725)
(0.00232850354112 0.000120933427764 0.000206621620484)
(0.00198903005476 5.44633307541e-05 0.000260601119877)
(0.00147009534028 5.50885668254e-06 0.000288883695347)
(0.000856455144753 -1.80271342316e-05 0.000297312015988)
(0.000230082024418 -1.63025956877e-05 0.000288964600129)
(-0.000337718721532 8.5730610796e-06 0.000267472001637)
(-0.000788376969876 5.22435856486e-05 0.000235553966118)
(-0.00107605244778 0.000108365343888 0.000193425282539)
(-0.00118503022043 0.000164764064314 0.000144554416836)
(-0.00110811351836 0.000212825171357 8.50048784624e-05)
(-0.00086173186613 0.000228525889058 2.56251874455e-05)
(-0.000519727606937 0.000198839530507 -2.26730244906e-05)
(-0.000134463435639 0.000136706546118 -2.30021681465e-05)
(3.33055528191e-05 1.52272410072e-05 3.85389449583e-05)
(0.00031346099037 0.000305897103277 -0.000875033256898)
(0.000948160614742 0.000427533440089 -0.00114802147514)
(0.00167911811342 0.000534607955962 -0.00119184200017)
(0.00222990115127 0.000634232008322 -0.00104383515095)
(0.00255761363127 0.000719081994502 -0.000815365779147)
(0.0026064197669 0.000785347854738 -0.000569089814236)
(0.00238709926303 0.000828272015715 -0.000346007894596)
(0.00193034358744 0.000852482014315 -0.000163003881557)
(0.00130211815503 0.000861358973832 -4.20157762945e-05)
(0.000581408628556 0.000861731750679 9.11850905653e-06)
(-0.000156843033029 0.000857166389026 -6.28370963184e-06)
(-0.000840618598749 0.000847393044308 -8.09493632524e-05)
(-0.00140703142669 0.000829128799821 -0.000205889462635)
(-0.00180087126624 0.000798101479185 -0.00036885955699)
(-0.00198590403686 0.000752437697101 -0.000553835243362)
(-0.00194849547935 0.000689480778586 -0.000750086689893)
(-0.00169727277694 0.000614143398012 -0.000926333190305)
(-0.0012823071201 0.000525837466532 -0.00103853503172)
(-0.000731180983612 0.000423048151865 -0.000993320988191)
(-0.000247983286453 0.000293526066542 -0.000753016381979)
(0.000461354312107 0.000885105567665 -0.00113198021146)
(0.00112442698025 0.00102323924891 -0.00199884670979)
(0.00180772385036 0.00115700361154 -0.00220656372713)
(0.0022978293337 0.00130943340125 -0.00207040136691)
(0.00256598561905 0.00146316412448 -0.00178874405855)
(0.00258093678186 0.00160260724597 -0.00146061827267)
(0.00234796642011 0.00171371062938 -0.001148355301)
(0.00189839629975 0.00179284998889 -0.000889913454893)
(0.00128897650768 0.00183933647204 -0.000714236784685)
(0.000589874656186 0.00185775212741 -0.000635897587497)
(-0.000127227461306 0.00185136819996 -0.000655444154453)
(-0.000793232538481 0.00182089464507 -0.000763232290427)
(-0.00134783452696 0.00176499545489 -0.000943032571299)
(-0.00174171513966 0.00168143134937 -0.00117340545893)
(-0.00194200149365 0.0015726636343 -0.0014293012799)
(-0.001935515904 0.00144338589749 -0.00168184933353)
(-0.00173107544358 0.00130538155445 -0.00188497294534)
(-0.00136259943363 0.00116799853136 -0.00196564392298)
(-0.000850739905924 0.00103751814174 -0.00176487575251)
(-0.000362939876804 0.000882385098705 -0.00100934743576)
(0.000582393115301 0.00154298248807 -0.00118651352749)
(0.00127473437457 0.00164373238897 -0.00222340218219)
(0.00194407819422 0.0017683267508 -0.00240975115301)
(0.00239392307855 0.00193534824189 -0.00218219510613)
(0.00261946767416 0.00212313577302 -0.00179589547772)
(0.00260234274635 0.00230854760918 -0.00137430932537)
(0.00234986342302 0.00246918276338 -0.000990274844931)
(0.00189455498416 0.00259297755302 -0.00068543254601)
(0.00129005711643 0.00267291851159 -0.00048535065113)
(0.000601257855012 0.00270970005504 -0.000400266308904)
(-0.000105061029538 0.00270492949286 -0.000427713066147)
(-0.000764040566354 0.00266014098007 -0.000557293406127)
(-0.00131961424233 0.00257755002553 -0.000773453785593)
(-0.00172500657777 0.00245699575576 -0.00105610559929)
(-0.00194702889812 0.00230730711771 -0.00138070913822)
(-0.00197066108417 0.00213917499879 -0.00171368295002)
(-0.00180115581056 0.00197024460272 -0.00200036255461)
(-0.00146321310761 0.00181679940971 -0.00214860718509)
(-0.000961467810531 0.00169088450856 -0.00195628568961)
(-0.000458873450431 0.00156728934332 -0.00105306929598)
(0.000689179550305 0.00204193192023 -0.00106632842604)
(0.00143445661565 0.00209041375099 -0.00212382566362)
(0.002116209144 0.00217800892896 -0.00221981930728)
(0.00254995471383 0.00232947371956 -0.00186330890945)
(0.00274690994149 0.0025206373271 -0.00135207108745)
(0.00269841241691 0.00272282441038 -0.000827752612705)
(0.00241817770038 0.00290719985613 -0.000370055437414)
(0.00194162031775 0.00305705745269 -2.12531020979e-05)
(0.00132314269879 0.00316001652146 0.000198288761667)
(0.000624989239499 0.00321142274515 0.000285722358589)
(-9.02506189308e-05 0.00321117886304 0.000248345838725)
(-0.00076017450314 0.00316156081393 9.75125043833e-05)
(-0.00133374228611 0.00306633690489 -0.000153557559628)
(-0.00176461162852 0.00293180102223 -0.000488712452227)
(-0.00201586528293 0.00276891289476 -0.000886594633935)
(-0.00206981252761 0.00259213462954 -0.00131264775306)
(-0.00192555379173 0.00242332578549 -0.00170670372877)
(-0.00159982147202 0.00228315196627 -0.00196102555527)
(-0.00108592345009 0.0021867946599 -0.00184024914396)
(-0.000542979204354 0.00210295889673 -0.000921417127332)
(0.00077942725236 0.00234358011347 -0.000873605949708)
(0.00159298908751 0.00233740403112 -0.0018854120696)
(0.0023072971793 0.00238297590101 -0.00187781281445)
(0.00274439471057 0.00250449492489 -0.00139612275055)
(0.00292448253286 0.00267703417851 -0.000765199076549)
(0.00284876259992 0.00287115495647 -0.000143869093323)
(0.00253897677599 0.00305824090399 0.000380434228179)
(0.0020335845386 0.00321621741626 0.000766900256449)
(0.00138642902916 0.00332929992491 0.00100144214458)
(0.000660915924876 0.00338896652883 0.00108887710972)
(-8.05515220765e-05 0.00339396084852 0.0010418827733)
(-0.000778705801327 0.00334718348718 0.000873416311213)
(-0.00138142923678 0.00325334309473 0.000593212346453)
(-0.001842190648 0.00312369009733 0.000212334406798)
(-0.00212511271806 0.00296979973476 -0.000251094788579)
(-0.00220722633894 0.00280873733242 -0.000763386271143)
(-0.00208002894039 0.00266200422089 -0.00125915268803)
(-0.00175166105861 0.00255067139887 -0.00161830789133)
(-0.00120869221101 0.00249063622151 -0.00158316927572)
(-0.000610520557111 0.00244816510432 -0.000710848770215)
(0.000850410201649 0.00239313286846 -0.00065940386747)
(0.00173658836674 0.0023531460366 -0.0015973902704)
(0.00249572239031 0.002364461549 -0.00149718701047)
(0.00294950253186 0.00245173200067 -0.000912081104264)
(0.00312294878992 0.00259413807158 -0.000183421574852)
(0.00302808327497 0.00276661715117 0.000513963133573)
(0.00269059215477 0.0029400138865 0.00108711463251)
(0.0021506847994 0.00309046759418 0.0014997396177)
(0.00146701386145 0.00320096968019 0.0017427758426)
(0.0007049887709 0.00326223465997 0.00182763212391)
(-7.21073408423e-05 0.00327204748907 0.00177221587281)
(-0.000805573694902 0.00323381182835 0.00159146641814)
(-0.00144319780958 0.00315418232438 0.00129224808684)
(-0.00193782100631 0.00304320949746 0.000880476954289)
(-0.00225021694868 0.00291334109419 0.000370431809478)
(-0.00235438041146 0.00278189410995 -0.000206825750464)
(-0.00223694015956 0.00266947890754 -0.000782558411774)
(-0.00189648965489 0.00259273301328 -0.00122661865946)
(-0.00131645243603 0.00256425918974 -0.00126999527058)
(-0.000660440323122 0.00254744096287 -0.000470719603739)
(0.000896714222804 0.00219489320477 -0.000461465054596)
(0.00185140702987 0.00213866113583 -0.00131637924396)
(0.0026594556781 0.00212712844501 -0.00114445505428)
(0.00313680296119 0.00218358601744 -0.000484296836417)
(0.00331375716557 0.00229258854609 0.000312849582679)