/*--------------------------------*- C++ -*----------------------------------*\
| =========                 |                                                 |
| \\      /  F ield         | OpenFOAM: The Open Source CFD Toolbox           |
|  \\    /   O peration     | Version:  3.0.1                                 |
|   \\  /    A nd           | Web:      www.OpenFOAM.org                      |
|    \\/     M anipulation  |                                                 |
\*---------------------------------------------------------------------------*/
FoamFile
{
    version     2.0;
    format      ascii;
    class       volScalarField;
    location    "9.5";
    object      nut;
}
// * * * * * * * * * * * * * * * * * * * * * * * * * * * * * * * * * * * * * //

dimensions      [0 2 -1 0 0 0 0];

internalField   nonuniform List<scalar> 
7968
(
7.61306574597e-05
8.41533939378e-05
8.98446412982e-05
9.31229105232e-05
9.47170806169e-05
9.5132056713e-05
9.48570099319e-05
9.41036919984e-05
9.32047483242e-05
9.24525228513e-05
9.22283389546e-05
9.28093676666e-05
9.36551781402e-05
9.441098871e-05
9.47278941894e-05
9.43524090536e-05
9.28416332971e-05
8.96437520043e-05
8.40184974341e-05
7.60457249877e-05
8.4182221419e-05
0.000105398134357
0.000116630885565
0.000122087223693
0.000124060353675
0.000123884358778
0.000122638817637
0.000120890611447
0.000119248591372
0.000118184489288
0.000117987332044
0.000118781136912
0.000120266372622
0.00012196194873
0.000123224090642
0.000123423514147
0.000121545322419
0.000116203363338
0.000105096549793
8.3982415559e-05
8.98854229004e-05
0.000116600158336
0.000129974689423
0.000136314389158
0.000138535959533
0.000138271722051
0.00013675283906
0.000134772524985
0.000132993827555
0.000131875387645
0.000131672413442
0.000132495829991
0.000134094122675
0.000136005158838
0.000137526019527
0.000137826481634
0.000135695990911
0.000129479881187
0.000116243370079
8.96082939085e-05
9.31542715486e-05
0.000122027283273
0.000136280621791
0.000142938178124
0.000145164862642
0.000144782945417
0.000143144827374
0.000141227144994
0.00013982686251
0.000138936013974
0.000138763694623
0.000139405064525
0.000140629346239
0.000142354585466
0.000143979002855
0.000144402895842
0.000142270317825
0.000135738847329
0.000121623617984
9.28166521693e-05
9.47339167455e-05
0.000123980876652
0.000138482328066
0.000145142765473
0.000147216824927
0.000147362535069
0.000146926577031
0.000145844433048
0.000144675999877
0.000143849665403
0.000143672371456
0.000144249510483
0.000145277735933
0.000146314136934
0.000146741261096
0.000146428996734
0.000144428251285
0.000137891878645
0.000123521929064
9.43396787033e-05
9.51491488128e-05
0.000123815987928
0.00013822005433
0.000144752486856
0.000147333633986
0.00014877021232
0.000148856403071
0.000148006296822
0.000146865089731
0.00014600068401
0.000145800711229
0.000146391902921
0.000147402118512
0.000148245811468
0.000148207273453
0.000146771471545
0.000144010477686
0.000137589195233
0.000123309810233
9.47133727319e-05
9.48690340593e-05
0.000122584835906
0.000136716721978
0.000143121011073
0.000146890361515
0.000148846873262
0.000149079453526
0.000148169815544
0.000146869264136
0.000145857390071
0.000145618544245
0.000146313020464
0.000147474464737
0.000148398102295
0.000148255286527
0.000146352039672
0.000142374817846
0.00013605155136
0.000122037633461
9.44084789833e-05
9.41233893933e-05
0.000120885338144
0.000134793704834
0.000141211035203
0.00014584085069
0.00014803870764
0.000148220101587
0.000147071022022
0.000145442940917
0.000144179362727
0.000143886598577
0.000144768048712
0.000146241909534
0.000147423318232
0.000147369663789
0.000145288062552
0.000140668372522
0.000134083773173
0.000120297854443
9.36527481342e-05
9.32547502947e-05
0.00011934317842
0.00013313373024
0.000139885805301
0.000144762911047
0.000147008855373
0.000147052272581
0.000145592501599
0.000143591964841
0.000141977378139
0.000141607659277
0.000142775226197
0.000144616380976
0.000146126005772
0.00014624486221
0.000144162061067
0.00013935371289
0.000132366057382
0.00011871364663
9.27779192155e-05
9.25751624459e-05
0.000118421268351
0.0001321798509
0.000139128077831
0.000144080809095
0.00014631285772
0.000146241724969
0.0001445647009
0.000142252799304
0.000140303591478
0.000139854705946
0.000141314103971
0.000143483549208
0.000145221040049
0.000145476725347
0.000143429870577
0.000138564373941
0.000131365350469
0.000117756955319
9.20833934494e-05
9.25530766138e-05
0.000118406153434
0.000132170325632
0.000139119974934
0.000144075911184
0.000146311377943
0.000146243537525
0.00014456951983
0.000142260224453
0.000140312859338
0.000139864793875
0.000141323441757
0.000143490782889
0.000145225410063
0.000145477518044
0.000143426358269
0.000138555838772
0.000131351978197
0.000117734756022
9.20520716913e-05
9.32080700796e-05
0.000119302718291
0.000133105542239
0.000139862789487
0.000144748170582
0.00014700276549
0.000147054422455
0.000145602053768
0.000143607827113
0.000141997753483
0.000141629812406
0.000142795634397
0.000144631627579
0.00014613466816
0.000146245055505
0.000144151891769
0.000139331453912
0.000132332615811
0.000118660319611
9.27146008585e-05
9.40618825776e-05
0.000120822292313
0.000134743976654
0.000141173032362
0.000145813015534
0.000148022348365
0.000148215012885
0.000147076007918
0.000145456523995
0.000144199428288
0.000143908919899
0.000144787507097
0.000146254556806
0.000147427411026
0.000147362683868
0.000145267555859
0.000140632499323
0.000134032657209
0.000120222964289
9.35733364838e-05
9.48020721408e-05
0.000122504771444
0.000136646672984
0.000143067485369
0.000146846417348
0.000148816512859
0.000149062108604
0.000148164261047
0.000146873734227
0.000145868794108
0.000145632057605
0.000146322889117
0.000147476986393
0.000148390979142
0.000148235994546
0.000146318689219
0.000142333416395
0.000135984358722
0.000121949256607
9.43247872714e-05
9.50850512659e-05
0.000123726061601
0.000138134247067
0.000144680257343
0.000147273861602
0.000148726074251
0.000148826086559
0.000147988351864
0.000146858092944
0.000146001047653
0.00014580290793
0.000146389572015
0.000147391326462
0.000148224743338
0.000148173481661
0.000146722291563
0.000143950507512
0.000137506886683
0.000123213487538
9.46349154937e-05
9.46764204627e-05
0.000123885746711
0.000138386939433
0.000145057296592
0.000147142317938
0.000147305637999
0.000146883588309
0.000145814221509
0.000144657542775
0.000143838214425
0.000143662089191
0.000144234170902
0.000145252723052
0.000146277570707
0.000146692272532
0.000146366917131
0.000144350080811
0.000137796431019
0.00012341874632
9.42698891358e-05
9.31100592114e-05
0.000121939188768
0.000136185914011
0.000142849094233
0.000145083928257
0.000144710847008
0.000143082927672
0.000141182671999
0.000139795210259
0.000138910061863
0.000138737649726
0.000139373689235
0.000140587130294
0.000142295275251
0.000143911352551
0.00014432507831
0.000142180825546
0.000135639054733
0.000121525316281
9.27636910085e-05
8.98548650942e-05
0.000116525151399
0.00012988958632
0.000136230135036
0.000138455493338
0.000138196723196
0.00013668460254
0.000134711452788
0.000132937550812
0.000131820363377
0.000131614953056
0.000132433804965
0.000134025847642
0.000135931404428
0.000137446816921
0.000137740844288
0.000135605214849
0.000129386076654
0.000116157645945
8.95729573916e-05
8.41671441689e-05
0.000105346165196
0.000116567343161
0.000122018724251
0.000123986783793
0.000123808243901
0.000122563370141
0.00012081674044
0.000119173309504
0.000118105215764
0.000117902767677
0.000118693616893
0.000120176782885
0.000121872321821
0.000123136366318
0.000123338610044
0.000121466202356
0.000116129119837
0.000105034987793
8.39643072211e-05
7.612610364e-05
8.41372616496e-05
8.98165036641e-05
9.308325979e-05
9.46648292541e-05
9.50684671781e-05
9.47854106825e-05
9.40255149568e-05
9.31191466454e-05
9.2359166034e-05
9.21267012722e-05
9.2706291455e-05
9.3554254021e-05
9.43157477291e-05
9.46424883675e-05
9.4280450287e-05
9.2785728449e-05
8.96016504315e-05
8.39899323001e-05
7.60345912442e-05
8.36232946716e-05
0.000100119850026
0.000110832492542
0.000117064741334
0.000120294417389
0.000121534332733
0.000121558984593
0.000120917939837
0.000120123899281
0.000119551721068
0.000119408997042
0.000119777942776
0.000120459244732
0.00012106875977
0.000121068999096
0.000119879895332
0.000116734204784
0.000110594595677
9.99534184165e-05
8.34712052574e-05
0.000100206468571
0.000293809334497
0.000385442918292
0.0004254637269
0.000437744554597
0.000435600867033
0.000427222530216
0.000417214900131
0.000408658306193
0.000403489642451
0.000402667629847
0.00040653391184
0.000414210548593
0.000423760009444
0.000431966381598
0.000434079159078
0.000422205978051
0.000383129280283
0.000293018326301
9.98492315623e-05
0.000110933674741
0.000384566547441
0.000533080262409
0.000605246770895
0.000633806004117
0.000638094019775
0.000630681908677
0.000619212177586
0.000608262234198
0.00060127729445
0.000599956610742
0.000604808941384
0.000614427692537
0.00062538214547
0.000632666529968
0.00062871811227
0.000601081685089
0.00053056032905
0.000384195666161
0.000110479940706
0.000117153188346
0.000424063958562
0.000604483004472
0.000697633431837
0.000739065945984
0.000750841406498
0.000748697221588
0.00074019003101
0.000728325321686
0.000720367503073
0.000718552703674
0.000723560312115
0.000733811505763
0.000742829281576
0.000744454774944
0.000733424981829
0.00069320871463
0.000602016482319
0.00042391480006
0.000116637376053
0.000120370570175
0.00043618377304
0.000632643623973
0.000738565183155
0.000788787665878
0.000804324926475
0.00079467967344
0.000778525285981
0.00076368451452
0.000754415656905
0.000752152758205
0.000757657197735
0.000770176557971
0.000785671777837
0.000795876601213
0.000783356033398
0.000734035297225
0.000630156527918
0.000436008696526
0.000119800783654
0.000121610954852
0.000434140323638
0.000636837082417
0.000750113721125
0.000804230286734
0.000809464897512
0.000793166754053
0.000771615677949
0.000753445928095
0.000742437962348
0.000739650688478
0.0007459684106
0.000761170814815
0.000781834239645
0.000798966285699
0.000795923163541
0.000745296890265
0.000634228128073
0.000433802660256
0.000120996091032
0.00012164394874
0.000425966835677
0.000629588355598
0.000747997372786
0.000794976762368
0.000793725986214
0.000772066480977
0.000745757093256
0.000723934298059
0.000710767432211
0.00070739888904
0.000714845860398
0.000732989070435
0.000758244813653
0.00078113467473
0.000785177393852
0.000743582439629
0.000626747912605
0.000425361962886
0.000120994761771
0.000121034868311
0.000416365640815
0.000618724123139
0.000740751595476
0.000780180037915
0.000773822153086
0.000747638631535
0.000716824756657
0.000691143483605
0.00067619491597
0.000672364246256
0.000680457847513
0.000701628439045
0.000731106538234
0.000758760769952
0.000768177065875
0.000733019169729
0.000615113262238
0.000415362325807
0.000120359535907
0.000120309153215
0.000408465334938
0.000608859478541
0.000730662870119
0.00076756625043
0.000758341122
0.000728944454613
0.000694521874864
0.000667187528071
0.000650532871883
0.000646202620839
0.000655379489473
0.000677401383572
0.000710011820535
0.000740952969654
0.000753477689874
0.000721064720556
0.00060444142141
0.000407007836857
0.000119609349743
0.00011983919281
0.000404091271496
0.00060319146253
0.000724705283971
0.000760852914193
0.000750459514486
0.000719464868794
0.000683513791732
0.000654878826537
0.000636905447999
0.000632259095376
0.000642264730644
0.000665609374485
0.000699145476276
0.00073168927487
0.000745539829963
0.000714146037618
0.000598283184063
0.000402319862619
0.000119115181311
0.000119824471349
0.000404083616775
0.000603204024617
0.000724769038584
0.000760977546114
0.000750652481811
0.000719727681204
0.000683844159121
0.000655271913224
0.000637339942312
0.000632709350414
0.000642705944017
0.00066601685447
0.00069950012341
0.000731975265912
0.000745746828548
0.000714271604943
0.000598341599239
0.000402339983659
0.000119093174739
0.000120267494836
0.000408419447155
0.000608859802279
0.000730795525043
0.000767871025347
0.000758838268467
0.000729637861776
0.00069540966057
0.000668248771644
0.000651716767533
0.000647432234654
0.00065657863681
0.000678493881231
0.00071095665849
0.000741709030921
0.000754018897436
0.000721385600497
0.000604582293692
0.000407049872245
0.000119553826851
0.000120970638027
0.000416234731239
0.000618637271772
0.000740828256679
0.000780514005036
0.000774433367963
0.000748538573106
0.000718016718504
0.000692608081505
0.000677862895752
0.000674104330241
0.00068213498134
0.000703130049898
0.000732379386253
0.000759760368335
0.000768875365301
0.000733405050122
0.000615261138381
0.000415383371808
0.000120281616791
0.000121566599364
0.000425715647451
0.000629359423503
0.000747922407536
0.000795204006792
0.000794242972909
0.000772904163868
0.000746935670106
0.000725428187547
0.000712484314067
0.000709195382544
0.000716561143643
0.000734507840211
0.000759505097165
0.00078210262652
0.000785823032133
0.000743823109599
0.000626809289545
0.000425311257606
0.000120905608033
0.00012153009751
0.000433757678103
0.000636452849092
0.000749918042427
0.000804296140208
0.000809784561628
0.000793782532634
0.000772555825335
0.000754689267702
0.000743899473218
0.00074118878893
0.000747420808453
0.00076243030497
0.000782858565661
0.000799733040425
0.000796408343553
0.000745455527258
0.000634150012222
0.000433635221378
0.000120904455432
0.000120293367352
0.000435673452096
0.000632128323599
0.000738248489795
0.000788737709332
0.000804508740924
0.000795132597533
0.000779245396893
0.000764648145032
0.000755561362918
0.000753363568919
0.000758796719895
0.000771159785899
0.000786471234547
0.000796442861229
0.000783634789407
0.000734039360468
0.000629911901799
0.000435689847169
0.000119712532541
0.000117086956835
0.000423488815839
0.000603919819703
0.000697278005285
0.000738985078217
0.000751049117882
0.000749213694312
0.000740889317621
0.000729201417537
0.000721380554072
0.000719615391704
0.000724566625748
0.000734697386411
0.000743598948431
0.000744962982463
0.00073363657332
0.000693108204501
0.000601658498226
0.000423483315318
0.000116559877322
0.000110882644506
0.000384025407384
0.000532595698816
0.000604971781308
0.000633787001949
0.000638336502679
0.000631170480607
0.000619907968299
0.000609117377787
0.00060224134223
0.000600961332078
0.00060577481519
0.000615287780171
0.000626085662857
0.000633147375313
0.000628925070753
0.00060099391113
0.000530216670422
0.000383745888509
0.00011041822432
0.000100175662867
0.000293456756597
0.000385178902455
0.000425363988255
0.000437821145455
0.000435844296742
0.000427609522213
0.000417720895588
0.000409252568684
0.000404140283239
0.000403342740132
0.00040719735692
0.000414822853308
0.000424287445491
0.000432369025696
0.000434309598155
0.000422232440533
0.000382952207832
0.000292708208376
9.9808116151e-05
8.36177296618e-05
0.000100072862262
0.000110765608109
0.000116987266919
0.000120209449074
0.000121443973847
0.000121464717191
0.000120819553035
0.000120018750707
0.00011943909064
0.000119290531116
0.00011965833683
0.000120341086021
0.000120954149824
0.00012095972155
0.000119777571981
0.000116640778102
0.000110512519177
9.98910930061e-05
8.34563818712e-05
9.01598147184e-05
0.000111468087629
0.000124790935997
0.000132477434829
0.000136577353359
0.000138387424866
0.000138859535292
0.000138695543527
0.000138407808946
0.000138219141959
0.000138127304084
0.00013815014806
0.000138304570475
0.000138391522036
0.000137905262513
0.000136128009616
0.000132099664707
0.00012450927591
0.000111270865594
8.99595049288e-05
0.000111613524248
0.000370415526015
0.000499213910357
0.000555797433968
0.000573924904212
0.000572395017295
0.000562444320689
0.000550676919858
0.000541008152259
0.00053528170029
0.000534066964416
0.000537746811509
0.000545967767568
0.000556960953703
0.000566668828332
0.000568277273698
0.000550734200318
0.000495560770831
0.000369123822198
0.000111086686726
0.000124960683609
0.00049778863531
0.000724682485914
0.000841358647503
0.000891837009431
0.000904660017367
0.000898387611489
0.000884864307331
0.00087176483431
0.000863495707943
0.000861419990901
0.000866118635745
0.000876611166751
0.00088904810654
0.000895467202469
0.000883443158444
0.00083466617679
0.000720741957488
0.000497203300738
0.000124300365367
0.000132646984056
0.000553631581638
0.000840086484308
0.00100131872216
0.00108150179341
0.00111284029957
0.00111578439638
0.00110417861017
0.00108978123268
0.00107951161393
0.00107649341943
0.00108160199295
0.00109263782631
0.00110320698581
0.00110162810367
0.00107153207313
0.000993906652587
0.000836085900499
0.000553198226993
0.000131896097426
0.000136759337542
0.00057168379338
0.000889956104471
0.00108063882868
0.00118399205841
0.0012234655086
0.00122592369037
0.00121135357859
0.00119366012604
0.0011810431919
0.00117711512345
0.00118291125295
0.00119585743553
0.0012088013511
0.00120795179329
0.00117181842402
0.00107241064894
0.000885501411993
0.000570817178785
0.000135919353171
0.000138599812683
0.000570449609471
0.000902742617242
0.00111168253985
0.00122337795929
0.00126309109297
0.00126104742335
0.0012401071315
0.00121697327849
0.00120112144369
0.00119626856941
0.00120351670539
0.00121991063936
0.00123779807153
0.00124208005366
0.00120770957929
0.00110257325063
0.000897447874453
0.000568834655171
0.000137673783931
0.000139116945076
0.000561007630747
0.000897028756615
0.00111555413637
0.00122719153495
0.00126330594444
0.00125427386221
0.00122514763986
0.00119541426477
0.00117576078567
0.00117006037472
0.00117937647512
0.0012001184129
0.00122391830503
0.00123505985565
0.00120666203344
0.00110278873736
0.00089022649484
0.000558443489636
0.000138119127156
0.00013901643161
0.000550035571104
0.000884730305879
0.00110597126506
0.00121585853985
0.00124728759456
0.00123093812862
0.00119381275404
0.00115748842317
0.00113397236428
0.00112750125358
0.00113900650715
0.00116431667612
0.00119412808977
0.00121191285896
0.001189991766
0.00108971772672
0.000876304412808
0.00054645769692
0.000137972703654
0.000138807857392
0.000541502409717
0.000873523867161
0.00109457008291
0.00120255251363
0.00123003626789
0.00120812120148
0.0011648758269
0.00112333549505
0.00109651949501
0.00108934353607
0.00110264083582
0.00113168627791
0.00116643946618
0.00118946824399
0.00117237305938
0.00107542750326
0.000864024819388
0.000536984821266
0.000137740214749
0.000138702197712
0.00053706186343
0.000867228939723
0.00108765717608
0.00119448866163
0.00121988042782
0.00119508309096
0.00114868409529
0.00110422841367
0.00107548676403
0.00106786181443
0.00108217888321
0.00111331808778
0.00115078692651
0.0011766536194
0.00116204945341
0.00106692301546
0.000857132570204
0.00053195274421
0.000137617536283
0.000138693608894
0.000537100251113
0.000867309569533
0.00108780591236
0.00119472975226
0.00122022986123
0.00119554252204
0.00114925644676
0.00110490947369
0.00107624291141
0.00106864316624
0.00108294088555
0.00111403127661
0.00115142998929
0.00117720345093
0.0011624783113
0.00106722631445
0.000857325877803
0.000532058597827
0.000137600779916
0.000138777642343
0.000541564757054
0.000873712869964
0.00109494946242
0.00120320169938
0.00123101042026
0.00120943576095
0.00116654131964
0.00112533783655
0.00109875506285
0.00109165751763
0.00110489063015
0.00113377015413
0.00116828695889
0.00119101320902
0.00117355331635
0.00107624809319
0.000864538933927
0.000537256371294
0.000137693816685
0.000138963329942
0.00055002707737
0.000884896541406
0.0011064308462
0.00121675021902
0.00124873259673
0.00123299209043
0.0011964810047
0.0011607164073
0.00113758797019
0.00113124798338
0.00114263278366
0.00116763293525
0.00119699570404
0.00121421260775
0.00119167278379
0.00109084554254
0.000877008789526
0.00054680155119
0.000137903969305
0.000139048663371
0.000560855421276
0.000897047967784
0.001115933093
0.0012280890035
0.00126492051653
0.00125674627798
0.00122846069942
0.00119943891745
0.00118025886746
0.00117472585259
0.00118388720957
0.00120419741421
0.00122733652096
0.00123766077031
0.00120846649157
0.00110393939404
0.000890906429509
0.000558739915908
0.000138037418107
0.000138527472213
0.000570125574778
0.000902550771934
0.00111187338657
0.00122409661167
0.00126449924539
0.00126334655391
0.00124332147964
0.00122093128736
0.00120556646527
0.00120089040565
0.00120797554853
0.00122389062065
0.00124102957885
0.00124445451646
0.0012093114351
0.00110350225248
0.000897927386479
0.000568975410445
0.00013758741368
0.00013669141007
0.000571185964466
0.000889567121202
0.00108065400608
0.00118454721732
0.00122461696863
0.0012277643664
0.00121393454376
0.00119687844961
0.00118469199546
0.00118092628096
0.00118658264167
0.00119911370259
0.0012114540555
0.00120993748812
0.00117313724157
0.00107310440402
0.000885695770197
0.000570722632815
0.000135834733116
0.000132590016561
0.000553004516428
0.000839593253704
0.0010012495694
0.00108198062834
0.00111392970924
0.00111744742825
0.00110641822564
0.00109251947162
0.00108259844659
0.0010797125655
0.00108470498748
0.0010954129557
0.00110551243501
0.00110336649313
0.00107263810522
0.000994376595195
0.000836023300459
0.000552864464333
0.000131819647669
0.000124919394158
0.000497150970877
0.000724248779455
0.000841346112979
0.0008923262712
0.00090567335522
0.000899896280829
0.000886838263441
0.000874133317497
0.000866133989592
0.000864158964276
0.000868768233462
0.000878991194741
0.000891052373745
0.000897002915239
0.000884415199931
0.000835040849969
0.000720586134159
0.000496740770096
0.000124238398762
0.000111593443884
0.000369990828262
0.000499005427254
0.000555889355217
0.000574333887795
0.000573112210362
0.000563438473541
0.000551919387243
0.000542450403647
0.000536856306885
0.000535696902399
0.000539346079655
0.000547443543079
0.000558249654651
0.00056770709543
0.000568987071962
0.000551063551161
0.000495504537484
0.000368772026941
0.000111046038595
9.01708388864e-05
0.000111406996334
0.000124706288334
0.000132381800896
0.00013647451944
0.000138279493602
0.000138747683282
0.000138579820697
0.000138285381432
0.000138089495748
0.000137991750012
0.000138012251497
0.000138166238975
0.000138255709486
0.000137774100571
0.000136002459066
0.000131982008991
0.000124403413929
0.000111189707616
8.9957558103e-05
9.60315724694e-05
0.000121825622851
0.000137136918736
0.000145851939547
0.000150695644494
0.000153183087663
0.000154361478052
0.000154943991487
0.000155317966623
0.000155532369155
0.000155478981643
0.000155157052357
0.00015466671989
0.00015397832608
0.000152740548355
0.000150254200428
0.000145459078311
0.000136838897193
0.00012164375033
9.58069875575e-05
0.000122045869089
0.000444716494466
0.000601337686062
0.000669794225715
0.000693428461065
0.000694565911393
0.000686704650624
0.000677645443866
0.00067086444688
0.000666903860096
0.000665346998299
0.000666555548931
0.000671341379687
0.000679230328802
0.000686722615077
0.000685772728602
0.000662924617563
0.000596197679355
0.000442712396007
0.000121353442723
0.000137381177223
0.000599646139825
0.000880806265434
0.00102570818372
0.00109109733676
0.00111204157074
0.00111061132423
0.00110185096911
0.0010926083966
0.0010855032819
0.00108251377577
0.00108438774401
0.00109014380537
0.00109680185955
0.0010982852294
0.00107869868805
0.00101563251002
0.000874316593307
0.000597845985345
0.000136523696384
0.000146117966803
0.000667635431362
0.00102457395066
0.00122770093042
0.00133319403068
0.00138066447828
0.00139101222875
0.00138334285303
0.00137082570641
0.00136076513211
0.00135639448038
0.00135865396497
0.00136518723847
0.00136984791658
0.00136081908318
0.00131699024095
0.00121511842174
0.00101654165634
0.000664861092663
0.000145124201687
0.000151013027992
0.000691723172374
0.00108979868375
0.00133265660697
0.00146942033672
0.00153056674621
0.0015442057614
0.0015335729874
0.00151643252121
0.00150292713108
0.00149734375112
0.0015005680019
0.00150886672346
0.00151379539641
0.0015009055554
0.00144636718581
0.00131704063501
0.0010793821726
0.000687026797053
0.00014987454993
0.000153569327675
0.000693748391653
0.00111131063816
0.00138070503735
0.00153238628854
0.00159790338477
0.00160725217444
0.00158899874101
0.00156501291818
0.00154750503319
0.00154105352883
0.00154624845504
0.0015581671504
0.00156638024883
0.00155473048394
0.00149792712808
0.0013591475867
0.00109772674652
0.000686698292433
0.000152290694616
0.000154824422664
0.000686944751442
0.00111108417835
0.00139396351275
0.00155223080314
0.00161474958784
0.00161513867704
0.00158658644188
0.00155489059163
0.00153316440743
0.00152620104648
0.00153421371718
0.00155110108135
0.00156469667528
0.00155747747849
0.00150327846389
0.00136384309445
0.001094075443
0.000677516679792
0.000153441384642
0.000155473893282
0.000679185269743
0.0011041984793
0.00139144058571
0.00155004738781
0.00160645626184
0.0015970644799
0.00155845000556
0.0015192381891
0.00149338032751
0.0014860021003
0.00149696359608
0.00151914495692
0.00153889794433
0.00153763194165
0.00148848896626
0.00135258623362
0.00108423317125
0.000667604150222
0.000154049146846
0.000155897227446
0.000674075926261
0.00109798540492
0.00138431684478
0.00154066501964
0.00159161421776
0.00157470867648
0.00152851642675
0.00148324028004
0.00145386704731
0.00144594332729
0.00145911418788
0.00148564482085
0.00151080467092
0.00151511131453
0.00147111174586
0.00133936427797
0.0010741492369
0.000660567063675
0.000154474012578
0.000156153456113
0.000671958651233
0.00109451539306
0.00137934668528
0.00153387267987
0.00158180911558
0.00156099572615
0.00151083163094
0.00146226321282
0.00143090179244
0.00142258248088
0.00143689833189
0.0014657899847
0.0014940494179
0.00150164203626
0.00146072274874
0.00133153312671
0.00106842561473
0.000657256484262
0.000154730294574
0.000156150101004
0.000672082724457
0.00109471882474
0.00137963854862
0.00153427128278
0.00158231737581
0.0015616025448
0.00151155078595
0.00146310382285
0.00143182719596
0.00142353332251
0.00143783235033
0.00146669841249
0.00149494792258
0.00150251379449
0.0014615024542
0.00133216103777
0.00106888010162
0.000657509090908
0.000154717831769
0.0001558803893
0.000674353902084
0.00109851257528
0.00138512770954
0.00154182037606
0.00159314723782
0.00157660567526
0.00153082174773
0.00148597349333
0.00145689481069
0.00144906338158
0.00146217185878
0.00148857761136
0.00151361243414
0.00151772358485
0.00147336122733
0.00134112557396
0.00107539662342
0.000661240501066
0.00015443748293
0.000155439577291
0.000679463195826
0.00110489095923
0.00139264888751
0.0015519010569
0.0016090520048
0.00160040777969
0.00156259161032
0.00152416123744
0.00149883600458
0.00149163703878
0.00150247867946
0.00152435376828
0.00154370273319
0.00154187830293
0.00149196160682
0.00135518359871
0.00108597860601
0.000668532238524
0.000153994125114
0.000154779474295
0.00068711526845
0.00111174593528
0.00139533859629
0.00155457252461
0.00161830400088
0.00161997533438
0.00159266627395
0.00156206642322
0.00154106629444
0.0015343666271
0.00154219474699
0.00155852973239
0.00157129203738
0.00156296850051
0.00150746489642
0.00136678280194
0.00109596407004
0.000678483980353
0.000153375451331
0.000153525800079
0.000693767769103
0.00111177105366
0.00138190598318
0.00153470834354
0.00160179164936
0.00161288695735
0.00159624967219
0.00157355298195
0.00155687970233
0.00155074456651
0.00155571594929
0.00156687977593
0.00157383812544
0.00156055112354
0.0015020304189
0.00136182576337
0.00109939048415
0.000687496940734
0.000152221291162
0.000150979087824
0.000691572029805
0.001090014429
0.00133355571448
0.00147131123475
0.00153391195688
0.00154936331987
0.00154041518364
0.00152453885543
0.00151184485896
0.00150658816156
0.0015096052363
0.00151710238415
0.00152061216484
0.00150594188749
0.00144975075508
0.00131912940946
0.00108055486573
0.000687492080801
0.000149807597728
0.000146098333045
0.000667308603249
0.00102457610181
0.00122834976256
0.00133469039257
0.00138321352758
0.00139486318209
0.00138852373848
0.00137704000198
0.00136764966327
0.00136355799745
0.00136564830754
0.00137150904164
0.00137502252689
0.00136466746615
0.00131959606502
0.00121663323841
0.00101716571194
0.000664926643684
0.000145066222015
0.000137379467895
0.000599215384551
0.000880714884719
0.00102619086919
0.00109231558036
0.00111409597773
0.00111354516954
0.00110566881591
0.00109713154169
0.00109049742925
0.00108770301265
0.00108944849893
0.00109474695098
0.00110065222075
0.0011012524279
0.0010806854536
0.00101666051223
0.000874547937434
0.000597601022438
0.000136483719844
0.000122066734908
0.000444389902936
0.000601303177589
0.000670112073503
0.000694165258719
0.000695769469071
0.000688384234967
0.000679785650364
0.000673381659376
0.000669668314891
0.000668204359573
0.000669344919868
0.000673878125486
0.000681391256197
0.000688424961411
0.000686934356324
0.000663533157606
0.00059630857933
0.000442445822434
0.000121341277357
9.60766361886e-05
0.0001217732676
0.000137060410271
0.000145760842084
0.000150593727695
0.000153074158489
0.000154249455993
0.000154830900891
0.00015520058179
0.000155408681136
0.000155348530631
0.000155021708552
0.000154525779605
0.000153833893232
0.000152596450102
0.000150114284887
0.000145329816471
0.000136726157933
0.000121561517805
9.58301380207e-05
0.000101911857476
0.000132164775275
0.000149137802866
0.000158885816521
0.000164704221821
0.000168175182452
0.000170300445793
0.000171706280082
0.000172667341426
0.000173189709638
0.000173163044335
0.000172592059057
0.000171561459955
0.000170054269588
0.000167839194481
0.000164349885789
0.000158556321698
0.000148857574548
0.000132022168998
0.000101695888337
0.000132448953439
0.000528239080846
0.000713641410524
0.000796482310235
0.00082976783766
0.000838360684816
0.000837597711886
0.000835325105311
0.000833879797046
0.000832748928207
0.00083071745052
0.000828246115038
0.000827179150566
0.000828161370015
0.000828573363473
0.000820364161556
0.00078821831746
0.000707393215749
0.000525583123835
0.000131643118339
0.000149445754105
0.000712129374181
0.0010437284233
0.00121328267422
0.00129321469413
0.00132403840548
0.00133235901144
0.00133053257673
0.00132515540545
0.00131985932249
0.00131569251433
0.00131343962571
0.0013129011918
0.00131202604613