/*--------------------------------*- C++ -*----------------------------------*\
| =========                 |                                                 |
| \\      /  F ield         | OpenFOAM: The Open Source CFD Toolbox           |
|  \\    /   O peration     | Version:  3.0.1                                 |
|   \\  /    A nd           | Web:      www.OpenFOAM.org                      |
|    \\/     M anipulation  |                                                 |
\*---------------------------------------------------------------------------*/
FoamFile
{
    version     2.0;
    format      ascii;
    class       surfaceVectorField;
    location    "9.5";
    object      Uf_0;
}
// * * * * * * * * * * * * * * * * * * * * * * * * * * * * * * * * * * * * * //

dimensions      [0 1 -1 0 0 0 0];

internalField   nonuniform List<vector> 
22672
(
(0.00209441300213 0.000561880068181 -0.00146597993344)
(0.000656467195892 0.00191678331364 -0.00146143025738)
(0.00134875189385 0.00125997799926 -0.00401121699987)
(0.005061575689 0.000204549768215 -0.00154047701584)
(0.00332022426009 0.00157578162833 -0.00276378486561)
(0.00433183722226 0.00140194358673 -0.00454296506254)
(0.00791753901196 8.99560235728e-05 -0.00130640753567)
(0.00678405864732 0.00155915400222 -0.00304743106285)
(0.00744307072157 0.00160839773325 -0.00441514090703)
(0.00997245827497 0.000197708342602 -0.000892707402822)
(0.00941736330353 0.00181633358975 -0.00275608203007)
(0.00973448713207 0.00192353531865 -0.00387127820736)
(0.0108334158905 0.00051496805306 -0.000457500233887)
(0.0110275583271 0.00233739056746 -0.00228840100733)
(0.0110742205717 0.00235926402727 -0.00319837491753)
(0.01042514743 0.000864709444975 -0.000135496293927)
(0.0111172515971 0.00298616627917 -0.00180906605859)
(0.0110192537546 0.00282458796015 -0.00257792517682)
(0.00909613926353 0.00118347077222 7.14300899941e-05)
(0.0102208548291 0.00347416797572 -0.00149592625728)
(0.0100737912776 0.00315002079713 -0.00214518682308)
(0.00693227745707 0.00149850775612 0.000222838083377)
(0.0083567047973 0.00394847485745 -0.00122861481666)
(0.00821327822831 0.00346507053023 -0.00178463896632)
(0.00419163181015 0.00171818970398 0.00029499049802)
(0.00575216847487 0.00431907987932 -0.00106588674243)
(0.00565083074096 0.00370701783088 -0.00157845864904)
(0.00117182306417 0.00180345602159 0.000317701461615)
(0.0027561983314 0.00452529723032 -0.00100059195301)
(0.00271753949942 0.00383866710607 -0.00150551143249)
(-0.00188596462927 0.00174604099749 0.000313319227047)
(-0.000377385372758 0.00454326366625 -0.000987130782061)
(-0.000346387439201 0.00385004777634 -0.00148549785127)
(-0.00474004191748 0.00154978285078 0.00026192589313)
(-0.00344739857339 0.00436924442164 -0.00102430948739)
(-0.00335326697477 0.00373841976413 -0.00151518851791)
(-0.00708868311128 0.00124804209753 0.000131917768961)
(-0.00620609187254 0.00402143048085 -0.00115754439766)
(-0.00606927817464 0.00351071204819 -0.00167281070733)
(-0.00865227119223 0.00091378906135 -7.3636173343e-05)
(-0.00829296116123 0.00355667911959 -0.00140256919225)
(-0.00815205091083 0.00319975708462 -0.00199311288135)
(-0.00928345852999 0.000577862119081 -0.00036787476293)
(-0.00942973803074 0.00305085060641 -0.00172080167974)
(-0.00934144247416 0.00285310420381 -0.00241968586749)
(-0.00875614412807 0.000275766018723 -0.000777954065791)
(-0.00961545758048 0.00245468539094 -0.00214545645507)
(-0.00966083810341 0.00243813371153 -0.00298202365817)
(-0.00701947717416 0.000151353035994 -0.00120148994454)
(-0.00834737344878 0.00191946570094 -0.00262722380277)
(-0.00866583472396 0.00198836365624 -0.0036561584358)
(-0.00448475974324 0.000264975447629 -0.00143743098322)
(-0.00603903922818 0.00166547613873 -0.00292157796742)
(-0.0066963724424 0.00167803846494 -0.00420022258885)
(-0.00182475112032 0.000612951100224 -0.00137007257952)
(-0.00289825504032 0.00167755526022 -0.00265307500668)
(-0.00391137183569 0.00146760858187 -0.00433759849154)
(-0.000515629865165 0.00199818298946 -0.00137123227253)
(-0.00121676033765 0.00130411536297 -0.00382295974439)
(0.00176370543408 0.00304078772771 -0.00275923518955)
(0.000305886187989 0.00468957066605 -0.00153521295178)
(0.00151269398491 0.00405652877008 -0.00453651227943)
(0.00517132428254 0.00306050936885 -0.00427073891262)
(0.00335080339621 0.0047818956992 -0.00426974188007)
(0.00466771784155 0.00435346553693 -0.00661375343932)
(0.00841121493061 0.0034340401514 -0.00449710555724)
(0.00728339467432 0.00520095098912 -0.0048944412855)
(0.00783343292604 0.00487591744054 -0.00688171080107)
(0.0105817434359 0.00412738531637 -0.00415177563458)
(0.010157219164 0.00598733284997 -0.00455848370146)
(0.0100639803364 0.00565582444836 -0.00634155272536)
(0.0113926749185 0.00500609120706 -0.00363996683204)
(0.0117383115715 0.00707060191313 -0.00393019294647)
(0.0112135691968 0.00661599084578 -0.0055441692213)
(0.01092367307 0.00581532791534 -0.00316949602194)
(0.011793289723 0.00820411225942 -0.00329836140925)
(0.0111185273307 0.00756298726547 -0.00474897119823)
(0.00941084281505 0.00647697432602 -0.00279597116393)
(0.0107086159271 0.0091036123803 -0.00282875726382)
(0.0100468993769 0.00830087200009 -0.00411664095059)
(0.00710851555362 0.00702424380579 -0.00251733964247)
(0.00866218134928 0.00987555712086 -0.00247387904498)
(0.00812852019436 0.00891889375419 -0.00362478075334)
(0.00428426991069 0.00739359418296 -0.00236146919345)
(0.00592242959302 0.0104582415834 -0.00225856235957)
(0.00558852289812 0.00937842266017 -0.00331494033831)
(0.00120646653043 0.00753734653969 -0.00230542419668)
(0.00282963521515 0.0107800953179 -0.00216765644189)
(0.00271210576465 0.00963347294579 -0.00317701752483)
(-0.00191079628338 0.00743580650344 -0.0023247594965)
(-0.000390393137267 0.0108112247313 -0.00214923533873)
(-0.000290672285626 0.00965915485711 -0.00315071999879)
(-0.00485157513425 0.00709967750525 -0.00244377977818)
(-0.00356348385378 0.0105446680541 -0.00220280286677)
(-0.00324614941695 0.00944889339096 -0.00323466601122)
(-0.00733701744804 0.00657182490458 -0.00269203135888)
(-0.00646422406528 0.00999929957452 -0.0023829234311)
(-0.00594117574 0.00901886365813 -0.00349244798174)
(-0.00907678674955 0.00591504507914 -0.00304973469865)
(-0.00873725276353 0.00924189395393 -0.00271362091442)
(-0.00807786288253 0.00841160841058 -0.00394546708726)
(-0.009816770492 0.00512766682295 -0.00349838337188)
(-0.0100684949089 0.00834326654097 -0.00317043143481)
(-0.00939435361551 0.00767388564384 -0.0045524545402)
(-0.00931224655495 0.00427408817073 -0.00399472619205)
(-0.0103014446497 0.00725588663212 -0.00376706893223)
(-0.00976753519964 0.00676136056878 -0.00530574902483)
(-0.00747657666499 0.00358538999043 -0.00434731182565)
(-0.0090521292493 0.00617429995884 -0.00439287293047)
(-0.00893303278737 0.00581158600095 -0.00609053047528)
(-0.00457262695374 0.0032110779702 -0.00413722199088)
(-0.00651724014135 0.00539128897114 -0.00473648960831)
(-0.0070287285421 0.00503983739751 -0.00662979273815)
(-0.00148432860817 0.00317503537103 -0.00265423469969)
(-0.00291624067431 0.00496515079181 -0.00413849743329)
(-0.00418905419783 0.00451371897609 -0.00637592943658)
(-0.00015993209859 0.00484487473379 -0.00144308917744)
(-0.00134789291023 0.0041817119277 -0.00433104608238)
(0.00175304900192 0.00630915301538 -0.0030457196423)
(0.000194532288497 0.00735974822936 -0.00130841816271)
(0.00172911989602 0.00696495201594 -0.00442324572789)
(0.00559912601301 0.00679336365624 -0.00489344425295)
(0.00372905666166 0.00782613070773 -0.00449873643163)
(0.00520451950501 0.00731669272828 -0.00689033181086)
(0.00916172674273 0.00760934207507 -0.00495581942972)
(0.00810607088418 0.00856742650229 -0.0049602040869)
(0.0085950144874 0.00806461727215 -0.00692909869626)
(0.0114432176622 0.00875671413073 -0.00433690101335)
(0.0112072495866 0.00970259517329 -0.00430852376122)
(0.010860729269 0.00913822273054 -0.00599677772666)
(0.0122097304536 0.0100543534022 -0.00358858752368)
(0.0127858961152 0.0111115620119 -0.00335907905428)
(0.0119096701468 0.0104016215291 -0.00480749906538)
(0.0115989673399 0.0112349606976 -0.00295762265113)
(0.0127269107551 0.0125142376244 -0.0025089059305)
(0.0116863555095 0.011630909147 -0.00369938930953)
(0.00989293136814 0.0122042433581 -0.00250666514487)
(0.0114201693191 0.0136629487098 -0.00190699565229)
(0.0104347619902 0.012637407139 -0.00285332727393)
(0.00740805729589 0.0129763534265 -0.00221510176208)
(0.00913607977948 0.0146231718664 -0.00151036002942)
(0.00836253601704 0.0134585598808 -0.00226276654103)
(0.00443748616106 0.0134884063716 -0.00206474960801)
(0.00619402582627 0.0153426041313 -0.00129848327485)
(0.00571879201545 0.014065480509 -0.00191381567704)
(0.00123287038008 0.0136887854295 -0.00201146758394)
(0.00293532021557 0.0157425912047 -0.00121985929208)
(0.00276820519743 0.014404807061 -0.00175790268302)
(-0.00201612280018 0.0135604417685 -0.002027278709)
(-0.000439675805518 0.0157878352489 -0.00120010965429)
(-0.000305022523835 0.0144484223702 -0.00172763856514)
(-0.00511451147446 0.0131047871639 -0.00214194651969)
(-0.00378937654269 0.0154677428955 -0.00123945353183)
(-0.00334567804624 0.0141861408756 -0.00182470656468)
(-0.00779340188711 0.0123639084937 -0.00240451298665)
(-0.00690788755865 0.0148000641655 -0.00141578024832)
(-0.0061585271549 0.0136299577241 -0.00212189421151)
(-0.00973477340737 0.011407021733 -0.00283431765058)
(-0.00942937762319 0.0138578666988 -0.00178829602682)
(-0.00845523727544 0.0128281494416 -0.00267462130575)
(-0.010617315871 0.0102508834671 -0.00343911699516)
(-0.010989055456 0.0127136395449 -0.00236960682281)
(-0.00995335979279 0.0118287086286 -0.00348785127932)
(-0.0101570996756 0.00897519253833 -0.00416521567065)
(-0.0113349930755 0.0113492518315 -0.00318474676232)
(-0.0104516467678 0.0106255295819 -0.00455360382255)
(-0.00820953239005 0.00783012574791 -0.00478205071312)
(-0.0100861271089 0.00994377556192 -0.00412134833327)
(-0.00970686105832 0.00936811426494 -0.00571706834219)
(-0.00498757687769 0.00701183521324 -0.00473776505072)
(-0.00732551781988 0.00881091623273 -0.00477744327168)
(-0.00776233424668 0.00830077239579 -0.00664161287232)
(-0.00146832168804 0.00650923593212 -0.00292735191105)
(-0.0032849706228 0.00806428121994 -0.00434741842059)
(-0.0046992973634 0.00755059344365 -0.00661842161695)
(-4.43110648497e-05 0.00756748325714 -0.00120677108287)
(-0.00154742359684 0.00716843104509 -0.0041909561642)
(0.00201145060263 0.00875984934253 -0.00276143495204)
(0.000311264647928 0.00924461961158 -0.000897291697584)
(0.00204879521946 0.00906843898451 -0.00389633879803)
(0.00638890945854 0.00947790048042 -0.00456549626558)
(0.00442365806557 0.00981779794924 -0.0041605455689)
(0.00598855464903 0.00935997006951 -0.00636914334359)
(0.0103016565737 0.0105208206206 -0.0043129084184)
(0.00925707235708 0.0106713567662 -0.00435324452972)
(0.00967438901002 0.0101476975127 -0.00601669749384)
(0.0126982584689 0.0118915378895 -0.00333070180215)
(0.0125808132796 0.0119216245961 -0.00333989648353)
(0.012007341773 0.011291814083 -0.00461565389176)
(0.0133738987935 0.0133856723808 -0.0022793974611)
(0.0141648941322 0.0134274064695 -0.00204174508528)
(0.0129427930944 0.0126096866954 -0.00299150955837)
(0.0125477481339 0.0147507985402 -0.00145827893166)
(0.0139435910631 0.0149044670034 -0.000930261982052)
(0.0125137239405 0.0138811753415 -0.00156410488049)
(0.0105860624184 0.0158921179604 -0.000910690536838)
(0.0123815949615 0.0161383171892 -0.000135080654388)
(0.0110291388076 0.0149513178008 -0.000513709165123)
(0.00785044977796 0.0168015701356 -0.00059374154218)
(0.0098088095413 0.0171788665251 0.000382036696428)
(0.00874704470492 0.015834946349 0.000179892464969)
(0.00466279046829 0.0174086134291 -0.00045359295892)
(0.00659790669878 0.0179678922176 0.00064774818518)
(0.00593940677172 0.0164966441954 0.00056234740731)
(0.00126369441104 0.017652254844 -0.000408501362438)
(0.00309292084791 0.0184159785584 0.000742787734612)
(0.00285681991056 0.0168762730034 0.00072568688159)
(-0.00218598926788 0.0175060215026 -0.000412284477125)
(-0.000523189101433 0.0184754072112 0.000767789873657)
(-0.000341206093923 0.0169355100482 0.000762091675177)
(-0.00551685879843 0.0169744491825 -0.000513287260463)
(-0.0041366443295 0.0181310148688 0.000721064769487)
(-0.00352851206372 0.016660067708 0.000667578849825)
(-0.00846348001863 0.016104577925 -0.000799563288492)
(-0.00754862089183 0.0174064200397 0.00049470872057)
(-0.00652609309976 0.0160655956662 0.000340247550971)
(-0.0106721716181 0.014974372635 -0.00132358519904)
(-0.0103774157962 0.0163817306099 7.25523818548e-07)
(-0.00904686544059 0.0152048599243 -0.000315189664415)
(-0.0117706138448 0.0136271706028 -0.00211523658996)
(-0.0122014662685 0.0151433250808 -0.000775422457615)
(-0.0107830336058 0.0141354726084 -0.00133126104754)
(-0.0113996233474 0.0121509951343 -0.00314087942493)
(-0.0127067230253 0.0136946351474 -0.00185164738212)
(-0.0114804702075 0.0128775746593 -0.00271639334706)
(-0.00933512749212 0.0107818502709 -0.00411674089183)
(-0.0114512533759 0.0121883849135 -0.00312948160718)
(-0.010841338559 0.0115615547242 -0.00430912826001)
(-0.00576538216919 0.0097368226326 -0.00438709664156)
(-0.00846698260203 0.0109369267311 -0.00414596152107)
(-0.00882347991326 0.0104217703342 -0.00569578423343)
(-0.00171965040668 0.00900106372381 -0.00262683759242)
(-0.00397337284224 0.0100797562223 -0.00398612152035)
(-0.00546728489397 0.0096352537952 -0.00606124161316)
(-0.000157161813839 0.00947792326057 -0.000780177770368)
(-0.00185339922123 0.00932002707383 -0.003630115516)
(0.00254102104372 0.0101979228632 -0.00229640231445)
(0.000625915650259 0.00994533336899 -0.00047853475564)
(0.00249505014214 0.0102301968774 -0.00324174893255)
(0.00747515690561 0.0108895075668 -0.00394829383304)
(0.00529417073062 0.0104783253957 -0.00366427806024)
(0.00694957861572 0.0103451672848 -0.00559467780107)
(0.0117123191433 0.011930415915 -0.00338023259485)
(0.010547846418 0.0112871932139 -0.00362372516584)
(0.0109400203498 0.0110382904166 -0.00485301645501)
(0.0142052097481 0.0133049498242 -0.00205093976667)
(0.014065981575 0.0124455129486 -0.00230824697918)
(0.0133248892774 0.0120717416468 -0.00301679989702)
(0.0147825017619 0.0148037506106 -0.000692609606231)
(0.0156586664823 0.01385001513 -0.000703070938456)
(0.0141513118713 0.0132808336949 -0.000999924655031)
(0.0137415747242 0.0161697896779 0.000392936295216)
(0.0152452474786 0.0152104502742 0.000669077390872)
(0.0135278607221 0.0144743995076 0.000734917579953)
(0.0115075560135 0.0173193525588 0.00115764657888)
(0.0134308543017 0.0163722794278 0.00166575991361)
(0.0118285896636 0.0155007889884 0.0020000294134)
(0.00847997033015 0.0182501213713 0.00162352642379)
(0.0105667405652 0.0173701291517 0.00233041993907)
(0.0093224162776 0.0163674751025 0.00283629658837)
(0.00499991533974 0.018887125915 0.00184412887871)
(0.00706697757974 0.0181474835133 0.00268088558765)
(0.00629987063011 0.0170344861324 0.00330043900256)
(0.00130702386849 0.0191539802382 0.00191907897071)
(0.00328115286951 0.0186060217473 0.0028145202449)
(0.00300630210704 0.0174310798244 0.00350282595367)
(-0.00244711837405 0.0190122717637 0.00190113912027)
(-0.000620038870355 0.0186788679122 0.00285075292497)
(-0.000409777613327 0.0175066832487 0.00355066155138)
(-0.00609668344096 0.0184678502452 0.00172906075052)
(-0.00454010212356 0.0183454843122 0.00278345731905)
(-0.00383186469455 0.0172417414362 0.00343507764817)
(-0.0093641470405 0.0175783427816 0.00129499753288)
(-0.00827799235718 0.0176430817237 0.00247633246832)
(-0.00707941588512 0.0166561456017 0.00303078560783)
(-0.0118639180839 0.0164303343678 0.000548888265248)
(-0.0114259947821 0.0166574472256 0.00182633666249)
(-0.00985290538929 0.015810180214 0.00222403927916)
(-0.0131804328443 0.0150711274462 -0.00051183324977)
(-0.0135129814154 0.0154781264172 0.000836327603783)
(-0.0118149101224 0.0147710960022 0.000981698383989)
(-0.0129042542901 0.0135812096188 -0.00184024956436)
(-0.0142004904428 0.0141284307295 -0.000498809914535)
(-0.0126981080151 0.0135769737562 -0.000709990859518)
(-0.0107405493779 0.012201632676 -0.00315870223642)
(-0.0129381935763 0.0127120737504 -0.00208016122524)
(-0.0121573178554 0.0123557068249 -0.0026874142924)
(-0.00684661843877 0.0111565835951 -0.00374498639986)
(-0.0097535034822 0.0115466795808 -0.00339801193548)
(-0.0100814749258 0.0113212996093 -0.00450371019279)
(-0.00224645703512 0.0104481858168 -0.0021394616983)
(-0.00484045913215 0.0107306014295 -0.00347137680194)
(-0.00642085906237 0.0106294373638 -0.00525103976156)
(-0.000466320587806 0.0101679098636 -0.000349222874651)
(-0.00229253566552 0.0104957807712 -0.00293646747633)
(0.00317147112022 0.0101573964473 -0.00184641050143)
(0.000972623354002 0.00943602119372 -0.000172723627544)
(0.00294384197976 0.0100484421674 -0.00266217023583)
(0.00859106042708 0.0108094532722 -0.00333970939304)
(0.00609520806114 0.00989015963052 -0.00321006480132)
(0.00788491618312 0.0101196055974 -0.00483143519708)
(0.0130976058919 0.0117345444572 -0.00255173955017)
(0.011717527818 0.0105525841007 -0.00300929930104)
(0.0121581629079 0.0106841597556 -0.00377195188239)
(0.0156652103593 0.0129444029218 -0.000960378150973)
(0.0154162919334 0.011489668644 -0.00150308333357)
(0.0145827915165 0.0115105409587 -0.00161177985763)
(0.0161294641812 0.0142485755348 0.000658616058647)
(0.0170143052816 0.0126706884896 0.000367663831553)
(0.0153325590795 0.0125216553035 0.000715048900417)
(0.0148697067004 0.0154362060593 0.00194190100927)
(0.0164247467043 0.013803206927 0.00194049118168)
(0.0145285785734 0.0135303132673 0.00266697354299)
(0.0123753077706 0.016467467571 0.00283853327381)
(0.0143950000367 0.0147913771237 0.00307704724892)
(0.0126329721244 0.0144282297026 0.00407527215869)
(0.0090733144131 0.0173267609559 0.00338777910293)
(0.0112734519299 0.0156668864844 0.00384576274994)
(0.00991764297619 0.0152123468402 0.0050052070188)
(0.00531996480401 0.0179341663622 0.00365127695384)
(0.00751060688411 0.0163742530578 0.00426021563765)
(0.00668224174737 0.0158380777076 0.00552655275093)
(0.00135393826925 0.0182016479147 0.00374619419917)
(0.00346665597287 0.0168116101209 0.00443285099677)
(0.00317172879953 0.0162280827768 0.00576041349143)
(-0.0026868006399 0.0180788483091 0.00373307112376)
(-0.000701316708385 0.0168931940303 0.00448417201777)
(-0.000472747881624 0.0163166393787 0.00582639100694)
(-0.00664306691768 0.0175774719382 0.00353072903686)
(-0.00490948890638 0.016592838287 0.00439895498747)
(-0.00414129940034 0.0160802912469 0.00570889330491)
(-0.0102233529219 0.0167631048275 0.00300767159793)
(-0.00895483185444 0.0159682575373 0.00403091177157)
(-0.00764908551893 0.0155501413031 0.00525509380078)
(-0.0130061557724 0.015724772456 0.00211377600103)
(-0.012398755883 0.0151037043497 0.00326445457699)
(-0.0106737099935 0.0147861212767 0.00433653145985)
(-0.0145414726504 0.0145254408235 0.000849350939018)
(-0.0147172945735 0.0140875365392 0.00211853587826)
(-0.012848387224 0.0138611905376 0.00292589340396)
(-0.0143709270283 0.0132137244577 -0.000738721575409)
(-0.0155690731346 0.012948242196 0.000582297099579)
(-0.013902126333 0.0128308693754 0.00100962829877)
(-0.0121266263025 0.0119898950672 -0.00231947092429)
(-0.0143030664065 0.0117424506325 -0.00126874552806)
(-0.0134308668606 0.0117896205002 -0.00127469607582)
(-0.00795847605642 0.0110534451963 -0.00312440233756)
(-0.0109260890017 0.0107881619596 -0.00277604823337)
(-0.0113016779672 0.0109510737187 -0.00340965714434)
(-0.00287058053192 0.0103820557537 -0.00168113797829)
(-0.0056420163082 0.0101106355062 -0.00300816302936)
(-0.00735311969673 0.0103815505938 -0.00446796092077)
(-0.000810989835697 0.00963303208451 -3.84765969675e-05)
(-0.00273321872127 0.0102932118056 -0.0023357252379)
(0.00366716735342 0.00916000190474 -0.00153637792743)
(0.00129622701485 0.00801148189087 2.93666145624e-05)
(0.00327952006334 0.00900132899075 -0.00224263607938)
(0.00948948017172 0.00961885513939 -0.00287965470931)
(0.00675301543273 0.00828560624297 -0.00284874858832)
(0.00862240779232 0.00894539664261 -0.00421776784817)
(0.0142389286397 0.010313083991 -0.00196064308443)
(0.0126756998606 0.00874631494898 -0.00257061860587)
(0.0131557757999 0.00932415755723 -0.00294319230119)
(0.0168889620148 0.0112557704535 -0.00017504135104)
(0.0165391199551 0.00941622460047 -0.000970082855063)
(0.0156368577739 0.00990682380966 -0.000576607653317)
(0.0172838797665 0.0122933388792 0.00164953895459)
(0.0181469279236 0.0103081628936 0.00111792006084)
(0.0163421628274 0.0106891183937 0.0019675838797)
(0.0158608221099 0.0132499814988 0.00307563742133)
(0.0174405123569 0.0111611169393 0.00282678531829)
(0.0154152628822 0.0114837990802 0.00406511888672)
(0.0131583174529 0.0141062209715 0.00408427672506)
(0.0152518276032 0.0119198681852 0.00407384469309)
(0.0133736430321 0.0122145737393 0.00557398182923)
(0.00962004490026 0.0148496694221 0.00471819928467)
(0.0119231946648 0.0126150833581 0.00494979637818)
(0.0104852164369 0.0128774281546 0.00659004313981)
(0.00562743520178 0.0153896795293 0.00504178968059)
(0.0079121077247 0.0131860782829 0.00547670641639)
(0.00706222908246 0.0134376482778 0.0071807532344)
(0.00141013074797 0.0156326555689 0.00517082881537)
(0.00363585894072 0.0135600119304 0.00559632923913)
(0.00334788455859 0.0137978281426 0.0074688740753)
(-0.00289929671435 0.0155421838681 0.00515005588148)
(-0.000763834207297 0.0136431472294 0.00563326201613)
(-0.000521000443254 0.0138910118175 0.00755944897793)
(-0.00713059408711 0.0151169494353 0.00489913772218)
(-0.00522274861454 0.0133974904427 0.00565320032761)
(-0.0044258858783 0.0136948927965 0.00742662348609)
(-0.0109923633459 0.0144210364771 0.00428769475062)
(-0.00956454645773 0.0129098593844 0.0051831355046)
(-0.00817470312409 0.0132367568795 0.00692014934933)
(-0.0140171999515 0.0135535407481 0.00326921445423)
(-0.0132628180696 0.0122269740921 0.00429773072572)
(-0.0114276603039 0.0125945750497 0.00590155211165)
(-0.0157254400986 0.0125734647108 0.00185148203883)
(-0.0157653369547 0.0114383410791 0.00302692562116)
(-0.0137795155781 0.0118303505393 0.00435742275899)
(-0.0156203451945 0.01151374114 5.22731469279e-05)
(-0.0167310508818 0.0105686232287 0.00134731602541)
(-0.0149553537895 0.0109987918398 0.00227451054016)
(-0.0132825662327 0.0105452653009 -0.00172532283713)
(-0.0154535591377 0.00964202519375 -0.000726828469104)
(-0.0145181577974 0.0101721496305 -0.000237370689002)
(-0.00886347531448 0.00983098937982 -0.00265980892517)
(-0.0118994593292 0.00894687047403 -0.00233489998014)
(-0.0123151951115 0.00956283235527 -0.00257782254536)
(-0.00337066270535 0.00935143646111 -0.00136550164803)
(-0.006308123495 0.00846490120086 -0.00264252335541)
(-0.00809843753148 0.00917145784628 -0.00384710806375)
(-0.00114083028769 0.00816996572278 0.000165054646232)
(-0.0030721122372 0.00921187198166 -0.00190761770537)
(0.0041342192109 0.00720938694335 -0.00128300404632)
(0.00160114881227 0.00578332048706 0.000168826980669)
(0.0035906221494 0.00705754730451 -0.00190606184038)
(0.0102487003739 0.00748209327642 -0.00253971248487)
(0.00728613956311 0.00592018943371 -0.00258883100958)
(0.00922974824138 0.00694478634823 -0.00374906877486)
(0.0151780025703 0.00792894109557 -0.0015800583765)
(0.0134212779783 0.00619098671709 -0.00229621447674)
(0.0139541172436 0.00716178829562 -0.00237398358357)
(0.0179025786212 0.00856756814528 0.00032287855682)
(0.0174114762361 0.00659943555885 -0.000676095129515)
(0.0164856999932 0.00752114942914 9.21968717481e-05)
(0.0182540408018 0.00929274889487 0.00229516642455)
(0.0190365034536 0.00718118747227 0.00155534233047)
(0.0171690655218 0.0080601407917 0.00277549001628)
(0.0167175630887 0.00996779801522 0.00382499259005)
(0.0182564129114 0.00773662949006 0.00334508804355)
(0.0161613367487 0.00862033710581 0.0049609355837)
(0.0138574919225 0.0105901101217 0.00493936434621)
(0.0159651885146 0.0082345544403 0.00466963855351)
(0.0140184235107 0.00914690567158 0.00654535087033)
(0.0101173747751 0.0111162954905 0.0057083035099)
(0.0124480515518 0.00869971022082 0.00567740043479)
(0.0110046349328 0.00964868570351 0.00765545431621)
(0.00587021155226 0.0115164630725 0.00603124597493)
(0.00825786841113 0.00905439689021 0.00601504671525)
(0.00740808166936 0.0100652880614 0.00837880918769)
(0.00145378003391 0.0117378488501 0.00605876243989)
(0.00376417426362 0.00931900432446 0.0060219798767)
(0.00350992265411 0.0103744093954 0.00865740603969)
(-0.00304598766285 0.0116581034682 0.00613640646226)
(-0.000819386481298 0.00938829585206 0.00604950665881)
(-0.000555988951095 0.0104639161169 0.00875458945011)
(-0.00755732181607 0.0113531219239 0.00593719811003)
(-0.00550160764538 0.00921151100517 0.00616547635057)
(-0.00466609012578 0.0102934541339 0.00869728820514)
(-0.0116710951291 0.0108780463997 0.0051931714797)
(-0.0100494802134 0.00893687152518 0.00593984177562)
(-0.00864214436168 0.00997273685329 0.00808674052914)
(-0.0148933126438 0.010248214095 0.00405544189265)
(-0.0139778216172 0.00848616442844 0.00494213915859)
(-0.0120796799345 0.00949115368893 0.0069630109897)
(-0.0167319826875 0.00954782445735 0.00252275960774)
(-0.01661224161 0.00796333444124 0.00358003588408)
(-0.0145703111532 0.0089350439258 0.00531366329975)
(-0.016670131054 0.00879302320469 0.00056821440938)
(-0.0176547911356 0.00739071487708 0.00181112395801)
(-0.0158341895883 0.00833809719622 0.00311604322858)
(-0.0142492669283 0.00812195960268 -0.00133640561211)
(-0.0163597876862 0.00677383080718 -0.00041670461031)
(-0.0154130998105 0.00775169405903 0.00044731350909)
(-0.00963930211109 0.0076504086258 -0.00231761441039)
(-0.0126700094744 0.00634153697745 -0.00205825942327)
(-0.0131442768736 0.00735762713036 -0.00200465372257)
(-0.00384710435899 0.00735666738298 -0.00111196706115)
(-0.0068546211426 0.00604996841733 -0.00238121845916)
(-0.00872378180044 0.00712171811131 -0.00337729374279)
(-0.00145481474381 0.00589729485897 0.000301708691208)
(-0.00339141252301 0.0072201374476 -0.0015744541782)
(0.0044884662076 0.00455990470301 -0.00113699998259)
(0.00180536713361 0.00302049630126 0.000229804646195)
(0.00382118533685 0.00445486899291 -0.0017256412895)
(0.0108029958003 0.00469471919344 -0.00234533300145)
(0.00763309011415 0.00307505263172 -0.00245389390067)
(0.00966588762947 0.00436364150838 -0.00346939238097)
(0.0158555829977 0.004930997833 -0.00139225122975)
(0.0138932744141 0.00319496791812 -0.0021668057809)
(0.014519762584 0.00446810942535 -0.00205657361765)
(0.0186389802766 0.00528787692037 0.000556368644133)
(0.0179646983679 0.00338017518664 -0.000563472314605)
(0.0170899643842 0.0046531628598 0.000435850427962)
(0.0189719874791 0.0057048769952 0.00260526394947)
(0.0196086402834 0.00366041339928 0.0017377064403)
(0.0177664874015 0.0049616625886 0.003187745808)
(0.0173694278444 0.00609303226787 0.00418973400701)
(0.018791119697 0.00392626330005 0.00355952567959)
(0.0167121703805 0.00528701162971 0.00541289691223)
(0.0143955377182 0.00644451265107 0.00540767464209)
(0.0164437456143 0.00416617987996 0.00492918340716)
(0.0145169796575 0.00559831599526 0.00704222980709)
(0.0104580250509 0.00677248667514 0.00598414364014)
(0.0127836602564 0.00437008352432 0.00599247996121)
(0.0113950304101 0.00589289513645 0.00826710123879)
(0.00606951190505 0.00703986570527 0.00600578061702)
(0.00850198120842 0.00456815914006 0.00598150624494)
(0.00769975251488 0.00617784479914 0.00887471227571)
(0.00147461567025 0.00717222782852 0.00601272409563)
(0.00384864683858 0.00471009559134 0.00598720793659)
(0.00363100918724 0.00637532853855 0.00920376812402)
(-0.0032106569599 0.00713127126093 0.00607857654712)
(-0.000876769791166 0.00474460743274 0.00603450852906)
(-0.000589544536019 0.00643358054222 0.00932892762943)
(-0.00786003537251 0.00693344802939 0.00616812001617)
(-0.00572628087799 0.00464612832754 0.00609545351537)
(-0.00488308475619 0.0063353272938 0.00921473233586)
(-0.0121869657771 0.00664664927877 0.00568880945451)
(-0.0104014338349 0.00449190598617 0.00614750045415)
(-0.00898722528328 0.00611989877254 0.00877187272492)
(-0.0155594311658 0.00629415499792 0.00446673315001)
(-0.0144483027288 0.00431174571764 0.00524599486349)
(-0.0125802511244 0.0058394580207 0.00754686616685)
(-0.0174815180123 0.00588636137911 0.00286840023435)
(-0.0171707505721 0.00405325537495 0.00382703342177)
(-0.015156622032 0.00550739371104 0.00583215136155)
(-0.0174415904703 0.00544528799104 0.000826204938325)
(-0.0182531038827 0.00377690622248 0.00201956175366)
(-0.0164770923366 0.00515671368529 0.00357386688905)
(-0.0149585524238 0.00506187803388 -0.00113855842147)
(-0.0169402924664 0.00347595167663 -0.000289846754623)
(-0.0160608524661 0.00481242492785 0.000814823958064)
(-0.0102151317315 0.00480613300245 -0.00212186347204)
(-0.0131649068663 0.00327780768935 -0.0019261577377)
(-0.0137427190304 0.00460017718127 -0.00167971381851)
(-0.00421383298003 0.00465612694855 -0.000967542706805)
(-0.00721352396705 0.00314660118245 -0.00224592778106)
(-0.00918116200175 0.00447988002006 -0.00309796003107)
(-0.00166745391581 0.00308413821924 0.000360608569784)
(-0.00363338949464 0.00456049609845 -0.00140069689026)
(0.00467432748564 0.00156722926755 -0.00108708927189)
(0.00187466080773 2.1732254714e-05 0.000242640037772)
(0.00393902224316 0.00152971718463 -0.0016755575498)
(0.0110892446762 0.00160517181901 -0.00227536668012)
(0.00775149851354 2.12094101733e-05 -0.00241709684855)
(0.00989085955241 0.00149432827763 -0.003361068276)
(0.0162038497433 0.00167331413507 -0.00133802686575)
(0.0140505300773 1.59605100163e-05 -0.00213438170789)
(0.014808650878 0.00152068139751 -0.00193559774342)
(0.0190202478864 0.00178093811143 0.000617865481561)
(0.0181502060036 8.48855165175e-06 -0.000543625931633)
(0.0174006029548 0.00157122750649 0.000555280399784)
(0.0193509450851 0.00190989007531 0.00269196817042)
(0.0198019737554 -4.38087043164e-07 0.00177629909366)
(0.0180769335613 0.00166542887737 0.00333013688234)
(0.0177217239577 0.00202946148066 0.00429897507974)
(0.0189736787099 -9.05573967247e-06 0.00360323151094)