/*--------------------------------*- C++ -*----------------------------------*\
| =========                 |                                                 |
| \\      /  F ield         | OpenFOAM: The Open Source CFD Toolbox           |
|  \\    /   O peration     | Version:  3.0.1                                 |
|   \\  /    A nd           | Web:      www.OpenFOAM.org                      |
|    \\/     M anipulation  |                                                 |
\*---------------------------------------------------------------------------*/
FoamFile
{
    version     2.0;
    format      ascii;
    class       surfaceVectorField;
    location    "0.7";
    object      ddt0(Uf);
}
// * * * * * * * * * * * * * * * * * * * * * * * * * * * * * * * * * * * * * //

dimensions      [0 1 -2 0 0 0 0];

internalField   nonuniform List<vector> 
22672
(
(5.89057410511e-05 -9.7270060877e-06 -6.92023316827e-05)
(3.82447231494e-05 -2.40633128993e-05 -6.98314777422e-05)
(5.5696907866e-05 7.11253340069e-06 -0.000160395840858)
(9.59657624867e-05 -1.88981011956e-05 -6.63383610444e-05)
(8.32840486343e-05 -3.14548392771e-05 -8.63183223823e-05)
(9.18329908278e-05 7.46747188338e-06 -0.000149372652845)
(0.000143395037156 -3.94945299265e-06 -8.60891633611e-05)
(0.000167182817311 4.18274659273e-06 -0.000123235721155)
(0.000136035527503 2.70254565899e-05 -0.00020254493702)
(0.000181019409361 2.84364538014e-05 -0.000103713267155)
(0.000242143853564 6.27936976233e-05 -0.00014567932438)
(0.000180770959676 5.77255441082e-05 -0.000256443142509)
(0.000176951600122 7.43292339847e-05 -0.000117795171837)
(0.00027991167382 0.000142174621422 -0.000155202642557)
(0.000199994314411 0.000101437564165 -0.000300497090279)
(0.000112281225157 0.00012525526211 -0.000129715643542)
(0.000249765804132 0.00023325912436 -0.000157567201868)
(0.000163858814225 0.000149911113616 -0.000339471881689)
(-9.19057793292e-06 0.000168004320653 -0.000149476357872)
(0.000143673968717 0.000324831490858 -0.000157126165655)
(5.82859487675e-05 0.000197362326073 -0.000384551739732)
(-0.000225367822573 0.000198055296081 -0.000171552896802)
(-4.48427611125e-05 0.000391838248304 -0.000166463128283)
(-0.000117233882105 0.000234682466041 -0.000367884316652)
(-0.000457494094873 0.000215047482716 -0.000184253728432)
(-0.00029652600669 0.000441955790907 -0.000170819412894)
(-0.000341380088241 0.000259039600207 -0.000412313505321)
(-0.000691683179822 0.000212815957158 -0.000193626519949)
(-0.000565799170175 0.000456338838497 -0.000174967797888)
(-0.000581115156529 0.000263891483844 -0.000432713186787)
(-0.000892445821354 0.000191440185133 -0.000201325939046)
(-0.00081617189645 0.00043500396696 -0.000183091064191)
(-0.000803331592573 0.000249805571442 -0.000449696086875)
(-0.00102747524476 0.00015290635171 -0.000202664375706)
(-0.00101542604348 0.000380532261662 -0.000192691582914)
(-0.000972479294659 0.000218827307235 -0.000462102170933)
(-0.00108537441245 0.000102187944414 -0.000194207986542)
(-0.00113893498688 0.000298818334913 -0.000196119820478)
(-0.00106826388714 0.000172556754178 -0.000454666312681)
(-0.00108147287818 4.81873320791e-05 -0.000171872249441)
(-0.00117736374156 0.000198261305564 -0.000192628863629)
(-0.00108515729439 0.000118651391035 -0.000409023866788)
(-0.000969332125089 -6.2460879176e-06 -0.000145515024319)
(-0.00112304155519 0.000101170954439 -0.000176573029624)
(-0.00102398675303 6.2280154741e-05 -0.000409596987958)
(-0.000809955453291 -5.77277125841e-05 -0.000123673588692)
(-0.000984862215701 1.13752620541e-05 -0.00016337728227)
(-0.000894038638335 9.16902899987e-06 -0.000353920455776)
(-0.000622414405392 -9.41371004732e-05 -9.93526748218e-05)
(-0.00079132455983 -6.13672659346e-05 -0.000144772143073)
(-0.000720271541091 -3.7779791016e-05 -0.000295934337202)
(-0.00042725025081 -0.000109222014865 -7.15437780985e-05)
(-0.000570558728136 -0.000126365015194 -0.000117054013579)
(-0.000531728478834 -7.00145661356e-05 -0.000230277194249)
(-0.000259719606063 -9.97327663899e-05 -6.19382561521e-05)
(-0.000351811211779 -0.000168824820446 -7.54765327346e-05)
(-0.000347724138886 -8.72514356623e-05 -0.000165747508552)
(-0.000149070678834 -0.000186433880236 -5.93571123099e-05)
(-0.000157132116468 -8.91025564353e-05 -0.000191250063085)
(4.49553995395e-05 -4.03058667106e-05 -8.69474684418e-05)
(3.03977346915e-05 -6.10728029892e-05 -7.29924727781e-05)
(5.94553532203e-05 -3.81280538048e-05 -0.00015261523182)
(0.000119566027666 -2.57088051751e-05 -0.000143215682493)
(9.91394068878e-05 -3.79474674523e-05 -0.000150021974797)
(0.000108081171981 -2.52791969102e-05 -0.000229830105964)
(0.000223590413578 4.27189037179e-05 -0.000182825882174)
(0.000248870940333 4.61382171443e-05 -0.000211869500552)
(0.00020547150135 4.166379124e-05 -0.000315275668643)
(0.000307507148034 0.000149258786867 -0.000197168699781)
(0.000374325194728 0.000176468853616 -0.000233493872703)
(0.000290998232625 0.000145703986522 -0.00037318609694)
(0.000329107483444 0.000281173130274 -0.000194974672588)
(0.00044499742376 0.000340210549238 -0.000227329969641)
(0.000336477983179 0.00027738976238 -0.000402969927162)
(0.000264075996315 0.000419306774851 -0.000184977723981)
(0.00042451228853 0.000515951107144 -0.00020593255791)
(0.000309840407993 0.000420280092439 -0.000410476215318)
(0.000107289424453 0.000538796350287 -0.000174112936065)
(0.000298747330765 0.000684752112648 -0.000178834503946)
(0.000193825677379 0.000556315429199 -0.00040639833746)
(-0.000131957979351 0.000626227641351 -0.000165729644375)
(7.27355988599e-05 0.000819235049699 -0.000154396806251)
(-9.74470741488e-06 0.000664261868509 -0.000401532048608)
(-0.000415787263616 0.000672597066844 -0.00016153348235)
(-0.000228602104404 0.00090567787648 -0.000138616301223)
(-0.000276746703225 0.000734442946019 -0.000401755354647)
(-0.000704869949907 0.000665602764946 -0.000164432342131)
(-0.000561959617872 0.00092714565639 -0.00013358082566)
(-0.000569333264225 0.000750012899467 -0.000409548382033)
(-0.000955697969268 0.000605826033975 -0.00017445670806)
(-0.000875821085365 0.00088082357116 -0.000142406834572)
(-0.000842119035371 0.000711916089186 -0.000425925408824)
(-0.00113620636477 0.000500057954426 -0.000186147027686)
(-0.00113065873034 0.000772498092704 -0.000160043265874)
(-0.00105710794749 0.000626427528535 -0.000442638205669)
(-0.00122555949782 0.000360592744816 -0.000194540697566)
(-0.00129539897939 0.000613925161306 -0.000180539511529)
(-0.00118790536608 0.000498048271427 -0.000454300991085)
(-0.00121913569488 0.000207880265319 -0.000197329643813)
(-0.00135205643246 0.000424077668886 -0.000198714673076)
(-0.00122250489498 0.000343733150558 -0.000455141211729)
(-0.0011173933316 5.62878754929e-05 -0.000194435287576)
(-0.00129910241875 0.000226636400989 -0.000212372787542)
(-0.0011636499164 0.000183108322584 -0.000441541993309)
(-0.000934139203647 -8.38202484061e-05 -0.000184475836651)
(-0.00114825741908 3.72190800776e-05 -0.000220026186349)
(-0.001022807916 2.91078441994e-05 -0.000412890681544)
(-0.000696933543579 -0.000195663460425 -0.00016247348183)
(-0.00092068525343 -0.000126000170917 -0.000215156572293)
(-0.000821588190538 -0.000107285653555 -0.00036591228154)
(-0.000450890774095 -0.000269171081214 -0.000120986768215)
(-0.000651117505738 -0.000259606263423 -0.000190438698447)
(-0.000592420358642 -0.000214867622283 -0.000300392209592)
(-0.000242025077586 -0.000298664044885 -7.28953888924e-05)
(-0.000378559933151 -0.000351544682513 -0.000133454370605)
(-0.000366862794475 -0.00028733983354 -0.000219004679187)
(-0.000146983727861 -0.000402209253871 -7.69109326432e-05)
(-0.000159747284762 -0.00031989347731 -0.000161787227156)
(7.95829165031e-05 -2.07280694394e-05 -0.000136066979133)
(4.5681437482e-05 -6.86065569282e-05 -0.000106946901456)
(8.11272392048e-05 -6.49120365532e-05 -0.000226430070133)
(0.000204233741207 5.89975921349e-05 -0.000218675792856)
(0.000167980386074 4.40452681868e-06 -0.000205602564991)
(0.000177093755359 3.01582236721e-06 -0.000339223397222)
(0.000359080013508 0.000195656501523 -0.000262537491082)
(0.000385557263383 0.000138959924068 -0.000272883477958)
(0.000333877289958 0.000131561541465 -0.000428614346434)
(0.000483305174131 0.000377444712549 -0.000263655142562)
(0.000562251297768 0.00033056343035 -0.000281126811519)
(0.000463309177016 0.000311536547577 -0.000466779865637)
(0.00052459432957 0.000584495914403 -0.000238287854963)
(0.000662033042228 0.000561827642882 -0.000249589286449)
(0.000535432201838 0.000526202428161 -0.000459609764124)
(0.000452409879074 0.000791808528871 -0.000199789337875)
(0.00064360256554 0.000803088817537 -0.000196588850273)
(0.000511926882997 0.000750585378663 -0.000420152670825)
(0.000261888793166 0.000972077640448 -0.000159118374131)
(0.000490788544879 0.00102766311353 -0.000137303517371)
(0.000373224489695 0.000960169311878 -0.000365151537285)
(-2.83651484677e-05 0.00110330245493 -0.000127283463098)
(0.000213926340769 0.00120479869351 -8.25623474089e-05)
(0.000124053718141 0.00112783968748 -0.00031363063565)
(-0.000383366910361 0.00116792645279 -0.000110663644532)
(-0.000157163400148 0.00132254535773 -4.95812011814e-05)
(-0.000208289334563 0.0012332220836 -0.00028334137974)
(-0.000747257463148 0.00115149387784 -0.000111555318101)
(-0.000575603645111 0.00135026786484 -3.64825775244e-05)
(-0.000576408555156 0.00125915383967 -0.000281912281899)
(-0.0010673351039 0.00105396043512 -0.000127993392386)
(-0.000974437004204 0.00127877834797 -4.93458410117e-05)
(-0.00092109783151 0.00119788072932 -0.000300792415524)
(-0.0013050759433 0.000888479081988 -0.000154435749717)
(-0.00130042973594 0.00111976324721 -8.09572989074e-05)
(-0.0012006064063 0.00105597339398 -0.000332536219806)
(-0.00143052112768 0.000674875907823 -0.00018471348704)
(-0.00151573456546 0.000893736785648 -0.000125168508927)
(-0.0013805043867 0.000851550881549 -0.000377448613826)
(-0.00143324098084 0.000438057980864 -0.000213757816806)
(-0.00159707093767 0.000624664982951 -0.000169564367685)
(-0.00143914260355 0.000609766629695 -0.000420343723346)
(-0.00132000459413 0.000200917687487 -0.000237963686316)
(-0.00154486753633 0.000346734413803 -0.000213166386311)
(-0.00138105173643 0.000356407243165 -0.000453769677602)
(-0.00111014231492 -1.63489565517e-05 -0.000250706921992)
(-0.00137299324468 8.06505088897e-05 -0.000249011342282)
(-0.00122338772897 0.000112113707648 -0.000470367268672)
(-0.00083444084516 -0.000200005909036 -0.00024312178891)
(-0.00110830257785 -0.000154136430307 -0.000268289997047)
(-0.000992524372316 -0.000104221429393 -0.000461349152367)
(-0.000539818278459 -0.000341743211191 -0.000202906300837)
(-0.000789984480619 -0.000347696149409 -0.000257989821687)
(-0.000721518744206 -0.000286343388966 -0.000421220756796)
(-0.000281519058961 -0.000435034545877 -0.000137469914356)
(-0.000456987033669 -0.000487059220423 -0.000202205375535)
(-0.000442895019809 -0.000421839976279 -0.000348083888719)
(-0.000168707535154 -0.000575474946296 -0.000130830853617)
(-0.000184116894331 -0.000507364745555 -0.000267047168393)
(0.000137221095759 1.11787411166e-05 -0.000176482487314)
(7.55855336202e-05 -5.64223969301e-05 -0.000143691190078)
(0.000111752586964 -6.43181350804e-05 -0.000312580361604)
(0.000332329347579 0.000136538957955 -0.000259810250093)
(0.000271589827796 5.8365432448e-05 -0.000240743215195)
(0.000280345074087 4.00590043107e-05 -0.000431742164006)
(0.000551884113369 0.000322374545816 -0.000291472798395)
(0.000565733265803 0.000230780774382 -0.00029767838053)
(0.000513634382699 0.000211652137967 -0.000504032195192)
(0.000719267628536 0.000558447723284 -0.000267060955405)
(0.000798596181417 0.000465043295037 -0.000280657486545)
(0.000697786954481 0.000444965092525 -0.000502341873686)
(0.000776652961993 0.00081891751452 -0.000207890281759)
(0.000925898208619 0.000737442479806 -0.000214864844848)
(0.000796642982851 0.000717646206347 -0.000439952623838)
(0.000687644558512 0.00107421381303 -0.000134103029769)
(0.000903565194124 0.0010187654024 -0.000125113731571)
(0.00077047550185 0.000998941935501 -0.000337345560739)
(0.000447286406195 0.00129666364788 -6.07474906489e-05)
(0.000718052579134 0.00127861681803 -3.22125201776e-05)
(0.000599320056096 0.00126072020923 -0.000220926261815)
(9.42294456121e-05 0.00145729708783 -4.8600854919e-06)
(0.000378472464389 0.00149207195564 5.23776217272e-05)
(0.000288932196005 0.00147470994459 -0.000139998330411)
(-0.000353500545268 0.00153218248025 2.45998658267e-05)
(-7.98279145657e-05 0.00161642972098 0.000106852478151)
(-0.000126048874919 0.00160880569994 -4.46580670418e-05)
(-0.000816419946235 0.00150526785495 2.57268995648e-05)
(-0.000601880980686 0.00164260901556 0.000129443039295)
(-0.000593846686881 0.00164293275385 -2.06372846933e-05)
(-0.00122915998493 0.0013740423025 -2.30974753272e-06)
(-0.00110667941894 0.00155191353787 0.000110403265793)
(-0.00104321381047 0.00156012991125 -4.72235633251e-05)
(-0.00153586842376 0.00115533650217 -5.16900581175e-05)
(-0.00152139339126 0.00135485689208 5.89521971974e-05)
(-0.00140935616746 0.0013679317631 -0.000115581022223)
(-0.00170526384019 0.000877273615532 -0.000110019389573)
(-0.0017968877272 0.00107526184802 -1.38527693789e-05)
(-0.00164648221517 0.00109515920237 -0.00020448023097)
(-0.00172122876956 0.000571667212683 -0.00016897293719)
(-0.00190619842507 0.000749667830894 -9.15496400346e-05)
(-0.00173364885669 0.000775021910178 -0.000309733329263)
(-0.00159512171426 0.000267503295759 -0.000224214042277)
(-0.00185247099526 0.000412555975717 -0.000167644976918)
(-0.00167789758191 0.00044371669492 -0.000402053539728)
(-0.00135125163796 -1.20418448132e-05 -0.000266594417338)
(-0.00165482389487 9.23979290822e-05 -0.000235135495637)
(-0.00149689710237 0.000128872238431 -0.000475035136432)
(-0.00102553880265 -0.000252299952462 -0.000283158029824)
(-0.00134767225754 -0.000191363288522 -0.000283806976881)
(-0.00122522341016 -0.000150499698817 -0.000517202593567)
(-0.000671428029914 -0.000441298562174 -0.000257288896385)
(-0.000971299961757 -0.000425595193338 -0.000296259826402)
(-0.000900707604419 -0.000384822029477 -0.000517408135747)
(-0.000346120089835 -0.000572365998195 -0.000195566314796)
(-0.000564040902726 -0.000604064481576 -0.000253829795805)
(-0.000551343191507 -0.000560743619966 -0.000469056629302)
(-0.000201234946663 -0.00071688274411 -0.000190434673563)
(-0.000218916152043 -0.000675190675872 -0.000388525881191)
(0.000214994372837 3.81375697411e-05 -0.000207951917958)
(0.000119130900769 -4.90565255114e-05 -0.000179164488949)
(0.000152483627041 -5.73228744073e-05 -0.000396257894314)
(0.000492686239888 0.000193655039741 -0.000278611345632)
(0.000399200133214 9.01238726492e-05 -0.00026338821482)
(0.000408453783142 7.32404202449e-05 -0.000504603357407)
(0.000781013425152 0.000407311149048 -0.00028686306868)
(0.000770596578501 0.000280926752027 -0.000298997748216)
(0.000725913144166 0.000270088012482 -0.000544045521076)
(0.000992173086765 0.000670301402039 -0.000228461375988)
(0.00105901141863 0.000530684501531 -0.000250440833707)
(0.000969375534687 0.000531775240426 -0.000488292624697)
(0.00106027569095 0.000954742662121 -0.00013208829466)
(0.0012107143708 0.000815758608732 -0.000147487053092)
(0.00109718387492 0.000832518063103 -0.000358698722358)
(0.000954271808982 0.00123190199863 -2.3223221979e-05)
(0.00118215336982 0.00110530475119 -2.17068656177e-05)
(0.00106689227499 0.00114330652795 -0.000186231660373)
(0.000667180699879 0.00147451120084 8.09125921985e-05)
(0.000962338210485 0.0013754629718 0.000105819812828)
(0.000862134900539 0.00143624331558 -6.34617764096e-07)
(0.00022548058431 0.00164914182005 0.00016409018537)
(0.000554401211292 0.00159617681313 0.000220648646562)
(0.000483946620796 0.00168042826983 0.000167964883135)
(-0.000323742432271 0.00172790840084 0.00021169565162)
(-3.67875092898e-07 0.00173279273667 0.000301613158191)
(-3.13852654249e-05 0.00183546118653 0.00028648016425)
(-0.000904839996828 0.00169231021459 0.000214119405523)
(-0.000637532182067 0.00176066582052 0.00033619697378)
(-0.000620580264896 0.00187514716394 0.000336091189129)
(-0.0014287316241 0.00153812486367 0.000171665210523)
(-0.00126155882365 0.00165816456759 0.000310735116074)
(-0.00119577212985 0.00177619778756 0.000301084056912)
(-0.00182174537845 0.00128387558967 9.6789485936e-05)
(-0.00177672857862 0.0014380281694 0.000235569472023)
(-0.00166893436247 0.00154992501924 0.000191852423511)
(-0.00203873412432 0.000961368051029 4.6169801594e-06)
(-0.00212066304444 0.00112656839628 0.00012941147178)
(-0.00197952953832 0.00122599718526 3.48443707959e-05)
(-0.0020653251702 0.000609471121536 -9.02216797625e-05)
(-0.00225935806604 0.000762076652215 1.19233794844e-05)
(-0.00209811925063 0.000845849228904 -0.000137947064222)
(-0.00192066908003 0.000263276057633 -0.000178566430278)
(-0.00219960741582 0.000390623754029 -0.000100183275939)
(-0.00203436704118 0.000458086192832 -0.000300761911556)
(-0.00163621877554 -5.31215437759e-05 -0.00025234805518)
(-0.00197100999714 4.10831278171e-05 -0.000199848053467)
(-0.00182139181723 9.53972019547e-05 -0.000438754453392)
(-0.0012559895614 -0.000324902358375 -0.000296908773459)
(-0.0016162029237 -0.000265858272555 -0.000278916299433)
(-0.00150174591887 -0.000223063546974 -0.000538943353481)
(-0.000836044436742 -0.000541769558699 -0.000292800725822)
(-0.00117797067525 -0.000519085551455 -0.000318342515974)
(-0.0011116875658 -0.000486590278527 -0.000588705516865)
(-0.000446778029836 -0.000699320422538 -0.000248698154572)
(-0.000692811369627 -0.000712405789947 -0.000296500226943)
(-0.000679178211788 -0.000687902640516 -0.000574648084785)
(-0.000243856007358 -0.000854286715607 -0.000252419025486)
(-0.000259789194615 -0.000822408272931 -0.000516087228796)
(0.000305407491561 3.81145487011e-05 -0.000234600785811)
(0.000168127014365 -6.64548520974e-05 -0.000212226750384)
(0.000200856386576 -6.3097814838e-05 -0.000475001558393)
(0.000668170936011 0.000203197860918 -0.000283774617405)
(0.000533393489771 7.66116306273e-05 -0.000277474608633)
(0.000549283341831 7.87857904379e-05 -0.000558746422307)
(0.00102353671719 0.000420230688386 -0.000262575513243)
(0.000977420204717 0.000260678113522 -0.000286583090516)
(0.000950776935888 0.000279648745268 -0.000553819065459)
(0.00127304745867 0.000680003240267 -0.000169466510811)
(0.00131504688004 0.000498843667577 -0.00020532207751)
(0.00125312650954 0.000542051743586 -0.000437196231576)
(0.00135361699074 0.000956890801346 -3.71056240499e-05)
(0.00148681173184 0.000762914769206 -6.70767482337e-05)
(0.00140872878727 0.000838360501241 -0.00023752158334)
(0.00122721908799 0.00122823134604 0.000107336169189)
(0.00145371133289 0.00103508467382 9.39142831395e-05)
(0.00137830496188 0.00114964208384 9.78181625408e-06)
(0.000890894888285 0.0014659397634 0.000245555867191)
(0.00120048212843 0.00128927006737 0.000256428750342)
(0.00114174951037 0.00144844659383 0.000271401920943)
(0.000362606964083 0.00163852875656 0.000358171619383)
(0.000727293907498 0.00150206694025 0.000406265267244)
(0.000692978111529 0.00170141738465 0.000514972901653)
(-0.000296749628367 0.0017173282971 0.000426114480351)
(7.8486534035e-05 0.00163349634782 0.000515174322764)
(7.20210954405e-05 0.00186682690192 0.000694608371261)
(-0.00100443879042 0.00167706770138 0.00043281268433)
(-0.000678006596499 0.00165973333749 0.000566498066869)
(-0.000651706241383 0.00191181224516 0.000778287453383)
(-0.0016493440792 0.00151253649621 0.000374639377573)
(-0.00142651006622 0.00155408170094 0.000537263914604)
(-0.00136884875947 0.00180523123325 0.000735233308434)
(-0.0021350893568 0.00124436240266 0.000268191457867)
(-0.00204540756538 0.00132903283847 0.000436060665015)
(-0.00196146548697 0.00156067019801 0.00057709675721)
(-0.00240313366985 0.000903931854492 0.000136717871105)
(-0.00246160056188 0.00101005973605 0.000290232870047)
(-0.00235350058836 0.00120973550363 0.000343857554406)
(-0.00244024906889 0.000534033393742 1.96178330783e-06)
(-0.00262968407404 0.000638307759624 0.000127770059356)
(-0.00250474145504 0.000798537868245 8.26331547561e-05)
(-0.00227113238336 0.000172620451944 -0.000121464899128)
(-0.00256114821233 0.000260826355111 -2.44589010751e-05)
(-0.00243040446503 0.000383423519315 -0.000163909582149)
(-0.00194212888362 -0.00015551247909 -0.00022641629772)
(-0.00229819813158 -8.78519758359e-05 -0.000157370171432)
(-0.00217632162609 -1.6763354834e-06 -0.00037491720045)
(-0.00150203402535 -0.00043344700449 -0.000300350041949)
(-0.00189025591489 -0.000392723942962 -0.000266050442479)
(-0.00179679374215 -0.000333735707471 -0.000538377138676)
(-0.00101176219208 -0.000656200936062 -0.000322042017096)
(-0.00138992261913 -0.000641771603426 -0.000333457085946)
(-0.0013380433595 -0.000603365141345 -0.000642031908341)
(-0.000536900378397 -0.00082458396247 -0.000300221097857)
(-0.000831124929598 -0.000834998271466 -0.000336181058394)
(-0.000822395401223 -0.000811833394814 -0.000671971580497)
(-0.000292436593691 -0.000975494809334 -0.000315509709493)
(-0.000307070229322 -0.000956529517039 -0.000640404866801)
(0.000393839784515 -4.69205953441e-06 -0.000255100573206)
(0.000211491979198 -0.000119320020727 -0.000241997004741)
(0.000247591843008 -9.75757427863e-05 -0.000542780467979)
(0.000837645614821 0.00014756993801 -0.000280283081745)
(0.000654314763189 2.93337633508e-06 -0.000283305178863)
(0.000684423460987 3.59854915922e-05 -0.000594698265476)
(0.00124866162966 0.000341589107037 -0.000229329654784)
(0.00116075270048 0.000160573877368 -0.000266047154341)
(0.00116263674075 0.000219514211606 -0.000541431241761)
(0.00153413369937 0.000568532551423 -0.000102932314933)
(0.00153784544072 0.000354058180523 -0.000153249955505)
(0.00151695135288 0.000451026119775 -0.000363623839567)
(0.0016207949589 0.000810919076334 6.39431589557e-05)
(0.00172792020901 0.000569382353296 1.73231585162e-05)
(0.00170168392058 0.000714020900373 -9.14555438944e-05)
(0.00148183421222 0.00104831783043 0.000243006864292)
(0.00169092479013 0.000791096784212 0.000211842974115)
(0.00167744837313 0.000994034463711 0.000228700600763)
(0.00110255870337 0.00125783213474 0.000417138150395)
(0.00141007646451 0.00100175171029 0.000409956331446)
(0.00141553189929 0.00126661448399 0.000573389173529)
(0.000497512582218 0.00141088484668 0.000563267970626)
(0.000880433486562 0.00117948695064 0.00059885402696)
(0.000903822980536 0.00150498481272 0.000903258447639)
(-0.000269686399747 0.00147813437613 0.000655557909282)
(0.000145700918112 0.00128672241829 0.000737958639199)
(0.000179829051027 0.0016616602718 0.0011543585416)
(-0.00110507093479 0.00143368169236 0.000670949297143)
(-0.000722622924563 0.00130214291824 0.000809024843633)
(-0.000682142022588 0.00170451350901 0.00128110176557)
(-0.00187358801522 0.00127194189618 0.000598685202046)
(-0.00158851710467 0.0011974259081 0.00077742989336)
(-0.00154752243584 0.00159649733587 0.0012348389578)
(-0.00245457555746 0.00101278795228 0.000458102077195)
(-0.00230488090824 0.000988044084757 0.000649728638353)
(-0.00226555478083 0.00135460193029 0.00102365575109)
(-0.00277481622033 0.000683823886754 0.000281285058298)
(-0.00279089242812 0.000693719694667 0.00046286209845)
(-0.00274311111241 0.00100704711769 0.000703303579211)
(-0.00281827940992 0.000327200789401 0.000101349374973)
(-0.00298655473985 0.000353788289341 0.000249976900722)
(-0.00292574853833 0.000600503835286 0.000339204871287)
(-0.00262131085287 -1.59917245461e-05 -6.03641733792e-05)
(-0.00290430316105 8.57922695612e-06 5.50546657761e-05)
(-0.00283458513569 0.000193794711738 -2.00929742138e-06)
(-0.00224343316772 -0.000324499049785 -0.000197004316191)
(-0.00260565203305 -0.000304292721079 -0.000114199994321)
(-0.00253452742159 -0.000175519185445 -0.000293488555898)
(-0.00174314365647 -0.000585318911119 -0.000299157486477)
(-0.00214725308377 -0.000576284465169 -0.000250968178868)
(-0.00209040403794 -0.000491872240684 -0.000523531760513)
(-0.00118556615588 -0.0007921898777 -0.000347596127245)
(-0.00158643411916 -0.000794537453315 -0.000345267260087)
(-0.00155901246358 -0.000745170269701 -0.000682370437629)
(-0.000635423039026 -0.00095099576817 -0.00035146967003)
(-0.000961039631843 -0.000964757833151 -0.000372472805091)
(-0.000962946143813 -0.000938846655912 -0.000757153468442)
(-0.000339327248112 -0.0010962431194 -0.000375922589845)
(-0.000354758433204 -0.00107777636442 -0.000751411264026)
(0.000465594174328 -0.000102445520183 -0.000270201610398)
(0.000244495419075 -0.000227441727875 -0.000264397095368)
(0.000284946461218 -0.000176141088542 -0.000574470622167)
(0.000974205761165 1.94628536581e-05 -0.00026906925146)
(0.000747525145811 -0.000133387520235 -0.000281795826546)
(0.000797162876977 -6.53224251568e-05 -0.000611151973856)
(0.00143187730601 0.000165305551632 -0.000189967455062)
(0.00129657144928 -2.44649275868e-05 -0.00024122932815)
(0.00133666825217 7.75486883367e-05 -0.000512427825235)
(0.00174287284044 0.000331879598791 -3.29944820554e-05)
(0.00170048494702 0.000100235898937 -0.000102206774311)
(0.00173445207108 0.000248724592192 -0.000278686991466)
(0.0018408431027 0.000508618740789 0.000165222973676)
(0.00190335177177 0.000237482510914 9.51905928681e-05)
(0.00194685058317 0.000446651979862 5.42549708713e-05)
(0.00169293225929 0.000679724210055 0.000378792441269)
(0.00186178619793 0.000374671128753 0.000318199203008)
(0.00192986643174 0.00065589613196 0.00045154085105)
(0.00128073613634 0.000830433199258 0.00059167220801)
(0.00156081419928 0.000506336690932 0.000548238620622)
(0.00165299720135 0.000864166331678 0.000881168310987)
(0.000608055282259 0.00093542614538 0.000773544695532)
(0.000985509591786 0.000616324987941 0.000773496334835)
(0.00108847016333 0.00104823647077 0.00130268927625)
(-0.000253103651285 0.000971440892858 0.00089142557355)
(0.000181731184311 0.000670795411595 0.000934047319046)
(0.000271646019925 0.00116428924361 0.00162785614949)
(-0.00120424217496 0.00091673354274 0.00091550543985)
(-0.000777389501269 0.000663422978541 0.00102101978763)
(-0.00071714560756 0.00118758119873 0.00179984770572)
(-0.00208140793453 0.000769502146387 0.000828473329668)
(-0.00173587176225 0.000558741105117 0.000985073745675)
(-0.00171928240544 0.00107790663189 0.00175022241545)
(-0.00274796709065 0.000548305592323 0.000654488659609)
(-0.00252626452435 0.000388721915485 0.000838210818917)
(-0.00255169439143 0.000864240391128 0.00148698457661)
(-0.00311678685928 0.000272542948608 0.000431553940874)
(-0.00306689449365 0.000157261716603 0.000617993155397)
(-0.00310857966611 0.0005628008003 0.00107935518755)
(-0.00316128916934 -2.51670749818e-05 0.000203682191525)
(-0.00328444898564 -0.000108033657618 0.000361676409669)
(-0.00331877972431 0.000214447885616 0.000607595744466)
(-0.00293599940502 -0.000310273354614 1.21884483471e-06)
(-0.00318935196263 -0.000372021538032 0.000127832225056)
(-0.00320581103073 -0.000131813312287 0.000167036896696)
(-0.00251065975892 -0.000563207418397 -0.000168163856998)
(-0.00285765068831 -0.000607231129052 -7.65295015258e-05)
(-0.00285726681204 -0.000441389851331 -0.000208535052175)
(-0.00195576897 -0.000776173831262 -0.000297077952478)
(-0.00235688881841 -0.000808144727417 -0.00023910778164)
(-0.00235285312178 -0.000702618514531 -0.000506782975738)
(-0.00133889415003 -0.000945120754372 -0.000370143937933)
(-0.0017463018795 -0.000970698177899 -0.000356713676725)
(-0.00175426216711 -0.000911537275644 -0.000714891163494)
(-0.000720985726434 -0.00107735571887 -0.000396925724906)
(-0.00106767029572 -0.00109687098033 -0.000404723580913)
(-0.00108622075669 -0.00106925544215 -0.000831422247905)
(-0.000378700100817 -0.0011988898979 -0.000427229726779)
(-0.000397020865769 -0.00118525651751 -0.000861613342029)
(0.000520513396251 -0.000249940126787 -0.000275991311515)
(0.00026383413421 -0.000368974060712 -0.000276332051188)
(0.000310952348719 -0.000296119355563 -0.000609911439693)
(0.00106524421749 -0.000175139867363 -0.000253955903236)
(0.0007990277664 -0.000318159186858 -0.000275340282855)
(0.000871933003445 -0.000221857292367 -0.000610918787629)
(0.0015491846618 -9.79324474012e-05 -0.000153468647399)
(0.00136555428723 -0.000277060784603 -0.000217750384681)
(0.00144813367898 -0.000141806175635 -0.000477464195218)
(0.00187261357885 -1.56239336516e-05 2.59783006129e-05)
(0.00177949014939 -0.000239567168836 -6.13046854206e-05)
(0.00187279886085 -5.2709680572e-05 -0.000200463693058)
(0.0019769581718 6.6994400668e-05 0.0002481668222)
(0.00198481266846 -0.000205229316352 0.000153797600725)
(0.00210349743529 4.71656244601e-05 0.000179865920981)
(0.00182216495981 0.000143619122909 0.000487645382361)
(0.00193820365533 -0.000177581713687 0.000396657029143)
(0.00209357490627 0.000151200826063 0.000635947966418)
(0.00138599853043 0.000206720991519 0.000730062747447)
(0.00162400647589 -0.000154978359478 0.000648638473103)
(0.00180796235592 0.000255563367249 0.00113434509184)
(0.00066583842701 0.000238733391598 0.000933998958349)
(0.00101771260122 -0.000144445315473 0.000898552784939)
(0.00120435640771 0.000344313977142 0.00163035086937)
(-0.000261827877898 0.000230348546278 0.00106364153313)
(0.000173498008981 -0.000161799591349 0.00106840293629)
(0.000319395966085 0.000387846268447 0.00200773001451)
(-0.00129722384768 0.000163407820854 0.00109058809346)
(-0.00084425156466 -0.000201050266216 0.0011680553847)
(-0.000768569233328 0.000379723717106 0.00221403854369)
(-0.00224938122492 4.09732480761e-05 0.000994811234924)
(-0.00185831535347 -0.000304882503335 0.00112173286975)
(-0.00187111314353 0.00026348333411 0.00215500820238)
(-0.00297560001375 -0.000117790768643 0.000801715314705)
(-0.00268514693397 -0.000420148896525 0.000964576876522)
(-0.00278121809819 0.000105913272995 0.001855660403)
(-0.00337494206882 -0.000307277794675 0.000548115624192)
(-0.00325659714282 -0.00056068985039 0.000724642275464)
(-0.00339375157951 -0.000108557584983 0.0013804840385)
(-0.00342062385705 -0.000507211957413 0.000285826443201)
(-0.00348455878638 -0.000711088290442 0.000439921151137)
(-0.00362108054313 -0.000349467292239 0.000824884636708)
(-0.00317254866365 -0.000695663545639 5.00838786958e-05)