/*--------------------------------*- C++ -*----------------------------------*\
| =========                 |                                                 |
| \\      /  F ield         | OpenFOAM: The Open Source CFD Toolbox           |
|  \\    /   O peration     | Version:  3.0.1                                 |
|   \\  /    A nd           | Web:      www.OpenFOAM.org                      |
|    \\/     M anipulation  |                                                 |
\*---------------------------------------------------------------------------*/
FoamFile
{
    version     2.0;
    format      ascii;
    class       volScalarField;
    location    "0.7";
    object      k_0;
}
// * * * * * * * * * * * * * * * * * * * * * * * * * * * * * * * * * * * * * //

dimensions      [0 2 -2 0 0 0 0];

internalField   nonuniform List<scalar> 
7968
(
0.0131927103571
0.0134617967076
0.013599783306
0.0136440165604
0.0136549856459
0.0136569370585
0.0136567339447
0.0136560726711
0.0136553654426
0.0136546461715
0.0136540244006
0.0136540973519
0.0136547085994
0.0136553028884
0.0136555543645
0.0136537560849
0.0136430093535
0.0135990474031
0.0134614515765
0.0131927442473
0.0134618077009
0.0153310466096
0.0162743336382
0.0166118629078
0.0167098204204
0.0167320393735
0.0167341725721
0.0167319192575
0.0167292797651
0.0167274123606
0.0167267719855
0.0167276060609
0.0167295028345
0.0167312921737
0.0167290176869
0.0167069884613
0.0166094893941
0.0162726477209
0.015330231801
0.0134617658232
0.013599817322
0.0162743763487
0.0177638269964
0.0183573744738
0.018552306564
0.0186042467133
0.0186132925382
0.0186116861866
0.018608499868
0.0186063019887
0.018605789547
0.0186069435998
0.0186091219265
0.0186100148037
0.0186006804727
0.0185489010746
0.0183546000904
0.0177619382483
0.0162734205383
0.0135997105547
0.0136440571222
0.0166119767965
0.0183574338317
0.0190949839017
0.0193532050096
0.0194271940023
0.0194419764406
0.0194412399309
0.0194393010231
0.019438072807
0.0194376768381
0.019438106145
0.0194389461638
0.0194386189598
0.0194232693155
0.0193493433773
0.019091718821
0.018355163337
0.0166107290004
0.0136439096946
0.0136550545112
0.016710031408
0.0185525096216
0.0193534104698
0.0196424247853
0.0197278612373
0.0197467479868
0.019749941833
0.0197492072074
0.0197481979175
0.0197478599499
0.0197482175836
0.0197483144505
0.0197443564728
0.0197239227774
0.0196381684317
0.0193495945308
0.018549665841
0.016708360866
0.0136548077001
0.013657050467
0.0167324109788
0.0186047859287
0.0194278082575
0.0197283385951
0.0198193865841
0.0198433844339
0.0198472684865
0.019846358463
0.0198451445086
0.0198447852593
0.019845320604
0.0198456274572
0.0198413302102
0.0198168818615
0.019724044939
0.0194235302262
0.0186013229563
0.0167302797157
0.0136567061342
0.0136568706768
0.0167347175266
0.0186141259213
0.0194430425487
0.0197470609261
0.0198434612564
0.0198680699826
0.0198715927293
0.0198701723129
0.0198686420242
0.0198682419889
0.0198690384667
0.0198698047959
0.0198658914175
0.0198411403636
0.0197442100548
0.0194386296075
0.0186102464121
0.0167322091724
0.0136565243145
0.0136561663488
0.0167325565898
0.0186126402974
0.0194424680694
0.0197500882125
0.0198473716363
0.0198716393485
0.0198745744441
0.0198725706716
0.019870696305
0.0198702436112
0.0198713173307
0.0198726128283
0.0198692603547
0.0198449158701
0.0197476856869
0.0194381674538
0.018608504003
0.016729776059
0.0136560122712
0.0136554450819
0.0167298164218
0.0186092584642
0.0194393094669
0.0197492330243
0.019846388246
0.019870162522
0.0198725510127
0.0198700121937
0.0198678163243
0.0198672949204
0.0198685953518
0.019870356275
0.0198675710957
0.0198437233788
0.0197467580592
0.0194367387494
0.0186050441479
0.0167268844466
0.0136553561563
0.0136547165494
0.0167276998184
0.0186066249234
0.0194378020982
0.0197480372629
0.0198449915805
0.0198684651016
0.0198705475224
0.0198676875595
0.0198652709324
0.0198646530969
0.01986603496
0.0198680549378
0.0198656021871
0.0198420870084
0.0197453874026
0.0194354353878
0.018602571074
0.0167247685141
0.013654643254
0.0136540581481
0.0167267475794
0.018605619771
0.0194372219557
0.0197475002721
0.019844405397
0.0198678395523
0.0198699031436
0.0198669836948
0.0198644830582
0.0198637246373
0.0198650587344
0.0198671098016
0.0198647250423
0.0198413132914
0.0197447349615
0.0194348319932
0.0186018129241
0.0167238787616
0.0136539721004
0.0136538736406
0.0167273495918
0.0186065407932
0.0194375762577
0.0197477625786
0.0198447923195
0.0198684518977
0.0198707923692
0.0198680870611
0.0198656293879
0.0198648050109
0.0198659906721
0.0198678362538
0.0198652293749
0.0198416477233
0.0197449888531
0.0194350535871
0.0186025566993
0.0167242414879
0.0136535806144
0.0136544829679
0.0167291510659
0.0186086279005
0.0194383372119
0.0197478542638
0.0198450527386
0.0198691259086
0.0198719766652
0.0198697345936
0.0198675381608
0.0198667344543
0.0198676726026
0.0198690598719
0.0198659705322
0.0198419841734
0.0197451326362
0.0194353685835
0.0186046021183
0.016726038175
0.0136540537907
0.0136551040021
0.0167309148829
0.0186095009802
0.019437826225
0.0197439534193
0.0198408191451
0.0198652588679
0.0198686577284
0.0198669770688
0.0198651131922
0.019864359959
0.0198650417878
0.0198659275522
0.0198622855267
0.0198379023739
0.0197411691213
0.0194336694863
0.018605277903
0.0167277143156
0.0136546016183
0.0136553795995
0.016728603496
0.0186001523251
0.0194225212681
0.0197227285584
0.0198164761003
0.0198406518351
0.019844436966
0.0198432732369
0.0198417491938
0.019841077593
0.0198415474169
0.0198419822202
0.0198379249499
0.0198136137074
0.0197189614263
0.0194178328512
0.0185956958563
0.016725239452
0.0136547169032
0.013653574897
0.0167065111739
0.018548313764
0.0193486451833
0.0196372254591
0.0197227909442
0.0197438781078
0.0197474029783
0.0197465244887
0.0197452624408
0.0197446855061
0.0197450248817
0.019745202752
0.0197412362286
0.0197191117796
0.019632448706
0.0193435897548
0.0185436920941
0.016703045852
0.0136528301667
0.013642831851
0.0166089615115
0.0183539632159
0.0190910786485
0.0193489240086
0.0194227755042
0.0194378230016
0.0194379122609
0.0194366375176
0.0194354329578
0.0194348910627
0.0194351808952
0.0194356167505
0.0194341631951
0.0194181900896
0.0193437530706
0.0190858290825
0.0183492985406
0.0166055303072
0.0136421356947
0.0135988866998
0.0162721019022
0.017761298554
0.0183545372334
0.0185491214036
0.0186008610922
0.0186098495118
0.018608289731
0.0186050961813
0.0186028159482
0.0186021116622
0.0186031664007
0.0186052525405
0.0186058213958
0.0185961037506
0.0185439262089
0.0183493993205
0.0177568192018
0.0162688681028
0.0135982759566
0.0134613408384
0.0153297503166
0.0162728519835
0.0166101855154
0.0167079050827
0.0167299369282
0.0167319500212
0.0167296441809
0.0167269107377
0.016724930805
0.0167240699349
0.0167247444133
0.0167265681187
0.0167281624468
0.0167255851613
0.0167032813427
0.0166056689381
0.0162689216344
0.0153269760077
0.0134609296535
0.0131927624511
0.0134616885074
0.0135995709444
0.0136437344687
0.0136546265181
0.0136565313622
0.0136563774676
0.0136558584624
0.0136552020098
0.0136544980617
0.0136538496946
0.0136536087567
0.0136541343971
0.0136546710688
0.0136547667166
0.013652891665
0.0136421839934
0.0135983018974
0.0134609326034
0.0131928606087
0.0134609473444
0.0153212020512
0.0162610479786
0.0165985101861
0.0166978626771
0.0167220064429
0.0167261907443
0.0167256701932
0.0167242905254
0.0167231317886
0.0167224831751
0.0167227872788
0.016723721068
0.0167241680658
0.0167200950716
0.0166961572615
0.0165971834623
0.0162602351947
0.0153209116855
0.0134607402309
0.0153212750054
0.0260645837003
0.0297264107574
0.0311059627575
0.0315711578597
0.0317043853728
0.0317345123326
0.0317377347582
0.0317356471617
0.0317337662333
0.0317333469948
0.0317343639785
0.0317355804567
0.0317316609974
0.0317011655661
0.0315680455428
0.0311034522176
0.0297250009992
0.0260647631851
0.01532098947
0.0162611747606
0.0297265801905
0.0345277984789
0.0364837074607
0.0372126443026
0.0374480287896
0.0375109544222
0.0375227080985
0.0375222299289
0.0375205687584
0.0375201888022
0.037520949534
0.0375204375577
0.0375078269508
0.037444488508
0.0372093090845
0.0364812207992
0.0345266675817
0.029727119096
0.0162608564305
0.0165986734499
0.0311063128873
0.0364839086494
0.0387768312614
0.0396788849938
0.0399887619661
0.0400781002079
0.0400976678199
0.0400987058658
0.0400969586798
0.0400966272681
0.0400975711578
0.0400956279876
0.0400750319685
0.0399851714062
0.0396754618369
0.0387743002005
0.0364828269914
0.0311069720381
0.0165983893062
0.0166980569315
0.031571713994
0.03721311226
0.0396791937742
0.0406772227318
0.041030864044
0.0411364339724
0.0411595123132
0.0411605359765
0.0411584017148
0.0411581281725
0.0411595346924
0.0411575041846
0.0411334308805
0.0410273046424
0.0406737171644
0.039676482409
0.0372118373045
0.0315722747117
0.0166977197942
0.0167222836536
0.0317052603864
0.0374488930575
0.0399895417916
0.0410313746462
0.0414055271344
0.0415172590367
0.0415412334617
0.0415414113159
0.0415385647178
0.0415383213385
0.0415405329997
0.0415393766127
0.0415143684795
0.0414019125138
0.0410278011889
0.0399866397024
0.0374473478579
0.0317056221222
0.0167218189428
0.0167265176632
0.0317356773801
0.0375121952326
0.0400793269357
0.0411374771061
0.0415178765763
0.0416310235366
0.0416540260559
0.0416526066015
0.0416487165324
0.0416484470151
0.0416517277752
0.0416522201787
0.0416282445717
0.0415143790981
0.0411338394054
0.0400763830538
0.0375105018919
0.0317359545468
0.0167258719028
0.0167261398232
0.031739010975
0.0375240730338
0.0400987133966
0.0411608609888
0.041542241277
0.0416544838037
0.0416756339101
0.0416723060252
0.0416672513462
0.0416669117324
0.0416713127743
0.0416737629594
0.0416517635844
0.0415388340991
0.0411571811946
0.04009613537
0.0375223878734
0.0317392971865
0.0167252479314
0.0167246996059
0.031736774156
0.0375233735384
0.040099850033
0.0411615941101
0.041542208225
0.0416530080399
0.0416724314373
0.0416675024921
0.0416615157974
0.0416610684287
0.0416662723861
0.0416702604351
0.0416501716436
0.0415387750327
0.0411578031987
0.0400966442213
0.0375217163095
0.0317371488912
0.0167239486462
0.016723401757
0.0317345316866
0.037521069827
0.0400974054818
0.0411586347841
0.0415385590422
0.0416484847866
0.0416670070003
0.0416612745263
0.0416548067981
0.0416542471513
0.0416597170061
0.0416644053209
0.04164533764
0.0415349712186
0.0411547989926
0.0400941931369
0.0375200308836
0.0317351713537
0.0167227631606
0.0167225954797
0.0317337437977
0.0375201516158
0.0400963035081
0.041157386247
0.0415372498055
0.0416472542036
0.0416659736324
0.0416603731698
0.0416538989865
0.0416532140809
0.0416585671779
0.0416631542295
0.0416440247428
0.0415337582038
0.0411538092851
0.0400934147463
0.0375194441381
0.0317346494739
0.0167219965906
0.0167227106559
0.0317345950591
0.037520798018
0.040096838944
0.0411581258731
0.0415385675675
0.0416495993357
0.0416695961331
0.0416649639282
0.0416588157291
0.0416580300047
0.0416629621388
0.0416667583742
0.041646572202
0.0415354396862
0.0411550148697
0.040094416971
0.0375201648455
0.0317356810389
0.0167219780884
0.0167236458113
0.0317357794337
0.0375202741146
0.0400948327941
0.041155785473
0.0415368460898
0.0416493862138
0.0416713528538
0.0416683916983
0.0416630352471
0.0416621813188
0.0416662999465
0.0416685570492
0.0416465030404
0.0415339053004
0.0411529316564
0.0400927154623
0.0375195730391
0.031736937462
0.0167227150231
0.0167241261636
0.031731892862
0.0375077181592
0.0400743128609
0.041131741611
0.0415117373702
0.0416251856036
0.041649063952
0.0416480548946
0.0416438262091
0.0416429753256
0.0416460355526
0.0416464233179
0.0416223846852
0.0415087887287
0.0411288890894
0.0400722620529
0.0375068872792
0.0317329636712
0.0167229724647
0.0167200378503
0.0317014193981
0.0374444475556
0.0399846400954
0.0410261587611
0.0413997291823
0.0415116958702
0.0415364007543
0.041536917796
0.0415337787113
0.0415330275664
0.041535156587
0.0415340037624
0.041508943656
0.0413967196802
0.0410232629997
0.0399823159356
0.0374433394296
0.0317023078229
0.016718904912
0.0166960961364
0.0315683254745
0.0372093298492
0.0396751285518
0.040672910852
0.0410265243097
0.0411320329475
0.0411555625758
0.0411566935324
0.0411543122854
0.0411537013854
0.0411552034645
0.0411533257719
0.041129253653
0.0410234198687
0.0406697292326
0.0396724443364
0.0372079478457
0.031568974901
0.0166950854889
0.0165971227747
0.0311037668668
0.0364812939758
0.0387741312814
0.0396760586394
0.039985954085
0.0400755151344
0.0400954623129
0.0400962641801
0.0400942949468
0.0400937749427
0.0400949076634
0.0400931813214
0.0400726773183
0.039982608121
0.0396725776504
0.0387712150636
0.0364797439391
0.0311042771229
0.0165961292526
0.0162601976147
0.0297253716865
0.0345267913742
0.036482751943
0.0372116252974
0.0374470300261
0.0375101271285
0.0375221252851
0.037521688501
0.0375202234216
0.0375197670856
0.037520488891
0.0375200696716
0.0375073210781
0.0374436671465
0.0372081428219
0.0364798237642
0.0345251604512
0.0297256897849
0.0162592355308
0.0153209007817
0.0260651650344
0.029727284013
0.0311069470967
0.0315721245423
0.0317054108071
0.0317356915875
0.0317391123384
0.0317371206381
0.0317352918942
0.0317349018108
0.031736037016
0.0317373325687
0.0317333144546
0.0317025960211
0.0315691666475
0.0311043814314
0.0297257252231
0.0260651807746
0.0153200324572
0.013460716682
0.0153209167309
0.0162607129672
0.0165981893807
0.0166975095529
0.0167216166369
0.0167256778987
0.0167250779944
0.0167238040284
0.0167226635648
0.0167219582073
0.0167220637755
0.0167228570088
0.0167231060601
0.0167190646586
0.0166951719212
0.0165961814837
0.0162592621636
0.0153200393242
0.0134606535414
0.0135986549857
0.0162591658494
0.0177426289151
0.0183354648013
0.01853223592
0.0185870601274
0.0185991325182
0.0186002031858
0.0185988678641
0.0185974271862
0.0185967378296
0.0185972007019
0.0185980740695
0.0185968214298
0.018584762895
0.018530200664
0.0183338984795
0.0177416603067
0.0162586951311
0.0135982240719
0.0162592575609
0.0297137888198
0.0345108817076
0.0364647997705
0.0371927816501
0.0374276980569
0.0374903402047
0.0375019184074
0.0375013234118
0.0374995280077
0.0374991708295
0.0375000994607
0.0374996819286
0.0374872069068
0.0374240240124
0.0371891614322
0.0364618012317
0.0345090111716
0.0297134747767
0.0162585601987
0.0177427945312
0.0345111500072
0.0406208325648
0.0432624371279
0.0443343009152
0.0447189768862
0.0448368540543
0.0448655960038
0.0448694647512
0.0448687297095
0.0448684581129
0.0448685357894
0.0448637236809
0.0448340948217
0.0447156831893
0.0443310893476
0.0432599654797
0.0406196281774
0.0345115511224
0.0177421559711
0.0183357108962
0.0364653779834
0.043262757349
0.0463130587361
0.0476115978923
0.0481051016386
0.048266955775
0.048310503635
0.0483179143963
0.048317583624
0.0483174627325
0.0483173759309
0.0483092920033
0.048265017709
0.0481026205128
0.0476091050273
0.0463112069587
0.0432621058708
0.0364662855151
0.018335240745
0.0185325479329
0.0371937271246
0.0443350086816
0.0476119757817
0.0490446002303
0.049605598759
0.049795278373
0.0498466674804
0.0498549874851
0.049854123032
0.0498541394437
0.0498548403053
0.0498460339194
0.0497940067266
0.0496039657032
0.049042783895
0.0476106134322
0.0443347015362
0.0371949441842
0.0185321486538
0.0185874872002
0.0374291459634
0.0447201854656
0.048105941345
0.0496060392532
0.0502013399599
0.0504033215048
0.0504563199223
0.0504622773316
0.0504593647916
0.0504594668826
0.0504624155785
0.0504560865903
0.0504024103496
0.050199918231
0.049604676799
0.0481049442245
0.0447201189201
0.0374305775925
0.0185870473138
0.0185996637197
0.0374922908714
0.0448385305414
0.0482681951454
0.0497962274056
0.0504037578677
0.0506077673627
0.0506568329971
0.0506572985237
0.0506508800471
0.0506510990082
0.0506578660601
0.0506572898638
0.0506074458063
0.0504025329474
0.0497948533647
0.0482674808224
0.0448387523415
0.0374940624255
0.0185992017701
0.0186008040978
0.0375040968707
0.0448674127513
0.0483116695209
0.0498477204327
0.0504568817151
0.0506569777859
0.0506987267043
0.0506917795775
0.0506809664424
0.0506812243071
0.0506925597956
0.050699608925
0.0506571366226
0.050455859478
0.0498463869917
0.0483112446782
0.0448679849324
0.0375062880155
0.018600213239
0.0185995277584
0.037503314567
0.0448709647746
0.0483189401512
0.0498556439535
0.0504625797223
0.050657269802
0.0506916605508
0.0506778804378
0.0506631020146
0.0506632614958
0.050678444377
0.0506922990482
0.0506572484834
0.050461427707
0.0498542781876
0.0483183099885
0.0448719769209
0.0375059955166
0.0185987788072
0.0185979927332
0.0375009950883
0.0448694352206
0.0483177927175
0.0498539101057
0.0504589767798
0.0506502788208
0.0506803872543
0.050662732912
0.050645679722
0.0506457159844
0.0506629983129
0.0506806493609
0.0506499393715
0.0504577048333
0.049852730541
0.0483174309067
0.0448708511318
0.0375041721814
0.0185973173693
0.0185970635962
0.0375001033283
0.0448685933111
0.04831679111
0.0498529035511
0.0504581132247
0.0506495898061
0.0506798879917
0.0506623645431
0.0506453457132
0.0506454028748
0.0506627847991
0.0506805154932
0.0506497660965
0.0504574762018
0.0498524963796
0.0483171437201
0.0448705422481
0.0375038691343
0.0185964723423
0.0185973511406
0.0375008046166
0.0448683538455
0.0483161594333
0.0498528397427
0.0504602141657
0.0506554409099
0.0506904019227
0.0506769805111
0.0506622773636
0.0506625155022
0.0506780294282
0.0506921229593
0.0506568883484
0.0504607901471
0.0498535492529
0.0483174146683
0.0448710874483
0.0375052034286
0.0185966476227
0.0185982096758
0.0375003985268
0.0448635852157
0.0483079304532
0.049843578604
0.050453235678
0.0506540823089
0.0506967375499
0.0506904529755
0.0506798906818
0.0506804427684
0.0506924651356
0.0506998766357
0.0506569324066
0.0504549295793
0.049845109154
0.0483096767929
0.0448664576719
0.0375049259496
0.0185973918692
0.0185969789226
0.0374880116685
0.0448341026285
0.0482639100653
0.0497915155742
0.0503992361922
0.0506039269115
0.0506540667833
0.0506554869845
0.0506496166699
0.0506504182985
0.0506581577897
0.0506579967985
0.0506074177696
0.0504014435004
0.0497931840395
0.0482656225295
0.0448367464965
0.0374923123599
0.0185962176547
0.0185849299757
0.0374249170681
0.0447158943295
0.0481018302581
0.0496022282191
0.0501970843699
0.0503994189068
0.0504533116834
0.0504602087898
0.0504579236686
0.0504586637049
0.0504625705422
0.0504566005352
0.0504022171183
0.0501987927325
0.0496031284902
0.048102855108
0.0447179343133
0.0374287703578
0.0185842570118
0.018530369412
0.0371901623007
0.0443315286425
0.0476087407077
0.0490415954757
0.0496030020188
0.049792686506
0.0498447345121
0.0498536455466
0.0498531395055
0.0498535380087
0.0498548886507
0.0498463214975
0.0497938852385
0.0496033602946
0.049041499879
0.0476088927319
0.0443329104786
0.0371934638746
0.0185296111434
0.0183340588496
0.0364628923029
0.0432606098424
0.0463112590131
0.0476100671504
0.0481039281894
0.0482662610117
0.0483102608902
0.0483180142101
0.0483178284247
0.0483179115841
0.0483182915485
0.0483104951075
0.0482661217265
0.048103130643
0.0476089843638
0.0463107004441
0.0432614487758
0.0364656931238
0.0183332478152
0.017741824589
0.0345101760068
0.0406204170013
0.043262455107
0.0443346358995
0.0447197149159
0.0448381603434
0.0448675018527
0.0448718424035
0.0448711787891
0.0448710759055
0.0448715427543
0.0448669279748
0.0448370992304
0.0447181617222
0.044333026496
0.0432614917101
0.0406208003504
0.0345123482448
0.0177409328167
0.0162588159856
0.0297145928015
0.0345123580175
0.0364667521439
0.0371950831237
0.0374304537146
0.0374937075406
0.0375059373561
0.0375058498211
0.037504403952
0.0375042420647
0.0375054994374
0.0375052311563
0.0374925861565
0.0374289878794
0.0371935937925
0.0364657505446
0.0345123589733
0.0297158774451
0.0162578467861
0.0135981589378
0.0162586196595
0.0177421582381
0.018335155989
0.0185320140748
0.0185868932356
0.0185990201489
0.0186000547495
0.0185986470288
0.018597265023
0.0185964809937
0.0185967650784
0.0185975632146
0.0185964121502
0.0185843557924
0.0185296813586
0.0183332943161
0.0177409624078
0.016257858864
0.0135976505792
0.0136436014992
0.0165957080151
0.0183337158454
0.0190703355544
0.0193309336047
0.0194085191713
0.0194269532715
0.019429118812
0.0194276602831
0.0194260372155
0.0194253537163
0.0194259347088
0.0194266984056
0.0194241646278
0.0194057026872
0.0193284004716
0.0190683308984
0.0183323594636
0.0165949220835
0.0136430158109
0.0165958025044
0.0310848315312
0.0364549535218
0.0387438846465
0.0396434925304
0.0399514062933
0.0400388337096
0.0400563851404
0.0400561737892
0.0400539587263
0.0400537261477
0.0400551124912
0.0400540405945
0.0400351584668
0.0399468448242
0.0396387611281
0.0387397069554
0.0364519133111
0.0310834618783
0.0165947102967
0.0183339229914
0.0364553849996
0.043249641302
0.0462986345922
0.0475965742092
0.0480894854498
0.0482504898455
0.0482929626001
0.0482999943671
0.0482995904075
0.0482997545743
0.0483002019574
0.0482926895019
0.0482493297599
0.0480873609614
0.0475938959595
0.0462960277549
0.0432477645813
0.0364548804028
0.0183328323207
0.019070665461
0.0387448120455
0.0462991220019
0.0498038265294
0.05136535551
0.0519928234958
0.0522122344618
0.0522753280031
0.0522872335396
0.0522874233575
0.0522879927426
0.0522886966285
0.0522772432308
0.0522143315279
0.0519941541771
0.0513656578652
0.049803363154
0.0462985773111
0.038745078727
0.0190697996971
0.0193313878171
0.0396450707379
0.0475975751404
0.0513656901962
0.0530886597796
0.0538017114581
0.0540569250898
0.0541288736926
0.0541395285493
0.0541374456662
0.0541385098092
0.0541424857767
0.0541330737528
0.0540614557095
0.0538059475488
0.0530916734657
0.0513672837518
0.0475982315429
0.0396459600673
0.0193306588638
0.0194091496622
0.0399538408331
0.0480910315042
0.0519932808783
0.053801280634
0.0545567628286
0.0548236509345
0.0548906887606
0.0548915994218
0.054883202959
0.0548850379916
0.0548968860353
0.054898444374
0.0548318594494
0.0545635786815
0.0538064215854
0.0519964176216
0.0480927501733
0.0399553535641
0.0194084284045
0.0194277821181
0.0400421252808
0.0482524376303
0.0522123900801
0.0540558188111
0.0548226553141
0.0550823631533
0.0551315194284
0.0551137648423
0.0550944692689
0.0550968585573
0.0551208065227
0.0551421603068
0.0550937821465
0.054831782088
0.0540618085771
0.0522164706865
0.0482551394088
0.0400444574715
0.0194270755018
0.0194300702338
0.040060039489
0.048294823788
0.0522749453187
0.054126950583
0.0548886504305
0.0551302928619
0.0551537691361
0.0551119654769
0.0550789241574
0.0550812959322
0.0551191214187
0.0551649671527
0.0551425915037
0.0548984006534
0.0541330605494
0.0522792122313
0.0482983427626
0.0400633339289
0.0194294136269
0.0194285373794
0.0400593357447
0.0483009895079
0.0522860155142
0.054136924636
0.0548886646863
0.0551113262719
0.0551106615183
0.0550470748155
0.055001680821
0.0550037146821
0.0550533604678
0.0551208425267
0.0551227902591
0.0548977017131
0.0541425098333
0.0522903833013
0.0483053630521
0.0400637039813
0.0194279268757
0.0194266982268
0.0400560703918
0.0482994257953
0.0522851754511
0.05413411201
0.0548792555063
0.0550906274295
0.0550761970684
0.0550004375326
0.0549481260186
0.0549500447488
0.0550064964702
0.0550863294712
0.0551023203093
0.054888557017
0.0541399503899
0.0522901957949
0.048304728197
0.0400615956487
0.0194261298277
0.0194257328721
0.0400548705448
0.0482984700172
0.0522847599985
0.0541343486727
0.0548798040821
0.0550912890412
0.0550769861887
0.0550013974828
0.0549493052515
0.0549516994128
0.0550090160422
0.0550898920668
0.0551063943901
0.0548921176478
0.0541423104361
0.0522915015071
0.0483053446817
0.0400617987322
0.019425252272
0.0194261809259
0.0400558863815
0.0482982881483
0.0522848677333
0.0541376639627
0.0548903281117
0.0551134103636
0.0551132704381
0.0550503543025
0.0550057996182
0.0550094380674
0.0550617482133
0.0551320771319
0.0551349248075
0.0549077614953
0.0541488197428
0.052293682515
0.0483068260567
0.0400641630853
0.0194257611696
0.0194270104926
0.0400549237495
0.0482907516731
0.0522730879007
0.0541277229419
0.0548908350132
0.0551334059901
0.0551582252009
0.0551181199212
0.0550871012617
0.0550926086015
0.0551348170848
0.0551843427049
0.0551618112977
0.0549130804238
0.0541414925826
0.0522832260168
0.0482998540658
0.040063551995
0.0194266836244
0.0194245738608
0.0400363028304
0.0482477727165
0.0522099966581
0.0540556619709
0.0548239025451
0.0550849220956
0.0551363524359
0.0551216320389
0.0551058627388
0.0551128455149
0.0551420776026
0.0551666392076
0.0551162760562
0.0548476232096
0.054070125313
0.0522201599146
0.0482559517714
0.0400442903432
0.0194242047312
0.0194061239906
0.0399482322783
0.0480864425239
0.0519903210785
0.0538002065012
0.0545562076528
0.0548240903344
0.0548935976142
0.0548981848789
0.0548941055283
0.0549009862586
0.0549178458125
0.054921526988
0.0548518382745
0.0545766229316
0.0538126847849
0.0519985400303
0.0480927370273
0.0399549993249
0.0194055996381
0.0193288048243
0.0396403910034
0.0475937524252
0.0513630870999
0.0530871105788
0.0538006620257
0.0540560654197
0.054129753745
0.0541435345013
0.0541452136273
0.0541504021378
0.0541581162488
0.0541497534924
0.0540751315956
0.0538142300622
0.0530952788896
0.0513680959587
0.0475980451778
0.0396458704993
0.0193281234052
0.0190686931124
0.0387415165109
0.0462966431108
0.0498022664214
0.0513645935288
0.0519929012669
0.0522132748305
0.0522772824792
0.0522910057743
0.0522933172345
0.0522961371189
0.0522988149246
0.0522875638287
0.052222429933
0.0519992531104
0.0513681984046
0.0498045128705
0.0462993698166
0.0387458563384
0.0190678804987
0.0183326823241
0.0364538134539
0.0432489575532
0.0462987322569
0.0475973549865
0.0480911596852
0.0482534515576
0.0482973449725
0.048305557353
0.0483060336999
0.0483070946918
0.0483084582631
0.0483010617989
0.0482566158245
0.0480929493031
0.047598053262
0.0462993535378
0.0432505640742
0.0364569799783
0.0183316736553
0.0165950962685
0.0310851729046
0.0364562488687
0.0387459166387
0.0396461903335
0.0399550612539
0.0400438049244
0.0400627876385
0.0400636671286
0.0400622069756
0.0400625351763
0.0400646970745
0.0400639550252
0.0400445316892
0.0399551089552
0.039645898324
0.0387458564172
0.0364569687676
0.0310869490452
0.0165939261595
0.0136428783202
0.0165948075415
0.0183329477362
0.0190698264644
0.0193305984059
0.0194083296961
0.0194269159138
0.0194292641392
0.019427838581
0.0194261492427
0.0194253235083
0.0194259102093
0.0194268250754
0.0194242690784
0.0194056458165
0.0193281670987
0.0190679217706
0.018331711595
0.0165939467363
0.0136420568864
0.0136560694234
0.016695811111
0.0185308984174
0.0193314622539
0.0196236617079
0.0197131592544
0.0197345692594
0.0197366190717
0.0197343837877
0.0197322790699
0.0197316659119
0.0197326428437
0.0197338749566
0.0197312040239
0.0197096198541
0.0196204217476
0.0193288322215
0.0185289984843
0.0166946239156
0.0136553795031
0.0166958799005
0.0315465429007
0.0371793866135
0.0396412492063
0.0406363719488
0.0409863861657
0.0410869470873
0.0411056082079
0.0411033444826
0.0410998024238
0.0411002297506
0.0411037658385
0.0411047191885
0.0410841134323
0.0409817899503
0.0406308835778
0.0396357498006
0.0371746877857
0.0315435407329
0.0166942896651
0.0185311307738
0.0371800787476
0.04431946002
0.0475989603112
0.0490354266412
0.0495991945718
0.049789759199
0.0498409185554
0.0498485591061
0.0498477499582
0.0498494852525
0.0498532110101
0.0498474215295
0.049796731221
0.0496049494819
0.0490384929864
0.0475990670222
0.0443175763375
0.0371781323785
0.0185294417394
0.0193318745613
0.0396427237194
0.047599542119
0.0513757753771
0.0531080427854
0.0538289936776
0.0540898360849
0.0541640050964
0.0541748580156
0.0541732003933
0.0541763313078
0.0541839650397
0.0541780089982
0.0541068162534
0.053846256834
0.0531219587398
0.0513837245933
0.0476016406725
0.0396419410577
0.0193303809822
0.0196242832806
0.0406388410764
0.0490361235605
0.0531071765919
0.0550232809815
0.0558411390872
0.0561367324939
0.0562113870195
0.0562108941762
0.0562013199988
0.0562067465632
0.0562269789031
0.0562362614836
0.0561660861958
0.0558699834006
0.0550472144879
0.0531223097916
0.0490421815124
0.0406390793961
0.0196228251427
0.0197140718208
0.0409901257333
0.0495994076472
0.0538247623938
0.0558361647462
0.0566925732062
0.0569835886669
0.0570290382389
0.0569959447336
0.0569677564268
0.0569759991365
0.0570204590945
0.0570670206683
0.0570274600111
0.056733534865
0.0558683261237
0.0538454539396
0.0496085936952
0.0409914591044
0.0197124973553
0.0197357885502
0.0410918339805
0.0497886466536
0.0540808900532
0.0561254434558
0.0569765280567
0.0572281346545
0.057214603483
0.0571258881651
0.0570666980523
0.0570762921388
0.0571547551262
0.0572602606625
0.0572812029927
0.0570249249232
0.0561618682527
0.0541043151344
0.0497998756214
0.0410946113684
0.0197341685223
0.0197379694773
0.0411105892563
0.0498377143902
0.0541517522893
0.0561956252608
0.0570162185131
0.0572080524189
0.0571180392481
0.0569602943427
0.0568627271755
0.0568712200426
0.0569865674509
0.0571617015308
0.0572606519882
0.0570642604816
0.0562307866703
0.0541742486789
0.0498501100132
0.0411149794144
0.0197363937971
0.019735449143
0.0411067144423
0.049842926408
0.0541607845019
0.0561929886538
0.0569792786665
0.0571141537989
0.0569549571139
0.0567361462537
0.0566048080521
0.0566114501296
0.0567574294589
0.0569925941565
0.0571620013584
0.0570236476959
0.0562248742498
0.0541814541837
0.0498560868988
0.0411129147932
0.0197340441673
0.019732786263
0.0411006142148
0.0498400754131
0.0541583849095
0.0561825614646
0.0569481813646
0.0570503332037
0.0568528863615
0.0566009930625
0.0564514207464
0.0564577024453
0.0566215891997
0.0568907206668
0.0571000591218
0.0569944981192
0.0562151140494
0.0541794018643
0.0498547269126
0.0411092521582
0.0197316799324
0.0197316688894
0.0410989346246
0.0498402069219
0.0541611791585
0.0561871880767
0.0569531483002
0.0570548344825
0.0568570042802
0.056605072034
0.0564561791442
0.0564644127475
0.0566319518565
0.0569061268086
0.0571188693555
0.0570119133475
0.0562273505463
0.0541862569024
0.0498582528833
0.0411110347403
0.019730992527
0.0197325927576
0.041101781632
0.0498433027629
0.0541687532406
0.0562062246431
0.0569936786618
0.0571277786079
0.0569683359879
0.0567503347927
0.0566220120875
0.0566353186377
0.0567925143693
0.0570413702581