/*--------------------------------*- C++ -*----------------------------------*\
| =========                 |                                                 |
| \\      /  F ield         | OpenFOAM: The Open Source CFD Toolbox           |
|  \\    /   O peration     | Version:  3.0.1                                 |
|   \\  /    A nd           | Web:      www.OpenFOAM.org                      |
|    \\/     M anipulation  |                                                 |
\*---------------------------------------------------------------------------*/
FoamFile
{
    version     2.0;
    format      ascii;
    class       volScalarField;
    location    "0.2";
    object      ddt0(epsilon);
}
// * * * * * * * * * * * * * * * * * * * * * * * * * * * * * * * * * * * * * //

dimensions      [0 2 -4 0 0 0 0];

internalField   nonuniform List<scalar> 
15984
(
-0.296338102751
-0.294144939762
-0.293880988126
-0.29386031726
-0.29386096337
-0.293869440423
-0.293879793908
-0.293894091698
-0.293920430864
-0.29393663849
-0.293931954746
-0.293925344792
-0.293921867221
-0.293921054348
-0.293921998259
-0.293923907062
-0.29392614396
-0.293928283462
-0.293930094405
-0.293931488261
-0.293932484519
-0.293933148041
-0.293933556853
-0.29393378739
-0.2939339052
-0.293933959519
-0.293933982796
-0.293933993486
-0.293933999514
-0.293934003634
-0.293934010069
-0.293934026726
-0.293934059175
-0.293934102722
-0.29393415825
-0.293934262297
-0.293934786557
-0.29394588712
-0.29418468902
-0.296346128597
-0.285632013446
-0.275441351638
-0.272609947599
-0.272399121533
-0.272367153542
-0.272372739193
-0.272408246357
-0.272465806387
-0.272535346581
-0.272621247904
-0.27267067702
-0.272704014084
-0.272713295075
-0.272713384832
-0.272714543666
-0.272716438287
-0.272718526313
-0.272720443671
-0.272722001635
-0.272723128445
-0.27272387408
-0.272724317356
-0.27272454172
-0.272724622808
-0.272724622036
-0.272724583234
-0.272724532845
-0.27272448357
-0.272724437983
-0.272724393928
-0.272724351914
-0.272724313776
-0.27272428001
-0.272724237248
-0.272724182181
-0.272724284889
-0.272730360608
-0.272902233714
-0.275667743837
-0.28575096047
-0.281774736305
-0.253485374525
-0.247475418469
-0.247043056555
-0.246995640286
-0.246997521831
-0.247047468201
-0.247099935066
-0.247186798221
-0.247305080908
-0.247379879891
-0.247422417419
-0.247445081737
-0.247453299436
-0.247454985778
-0.247457341003
-0.24746011661
-0.247463203775
-0.247464824186
-0.247464468969
-0.247464000044
-0.247463445058
-0.247462862033
-0.247462298621
-0.247461787449
-0.247461343364
-0.247460970348
-0.247460662716
-0.247460407332
-0.2474601877
-0.247459991945
-0.247459808381
-0.24745961817
-0.247459377262
-0.247459039656
-0.247458980044
-0.247473490874
-0.247865588923
-0.25379260568
-0.281935181766
-0.281259418009
-0.246640677023
-0.239461433708
-0.239002366823
-0.238975068789
-0.238979191472
-0.239002282052
-0.23900006036
-0.2390460126
-0.239168168598
-0.239264684879
-0.239313523318
-0.23933963703
-0.239352718538
-0.239355185817
-0.239357532475
-0.239360925174
-0.239362572184
-0.239362479936
-0.239362164767
-0.23936174279
-0.239361237031
-0.239360683289
-0.239360133528
-0.239359626814
-0.239359182842
-0.239358807687
-0.239358496468
-0.239358236564
-0.239358011937
-0.23935781125
-0.23935762517
-0.239357434994
-0.239357196093
-0.239356864681
-0.239356925613
-0.239375050333
-0.239851892003
-0.246984499664
-0.28144684612
-0.281190415566
-0.24549682449
-0.238172763126
-0.23779525515
-0.237771681149
-0.237776270749
-0.237788601205
-0.237697285233
-0.237641029995
-0.237737691852
-0.237855460123
-0.237910020155
-0.237938467874
-0.237952830607
-0.237956069154
-0.237958105532
-0.237960721357
-0.23796405572
-0.237964173689
-0.237963977257
-0.237963674684
-0.237963273426
-0.237962805681
-0.237962316432
-0.237961851481
-0.237961436739
-0.237961081806
-0.237960784161
-0.237960532999
-0.237960314029
-0.237960117336
-0.237959934923
-0.237959749178
-0.237959516151
-0.237959193652
-0.237959292152
-0.237978173492
-0.238472227017
-0.245845507812
-0.281400955547
-0.28116558082
-0.245381543884
-0.238141212982
-0.237675732841
-0.23766282934
-0.237668694436
-0.237669966486
-0.237638903032
-0.237487082312
-0.237539651335
-0.237674723571
-0.237735256844
-0.237767430809
-0.23778283764
-0.237786854134
-0.237788676099
-0.23779113693
-0.237793967196
-0.237796004469
-0.237795895578
-0.237795692569
-0.237795396534
-0.237795020455
-0.237794605584
-0.237794196463
-0.237793821713
-0.237793494233
-0.237793214837
-0.237792975278
-0.237792763845
-0.237792570972
-0.237792391288
-0.237792207925
-0.237791977528
-0.237791658476
-0.2377917663
-0.237810761507
-0.238307259839
-0.245713261132
-0.281397026909
-0.281147058505
-0.245392798031
-0.238147718085
-0.237721430965
-0.237729394501
-0.237737315696
-0.237717932919
-0.23764451427
-0.237492008254
-0.237497544503
-0.237644400947
-0.237713440443
-0.237748940271
-0.237766472825
-0.237770353805
-0.237771962391
-0.237774224998
-0.237776736082
-0.237779575991
-0.237780200949
-0.237780055453
-0.237779841129
-0.237779548184
-0.237779208384
-0.237778860453
-0.237778531608
-0.237778235978
-0.237777977188
-0.237777749964
-0.237777545051
-0.237777356211
-0.237777178868
-0.237776997412
-0.237776766836
-0.237776447995
-0.237776557336
-0.237795572059
-0.23829237649
-0.245701786888
-0.281396504248
-0.281131592856
-0.245402954077
-0.238160849048
-0.23776792595
-0.23780046686
-0.237811969274
-0.237767223487
-0.23765745458
-0.23749931113
-0.237473880364
-0.237629991638
-0.237706221822
-0.237745514667
-0.237764708293
-0.23776883906
-0.237770199118
-0.237772351742
-0.237774758822
-0.237777292319
-0.237779084372
-0.237778974138
-0.237778806035
-0.237778572413
-0.237778295569
-0.237778007651
-0.237777728424
-0.237777469692
-0.237777235803
-0.237777023796
-0.237776826972
-0.237776641125
-0.237776463678
-0.237776280434
-0.23777604969
-0.237775729807
-0.237775840973
-0.237794869227
-0.238291739048
-0.245701414167
-0.281396272719
-0.281119463544
-0.245397036474
-0.238162881617
-0.237788493051
-0.237843788287
-0.237860338351
-0.237790710135
-0.237659481457
-0.237491644187
-0.237455621877
-0.237616586655
-0.237704260794
-0.23774389906
-0.237763961087
-0.237768644836
-0.237769851782
-0.237771902759
-0.237774250243
-0.237776546717
-0.237779024574
-0.23777899679
-0.237778840632
-0.237778633997
-0.237778392343
-0.237778143281
-0.237777901506
-0.237777673352
-0.237777461663
-0.237777263792
-0.237777074617
-0.237776891697
-0.237776714204
-0.237776529718
-0.237776297629
-0.237775980523
-0.23777609806
-0.237795142736
-0.238292048735
-0.2457017327
-0.281396143654
-0.281112791325
-0.245387865101
-0.238160182893
-0.237793234206
-0.237865747456
-0.237886691635
-0.237797703817
-0.237656574472
-0.237481631363
-0.237445273048
-0.237609221674
-0.237704482228
-0.237743173116
-0.237763682091
-0.237768658994
-0.237769812144
-0.237771819362
-0.237774115443
-0.237776354798
-0.237778767054
-0.23777913271
-0.237778974351
-0.237778768341
-0.237778529844
-0.237778284985
-0.237778048109
-0.237777824577
-0.237777616514
-0.237777421194
-0.237777233664
-0.237777052071
-0.23777687635
-0.237776695093
-0.237776468113
-0.237776159759
-0.237776290399
-0.237795356241
-0.238292287816
-0.24570196609
-0.281396125905
-0.281113048001
-0.245388310663
-0.238160686085
-0.237793832403
-0.237866440356
-0.237887295372
-0.23779807674
-0.237656879441
-0.237481993419
-0.237445514979
-0.237609552203
-0.237704631419
-0.237743322914
-0.23776384033
-0.237768795696
-0.237769962112
-0.237771978803
-0.237774281036
-0.237776520942
-0.237778932203
-0.237779333526
-0.237779166589
-0.237778943001
-0.237778680507
-0.237778408315
-0.23777814488
-0.237777898995
-0.23777767423
-0.23777746787
-0.237777274039
-0.237777090177
-0.237776916241
-0.237776740002
-0.237776519676
-0.237776218506
-0.23777635938
-0.237795434761
-0.238292370407
-0.245702066173
-0.281396222198
-0.281120848146
-0.245398416788
-0.238164403211
-0.237789934495
-0.237844461978
-0.237860838551
-0.237791565004
-0.237660324717
-0.237492678625
-0.237456609639
-0.237617702135
-0.237704475399
-0.237744317669
-0.237764517516
-0.237769057797
-0.237770305706
-0.237772380155
-0.237774732245
-0.237777018501
-0.237779474231
-0.237779572883
-0.237779378869
-0.237779116016
-0.237778807591
-0.237778489616
-0.237778186263
-0.237777909138
-0.237777662413
-0.23777744165
-0.237777239077
-0.237777050608
-0.237776875239
-0.237776699849
-0.237776481386
-0.237776181671
-0.237776324431
-0.237795401388
-0.238292328365
-0.245702060832
-0.28139642011
-0.281133148439
-0.245405041619
-0.238162900245
-0.237769799007
-0.237802350691
-0.237813717093
-0.237768457409
-0.237658590327
-0.237500661472
-0.237475142875
-0.23763138643
-0.237706878517
-0.237746253082
-0.237765236616
-0.237769510872
-0.237770889391
-0.237773060274
-0.237775479935
-0.237777900601
-0.237779980939
-0.237779819356
-0.237779575405
-0.23777925316
-0.237778886236
-0.237778518291
-0.237778175297
-0.237777870049
-0.237777604445
-0.237777371534
-0.23777716126
-0.237776968158
-0.237776790473
-0.237776614009
-0.237776394447
-0.237776092826
-0.23777623525
-0.237795313226
-0.238292227466
-0.245701995663
-0.2813966966
-0.281148683199
-0.245395059757
-0.238150045355
-0.23772357638
-0.237731864608
-0.237739581854
-0.23771939763
-0.237645813305
-0.237493935468
-0.237499111227
-0.237646587859
-0.237715025538
-0.237749985847
-0.237767046491
-0.237771248865
-0.237772842067
-0.237775106218
-0.237777571459
-0.237780213693
-0.237781320483
-0.237781083182
-0.237780763138
-0.237780367921
-0.237779940322
-0.23777952453
-0.237779147417
-0.237778819126
-0.237778538584
-0.237778296055
-0.237778079518
-0.237777882529
-0.237777702595
-0.237777524498
-0.237777302861
-0.237776998549
-0.237777141462
-0.237796223577
-0.23829310777
-0.245702658074
-0.281397036425
-0.281166877492
-0.245383563236
-0.238143414268
-0.237677974714
-0.23766540385
-0.237671063366
-0.237671678871
-0.237640307866
-0.237489484408
-0.237541493948
-0.237676867453
-0.237737188816
-0.237768649482
-0.237784517119
-0.237787812579
-0.23778963026
-0.237791994859
-0.237794510485
-0.237797325564
-0.237797157811
-0.237796821465
-0.237796409096
-0.237795936701
-0.237795449804
-0.237794991628
-0.237794585474
-0.237794238201
-0.237793945345
-0.237793694824
-0.237793472996
-0.237793272655
-0.237793090682
-0.237792910799
-0.237792686954
-0.237792380941
-0.237792525816
-0.237811608077
-0.238308233851
-0.245714439647
-0.281397638342
-0.281191045669
-0.245498235501
-0.238175079435
-0.237797405762
-0.237774215755
-0.237778758334
-0.237790171833
-0.237699687015
-0.237643642505
-0.237739905987
-0.237857775879
-0.237911239077
-0.237939889809
-0.237954870405
-0.237956901154
-0.237958948257
-0.237961443543
-0.237964306799
-0.237965585143
-0.237965238879
-0.237964791033
-0.237964278959
-0.237963730061
-0.237963189291
-0.237962694393
-0.237962263519
-0.237961899959
-0.23796159635
-0.237961338662
-0.237961111903
-0.237960908314
-0.237960724085
-0.237960541895
-0.237960315446
-0.237960005818
-0.237960149508
-0.237979144205
-0.238473393612
-0.245846980382
-0.281401612084
-0.281259508438
-0.246641260828
-0.239463394197
-0.239004664729
-0.238976823577
-0.238981144341
-0.239004711076
-0.239002618503
-0.239048328099
-0.239170299613
-0.239266660538
-0.239314970942
-0.239341276753
-0.239354903033
-0.239355922139
-0.239358028645
-0.239360633021
-0.239363777967
-0.239364005237
-0.23936353427
-0.239362959311
-0.239362347735
-0.239361728337
-0.239361140517
-0.239360614237
-0.239360162034
-0.239359783839
-0.239359469824
-0.239359204116
-0.239358970595
-0.239358760851
-0.239358570137
-0.239358379627
-0.239358142729
-0.239357823816
-0.23935793936
-0.23937620656
-0.239853325498
-0.246986356609
-0.281447514821
-0.281773062601
-0.253484831298
-0.247476768704
-0.247045842185
-0.246999075048
-0.247000696831
-0.247050757399
-0.247102562786
-0.247189620951
-0.247307380638
-0.247381728298
-0.247423841873
-0.247446919805
-0.247454521315
-0.247456006452
-0.247458071739
-0.247460495365
-0.247462858431
-0.247465357768
-0.247465911354
-0.247465329993
-0.247464706254
-0.24746408186
-0.247463495534
-0.247462974777
-0.247462528854
-0.24746215687
-0.247461848129
-0.247461586084
-0.247461354698
-0.247461145458
-0.24746095301
-0.247460757006
-0.24746050982
-0.247460175666
-0.247460165087
-0.247474824961
-0.247867238776
-0.25379461488
-0.28193575897
-0.285629283196
-0.275440350533
-0.272610879804
-0.272401724904
-0.272370365154
-0.272375911444
-0.272411176774
-0.272468251998
-0.272538207601
-0.272623431735
-0.272672247315
-0.272706208476
-0.272714535072
-0.272714974133
-0.272716308325
-0.272718184245
-0.272720165344
-0.272721931228
-0.272723326978
-0.272724331607
-0.272724980876
-0.272725359176
-0.272725544904
-0.272725606461
-0.272725596748
-0.272725552761
-0.272725497727
-0.272725442493
-0.272725388509
-0.272725335037
-0.272725286761
-0.272725250345
-0.272725219056
-0.272725168693
-0.272725100232
-0.272725217303
-0.272731360988
-0.27290337204
-0.27566892892
-0.285751459959
-0.296336087821
-0.294143170205
-0.293880886058
-0.293861660096
-0.293863195602
-0.29387193113
-0.293882424532
-0.293896338549
-0.293922769982
-0.293937791796
-0.293932087354
-0.293925071889
-0.293921915015
-0.293921539118
-0.293922775013
-0.293924754766
-0.293926897976
-0.293928862589
-0.293930489131
-0.293931728093
-0.293932604626
-0.293933188353
-0.293933555065
-0.293933772604
-0.293933894848
-0.293933960484
-0.293933994901
-0.29393401265
-0.293934020869
-0.293934024689
-0.293934031573
-0.293934048778
-0.293934075481
-0.293934106062
-0.293934155625
-0.293934279395
-0.2939348454
-0.293946004301
-0.294184788305
-0.296346021751
-0.285748229363
-0.27563547082
-0.27284740785
-0.272670910688
-0.272663089285
-0.272667955683
-0.272678471166
-0.2726883267
-0.272709478019
-0.272736634552
-0.272724003341
-0.272708821599
-0.272703295641
-0.272702442844
-0.272703622085
-0.272705710232
-0.272707881711
-0.272709687295
-0.272711080919
-0.272712033323
-0.272712674118
-0.272713061839
-0.272713261664
-0.272713335576
-0.272713337461
-0.272713305792
-0.272713261629
-0.27271321399
-0.272713162477
-0.27271310222
-0.272713031636
-0.272712948521
-0.272712851282
-0.272712725234
-0.272712576295
-0.272712597389
-0.272718723236
-0.272890946332
-0.275657556597
-0.285742973392
-0.331635298782
-0.290063112326
-0.282258299275
-0.282132694026
-0.282116493585
-0.282118144908
-0.28214111402
-0.282173106395
-0.282211394508
-0.282240756918
-0.282251088092
-0.282252084167
-0.28225199965
-0.282248188385
-0.282245901679
-0.282244816046
-0.28224430974
-0.282244142405
-0.282244107095
-0.282244278324
-0.282244439679
-0.282244575553
-0.282244689899
-0.282244780363
-0.282244846113
-0.282244889321
-0.282244910431
-0.282244908551
-0.282244881022
-0.2822448232
-0.282244729863
-0.282244585199
-0.2822443844
-0.28224411659
-0.282243773114
-0.282243122664
-0.28223796765
-0.282328452795
-0.290107558729
-0.331638306259
-0.318849475487
-0.210227996929
-0.201785712712
-0.201849755134
-0.201855911658
-0.201857337899
-0.20187190123
-0.201897140822
-0.201920036465
-0.201926925429
-0.201925096779
-0.201917652453
-0.201912607547
-0.20190914334
-0.201906382603
-0.201905770445
-0.201906552389
-0.201908095366
-0.201910085608
-0.201910111027
-0.201910105385
-0.201910317545
-0.201910486555
-0.201910618282
-0.201910719036
-0.20191079495
-0.201910850767
-0.201910889784
-0.201910913918
-0.20191092445
-0.201910921996
-0.201910906782
-0.201910879407
-0.201910839896
-0.201910763381
-0.201909705575
-0.20188879364
-0.201801931223
-0.210246201523
-0.318878222643
-0.315695627683
-0.204487405783
-0.196928661098
-0.197139118067
-0.197154988869
-0.197156887484
-0.197170895973
-0.197195611911
-0.197213754507
-0.197212228447
-0.197202304211
-0.19719271168
-0.197186502331
-0.197183599581
-0.197180241477
-0.197179590076
-0.197181114286
-0.197182655053
-0.197182778905
-0.197183108115
-0.197183390099
-0.197183625934
-0.197183814288
-0.197183961342
-0.197184074083
-0.197184159127
-0.197184222024
-0.197184267014
-0.197184296778
-0.197184313348
-0.197184317987
-0.197184311488
-0.197184295145
-0.197184269698
-0.197184198781
-0.197182732463
-0.197151973548
-0.19692253335
-0.204499724812
-0.315736344312
-0.315303436919
-0.205029598543
-0.197870310271
-0.198105377543
-0.198097629264
-0.198100905576
-0.198136320912
-0.19818958442
-0.198223074622
-0.198224674358
-0.198212348386
-0.198201225582
-0.198194148524
-0.198190525324
-0.198187294783
-0.19818640328
-0.198186804004
-0.19818854311
-0.198189480862
-0.198189836167
-0.198190136621
-0.19819038557
-0.198190584208
-0.198190738806
-0.198190857008
-0.198190945646
-0.198191010794
-0.198191057172
-0.198191087849
-0.198191105028
-0.198191110065
-0.198191103735
-0.198191087216
-0.198191061036
-0.198190985254
-0.19818939392
-0.198155665812
-0.197878307074
-0.205056426753
-0.315352342737
-0.315259935671
-0.205217142066
-0.198125575257
-0.198322273257
-0.198279857913
-0.19828362049
-0.198354463146
-0.198450857488
-0.198524220878
-0.198536151247
-0.198523581481
-0.198511848625
-0.198504018824
-0.198499721977
-0.19849652558
-0.198495068428
-0.19849557678
-0.198496798958
-0.198498352369
-0.198498860688
-0.198499160144
-0.198499415864
-0.198499620756
-0.198499780009
-0.198499901564
-0.198499992211
-0.198500058398
-0.198500105239
-0.198500136152
-0.198500153411
-0.198500158313
-0.198500151677
-0.198500134473
-0.198500106948
-0.198500028146
-0.198498410439
-0.198464123606
-0.198177229866
-0.205266867954
-0.315315260807
-0.315252022879
-0.205224206706
-0.198113765138
-0.198275111685
-0.198197218182
-0.198203787677
-0.198308322126
-0.198442190493
-0.198559458633
-0.198582861381
-0.198570751121
-0.198558784897
-0.198550199296
-0.19854553657
-0.198542055273
-0.198540421735
-0.198540515278
-0.19854149922
-0.198543200728
-0.198544373356
-0.198544547986
-0.19854480744
-0.198545018155
-0.198545181536
-0.198545306076
-0.198545398533
-0.198545465598
-0.198545512769
-0.198545543769
-0.198545560943
-0.198545565661
-0.198545558584
-0.198545540471
-0.198545511075
-0.198545429003
-0.198543803294
-0.198509436683
-0.198221210044
-0.205297937388
-0.315312382605
-0.315247824109
-0.205209178331
-0.198075009273
-0.198215528479
-0.198114298206
-0.198124238522
-0.19825011458
-0.198406644577
-0.19855727653
-0.198588892502
-0.198576909352
-0.198564833778
-0.198555549558
-0.198550564031
-0.198546957852
-0.198545071368
-0.198544967406
-0.198546010098
-0.198547334535
-0.198548713554
-0.198549242032
-0.198549505386
-0.198549721339
-0.198549888781
-0.198550016459
-0.198550110907
-0.198550179058
-0.198550226731
-0.198550257918
-0.19855027502
-0.198550279346
-0.198550271461
-0.198550251909
-0.198550220306
-0.198550134611
-0.198548503517
-0.198514124146
-0.198225751263
-0.205301076227
-0.31531233969
-0.315244472726
-0.205199342733
-0.198053229951
-0.198185782357
-0.198063825915
-0.198076286172
-0.198222607036
-0.198386762039
-0.198555516303
-0.19859053608
-0.198578389497
-0.198566280119
-0.198556398562
-0.198551168483
-0.19854750292
-0.198545407553
-0.198545232907
-0.198546166863
-0.198547366028
-0.198548773644
-0.198549691487
-0.198549860144
-0.198550077863
-0.198550248199
-0.198550378247
-0.198550474317
-0.198550543439
-0.198550591635
-0.198550623035
-0.19855064005
-0.198550643959
-0.198550635273
-0.198550614386
-0.198550580691
-0.198550492109
-0.198548857421
-0.198514474215
-0.19822608787
-0.205301302721
-0.315312438289
-0.315242446534
-0.20519553811
-0.198046474046
-0.198179346703
-0.198048508205
-0.198060964662
-0.198218746385
-0.198379488625
-0.19855564319
-0.198591294055
-0.198578902955
-0.19856703574
-0.198556675264
-0.198551306399
-0.198547627959
-0.198545415983
-0.198545241794
-0.198546030664
-0.198547223191
-0.198548649974
-0.198549773593
-0.198549861211
-0.198550078056
-0.198550248813
-0.198550379246
-0.198550475398
-0.198550544537
-0.198550592728
-0.198550624144
-0.198550641149
-0.198550644979
-0.198550636136
-0.198550614983
-0.19855058073
-0.198550491075
-0.198548855667
-0.198514472062
-0.198226086696
-0.20530130271
-0.315312492617
-0.315242502667
-0.205195549922
-0.19804636481
-0.198178878312
-0.198049208816
-0.198061428982
-0.19821799423
-0.19837923508
-0.198555616395
-0.198591310685
-0.198578927234
-0.198567066239
-0.198556679556
-0.198551314746
-0.198547640988
-0.19854541437
-0.198545241682
-0.198546020489
-0.198547202751
-0.198548638839
-0.198549763752
-0.198549853805
-0.198550068363
-0.198550237044
-0.198550365612
-0.198550460269
-0.19855052836
-0.198550575917
-0.198550607072
-0.198550624145
-0.198550628341
-0.198550620104
-0.198550599957
-0.198550567323
-0.198550480567
-0.198548847115
-0.19851446548
-0.198226082947
-0.205301302156
-0.315312495314
-0.315244583961
-0.205199365796
-0.198053392453
-0.198184527188
-0.198060906388
-0.1980727536
-0.198220424071
-0.19838606985
-0.198555469098
-0.198590526787
-0.198578419335
-0.198566319997
-0.198556399207
-0.198551185087
-0.19854753045
-0.198545401671
-0.198545258131
-0.198546108848
-0.19854730763
-0.198548715921
-0.198549704752
-0.198549831575
-0.19855004284
-0.198550208175
-0.198550333963
-0.1985504267
-0.198550493537
-0.198550540379
-0.198550571231
-0.198550588385
-0.198550593024
-0.198550585645
-0.19855056678
-0.198550535943
-0.198550451368
-0.198548821525
-0.198514443437
-0.198226065992
-0.205301291998
-0.315312466137
-0.315247862568
-0.205209123368
-0.198075003473
-0.19821320946
-0.198112650766
-0.198121684378
-0.198247281655
-0.198405603659
-0.198557119346
-0.198588940768
-0.198576973395
-0.198564833746
-0.198555561441
-0.198550608656
-0.198546997053
-0.19854505179
-0.198544919502
-0.198545927038
-0.198547183331
-0.198548550682
-0.198549211684
-0.19854946599
-0.198549674615
-0.198549836549
-0.198549959805
-0.198550050914
-0.198550116801
-0.19855016312
-0.198550193759
-0.198550210977
-0.198550215976
-0.198550209287
-0.198550191526
-0.198550162399
-0.198550080375
-0.198548454626
-0.198514081588
-0.198225721513
-0.205301063382
-0.315312420556
-0.315251904693
-0.205224275981
-0.198113879254
-0.198273736964
-0.198195737441
-0.19820136543
-0.198305527968
-0.198441259975
-0.198559383065
-0.198582926496
-0.198570867941
-0.198558742172
-0.198550245577
-0.198545598934
-0.198542087669
-0.198540402923
-0.198540394056
-0.198541412833
-0.198542996207
-0.19854424424
-0.198544525417
-0.198544775221
-0.198544979387
-0.198545138259
-0.198545259426
-0.198545349351
-0.198545414663
-0.198545460734
-0.198545491277
-0.198545508546
-0.198545513761
-0.198545507521
-0.198545490522
-0.198545462677
-0.198545382835
-0.198543761141
-0.198509400121
-0.198221186617
-0.205297929527
-0.315312562564
-0.315259475952
-0.205217117358
-0.19812546957
-0.198321133374
-0.198278940254
-0.198282040279
-0.198352545023
-0.198450194115
-0.198524344086
-0.198536184424
-0.198523617402
-0.19851186491
-0.198504054077
-0.198500030123
-0.198496444047
-0.198495028986
-0.198495260378
-0.198496344163
-0.198497903884
-0.198498789195
-0.198499085142
-0.198499333138
-0.198499532824
-0.198499688973
-0.198499808464
-0.198499897554
-0.198499962541
-0.198500008525
-0.198500039058
-0.198500056397
-0.198500061769
-0.198500055818
-0.198500039333
-0.198500012369
-0.198499934252
-0.198498318705
-0.198464035258
-0.198177149505
-0.205266805328
-0.315315598888
-0.315302496935
-0.205029190168
-0.197869934014
-0.198104590271
-0.198096434013
-0.19809941392
-0.198134888198
-0.198189079058
-0.198222994321
-0.198224406405
-0.198212010012
-0.198200828656
-0.198193784846
-0.198190555334
-0.198186772165
-0.198185575814
-0.198186196447
-0.198187546341
-0.198188992507
-0.198189336621
-0.19818962979
-0.198189873086
-0.198190067711
-0.19819022052
-0.198190338027
-0.198190426125
-0.19819049066
-0.198190536453
-0.198190566892
-0.198190584237
-0.198190589713
-0.198190584002
-0.198190567957
-0.198190541712
-0.198190465406
-0.198188874617
-0.198155146842
-0.197877795082
-0.205056042794
-0.315352910553
-0.31569415258
-0.204486250467
-0.196927413752
-0.197137737316
-0.197153623944
-0.197155402419
-0.197169372812
-0.197194231122
-0.197212443366
-0.197211013918
-0.197201067646
-0.19719141485
-0.197185319735
-0.197182627922
-0.197178660306
-0.197177773538
-0.197178452748
-0.197180269326
-0.197181287518
-0.197181665197
-0.197181938618
-0.197182169469
-0.197182354514
-0.197182500547
-0.197182613584
-0.19718269879
-0.197182761354
-0.197182805776
-0.197182835216
-0.197182851896
-0.197182856994
-0.19718285115
-0.197182835251
-0.197182809458
-0.197182737751
-0.197181271145
-0.197150512502
-0.19692112597
-0.204498811131
-0.315737244128
-0.318847333868
-0.210226389947
-0.201783865465
-0.201847871844
-0.201853972098
-0.201855303492
-0.20186996099
-0.201895202236
-0.201918166934
-0.201925170006
-0.201923395755
-0.201915925242
-0.201910988757
-0.20190752922
-0.201904511782
-0.201903697938
-0.201904029049
-0.201905119043
-0.201906943094
-0.201908374615
-0.201908109477
-0.201908329369
-0.201908499451
-0.201908632764
-0.201908735798
-0.201908813156
-0.201908869303
-0.201908908055
-0.201908932031
-0.201908942875
-0.201908941192
-0.201908926941
-0.201908900229
-0.201908860769
-0.201908785518
-0.20190772777
-0.201886828586
-0.201800121293
-0.210245208439
-0.318879378536
-0.33163146074
-0.290062499308
-0.282256261808
-0.282131570988
-0.2821146593
-0.282116247619
-0.282139961806
-0.282171178259
-0.282210152603
-0.282240666114
-0.282250394469
-0.282251899047
-0.282251555888
-0.282247579559
-0.282245307854
-0.282244214694
-0.28224379752
-0.282243676235
-0.282243634435
-0.282243736232
-0.282243901952
-0.282244044067
-0.282244157887
-0.28224424944
-0.282244318177
-0.282244362506
-0.282244382267
-0.282244377318
-0.282244345758
-0.282244283373
-0.282244183146
-0.282244035239
-0.282243829449
-0.282243555743
-0.282243215396
-0.282242578905
-0.282237515147
-0.282328334556
-0.290108114613
-0.331639287974
-0.28574731974
-0.275633795949
-0.272846406039
-0.272671098034
-0.272663654833
-0.272668879985
-0.272679657824
-0.272689842299
-0.272711499651
-0.27273849634
-0.272724153095
-0.272709242683
-0.272704113912
-0.272703749079
-0.272705224992
-0.272707292848
-0.272709319297
-0.272710970662
-0.272712144193
-0.272712907939
-0.272713395451
-0.272713692336
-0.272713852202
-0.272713922685
-0.272713939918
-0.272713927447
-0.27271389861
-0.27271385917
-0.272713809023
-0.272713746096
-0.272713670064
-0.272713578462
-0.272713462235
-0.272713310181
-0.272713149464
-0.272713212151
-0.272719470779
-0.27289202547
-0.275658906813
-0.285743380737
-0.281937002053
-0.253771459057
-0.247826515758
-0.247432461668
-0.247413352097
-0.247415875894
-0.247425297672
-0.247431186301
-0.24745012433
-0.247482791704
-0.247459557074
-0.247442356991
-0.247436379993
-0.247435850101
-0.247437457736
-0.247439695965
-0.247442050773
-0.247444143665
-0.247445743453
-0.247446954857
-0.247447765822
-0.247448286102
-0.247448596242
-0.247448763788
-0.247448846689
-0.247448885903
-0.247448901859
-0.247448904339
-0.24744889379
-0.247448865585
-0.24744881792
-0.247448751534
-0.247448662901
-0.247448537937
-0.24744839226
-0.247448696226
-0.247463951303
-0.247856665795
-0.253785465073
-0.281925596861
-0.318876104582
-0.210159388574
-0.201663688396
-0.201686666907
-0.201669584153
-0.201672210309
-0.201714390323
-0.201772145868
-0.2018449544
-0.201898257537
-0.201906867719
-0.201908598999
-0.201908055084
-0.201906484393
-0.201905721982
-0.201905613459
-0.201905869663
-0.201906241837
-0.201906579054
-0.201906825935
-0.201907014098
-0.201907180087
-0.201907317582
-0.20190742768
-0.201907513747
-0.20190757987
-0.201907629458
-0.2019076655
-0.201907689985
-0.201907704372
-0.201907709561
-0.20190770621
-0.201907695135
-0.201907676987
-0.20190762798
-0.201906605899
-0.201885741559
-0.201798982663
-0.210243359915
-0.318874285953
-0.300653324471
-0.118566557516
-0.110150048224
-0.11062622263
-0.110666225613
-0.110670080354
-0.110694112107
-0.110738307956
-0.110782045579
-0.110803142697
-0.110807070605
-0.110803133795
-0.110800837634
-0.110798886427
-0.110797481808
-0.110797325892
-0.110797807756
-0.110798451806
-0.110799017359
-0.110799703021
-0.110800111037
-0.110800258493
-0.11080037595
-0.110800469004
-0.110800542119
-0.110800599428
-0.110800644464
-0.110800680133
-0.110800708654
-0.110800732059
-0.110800752092
-0.110800770663
-0.110800789487
-0.110800807967
-0.110800724734
-0.110797529488
-0.110734403464
-0.110219199525
-0.118631285877
-0.300670769126
-0.295956411036
-0.113557398639
-0.106930741592
-0.107759351723
-0.107837313444
-0.107842288684
-0.107855951705
-0.107885800006
-0.107909902042
-0.10791387839
-0.107908444331
-0.107902493565
-0.107898961356
-0.107897038375
-0.107895466049
-0.107895256614
-0.107895695202
-0.107896776968
-0.107897448928
-0.10789771664
-0.107897920038
-0.10789807954
-0.107898206775
-0.107898307216
-0.107898385904
-0.107898447365
-0.107898495529
-0.107898533584
-0.107898563926
-0.107898588711
-0.107898609776
-0.107898628947
-0.107898648134
-0.107898665668
-0.107898532326
-0.107893930383
-0.107803211853
-0.106956942207
-0.113622976739
-0.295983943088
-0.295264445796
-0.115310298196
-0.109620296644
-0.110559400348
-0.110625123776
-0.110631992568
-0.110668565973
-0.110722589511
-0.110749803162
-0.110749795612
-0.110740104166
-0.110732403425
-0.110728094214
-0.110726286855
-0.110724249047
-0.110723832227
-0.110724315088
-0.110725149229
-0.110726073611
-0.110726301087
-0.110726510493
-0.11072667686
-0.110726808971
-0.110726913126
-0.110726994619
-0.110727058033
-0.110727107536
-0.110727146508
-0.110727177495
-0.110727202679
-0.110727223938
-0.11072724309
-0.110727262064
-0.110727278852
-0.110727128843
-0.110722056945
-0.110621602081
-0.109644666486
-0.115400478437
-0.295298602176
-0.295177871345
-0.115849422624
-0.110385056037
-0.111240802721
-0.111244957618
-0.111257883614
-0.111367823096
-0.111529901532
-0.111601995076
-0.111607450954
-0.111596293471
-0.111587484441
-0.11158253482
-0.111580639537
-0.111578221073
-0.111577609156
-0.111578014217
-0.111578652369
-0.111579611301
-0.111580166976
-0.111580385402
-0.111580555366
-0.11158068917
-0.111580794346
-0.111580876614
-0.111580940472
-0.111580990191
-0.111581029263
-0.111581060346
-0.111581085612
-0.111581106943
-0.11158112616
-0.111581145169