/*--------------------------------*- C++ -*----------------------------------*\
| =========                 |                                                 |
| \\      /  F ield         | OpenFOAM: The Open Source CFD Toolbox           |
|  \\    /   O peration     | Version:  3.0.1                                 |
|   \\  /    A nd           | Web:      www.OpenFOAM.org                      |
|    \\/     M anipulation  |                                                 |
\*---------------------------------------------------------------------------*/
FoamFile
{
    version     2.0;
    format      ascii;
    class       volVectorField;
    location    "0.2";
    object      ddt0(U);
}
// * * * * * * * * * * * * * * * * * * * * * * * * * * * * * * * * * * * * * //

dimensions      [0 1 -2 0 0 0 0];

internalField   nonuniform List<vector> 
15984
(
(0.00247188268642 0.0016859575276 -0.00304987406299)
(0.00653049326302 0.00214802331242 -0.00310064008632)
(0.00797374992086 0.00299541681001 -0.00311098486892)
(0.00572272893199 0.00390156523608 -0.00306747923527)
(0.000209184150439 0.00445360473127 -0.00298830842336)
(-0.00671326664451 0.00441553192537 -0.00290080770242)
(-0.0126782396062 0.00377184839483 -0.00279668144396)
(-0.0160171695981 0.00275612383906 -0.00257243277349)
(-0.0163122219313 0.0017837995027 -0.00218586999437)
(-0.0144877924143 0.00107359019838 -0.00179099346066)
(-0.0118169954993 0.000592344801346 -0.00134772647916)
(-0.0090801779299 0.000322375962128 -0.000974519453027)
(-0.00670303211526 0.000176947459145 -0.000684414092792)
(-0.00480694904038 0.000101459145688 -0.000474120591014)
(-0.00337132630466 6.33207600158e-05 -0.000327373621606)
(-0.00232490715882 4.37998252996e-05 -0.000226396610424)
(-0.00158466512802 3.35900317174e-05 -0.00015737351625)
(-0.00107240633833 2.78609368625e-05 -0.000110207460558)
(-0.000721962115899 2.40058617609e-05 -7.78533393357e-05)
(-0.00048484572651 2.3553782766e-05 -5.67576940443e-05)
(-0.00032631826104 2.26754963713e-05 -4.20154477218e-05)
(-0.000220299924456 2.1919614184e-05 -3.16692319446e-05)
(-0.000149192241487 2.13370876867e-05 -2.44276045881e-05)
(-0.000100785159358 2.0939473196e-05 -1.93613903339e-05)
(-6.70708118463e-05 2.06917790298e-05 -1.57959450983e-05)
(-4.32532973571e-05 2.05334623514e-05 -1.32147247086e-05)
(-2.65695521948e-05 2.04230131707e-05 -1.13552808963e-05)
(-1.52486307993e-05 2.03388602223e-05 -1.0035469018e-05)
(-8.0246366753e-06 2.02702392137e-05 -9.0975120602e-06)
(-3.92073115916e-06 2.02107155019e-05 -8.41422942636e-06)
(-2.19167910111e-06 2.01582648274e-05 -7.89349355216e-06)
(-2.33462852575e-06 2.00969999686e-05 -7.47332927894e-06)
(-4.02319397741e-06 2.00264593565e-05 -7.12859020626e-06)
(-6.84386223797e-06 1.9935869743e-05 -6.86704021312e-06)
(-1.00515980119e-05 1.98137251465e-05 -6.73281545365e-06)
(-1.25301426111e-05 1.96261133296e-05 -6.8174248923e-06)
(-1.20900434922e-05 1.92680671612e-05 -7.53358163559e-06)
(-1.66611385609e-05 1.95441801798e-05 -6.73942176971e-06)
(-1.03067831845e-05 1.81988382327e-05 -8.89555487117e-06)
(2.44043283026e-06 1.50029253553e-05 -6.80202070648e-06)
(0.00267262457197 0.00490888085814 -0.00308565708521)
(0.00712807140103 0.00627928082394 -0.00316269830425)
(0.00877722357065 0.00881024262982 -0.00314851496209)
(0.00639455534389 0.0115158790438 -0.0030660357197)
(0.000453492826721 0.0131611408605 -0.0029542780659)
(-0.00701017610392 0.0130499578954 -0.00287014541471)
(-0.0134144904132 0.0111253860067 -0.00277945434495)
(-0.0168914816441 0.00813654210546 -0.00261358945976)
(-0.0170346978486 0.00525831935646 -0.00221788471643)
(-0.0149827541188 0.00305220700811 -0.00183264684062)
(-0.0121152997603 0.00170325571748 -0.00134753252525)
(-0.00923238290469 0.000914837516134 -0.000951235981811)
(-0.00677509514216 0.000490575230856 -0.000649503226724)
(-0.00483737098753 0.000269531709676 -0.000434852558452)
(-0.0033818948582 0.000157820543545 -0.000286988994359)
(-0.00232686741477 0.000100840246141 -0.000186720588999)
(-0.00158329071069 7.13270222201e-05 -0.000118921774492)
(-0.00107026679527 5.42236548241e-05 -7.23258398346e-05)
(-0.000718863951657 4.14003244313e-05 -3.98234163086e-05)
(-0.000481452208789 4.20244405249e-05 -2.08218663662e-05)
(-0.000323938352249 4.00074409159e-05 -7.45313904145e-06)
(-0.00021842561704 3.82356165372e-05 2.02543564266e-06)
(-0.000147633106546 3.69015362775e-05 8.64638802512e-06)
(-9.94307241416e-05 3.60401697493e-05 1.32638583115e-05)
(-6.58744153558e-05 3.55455539536e-05 1.65001129713e-05)
(-4.21925680657e-05 3.52519169446e-05 1.8823672404e-05)
(-2.56195163734e-05 3.50491351671e-05 2.04713333487e-05)
(-1.43851087743e-05 3.4885164124e-05 2.16110170704e-05)
(-7.23470847408e-06 3.47353186759e-05 2.23905028711e-05)
(-3.21062027767e-06 3.45834966171e-05 2.29252931503e-05)
(-1.6045170187e-06 3.44221283226e-05 2.32922236465e-05)
(-1.95528564954e-06 3.42484613503e-05 2.35733722579e-05)
(-3.98947834018e-06 3.40446254779e-05 2.37597420737e-05)
(-7.36886148804e-06 3.37820069205e-05 2.38151423672e-05)
(-1.14172413912e-05 3.3432509033e-05 2.36454415887e-05)
(-1.51021179325e-05 3.30037411928e-05 2.31540153918e-05)
(-1.55277427353e-05 3.21698444558e-05 2.15880902446e-05)
(-2.12416839893e-05 3.23612910729e-05 2.17343236456e-05)
(-1.46469889006e-05 3.10256043542e-05 1.87690789821e-05)
(-3.49420728773e-06 2.77652400323e-05 1.87940594304e-05)
(0.00313322076032 0.00780667898066 -0.00310669912184)
(0.00842359303111 0.010113866772 -0.00313537833991)
(0.0105112745477 0.0143631579796 -0.00293130056699)
(0.00783344524236 0.0189043280656 -0.0026134162773)
(0.000960578560458 0.0216560139937 -0.00234763139422)
(-0.0076826577109 0.0214651970308 -0.00225315544686)
(-0.0150307187914 0.0182770216349 -0.00234354639189)
(-0.0188174177403 0.0133102599723 -0.0023858557557)
(-0.0187171190232 0.00847755597296 -0.00220403292788)
(-0.016143885425 0.00483574294407 -0.00183437112872)
(-0.0127915601956 0.00267181894843 -0.00137882867784)
(-0.00961884527785 0.00141017218022 -0.00097581468011)
(-0.00697941754115 0.000735930204187 -0.000666350281418)
(-0.00494229727801 0.000386865353965 -0.000444949293539)
(-0.00343484751233 0.000209716422735 -0.000294604535193)
(-0.00235389125181 0.000120385834976 -0.000192961808931)
(-0.00159793327507 7.17459258728e-05 -0.000123886547217)
(-0.00108008858777 4.63681648078e-05 -7.311777278e-05)
(-0.00072263410863 3.73504225034e-05 -3.42704360754e-05)
(-0.000481393937939 3.2603408015e-05 -1.89720535712e-05)
(-0.000324967613865 2.95279832084e-05 -8.1067541566e-06)
(-0.000219286909679 2.72170560109e-05 5.27301245583e-07)
(-0.000148239496652 2.55829497062e-05 6.72150840489e-06)
(-9.98065642717e-05 2.46345519761e-05 1.10959986364e-05)
(-6.61105605609e-05 2.4172561089e-05 1.41910172321e-05)
(-4.23785540294e-05 2.39467155201e-05 1.6418758431e-05)
(-2.5805776669e-05 2.38055061346e-05 1.799719007e-05)
(-1.45911651107e-05 2.36840519582e-05 1.90959916308e-05)
(-7.46379250273e-06 2.35566134448e-05 1.98666716951e-05)
(-3.45272412526e-06 2.34094011594e-05 2.04241550704e-05)
(-1.82481754664e-06 2.32361185593e-05 2.08506433294e-05)
(-2.10481188426e-06 2.30518146923e-05 2.12013000748e-05)
(-4.00865140671e-06 2.28376049561e-05 2.14863470628e-05)
(-7.16605439258e-06 2.25710937544e-05 2.16789951078e-05)
(-1.08485756191e-05 2.223905084e-05 2.16847786614e-05)
(-1.41065776753e-05 2.19023204447e-05 2.13763832065e-05)
(-1.36619204429e-05 2.13309945606e-05 1.97443959165e-05)
(-1.91126727815e-05 2.19956031385e-05 2.02733189302e-05)
(-1.31875114389e-05 2.16991349581e-05 1.61149961267e-05)
(-2.18017034799e-06 2.2188073417e-05 1.2888691963e-05)
(0.00383566875844 0.010085601899 -0.00311067026143)
(0.0103960985293 0.013229002732 -0.0029943598513)
(0.0131374703177 0.0190413271023 -0.00239113474592)
(0.0100110812298 0.0252300204402 -0.00160633573814)
(0.00172388873552 0.0289820763766 -0.0010477768808)
(-0.00868566442981 0.0287186962656 -0.000964223533495)
(-0.0174555025498 0.0243958234421 -0.00133940349005)
(-0.0217431714565 0.0176500851474 -0.00184660649847)
(-0.0212247158664 0.0110715082043 -0.00204910979376)
(-0.017846529487 0.00629792374638 -0.00182384875115)
(-0.0138001407009 0.00341033945843 -0.00140572887787)
(-0.0101821804409 0.00177982205062 -0.00100414972066)
(-0.00727589623548 0.000915307570226 -0.000686525087573)
(-0.00509435137553 0.000473106844009 -0.000460919596244)
(-0.00351187715206 0.0002458571743 -0.000305831517338)
(-0.00239420345006 0.000132923345187 -0.000202575849894)
(-0.00161950969291 7.58846683632e-05 -0.000126472490911)
(-0.00108711840626 4.45057260897e-05 -6.74485850261e-05)
(-0.000725611556735 3.68472707623e-05 -4.19133661991e-05)
(-0.000485319018584 2.70715276691e-05 -2.57391781757e-05)
(-0.000326622228576 2.32950587407e-05 -1.35135520552e-05)
(-0.000220408787404 2.07145663995e-05 -4.68131371655e-06)
(-0.000148951804171 1.8984394441e-05 1.57382588631e-06)
(-0.000100182762866 1.80823883341e-05 6.02323857563e-06)
(-6.62897987094e-05 1.77264751172e-05 9.19165483698e-06)
(-4.24780384843e-05 1.76100949639e-05 1.14682319604e-05)
(-2.58881655543e-05 1.75613436238e-05 1.30782250333e-05)
(-1.46849417985e-05 1.75115115685e-05 1.42006513261e-05)
(-7.58491544354e-06 1.74381101141e-05 1.49941576571e-05)
(-3.61542404649e-06 1.73349247145e-05 1.55771578093e-05)
(-2.04645423739e-06 1.72039664957e-05 1.60335276958e-05)
(-2.41264021446e-06 1.70524733159e-05 1.64208229615e-05)
(-4.44617539125e-06 1.68785272105e-05 1.67530269488e-05)
(-7.79338555208e-06 1.66733792221e-05 1.70076053511e-05)
(-1.17273374462e-05 1.64381396402e-05 1.70915040733e-05)
(-1.53464363873e-05 1.62365200491e-05 1.69027365099e-05)
(-1.49618566876e-05 1.60011119536e-05 1.52660177055e-05)
(-2.06044741365e-05 1.69736956287e-05 1.60013774381e-05)
(-1.42137969096e-05 1.74549894605e-05 1.19550177483e-05)
(-2.05399286691e-06 1.92666142024e-05 1.08485028992e-05)
(0.00472228087079 0.0114995065542 -0.00309070983417)
(0.0129179578344 0.0152486606216 -0.00273863932744)
(0.0165073507379 0.0222415456655 -0.00153725165886)
(0.0127979540123 0.0296507983429 -4.7906333403e-05)
(0.00270350587211 0.0341653790212 0.000933930340982)
(-0.00997172598288 0.0338519241904 0.0010149535346)
(-0.0205554063657 0.0286565948337 0.000189539638297)
(-0.0254668443648 0.0205979970633 -0.0010071847798)
(-0.0243812317667 0.0127695395779 -0.00177515775606)
(-0.0199652085727 0.00719723477543 -0.00179158123058)
(-0.0150443090327 0.00385269125425 -0.00142964026977)
(-0.0108624822915 0.00198503018531 -0.00103260124087)
(-0.00763057060221 0.00101782318379 -0.000705703593354)
(-0.00527585208777 0.000525033238251 -0.000472118620647)
(-0.00360437787922 0.000271669767037 -0.000312208389573)
(-0.0024386422895 0.000146085128907 -0.00020557407281)
(-0.00164207478628 8.78165767174e-05 -0.00013291459496)
(-0.00109962201697 5.79354173149e-05 -7.12615974847e-05)
(-0.000731401678597 3.66614586813e-05 -4.10938954411e-05)
(-0.000488229943439 2.93683049846e-05 -2.57907382091e-05)
(-0.000328200930629 2.60136832988e-05 -1.37029784371e-05)
(-0.00022149035296 2.3531240865e-05 -4.96218515267e-06)
(-0.000149597342104 2.18938863764e-05 1.26489536785e-06)
(-0.000100472798022 2.11307311539e-05 5.75708730027e-06)
(-6.63822566591e-05 2.09071367601e-05 8.98813872557e-06)
(-4.24984765226e-05 2.08989429377e-05 1.13129642219e-05)
(-2.58987262839e-05 2.09328673677e-05 1.29553630693e-05)
(-1.47087797851e-05 2.09424726448e-05 1.41022416909e-05)
(-7.62921109827e-06 2.09070040813e-05 1.49187254588e-05)
(-3.68125914356e-06 2.08261700277e-05 1.55245416088e-05)
(-2.13194254368e-06 2.07085086795e-05 1.60050968536e-05)
(-2.51822350306e-06 2.05689551122e-05 1.64159358317e-05)
(-4.57874881072e-06 2.04117369581e-05 1.67756447737e-05)
(-7.9616326482e-06 2.02318714413e-05 1.70647536442e-05)
(-1.19247492074e-05 2.00348826124e-05 1.71928772438e-05)
(-1.55736311613e-05 1.98825984803e-05 1.70723842315e-05)
(-1.49760015315e-05 1.97895279897e-05 1.54523346252e-05)
(-2.05073288643e-05 2.05367788092e-05 1.63440962387e-05)
(-1.36788899068e-05 2.08434877706e-05 1.24054459194e-05)
(-1.43821651793e-06 2.19859366185e-05 1.19532421639e-05)
(0.00572910507692 0.0118203859374 -0.00304336896393)
(0.0157882460376 0.0158411954951 -0.00238283910242)
(0.0203401345893 0.0233522092974 -0.000396256224914)
(0.0159716925751 0.0313183108224 0.00200757669206)
(0.00382382700341 0.036201556268 0.00356474971846)
(-0.0114390946829 0.0358652761415 0.00364755268275)
(-0.0240804250232 0.0302546987813 0.00221650620014)
(-0.0296840327575 0.021595361394 9.05312983829e-05)
(-0.0279227609101 0.013252379289 -0.00140905270023)
(-0.0223033583079 0.00739388809635 -0.00174070759016)
(-0.0164052472863 0.00394361951514 -0.00145651584751)
(-0.0115990433355 0.0019849611398 -0.00105648138149)
(-0.00800560589567 0.00101972378212 -0.000723023491289)
(-0.00546730887936 0.000524177483801 -0.000481589296403)
(-0.00370131498868 0.000272981913629 -0.000315621940034)
(-0.00248613579082 0.000147390686636 -0.000206863810346)
(-0.00166360678513 8.64249726626e-05 -0.000134740881879)
(-0.00111272332838 6.15746041542e-05 -8.1512942477e-05)
(-0.000739921669277 3.8863382939e-05 -3.42366383561e-05)
(-0.000490665700444 2.87785637965e-05 -2.13589910829e-05)
(-0.000329559086848 2.62682498322e-05 -1.07750166801e-05)
(-0.000222483129493 2.40685979812e-05 -2.50668466088e-06)
(-0.000150163399154 2.25914077795e-05 3.55783790168e-06)
(-0.000100685160133 2.19820243893e-05 8.03397469506e-06)
(-6.6413158609e-05 2.18701839729e-05 1.1281794002e-05)
(-4.247183783e-05 2.19383847348e-05 1.36206235858e-05)
(-2.58730665782e-05 2.20272821722e-05 1.52715092498e-05)
(-1.47054838285e-05 2.20744193059e-05 1.64264128744e-05)
(-7.65289721703e-06 2.20600794264e-05 1.72498317809e-05)
(-3.72856241137e-06 2.19889845397e-05 1.78627815646e-05)
(-2.19569638981e-06 2.18773781972e-05 1.83519449321e-05)
(-2.59244628695e-06 2.17446370244e-05 1.87709485115e-05)
(-4.6630020093e-06 2.15998338129e-05 1.91400137954e-05)
(-8.05577616572e-06 2.14388686377e-05 1.94411867267e-05)
(-1.2013503263e-05 2.1269191004e-05 1.95838622863e-05)
(-1.56330376953e-05 2.11428583977e-05 1.94838407364e-05)
(-1.4846541892e-05 2.11078437911e-05 1.78472754667e-05)
(-2.03083739951e-05 2.15990361151e-05 1.87812224185e-05)
(-1.32583621806e-05 2.17090447536e-05 1.47755336812e-05)
(-1.21920365593e-06 2.20509595178e-05 1.38091008206e-05)
(0.00675095529606 0.0109352740374 -0.00297314285094)
(0.0187063083536 0.0147711025224 -0.00196778687075)
(0.0242489919923 0.0219527962485 0.000898054301288)
(0.0192228718583 0.029605333873 0.00431924062096)
(0.00497690238716 0.0343172068411 0.00650659636574)
(-0.0129449719052 0.0339870302775 0.00658979753962)
(-0.0276901964076 0.0285767907893 0.00447661780477)
(-0.0339674653735 0.0202623262562 0.00131884188971)
(-0.0314814597213 0.0123396776173 -0.000992131349077)
(-0.0246194028997 0.00682513817414 -0.00168021768258)
(-0.0177486936405 0.00367691903627 -0.00148867229084)
(-0.0123243678255 0.00175538789645 -0.00107090367347)
(-0.00836092859512 0.000921020256808 -0.000738543795768)
(-0.00564922075533 0.000473493991724 -0.000491100975968)
(-0.00379276874197 0.000248496284012 -0.000319229089593)
(-0.00253192440165 0.000135036629017 -0.000208102474122)
(-0.00168498800283 7.86953031422e-05 -0.000134361263585)
(-0.00112340798701 5.46322822022e-05 -8.46404838068e-05)
(-0.000747804304596 4.12849210773e-05 -4.08688978996e-05)
(-0.000494531347737 2.59457198703e-05 -1.44941850563e-05)
(-0.000330558947291 2.35247277646e-05 -7.43154458142e-06)
(-0.000223331085253 2.18200689088e-05 -1.61598119614e-07)
(-0.000150642397215 2.0580398437e-05 5.58974567677e-06)
(-0.000100834781643 2.01204664612e-05 1.00098252992e-05)
(-6.64051682739e-05 2.00916694555e-05 1.32494830372e-05)
(-4.24208488689e-05 2.02026057664e-05 1.55848779174e-05)
(-2.58315647515e-05 2.03154119926e-05 1.72359599108e-05)
(-1.46932806431e-05 2.03741785199e-05 1.83931765945e-05)
(-7.67302046083e-06 2.03623323499e-05 1.9219077268e-05)
(-3.77410447424e-06 2.02883785822e-05 1.98339726358e-05)
(-2.25625994279e-06 2.01756647633e-05 2.0322425956e-05)
(-2.66016196939e-06 2.00469595313e-05 2.07396791341e-05)
(-4.7364563972e-06 1.9913572881e-05 2.11070023864e-05)
(-8.13434852705e-06 1.97725438274e-05 2.14098235928e-05)
(-1.2083910556e-05 1.96257563021e-05 2.15544493252e-05)
(-1.56704595994e-05 1.95153029588e-05 2.1454652614e-05)
(-1.47620780023e-05 1.94822463166e-05 1.97967072351e-05)
(-2.02048980014e-05 1.97400989319e-05 2.0746949016e-05)
(-1.31138282403e-05 1.97622218139e-05 1.6656304856e-05)
(-1.18325080105e-06 1.9680014659e-05 1.52591908127e-05)
(0.00766455251573 0.00886291571519 -0.00289326913621)
(0.0213184566965 0.0120330828052 -0.00156833061283)
(0.0277598532407 0.0179852228709 0.00210516423582)
(0.0221547088616 0.0243724162459 0.00648317107188)
(0.00601473352894 0.0283189948525 0.00926123833693)
(-0.0143094616535 0.0280203948229 0.0093300201457)
(-0.0309432046158 0.0234933714297 0.00658548503166)
(-0.0378017717117 0.0165622884893 0.0024455515686)
(-0.0346409920883 0.0100270143224 -0.000605205932249)
(-0.0266347144008 0.00550464634394 -0.00162425245144)
(-0.0189401643432 0.00291110398872 -0.00154888087187)
(-0.0129769927398 0.00145359961401 -0.0010491778935)
(-0.00864654986636 0.000739733141789 -0.000750547151204)
(-0.00580357819271 0.00037946894139 -0.000498078025697)
(-0.00387054107525 0.000200455470313 -0.000322421867199)
(-0.00257103663652 0.000110145165552 -0.000208955926774)
(-0.00170380916956 6.5192390454e-05 -0.000134502637725)
(-0.00113142911474 4.3366168212e-05 -8.62329691103e-05)
(-0.000754265465857 3.62327743362e-05 -4.67121425303e-05)
(-0.000499546243314 2.0667885228e-05 -8.8970051062e-06)
(-0.000331622294303 1.79410324503e-05 -3.75985440344e-06)
(-0.000223955592652 1.69641558055e-05 1.88572645627e-06)
(-0.000151013415177 1.60413202383e-05 7.1930001794e-06)
(-0.000100929684155 1.57212779277e-05 1.15137913451e-05)
(-6.63722145889e-05 1.57445413478e-05 1.47307776939e-05)
(-4.23600669165e-05 1.5868112227e-05 1.70528882613e-05)
(-2.57873668451e-05 1.59753577066e-05 1.86998902667e-05)
(-1.46821053949e-05 1.6022520111e-05 1.98562725172e-05)
(-7.69589540062e-06 1.59981112602e-05 2.06813818075e-05)
(-3.82204429007e-06 1.59152051222e-05 2.12938395946e-05)
(-2.31660516388e-06 1.58004495728e-05 2.1779566641e-05)
(-2.72375098628e-06 1.56793273228e-05 2.21945309941e-05)
(-4.80060521773e-06 1.55627863853e-05 2.25602157832e-05)
(-8.20031713679e-06 1.54465916061e-05 2.28573037426e-05)
(-1.21430803504e-05 1.53270605345e-05 2.29979868896e-05)
(-1.57059536366e-05 1.52403300425e-05 2.28897486699e-05)
(-1.47326037781e-05 1.51841576773e-05 2.12149724661e-05)
(-2.01795109108e-05 1.52753547162e-05 2.21705492707e-05)
(-1.31127730806e-05 1.5306194732e-05 1.80180897826e-05)
(-1.22921034137e-06 1.52108928818e-05 1.63388287568e-05)
(0.00835222348818 0.00578454361112 -0.00282502631708)
(0.0232860024221 0.007879511034 -0.00126330212109)
(0.0304214013014 0.0118286167227 0.00301321889862)
(0.024391092113 0.0161187913177 0.00813760581515)
(0.00680090545335 0.018779799284 0.0113512552599)
(-0.015357988392 0.0185526687229 0.0113924757542)
(-0.0334202342719 0.0154990577565 0.00818255724941)
(-0.0407000518392 0.0108592481717 0.00328050916018)
(-0.0370098862512 0.00654122024359 -0.000313158362391)
(-0.0281773247692 0.00356795220856 -0.00157719528767)
(-0.0197742616444 0.00180151514425 -0.00151676704573)
(-0.0134100597008 0.00101823500792 -0.00110582673011)
(-0.00889800383617 0.000485196619614 -0.000763711206134)
(-0.00591887222622 0.000248777868559 -0.000504254282961)
(-0.00392742776805 0.000133576812659 -0.000325172606784)
(-0.00259955596711 7.5658779157e-05 -0.000209844755625)
(-0.00171837709767 4.60256224333e-05 -0.000134933872069)
(-0.00113788783921 2.9878106237e-05 -8.5897125167e-05)
(-0.000759153497696 2.46365658332e-05 -4.99756144034e-05)
(-0.000503677275189 1.45740768253e-05 -1.07317204136e-05)
(-0.000332410852802 1.1195087015e-05 -1.39811966597e-07)
(-0.000224280993374 1.05527739582e-05 3.46387992829e-06)
(-0.000151263865571 9.90371863784e-06 8.30879325764e-06)
(-0.000100983188224 9.69504566455e-06 1.2519157193e-05)
(-6.63317621962e-05 9.73126216233e-06 1.5703922646e-05)
(-4.23054496797e-05 9.83211371595e-06 1.80157461513e-05)
(-2.57543662162e-05 9.90438950604e-06 1.96563865021e-05)
(-1.46819050989e-05 9.91612558939e-06 2.08127758008e-05)
(-7.72668382071e-06 9.86488978777e-06 2.16357744605e-05)
(-3.87295571938e-06 9.76837323383e-06 2.22447828118e-05)
(-2.37421522551e-06 9.65400200104e-06 2.27265251698e-05)
(-2.77899135574e-06 9.54620467432e-06 2.31380737545e-05)
(-4.85282387504e-06 9.45345939472e-06 2.35008618368e-05)
(-8.25223316004e-06 9.36509428751e-06 2.37943725806e-05)
(-1.21870776344e-05 9.26873177229e-06 2.39264961025e-05)
(-1.57419101643e-05 9.16263453662e-06 2.38021648573e-05)
(-1.47464890739e-05 9.14613168646e-06 2.21266419275e-05)
(-2.01952528068e-05 9.16156726232e-06 2.30877379732e-05)
(-1.31693315107e-05 9.25926186024e-06 1.88974986904e-05)
(-1.29997702513e-06 9.37211663897e-06 1.70619373577e-05)
(0.00872400667863 0.00203130046233 -0.00278928071225)
(0.0243535429538 0.00277926479196 -0.00110252742949)
(0.0318820052429 0.00421041631253 0.00349739153901)
(0.025631058672 0.00582085377875 0.00903969938237)
(0.00723152742232 0.00685433351931 0.0124783500356)
(-0.015949738346 0.00674209982194 0.0124884494729)
(-0.0347904069715 0.00554772971565 0.00903353339975)
(-0.042280693313 0.00382986317609 0.00371635593989)
(-0.038286388526 0.00228431339704 -0.000162988867869)
(-0.0290045283399 0.00123624971593 -0.00155315335476)
(-0.0202150504095 0.000616775740381 -0.0015061491754)
(-0.0136351581604 0.000349650523569 -0.00112945025198)
(-0.00903129053271 0.000170813581596 -0.000771473943423)
(-0.00597939856378 9.23165381204e-05 -0.000507984248297)
(-0.00395709873063 5.44876424177e-05 -0.000326831842863)
(-0.00261481211172 3.47371843314e-05 -0.000210573944906)
(-0.00172669940361 2.31036168768e-05 -0.000135102335775)
(-0.00114212366754 1.55261175661e-05 -8.57428010751e-05)
(-0.000761917528064 1.17516760529e-05 -5.09718624997e-05)
(-0.000506267016714 7.31630438744e-06 -1.28503530873e-05)
(-0.000333632961477 4.20151483635e-06 3.23026073851e-06)
(-0.000224601292363 3.41871256127e-06 4.40092003333e-06)
(-0.000151442284293 2.93999036219e-06 8.87500816933e-06)
(-0.000101015917259 2.79676690263e-06 1.30166437641e-05)
(-6.63036802316e-05 2.81549618834e-06 1.61719285395e-05)
(-4.22735016211e-05 2.86301799973e-06 1.84734693923e-05)
(-2.57453588598e-05 2.87323535706e-06 2.01151856352e-05)
(-1.47018502507e-05 2.82921269096e-06 2.12722146511e-05)
(-7.76977187403e-06 2.73981045758e-06 2.20953849764e-05)
(-3.9274970775e-06 2.625746803e-06 2.27027694923e-05)
(-2.42768679682e-06 2.51326245057e-06 2.31823272287e-05)
(-2.82400117947e-06 2.42289363556e-06 2.35922487474e-05)
(-4.89113492039e-06 2.3580529412e-06 2.3953936443e-05)
(-8.2926601488e-06 2.30369019041e-06 2.42463698887e-05)
(-1.2244289886e-05 2.2429234948e-06 2.43736276719e-05)
(-1.57673864545e-05 2.16277085912e-06 2.4271311648e-05)
(-1.47404661469e-05 2.14480773072e-06 2.25537350445e-05)
(-2.02173205405e-05 2.1123293662e-06 2.34998139289e-05)
(-1.32300946408e-05 2.31044238744e-06 1.92954764149e-05)
(-1.35248580516e-06 2.76383939772e-06 1.73989623922e-05)
(0.00873064074595 -0.00196289304156 -0.00279785932229)
(0.0243802483997 -0.0026566780916 -0.00110784859509)
(0.0319431390462 -0.00393670314672 0.00350367716996)
(0.0257132722053 -0.00523635370001 0.00908335667546)
(0.00726144293486 -0.00597259251913 0.0125626707123)
(-0.0160112179302 -0.00594229035676 0.0125561717489)
(-0.034876465195 -0.00511542957684 0.00904694385844)
(-0.0423317996983 -0.00367001501681 0.00370986426491)
(-0.0383066118929 -0.00224273106177 -0.000169341388289)
(-0.0290110745954 -0.00123459980093 -0.00155677676402)
(-0.0202175704633 -0.000625916231392 -0.00150803707737)
(-0.013633042941 -0.000370552077188 -0.00112896225994)
(-0.00902667437521 -0.000163499245046 -0.00077217701812)
(-0.00597703795298 -7.27897239992e-05 -0.000508473440966)
(-0.00395621680374 -2.88214786808e-05 -0.000327168316469)
(-0.00261524785022 -8.54543123889e-06 -0.000210823891005)
(-0.00172798262795 -1.01561378817e-06 -0.000135277933131)
(-0.00114356384824 4.13504777242e-07 -8.59054728821e-05)
(-0.000763258441371 -9.53949044819e-07 -5.12328109516e-05)
(-0.000507452391069 -2.13956565824e-06 -1.31999370924e-05)
(-0.000334359661534 -2.88820646798e-06 3.45031481087e-06)
(-0.00022491175558 -3.84830904843e-06 4.45125318681e-06)
(-0.000151574836371 -4.18738897302e-06 8.90112541522e-06)
(-0.000101045434045 -4.29193443373e-06 1.30388464438e-05)
(-6.62986356154e-05 -4.30229118437e-06 1.61940018132e-05)
(-4.22765764898e-05 -4.32240254048e-06 1.84962909709e-05)
(-2.57712659551e-05 -4.39156261478e-06 2.01406562485e-05)
(-1.47486127836e-05 -4.50433735514e-06 2.13015901218e-05)
(-7.82841409867e-06 -4.64056100921e-06 2.21285841509e-05)
(-3.98623191456e-06 -4.77611323249e-06 2.27381924404e-05)
(-2.47563704348e-06 -4.88703051889e-06 2.32183923898e-05)
(-2.85657825121e-06 -4.95866180978e-06 2.36266608143e-05)
(-4.9124029083e-06 -4.99446458295e-06 2.39856342604e-05)
(-8.30977841311e-06 -5.01381905234e-06 2.42766698163e-05)
(-1.22575286922e-05 -5.03327337639e-06 2.44106301818e-05)
(-1.57913442861e-05 -5.04584209693e-06 2.42959146625e-05)
(-1.47847625735e-05 -5.10637183294e-06 2.25965180099e-05)
(-2.02509495103e-05 -5.18168964156e-06 2.35452066253e-05)
(-1.32647644266e-05 -4.86671778378e-06 1.93418122285e-05)
(-1.3655973865e-06 -4.04718083563e-06 1.74315978831e-05)
(0.0083724040321 -0.00572621247823 -0.0028508110556)
(0.0233617895803 -0.00777706672322 -0.00128256523892)
(0.0305913022639 -0.011599722173 0.00302847605474)
(0.0246128887293 -0.0156511960993 0.00824973176865)
(0.00687863209151 -0.0180955180486 0.0115841082383)
(-0.0155212208063 -0.0179238792228 0.0115792595903)
(-0.0336541501211 -0.0151395502368 0.00822039548531)
(-0.040844276688 -0.0107169378041 0.00326410335342)
(-0.0370687589955 -0.00650422010661 -0.00032896975787)
(-0.0281961385902 -0.00356683874254 -0.0015876802232)
(-0.0197830179636 -0.00180539738293 -0.00152315863454)
(-0.0134039470773 -0.0010038838158 -0.00109932980628)
(-0.0088824069678 -0.000474005560479 -0.00076574671202)
(-0.00591205834363 -0.000227979348612 -0.000505854346041)
(-0.00392497729389 -0.000107943967593 -0.000326263225413)
(-0.00260090898797 -4.99459643092e-05 -0.000210578487562)
(-0.00172222004694 -2.42252706884e-05 -0.00013564451929)
(-0.00114209277926 -1.41836002498e-05 -8.64623754576e-05)
(-0.000763194094167 -1.32678201383e-05 -5.10899139988e-05)
(-0.000507234163249 -9.59209729072e-06 -1.20606042795e-05)
(-0.000334487339071 -9.57351591255e-06 5.98457984537e-07)
(-0.000225250865629 -1.07285639905e-05 3.51412772628e-06)
(-0.000151664091734 -1.09106331523e-05 8.30171060638e-06)
(-0.000101073362566 -1.09555020829e-05 1.25006932032e-05)
(-6.63189094085e-05 -1.09888206133e-05 1.56832209686e-05)
(-4.23181352481e-05 -1.10724141028e-05 1.79963540723e-05)
(-2.58363233325e-05 -1.12197078183e-05 1.96451110822e-05)
(-1.4826345809e-05 -1.140516969e-05 2.08135941698e-05)
(-7.90565557362e-06 -1.15930139747e-05 2.1647948804e-05)
(-4.05072704553e-06 -1.17534447665e-05 2.22638843546e-05)
(-2.51895308489e-06 -1.18649744314e-05 2.27491043871e-05)
(-2.87770487782e-06 -1.19204835441e-05 2.3161236887e-05)
(-4.91869583695e-06 -1.19312909773e-05 2.35232777104e-05)
(-8.31204918933e-06 -1.19216560389e-05 2.38162281779e-05)
(-1.22603084565e-05 -1.19108087806e-05 2.39480060562e-05)
(-1.58045699561e-05 -1.18976590071e-05 2.38356591141e-05)
(-1.4827391763e-05 -1.19274907702e-05 2.2148760829e-05)
(-2.02815355014e-05 -1.20225978462e-05 2.30989426139e-05)
(-1.32860047594e-05 -1.1616057647e-05 1.89300484322e-05)
(-1.35408753313e-06 -1.04805209716e-05 1.70966669549e-05)
(0.00769319865788 -0.00882230183454 -0.00293233196925)
(0.0214303782914 -0.0119616040394 -0.00159495541906)
(0.0280036635995 -0.0178320204612 0.00212312635152)
(0.0224646111991 -0.0240994498147 0.00662709877021)
(0.00612524349276 -0.0279449361974 0.00955492104897)
(-0.0145333214922 -0.0276644498773 0.00956686652409)
(-0.0312724938777 -0.0232619373695 0.00664093378874)
(-0.0380141217586 -0.016455219536 0.00242645868817)
(-0.0347318016627 -0.00999539715487 -0.000626847265459)
(-0.0266617035681 -0.00550483302086 -0.00163949755272)
(-0.018936068952 -0.00291310820726 -0.00155963975295)
(-0.0129673426032 -0.00143371327179 -0.00106440570859)
(-0.00863871327415 -0.000726364568165 -0.000755289350576)
(-0.00579399965487 -0.000358616552301 -0.000501440033028)
(-0.00386720210682 -0.000175091806657 -0.000324237129769)
(-0.00257338830732 -8.52317181264e-05 -0.000210241608159)
(-0.00171010153297 -4.43203068252e-05 -0.000135837524766)
(-0.0011380851842 -2.7420171919e-05 -8.70958552464e-05)
(-0.000760962717496 -2.47373801144e-05 -4.95512057561e-05)
(-0.000505605254024 -1.62039969164e-05 -9.13634473036e-06)
(-0.000334927889279 -1.59181800937e-05 -3.29298017523e-06)
(-0.000225580293113 -1.67126424752e-05 1.87544075781e-06)
(-0.000151688291264 -1.66351805363e-05 7.14191377043e-06)
(-0.000101084516429 -1.65773738981e-05 1.14552747733e-05)
(-6.63570866502e-05 -1.66052483745e-05 1.46732802536e-05)
(-4.23920178862e-05 -1.67281275468e-05 1.6998213818e-05)
(-2.5937640662e-05 -1.6938411287e-05 1.86554498286e-05)
(-1.49352635297e-05 -1.71906327654e-05 1.98312866759e-05)
(-8.00254614961e-06 -1.7428802761e-05 2.06744598174e-05)
(-4.12220053577e-06 -1.76147452613e-05 2.12988396002e-05)
(-2.55914551551e-06 -1.7729187597e-05 2.17910192675e-05)
(-2.88972785185e-06 -1.77724806495e-05 2.22086534349e-05)
(-4.91297574178e-06 -1.77643365315e-05 2.25745055411e-05)
(-8.29952370966e-06 -1.7731721764e-05 2.28712753516e-05)
(-1.22455482002e-05 -1.76891154415e-05 2.3008490342e-05)
(-1.58005849319e-05 -1.76389239626e-05 2.29076718517e-05)
(-1.48723796475e-05 -1.7637855902e-05 2.12413904706e-05)
(-2.03261523295e-05 -1.77892666803e-05 2.21893203063e-05)
(-1.33216878247e-05 -1.73563300599e-05 1.80693380548e-05)
(-1.33664268776e-06 -1.60162194872e-05 1.64148924057e-05)
(0.00678680131899 -0.0109172886471 -0.00302208134306)