/*--------------------------------*- C++ -*----------------------------------*\
| =========                 |                                                 |
| \\      /  F ield         | OpenFOAM: The Open Source CFD Toolbox           |
|  \\    /   O peration     | Version:  3.0.1                                 |
|   \\  /    A nd           | Web:      www.OpenFOAM.org                      |
|    \\/     M anipulation  |                                                 |
\*---------------------------------------------------------------------------*/
FoamFile
{
    version     2.0;
    format      ascii;
    class       volVectorField;
    location    "0.2";
    object      U_0;
}
// * * * * * * * * * * * * * * * * * * * * * * * * * * * * * * * * * * * * * //

dimensions      [0 1 -1 0 0 0 0];

internalField   nonuniform List<vector> 
15984
(
(3.78929277714e-05 1.17844090338e-05 -3.89927300857e-05)
(0.000134335534695 2.50701525521e-05 -5.67727447964e-05)
(0.000206260389773 6.12123229469e-05 -7.54148935418e-05)
(0.000184133096933 9.98151733283e-05 -9.32335618515e-05)
(0.000107471221061 0.000119825842485 -0.000104953136656)
(2.99924979088e-05 0.000119342406833 -0.000104768888025)
(-5.19189444701e-05 9.95364870853e-05 -9.14014171411e-05)
(-7.8156120967e-05 6.04126103985e-05 -6.97995956897e-05)
(-2.80877398863e-05 2.05107747166e-05 -4.66370982745e-05)
(4.25767736336e-05 -2.5195328107e-06 -2.1095776106e-05)
(9.67328612149e-05 -1.42908690725e-05 -2.97873383462e-06)
(0.000121322450822 -1.95296122668e-05 8.93548986614e-06)
(0.000124569005159 -2.16805516888e-05 1.55879933654e-05)
(0.000114820429342 -2.25197590315e-05 1.87319392728e-05)
(9.92161534716e-05 -2.28364553819e-05 1.97947102598e-05)
(8.23284619045e-05 -2.29495532319e-05 1.97881130607e-05)
(6.65707004922e-05 -2.2997333155e-05 1.93117864974e-05)
(5.29507638278e-05 -2.3019330229e-05 1.86881768038e-05)
(4.16891416361e-05 -2.30380050714e-05 1.80790515759e-05)
(3.26311889133e-05 -2.3048411915e-05 1.75388180768e-05)
(2.54762827971e-05 -2.30668698332e-05 1.70946461219e-05)
(1.99025550835e-05 -2.30849239285e-05 1.67362652348e-05)
(1.5609832962e-05 -2.31009946396e-05 1.64502349274e-05)
(1.23419193429e-05 -2.31147569064e-05 1.62241632286e-05)
(9.88757270004e-06 -2.31259385294e-05 1.6045722868e-05)
(8.07912571313e-06 -2.31346360617e-05 1.59038176127e-05)
(6.78846356027e-06 -2.31411722774e-05 1.57891163042e-05)
(5.92109456906e-06 -2.31458053736e-05 1.56940094707e-05)
(5.41006403494e-06 -2.31488958451e-05 1.56123406544e-05)
(5.21117339576e-06 -2.31505922311e-05 1.55382490815e-05)
(5.30625726798e-06 -2.31513360137e-05 1.54663771219e-05)
(5.69688459699e-06 -2.3146987149e-05 1.53839923745e-05)
(6.40869406521e-06 -2.31375490398e-05 1.52841258843e-05)
(7.50754850509e-06 -2.31206637774e-05 1.51515238829e-05)
(9.08955385737e-06 -2.30896316714e-05 1.49644814041e-05)
(1.13530430261e-05 -2.30294027722e-05 1.4683826387e-05)
(1.4083554566e-05 -2.28567205171e-05 1.43175030095e-05)
(1.79982554169e-05 -2.24977617163e-05 1.39500470029e-05)
(2.33856052915e-05 -2.17520513253e-05 1.37129993947e-05)
(1.70618443581e-05 -2.01449122514e-05 1.96115489147e-05)
(4.26365239355e-05 5.85049882437e-05 -5.84956293159e-05)
(0.000156005872777 0.000107633168784 -8.39960008859e-05)
(0.00023716949591 0.000216152376838 -0.000107085006701)
(0.000208220220679 0.000330657199469 -0.000127974362579)
(0.000116780418353 0.00039019589827 -0.000142232794988)
(2.56662357979e-05 0.000388792793846 -0.000142362230323)
(-6.99065840396e-05 0.000329976416769 -0.000127424785128)
(-0.000102984139891 0.000213637993281 -0.000101629503514)
(-4.45266886446e-05 9.40594945153e-05 -7.40408168537e-05)
(3.8657444053e-05 2.46390277582e-05 -4.39132073567e-05)
(9.92932624887e-05 -1.02305534709e-05 -2.22564665865e-05)
(0.000126153999147 -2.61263618751e-05 -8.22730255312e-06)
(0.000129336516734 -3.25393269171e-05 -8.49680922884e-07)
(0.000118694304133 -3.48894155087e-05 2.54088155285e-06)
(0.000102096366091 -3.56148124871e-05 3.62015484134e-06)
(8.43743581385e-05 -3.57741532791e-05 3.53375788378e-06)
(6.79895715198e-05 -3.57921831905e-05 2.95113351472e-06)
(5.39234926593e-05 -3.57339874666e-05 2.20467073571e-06)
(4.23528884842e-05 -3.56845415053e-05 1.4930288652e-06)
(3.30763994661e-05 -3.56010049655e-05 8.50713312286e-07)
(2.57603803827e-05 -3.55750039694e-05 3.39132786409e-07)
(2.00690102302e-05 -3.55653101753e-05 -6.5425583194e-08)
(1.56828315178e-05 -3.55638592251e-05 -3.83988529414e-07)
(1.23345613348e-05 -3.5566322807e-05 -6.33195503815e-07)
(9.80576029016e-06 -3.55696999323e-05 -8.27585085639e-07)
(7.92388445513e-06 -3.55723284612e-05 -9.80043843693e-07)
(6.55815203969e-06 -3.5573534444e-05 -1.10131169026e-06)
(5.61343518877e-06 -3.55731338372e-05 -1.1996281725e-06)
(5.02418449678e-06 -3.55712767625e-05 -1.28164317861e-06)
(4.74985801112e-06 -3.55680564275e-05 -1.35356556032e-06)
(4.77987152683e-06 -3.55626366952e-05 -1.41975485607e-06)
(5.12541842157e-06 -3.55541705474e-05 -1.497173985e-06)
(5.82346285874e-06 -3.55375842336e-05 -1.58861226791e-06)
(6.95319796579e-06 -3.55038966786e-05 -1.70534920443e-06)
(8.61733968738e-06 -3.54292235121e-05 -1.86020166918e-06)
(1.10131351432e-05 -3.5273383856e-05 -2.08316246094e-06)
(1.38805306145e-05 -3.48838163024e-05 -2.33813707136e-06)
(1.78608008631e-05 -3.4091293493e-05 -2.45812154891e-06)
(2.36435323913e-05 -3.27507014116e-05 -2.49845686644e-06)
(1.83877859007e-05 -2.97359292262e-05 4.02397842761e-06)
(6.21982657693e-05 0.00011832487701 -7.01412747062e-05)
(0.000214350753062 0.000206424094017 -9.77197081274e-05)
(0.000315346338609 0.000396994768385 -0.000112105616654)
(0.000269066704219 0.000595067038068 -0.000122344935674)
(0.000138152041482 0.000696177293801 -0.000133291036596)
(7.20815806426e-06 0.000693944575604 -0.0001338082579)
(-0.000127082555162 0.00059367896585 -0.000121051482662)
(-0.000180943576563 0.000392148147019 -0.000106019946841)
(-0.000106805905885 0.000189608586541 -8.4780324877e-05)
(5.09394597525e-06 6.70670562985e-05 -5.59773399998e-05)
(8.3672177908e-05 9.24018844992e-06 -3.16247173358e-05)
(0.0001197951768 -1.78758552813e-05 -1.54180605415e-05)
(0.000127319444916 -2.84550861363e-05 -6.63899904154e-06)
(0.000118372571347 -3.2152884586e-05 -2.79765886318e-06)
(0.00010231412701 -3.31604958828e-05 -1.66238899787e-06)
(8.46637293723e-05 -3.32158796203e-05 -1.75317915474e-06)
(6.823182409e-05 -3.30535914098e-05 -2.3524248194e-06)
(5.41065194293e-05 -3.28168841444e-05 -3.23220886132e-06)
(4.24902972181e-05 -3.25898022406e-05 -4.0565936914e-06)
(3.31686663316e-05 -3.24445259552e-05 -4.93675155822e-06)
(2.57992402017e-05 -3.23575239725e-05 -5.5906844874e-06)
(2.00822092559e-05 -3.23064194978e-05 -6.08905585944e-06)
(1.56801418511e-05 -3.2275584727e-05 -6.47611529334e-06)
(1.23212659518e-05 -3.22570878134e-05 -6.77699764001e-06)
(9.78398435575e-06 -3.22454508337e-05 -7.01160187311e-06)
(7.89299611398e-06 -3.22371117784e-05 -7.19620065796e-06)
(6.51467665637e-06 -3.22301713904e-05 -7.3443710962e-06)
(5.55049260003e-06 -3.22240393331e-05 -7.46679246817e-06)
(4.93021015872e-06 -3.22186330299e-05 -7.57231477129e-06)
(4.60687951444e-06 -3.22138252623e-05 -7.6693442392e-06)
(4.55822261214e-06 -3.22073890538e-05 -7.76509996038e-06)
(4.78202545956e-06 -3.21994074622e-05 -7.86969538029e-06)
(5.29829245276e-06 -3.21812233825e-05 -7.99244604126e-06)
(6.16438435972e-06 -3.21397295831e-05 -8.14827131069e-06)
(7.46052991533e-06 -3.20405988597e-05 -8.35445318838e-06)
(9.40081611197e-06 -3.18331438596e-05 -8.63158868341e-06)
(1.17973350937e-05 -3.13556173772e-05 -8.95690323416e-06)
(1.54449073736e-05 -3.04739264758e-05 -9.08396516861e-06)
(2.15885305496e-05 -2.91151967257e-05 -9.00984458421e-06)
(1.80248031468e-05 -2.65287554489e-05 -1.4226031588e-06)
(8.85763482906e-05 0.00016951421691 -7.86256643892e-05)
(0.000299422752274 0.000296033218991 -9.96746165094e-05)
(0.000433728155927 0.000559434321219 -9.20068577769e-05)
(0.000359513702761 0.000833872338776 -7.60349915874e-05)
(0.000167920335526 0.000969573801455 -7.79322341662e-05)
(-2.35064525063e-05 0.000966791118806 -7.79649776885e-05)
(-0.000218141256172 0.00083200708627 -7.43919490414e-05)
(-0.000302092387247 0.000552615190677 -8.4473072763e-05)
(-0.000204313326327 0.000276172473655 -8.39966030669e-05)
(-4.91602005445e-05 0.000106036107599 -6.07775721302e-05)
(5.86825955816e-05 2.95431351687e-05 -3.57960916933e-05)
(0.000108691951158 -6.20074384346e-06 -1.80406950269e-05)
(0.000123191741567 -1.99457596569e-05 -8.10213776386e-06)
(0.000117031429701 -2.46939810069e-05 -3.26447680572e-06)
(0.000102025901235 -2.58518276232e-05 -1.84439687815e-06)
(8.47222947237e-05 -2.58604847056e-05 -1.72579220511e-06)
(6.83656044895e-05 -2.55500889437e-05 -2.24344927555e-06)
(5.42520188582e-05 -2.52629689827e-05 -3.26370559416e-06)
(4.25844239541e-05 -2.49667926284e-05 -4.32630930856e-06)
(3.32063904096e-05 -2.48190106328e-05 -5.1726471764e-06)
(2.58246174119e-05 -2.47133095631e-05 -5.81792228527e-06)
(2.00943788991e-05 -2.46515264042e-05 -6.31731454587e-06)
(1.56854087315e-05 -2.46148183617e-05 -6.70853508045e-06)
(1.2322692625e-05 -2.45922325281e-05 -7.01349458101e-06)
(9.78353169012e-06 -2.45777611574e-05 -7.25170025953e-06)
(7.89163507561e-06 -2.45673583972e-05 -7.43942285462e-06)
(6.51244554078e-06 -2.45589070204e-05 -7.59026501964e-06)
(5.54674466043e-06 -2.45517772609e-05 -7.71523116613e-06)
(4.92390638288e-06 -2.45458342228e-05 -7.82349154179e-06)
(4.59696094865e-06 -2.45405780462e-05 -7.92361827941e-06)
(4.54364561744e-06 -2.45337574331e-05 -8.02357579318e-06)
(4.76187877513e-06 -2.45215122652e-05 -8.13374610125e-06)
(5.27218040952e-06 -2.44957306465e-05 -8.26408177519e-06)
(6.13607586582e-06 -2.44428761303e-05 -8.42928518834e-06)
(7.44075936483e-06 -2.43296513756e-05 -8.64757414118e-06)
(9.4242781564e-06 -2.41065832206e-05 -8.93965553798e-06)
(1.1913380511e-05 -2.36496154917e-05 -9.28064090047e-06)
(1.57234560229e-05 -2.28795497846e-05 -9.37049416341e-06)
(2.23012538816e-05 -2.17312514684e-05 -9.1963707578e-06)
(1.84686324869e-05 -1.92526806421e-05 -1.08279130187e-06)
(0.000126251047804 0.000199195356564 -8.70597466603e-05)
(0.000410629560601 0.000356176759137 -9.67952552544e-05)
(0.000584187166645 0.00066631809285 -5.16679176118e-05)
(0.00047403192829 0.000988966113516 3.56746553274e-06)
(0.0002046408887 0.0011431375867 1.65036718525e-05)
(-6.13681307316e-05 0.00114075490115 1.65877488965e-05)
(-0.000333758546963 0.000986062543154 6.37162290898e-06)
(-0.00045831709646 0.000658393882316 -4.3345404305e-05)
(-0.000329591453447 0.00033265390896 -7.81973233459e-05)
(-0.000117845529751 0.000130988602585 -6.53542304275e-05)
(2.77979891384e-05 4.17400083678e-05 -3.86199195693e-05)
(9.51900824879e-05 2.31844188833e-06 -1.97570439291e-05)
(0.000118143099089 -1.37060137856e-05 -8.69520528452e-06)
(0.000115448009554 -1.92026707977e-05 -3.12432633153e-06)
(0.000101736268242 -2.04184230499e-05 -1.40363972044e-06)
(8.48081277272e-05 -2.03951483078e-05 -1.10630397119e-06)
(6.85182910317e-05 -2.00301573531e-05 -1.49231323502e-06)
(5.43839356371e-05 -1.97162372507e-05 -2.29011498768e-06)
(4.26984709594e-05 -1.94886553687e-05 -3.41435084297e-06)
(3.32830846362e-05 -1.92814984443e-05 -4.30145638258e-06)
(2.58724482528e-05 -1.91517847001e-05 -4.96459378478e-06)
(2.01226387007e-05 -1.9075313685e-05 -5.4747799404e-06)
(1.57024469441e-05 -1.90290894513e-05 -5.87050900134e-06)
(1.23335869261e-05 -1.89997028698e-05 -6.17915016833e-06)
(9.79095140844e-06 -1.89801464623e-05 -6.42026778503e-06)
(7.89722417271e-06 -1.89658407717e-05 -6.61017177428e-06)
(6.51695466631e-06 -1.89543897831e-05 -6.76273914786e-06)
(5.55041405766e-06 -1.89448532532e-05 -6.88933046784e-06)
(4.92697109019e-06 -1.89367683007e-05 -6.99941958422e-06)
(4.60015866511e-06 -1.89290801008e-05 -7.10172977727e-06)
(4.54842240854e-06 -1.89191054651e-05 -7.2046216189e-06)
(4.77118429913e-06 -1.89026886668e-05 -7.31836349891e-06)
(5.29147376839e-06 -1.88711987138e-05 -7.45345022054e-06)
(6.17671763988e-06 -1.88105205574e-05 -7.62484240091e-06)
(7.52226028468e-06 -1.86895512678e-05 -7.85162989588e-06)
(9.58545714974e-06 -1.8464001713e-05 -8.15482213377e-06)
(1.21993543249e-05 -1.80376673125e-05 -8.50951167876e-06)
(1.61827834202e-05 -1.73564139094e-05 -8.58949265291e-06)
(2.30758558346e-05 -1.63854638577e-05 -8.35534686769e-06)
(1.88546907028e-05 -1.44641913793e-05 -2.14547453032e-07)
(0.000167862461951 0.000207334068909 -9.55439815216e-05)
(0.000534349771061 0.000369219294337 -8.98207197192e-05)
(0.000750144333332 0.000687170436834 2.20437398262e-06)
(0.000597909178334 0.00101179697298 0.000103534453393)
(0.0002438189344 0.00116087279803 0.000132440993483)
(-0.000102040554583 0.00115881759269 0.000132359618759)
(-0.000459286378211 0.00100665883718 0.000105662663347)
(-0.000628710952336 0.000678666511129 1.15696033426e-05)
(-0.0004679341347 0.000347427178539 -6.72872830912e-05)
(-0.000194565922424 0.000138822369445 -6.9552433171e-05)
(-5.62202470041e-06 4.74974922902e-05 -4.17470606987e-05)
(8.09844779444e-05 8.43232227331e-06 -2.22733927926e-05)
(0.000112436810653 -8.24171648396e-06 -9.63464881474e-06)
(0.000113675124199 -1.39141362163e-05 -3.23332307127e-06)
(0.000101427468738 -1.52600231133e-05 -1.26757792558e-06)
(8.49135881547e-05 -1.52246093252e-05 -8.15658241005e-07)
(6.87019058047e-05 -1.48522839843e-05 -1.07483851729e-06)
(5.45198165236e-05 -1.45010026824e-05 -1.71766257784e-06)
(4.27992716882e-05 -1.43309700452e-05 -2.69601480691e-06)
(3.3372769787e-05 -1.4132818754e-05 -3.69226836943e-06)
(2.59260764574e-05 -1.39939655749e-05 -4.39846345558e-06)
(2.01544434533e-05 -1.39155273553e-05 -4.92729698712e-06)
(1.57222052838e-05 -1.38676512369e-05 -5.33277441936e-06)
(1.23463589717e-05 -1.38367739458e-05 -5.64637310437e-06)
(9.79979872914e-06 -1.38158944692e-05 -5.89052598241e-06)
(7.90393280519e-06 -1.38005671418e-05 -6.0824581218e-06)
(6.52238224948e-06 -1.3788395369e-05 -6.23654242184e-06)
(5.55495280198e-06 -1.37782994703e-05 -6.36448601427e-06)
(4.93107251052e-06 -1.37696084817e-05 -6.47608850154e-06)
(4.60485303047e-06 -1.37609821714e-05 -6.58015037384e-06)
(4.55548695138e-06 -1.37498293433e-05 -6.68594811966e-06)
(4.78379962765e-06 -1.37315077655e-05 -6.80313522897e-06)
(5.31522569696e-06 -1.36978313848e-05 -6.94273098198e-06)
(6.22234796774e-06 -1.36352467669e-05 -7.12025544014e-06)
(7.60723513084e-06 -1.35173614113e-05 -7.35554955689e-06)
(9.74030932294e-06 -1.33070635845e-05 -7.66945208493e-06)
(1.24549909382e-05 -1.29359051252e-05 -8.03473720128e-06)
(1.65711510377e-05 -1.23721512797e-05 -8.10670928926e-06)
(2.36428516707e-05 -1.15986389231e-05 -7.84360175989e-06)
(1.91762726812e-05 -1.01084943042e-05 2.35867047743e-07)
(0.000207770297237 0.000188945740124 -0.000103445697202)
(0.000652039879005 0.000332214236589 -8.2257928638e-05)
(0.000905544861217 0.000608521627083 5.35212652047e-05)
(0.000710921328817 0.000884395472018 0.000198965464964)
(0.000278168799529 0.00100632861362 0.000241941634044)
(-0.000138494473308 0.00100438335432 0.000241953932498)
(-0.000573865422093 0.000878139339455 0.000200584384043)
(-0.00078791670111 0.000600142254658 6.43298867506e-05)
(-0.000599489952504 0.000312323988185 -5.62248566435e-05)
(-0.000267806103876 0.000127541846896 -7.40360503026e-05)
(-3.73946518506e-05 4.50405107443e-05 -4.51700377906e-05)
(6.73225246034e-05 1.0897302571e-05 -2.46143365118e-05)
(0.000106970339799 -4.15711812088e-06 -1.06263248212e-05)
(0.00011193845629 -9.27803375266e-06 -3.55281091951e-06)
(0.000101080840357 -1.05871562e-05 -1.21576401582e-06)
(8.50119909408e-05 -1.05664231051e-05 -5.91517915568e-07)
(6.88799115768e-05 -1.02281169685e-05 -7.99617618609e-07)
(5.46443752009e-05 -9.92619365451e-06 -1.34974748743e-06)
(4.28823757374e-05 -9.72834132804e-06 -2.06850682734e-06)
(3.34514401304e-05 -9.60699464578e-06 -3.10228930623e-06)
(2.5980984253e-05 -9.47892664011e-06 -3.88865030635e-06)
(2.01857173848e-05 -9.40520615557e-06 -4.44460906513e-06)
(1.57417685274e-05 -9.36100629859e-06 -4.86313952872e-06)
(1.23594267732e-05 -9.33206952917e-06 -5.1839528207e-06)
(9.80902823537e-06 -9.31209542118e-06 -5.43297180359e-06)
(7.91095577061e-06 -9.29734113613e-06 -5.62835225264e-06)
(6.52807468778e-06 -9.28558270775e-06 -5.78509173284e-06)
(5.5597908439e-06 -9.27572897302e-06 -5.9153280002e-06)
(4.93561194072e-06 -9.26696517759e-06 -6.02922002586e-06)
(4.61003269576e-06 -9.25783507726e-06 -6.13581927752e-06)
(4.56311111354e-06 -9.24591253697e-06 -6.24401094879e-06)
(4.79706377936e-06 -9.22654492435e-06 -6.36398187177e-06)
(5.33940727695e-06 -9.19237530482e-06 -6.50709684085e-06)
(6.26664566218e-06 -9.13181039343e-06 -6.69020060062e-06)
(7.68586669288e-06 -9.02302688512e-06 -6.93327413069e-06)
(9.87544580794e-06 -8.83721236659e-06 -7.25687638636e-06)
(1.26667495946e-05 -8.52934183832e-06 -7.63108528518e-06)
(1.6873910377e-05 -8.07971462643e-06 -7.70041716484e-06)
(2.40422600904e-05 -7.4857597712e-06 -7.42483584953e-06)
(1.93931346722e-05 -6.20168069705e-06 5.55517012255e-07)
(0.000240205878861 0.000148220131159 -0.000110939491434)
(0.000745660526383 0.000254218611388 -7.9683339949e-05)
(0.00102629065062 0.000453965968785 8.49766109757e-05)
(0.000796852802852 0.000648761595461 0.000254101642974)
(0.000303795385906 0.000731826345207 0.00030242935387)
(-0.000166121849989 0.000730640990214 0.000302631946407)
(-0.00066143454968 0.000642721547806 0.000254454041658)
(-0.000911577368053 0.000446851013394 9.64209407811e-05)
(-0.000704206729927 0.000239141461605 -4.9870744273e-05)
(-0.000328208056008 0.000100344328452 -7.87162044052e-05)
(-6.39458047086e-05 3.57325167422e-05 -4.81134535103e-05)
(5.63861011792e-05 1.0462694634e-05 -2.66160260375e-05)
(0.000102349244913 -1.29979334596e-06 -1.15496359233e-05)
(0.000110459890307 -5.34797958408e-06 -3.87323840868e-06)
(0.000100783360639 -6.38137748908e-06 -1.21143509853e-06)
(8.50933855289e-05 -6.36287810224e-06 -4.70909049346e-07)
(6.90221580335e-05 -6.10048091308e-06 -6.03148730871e-07)
(5.47697787324e-05 -5.84968459354e-06 -1.02905650363e-06)
(4.29589260865e-05 -5.66258985483e-06 -1.70157340193e-06)
(3.34975235416e-05 -5.5915981928e-06 -2.61248308044e-06)
(2.60270101105e-05 -5.50526182327e-06 -3.4781391207e-06)
(2.0213437893e-05 -5.44190428124e-06 -4.06948122704e-06)
(1.57588038819e-05 -5.40558759634e-06 -4.5020832613e-06)
(1.23708411475e-05 -5.38204417876e-06 -4.8304364439e-06)
(9.81718718313e-06 -5.36558243677e-06 -5.08401352487e-06)
(7.9172124497e-06 -5.35319069079e-06 -5.28272185675e-06)
(6.53321109604e-06 -5.34314050483e-06 -5.4420167967e-06)
(5.56428260806e-06 -5.3344494318e-06 -5.57449950168e-06)
(4.94004512835e-06 -5.32630785825e-06 -5.69059392849e-06)
(4.6154186332e-06 -5.31729245804e-06 -5.79958913363e-06)
(4.57116675223e-06 -5.30499096751e-06 -5.91053939591e-06)
(4.81058185905e-06 -5.28536504418e-06 -6.03376809679e-06)
(5.36259969664e-06 -5.25221701178e-06 -6.18092631387e-06)
(6.30702529496e-06 -5.19636496375e-06 -6.3680180708e-06)
(7.7545192334e-06 -5.10117052233e-06 -6.61745749278e-06)
(9.98710455937e-06 -4.94581901693e-06 -6.94873387369e-06)
(1.28341468818e-05 -4.70419631527e-06 -7.32891834046e-06)
(1.7098955698e-05 -4.36163563867e-06 -7.3968950683e-06)
(2.43123288343e-05 -3.916241199e-06 -7.11360751298e-06)
(1.95268576077e-05 -2.68852100209e-06 7.79596487429e-07)
(0.000261692738795 9.39867081554e-05 -0.000117132869436)
(0.000806355007097 0.000155801154623 -8.20939808631e-05)
(0.0011029008163 0.000270962620864 9.14853865601e-05)
(0.000849933502036 0.000381228866859 0.000264077284414)
(0.000319100760552 0.000426251514847 0.000310374994354)
(-0.000183043926527 0.000425566334712 0.000310411081361)
(-0.000715828491235 0.000376817507993 0.000263880738233)
(-0.000989676421103 0.000266142330587 0.000102992890219)
(-0.000772705983585 0.000147234369346 -5.12787347522e-05)
(-0.0003695114401 6.34082294532e-05 -8.24998868812e-05)
(-8.23376058093e-05 2.38711091592e-05 -5.12481743141e-05)
(4.88063838624e-05 8.0103254445e-06 -2.79070578542e-05)
(9.9065008137e-05 7.23508844765e-07 -1.22285011033e-05)
(0.000109397477627 -1.86483658432e-06 -4.10004648315e-06)
(0.000100573410645 -2.50874007619e-06 -1.22736351245e-06)
(8.51525856923e-05 -2.49091821421e-06 -3.97141503851e-07)
(6.9136585045e-05 -2.31628463808e-06 -4.63337732713e-07)
(5.48633639488e-05 -2.13345015541e-06 -8.72452967821e-07)
(4.30114515629e-05 -2.02952308911e-06 -1.49449140534e-06)
(3.3530131279e-05 -1.97582229151e-06 -2.29317065714e-06)
(2.60558544601e-05 -1.92241369997e-06 -3.18302099244e-06)
(2.02355738297e-05 -1.88207387344e-06 -3.81480654752e-06)
(1.577171511e-05 -1.85734447037e-06 -4.25995901696e-06)
(1.2379443589e-05 -1.84150300333e-06 -4.59439880631e-06)
(9.82346764022e-06 -1.83016219897e-06 -4.85186926373e-06)
(7.92218866109e-06 -1.82123085573e-06 -5.05306594733e-06)
(6.53745685251e-06 -1.81357521544e-06 -5.21437157945e-06)
(5.56821777292e-06 -1.80647341239e-06 -5.34858454741e-06)
(4.94420620214e-06 -1.7992216817e-06 -5.46643348519e-06)
(4.62071772931e-06 -1.79059107633e-06 -5.57734108393e-06)
(4.57909819697e-06 -1.77852605343e-06 -5.69046229367e-06)
(4.8234622399e-06 -1.75974799966e-06 -5.81626091081e-06)
(5.38391973309e-06 -1.72949317664e-06 -5.96657752907e-06)
(6.34218649256e-06 -1.6806163484e-06 -6.15745283091e-06)
(7.81115520475e-06 -1.60212766355e-06 -6.41058390925e-06)
(1.0073932e-05 -1.48208728195e-06 -6.74667491608e-06)
(1.29587988083e-05 -1.30900812609e-06 -7.12942549036e-06)
(1.72547206625e-05 -1.07336180771e-06 -7.19578969701e-06)
(2.44838270199e-05 -7.50264506848e-07 -6.9050825687e-06)
(1.96025386896e-05 5.18026088474e-07 9.21911488672e-07)
(0.000271989685196 3.37481444705e-05 -0.000120580317302)
(0.000835315856541 5.35230186524e-05 -8.4844569256e-05)
(0.00113910170453 9.07705363011e-05 8.82347801706e-05)
(0.000874543421201 0.00012605070546 0.000259267402399)
(0.000325955593193 0.000138871798779 0.000304415912826)
(-0.000190835253365 0.000138627400602 0.000304148351149)
(-0.000741185960521 0.000124512011955 0.000259419503551)
(-0.00102636188699 8.90420263795e-05 9.92390952733e-05)
(-0.00080554499198 5.10356661944e-05 -5.37990776412e-05)
(-0.000389890715517 2.31688186588e-05 -8.47330240672e-05)
(-9.16465791794e-05 1.02424549964e-05 -5.32776155184e-05)
(4.48119737521e-05 4.68180908034e-06 -2.81372457173e-05)
(9.74115152157e-05 2.24698809735e-06 -1.25767784266e-05)
(0.000108843637078 1.37527463563e-06 -4.22164988212e-06)
(0.000100470240186 1.17662283033e-06 -1.23919880475e-06)
(8.51895701976e-05 1.19744063104e-06 -3.55333739389e-07)
(6.92008590675e-05 1.26966221664e-06 -3.99816029007e-07)
(5.49131354585e-05 1.34064290434e-06 -8.01051356851e-07)
(4.30377221269e-05 1.37927870867e-06 -1.39535517705e-06)
(3.35510648535e-05 1.39851838398e-06 -2.12327515019e-06)
(2.6073874329e-05 1.42525869414e-06 -3.02048332974e-06)
(2.02459639945e-05 1.43917075442e-06 -3.67824430227e-06)
(1.57790821668e-05 1.44968573037e-06 -4.13208413608e-06)
(1.23844262688e-05 1.45639506498e-06 -4.46972345968e-06)
(9.82731817984e-06 1.46163939216e-06 -4.72947747362e-06)
(7.92550147454e-06 1.46629358674e-06 -4.9321746474e-06)
(6.5405857112e-06 1.4709840471e-06 -5.09452854057e-06)
(5.57145533594e-06 1.47612343723e-06 -5.22969110621e-06)
(4.94798785615e-06 1.4822648145e-06 -5.34850610906e-06)
(4.62577609109e-06 1.49037755982e-06 -5.4605009477e-06)
(4.58659396964e-06 1.50210885716e-06 -5.5748869262e-06)
(4.83509710188e-06 1.51992421497e-06 -5.70222253358e-06)
(5.4021681413e-06 1.54699866549e-06 -5.85438838419e-06)
(6.37071685202e-06 1.58754510778e-06 -6.04712605806e-06)
(7.85379501198e-06 1.64639396551e-06 -6.30022018249e-06)
(1.013365891e-05 1.72921899912e-06 -6.6356057096e-06)
(1.30379269413e-05 1.83485178335e-06 -7.01473190324e-06)
(1.73447277948e-05 1.97247359352e-06 -7.07093508367e-06)
(2.45733415992e-05 2.18706998611e-06 -6.77433925833e-06)
(1.96291150424e-05 3.54390853642e-06 1.00810117102e-06)
(0.000272111830116 -2.81044140384e-05 -0.000120702564248)
(0.000835515746885 -4.91711685464e-05 -8.49002729958e-05)
(0.00113921930335 -8.51794125473e-05 8.82487071908e-05)
(0.000873997042889 -0.000119786052905 0.00025949617407)
(0.000325385161613 -0.000132829762361 0.000305290719753)
(-0.000190221429276 -0.000132462830331 0.00030497278907)
(-0.000740629698808 -0.0001179604445 0.000259505314067)
(-0.00102641134339 -8.28968923011e-05 9.92411128192e-05)
(-0.000805631618508 -4.49572255895e-05 -5.37536612651e-05)
(-0.000389908957985 -1.74504548501e-05 -8.47253436181e-05)
(-9.15825184536e-05 -4.40490825486e-06 -5.32120716686e-05)
(4.48080390814e-05 1.22217838794e-06 -2.8114632226e-05)
(9.74115763116e-05 3.5936533648e-06 -1.25639205224e-05)
(0.000108862320689 4.52106494979e-06 -4.22094798054e-06)
(0.000100484332664 4.79162739743e-06 -1.24270271377e-06)
(8.5198859331e-05 4.81934375632e-06 -3.53149238425e-07)
(6.92080319803e-05 4.77967108358e-06 -3.97901502132e-07)
(5.49180744034e-05 4.73601948163e-06 -7.97415681432e-07)
(4.30403175296e-05 4.70855597289e-06 -1.38893456474e-06)
(3.35530648954e-05 4.69682567286e-06 -2.1069208393e-06)
(2.60761348746e-05 4.68362990942e-06 -3.00634127157e-06)
(2.02477490164e-05 4.67407774744e-06 -3.66808371347e-06)
(1.57802948211e-05 4.66913469873e-06 -4.12371394084e-06)
(1.23853928685e-05 4.66632826271e-06 -4.4618141295e-06)
(9.82839290066e-06 4.66516894524e-06 -4.72191516398e-06)
(7.92683903382e-06 4.66529440565e-06 -4.92485629675e-06)
(6.54235099041e-06 4.66681641111e-06 -5.08738818041e-06)
(5.57383842598e-06 4.6699368407e-06 -5.22277633349e-06)
(4.95131775962e-06 4.67498018386e-06 -5.34186777108e-06)
(4.6306299629e-06 4.68261682887e-06 -5.45419268987e-06)
(4.59386050775e-06 4.69399623347e-06 -5.5689005506e-06)
(4.84589372994e-06 4.71065591241e-06 -5.69645421529e-06)
(5.41772129916e-06 4.73407104787e-06 -5.84859618525e-06)
(6.39188179177e-06 4.76572047522e-06 -6.04156437338e-06)
(7.88199593855e-06 4.80520833453e-06 -6.29616055009e-06)
(1.01681468276e-05 4.8509796046e-06 -6.6307844022e-06)
(1.30792752369e-05 4.88953649273e-06 -7.00631571961e-06)
(1.73756641007e-05 4.93293414534e-06 -7.0549492977e-06)
(2.45824579348e-05 5.03910351539e-06 -6.74976066641e-06)
(1.96094077474e-05 6.5114729324e-06 1.01362117885e-06)
(0.000261488067883 -8.82860953602e-05 -0.000116826437534)
(0.000806799049741 -0.000150712391571 -8.13139619534e-05)
(0.00110379006678 -0.00026562996196 9.18252673251e-05)
(0.00085070600399 -0.000375176920018 0.000264646447105)
(0.000319621924529 -0.000418906014133 0.000309332727919)
(-0.000183401881196 -0.00041804162605 0.00030950367961)
(-0.000716393186496 -0.000370382037881 0.000264083028792)
(-0.000989859629592 -0.000260042485934 0.000103041012242)
(-0.000772830973734 -0.000140651066087 -5.16966456424e-05)
(-0.00036961561703 -5.75466146074e-05 -8.23877180842e-05)
(-8.23114630131e-05 -1.83734959051e-05 -5.11267835161e-05)
(4.88103087362e-05 -2.19136106454e-06 -2.7903967193e-05)
(9.90607331595e-05 5.08438204421e-06 -1.22038465131e-05)
(0.000109442763656 7.71442257201e-06 -4.07568267583e-06)
(0.000100619138849 8.44918241309e-06 -1.21507685626e-06)
(8.51831269678e-05 8.48519703923e-06 -3.73290614794e-07)
(6.91589075511e-05 8.34352547811e-06 -4.3622740969e-07)
(5.48774007343e-05 8.19010985097e-06 -8.43590399065e-07)
(4.30179963244e-05 8.09424006767e-06 -1.44884696857e-06)
(3.35385001306e-05 8.05179025604e-06 -2.22097650649e-06)
(2.60624168426e-05 8.0006397134e-06 -3.12471323694e-06)
(2.02386468233e-05 7.96750970675e-06 -3.76144183882e-06)
(1.57751486124e-05 7.94779029201e-06 -4.21037215379e-06)
(1.23823935172e-05 7.93601375654e-06 -4.54604791959e-06)
(9.82675778045e-06 7.92867827563e-06 -4.80447068147e-06)
(7.92628533851e-06 7.92439287357e-06 -5.0062871127e-06)
(6.54286923502e-06 7.92285782298e-06 -5.1680813204e-06)
(5.57550177946e-06 7.92402140368e-06 -5.30280525182e-06)
(4.95429520916e-06 7.92800356705e-06 -5.42136287956e-06)
(4.6352542338e-06 7.93513744657e-06 -5.53319767467e-06)
(4.600585651e-06 7.94603498016e-06 -5.64748168771e-06)
(4.85510961835e-06 7.96121476915e-06 -5.77460714231e-06)
(5.42968054325e-06 7.98039972883e-06 -5.92623901403e-06)
(6.4062721089e-06 8.00249992021e-06 -6.11802464649e-06)
(7.89642048038e-06 8.02255035832e-06 -6.36917232909e-06)
(1.01757989756e-05 8.02897051896e-06 -6.69828302498e-06)
(1.3077157221e-05 7.99543821135e-06 -7.06563137812e-06)
(1.73416979855e-05 7.93213411948e-06 -7.10395799162e-06)
(2.45140005276e-05 7.92191980769e-06 -6.79169502534e-06)
(1.95422007293e-05 9.50632794652e-06 9.78593291576e-07)
(0.000240634503893 -0.000142654964658 -0.000110945368706)
(0.000746351562873 -0.000248667884317 -7.99771605296e-05)
(0.00102694473475 -0.000448876473327 8.5289699304e-05)
(0.000797314624137 -0.00064328441991 0.000254901064689)
(0.000303962747512 -0.000727211070597 0.000302661207354)
(-0.000165962767775 -0.000725863385573 0.000302803394641)
(-0.000661589926588 -0.000636821348289 0.00025464022074)
(-0.000911549879064 -0.000441084536269 9.64138315882e-05)
(-0.000704410024368 -0.000233502286857 -5.044833253e-05)
(-0.000328771029938 -9.46076899164e-05 -7.86404224041e-05)
(-6.39060481896e-05 -3.04335599978e-05 -4.81041950814e-05)
(5.65356593137e-05 -5.19804102778e-06 -2.67182791646e-05)
(0.000102364162539 6.99119108283e-06 -1.14776170507e-05)
(0.000110544973226 1.11157614686e-05 -3.77266207787e-06)
(0.000100869376095 1.22504295153e-05 -1.16640344265e-06)
(8.51453258981e-05 1.22839744994e-05 -4.20980640718e-07)
(6.90600496908e-05 1.20574002852e-05 -5.22325294569e-07)
(5.47931664685e-05 1.18165335625e-05 -9.46637836691e-07)
(4.29709669892e-05 1.16456028032e-05 -1.58961551185e-06)
(3.35061146997e-05 1.15735067913e-05 -2.47054439339e-06)
(2.60338713992e-05 1.14943163849e-05 -3.3460694433e-06)
(2.0221221782e-05 1.14417512618e-05 -3.95087988958e-06)
(1.57644607059e-05 1.14102318519e-05 -4.38874810279e-06)
(1.23757640913e-05 1.13908254301e-05 -4.71975713376e-06)
(9.82251928698e-06 1.13780102915e-05 -4.97503945091e-06)
(7.9238711664e-06 1.13697766416e-05 -5.1749684576e-06)
(6.54211114228e-06 1.13654056167e-05 -5.33522521563e-06)
(5.57636103093e-06 1.13646225133e-05 -5.46866051489e-06)
(4.95682713748e-06 1.13674233286e-05 -5.58599177393e-06)
(4.63959692698e-06 1.13738739639e-05 -5.69665626735e-06)