/*--------------------------------*- C++ -*----------------------------------*\
| =========                 |                                                 |
| \\      /  F ield         | OpenFOAM: The Open Source CFD Toolbox           |
|  \\    /   O peration     | Version:  3.0.1                                 |
|   \\  /    A nd           | Web:      www.OpenFOAM.org                      |
|    \\/     M anipulation  |                                                 |
\*---------------------------------------------------------------------------*/
FoamFile
{
    version     2.0;
    format      ascii;
    class       surfaceVectorField;
    location    "6.6";
    object      Uf;
}
// * * * * * * * * * * * * * * * * * * * * * * * * * * * * * * * * * * * * * //

dimensions      [0 1 -1 0 0 0 0];

internalField   nonuniform List<vector> 
22672
(
(0.00477531994989 0.00198763733521 -0.00375668347916)
(0.00198509515246 0.00477866381861 -0.00375620040127)
(0.00308580396082 0.0030890318241 -0.00955398943298)
(0.0102460995241 0.00126693260596 -0.00343755514453)
(0.00713311479017 0.00408993032608 -0.00538385550306)
(0.00892858125036 0.00317128740038 -0.00956071618746)
(0.0149565729764 0.00082731017925 -0.00266075715818)
(0.0130653320703 0.00372400285752 -0.00546525589499)
(0.0143770257473 0.00328206309366 -0.00843448260012)
(0.0179329404449 0.000718756298866 -0.00153799979256)
(0.0173653778641 0.00371131474812 -0.00467319123016)
(0.0180776731243 0.00350105168235 -0.00668768823756)
(0.0185234727999 0.000886135975214 -0.000586310292288)
(0.0195361913725 0.00414278851809 -0.00340864933387)
(0.019697582357 0.00388812175079 -0.00473332645936)
(0.017154470334 0.00122087414553 -1.15639255229e-05)
(0.0189980443055 0.00472331982068 -0.00256245711486)
(0.0189011931826 0.00426725213879 -0.00335432244226)
(0.0141892193381 0.00169902551244 0.000375575496312)
(0.0168093424204 0.00537932389624 -0.00187436668977)
(0.0165219067077 0.00469419691511 -0.00241407752943)
(0.0100247348674 0.00221585299754 0.000523596412961)
(0.0129871612652 0.00606817961625 -0.00141370763925)
(0.0126601079038 0.00516756391882 -0.00190369942714)
(0.00515582495148 0.00261719014684 0.000517753440543)
(0.00808449385476 0.00666046179238 -0.00121476457844)
(0.00783640739236 0.00560634428191 -0.0017915559495)
(1.04103777255e-05 0.00276732637151 0.000494561059019)
(0.0027394225141 0.00700059758488 -0.00117893988527)
(0.00264614136655 0.00587066393281 -0.00185518698755)
(-0.00513589752937 0.00261813603118 0.000518103373265)
(-0.00271563924557 0.00700074191103 -0.00117844209864)
(-0.00262351172266 0.00587076210991 -0.00185443794872)
(-0.0100071981051 0.00221741501362 0.000524175116656)
(-0.00806237989453 0.00666087190347 -0.00121341357215)
(-0.0078154071468 0.00560655671515 -0.00178957527424)
(-0.0141752313157 0.00170066972156 0.000376363447886)
(-0.0129682965816 0.0060686995451 -0.0014116612183)
(-0.0126422386209 0.00516764515932 -0.00190067032729)
(-0.0171446259006 0.00122225601863 -1.08611742555e-05)
(-0.0167950747296 0.00537973861715 -0.00187201043599)
(-0.0165084152139 0.00469392163314 -0.0024103481728)
(-0.0185171411716 0.000887481577314 -0.000585675541976)
(-0.0189884345399 0.00472354683715 -0.0025606382782)
(-0.0188921368117 0.00426671105413 -0.00335103601718)
(-0.0179304705579 0.000720087196745 -0.00153791101615)
(-0.0195302705508 0.00414390969864 -0.00340660867898)
(-0.0196918343534 0.00388780401788 -0.00473058524467)
(-0.014956089203 0.000828550325275 -0.00266168105045)
(-0.0173634944778 0.00371234243963 -0.00467288371308)
(-0.0180751381229 0.00350079256839 -0.00668672927544)
(-0.0102463371237 0.00126830057889 -0.00343918630768)
(-0.0130647883873 0.00372544642256 -0.00546596191202)
(-0.0143756912862 0.00328217905464 -0.00843520455158)
(-0.00477542641411 0.00198907639674 -0.00375881510595)
(-0.00713322943134 0.00409188339315 -0.00538552553999)
(-0.00892797162758 0.00317180630027 -0.00956280083853)
(-0.00198511232436 0.00478103623198 -0.00375838671572)
(-0.00308548083401 0.00308981520336 -0.00955646734831)
(0.00408813093396 0.00713564778132 -0.00538337242517)
(0.00126508835424 0.0102488658787 -0.00343635660505)
(0.00317011288435 0.00893108923902 -0.00955833930987)
(0.0102847144254 0.00686192805751 -0.00741155625352)
(0.00686122236358 0.0102843226883 -0.0074111130123)
(0.00936786975052 0.00936687421301 -0.0123909826812)
(0.0157972275267 0.00694583227371 -0.00747768996697)
(0.0136010194676 0.0105019286901 -0.00824218951451)
(0.0150835734353 0.0099124999189 -0.0122904457186)
(0.0192561903332 0.00748936582747 -0.00654384077147)
(0.0184685346708 0.0111377670603 -0.00753744966821)
(0.0189353145545 0.0107687957444 -0.0108854216114)
(0.0201273341063 0.00834684708426 -0.00538479615644)
(0.0209490196184 0.0122649068741 -0.0061666205869)
(0.0206049256237 0.011890822834 -0.00899326818276)
(0.0186850416597 0.00926079541807 -0.00442525987911)
(0.020518988014 0.013495501177 -0.00495549117342)
(0.0198534083254 0.0129990719505 -0.00732989447767)
(0.0154547216929 0.0101467903749 -0.00366364982533)
(0.0181769618294 0.0146309959958 -0.00399830523391)
(0.017364396472 0.0140049167998 -0.006021357275)
(0.0109051423231 0.0109310098311 -0.00315206863065)
(0.0140660421128 0.0156988849197 -0.00327346384122)
(0.013328221991 0.0149193957135 -0.00508113077709)
(0.00560306008201 0.0114761763756 -0.00291145790425)
(0.00877411701705 0.0165375280181 -0.00286247938142)
(0.00828433682979 0.0156401017523 -0.00457498866959)
(1.32949347694e-05 0.0116712696938 -0.00285194304293)
(0.00297742708693 0.0169957276284 -0.00271563412013)
(0.00280811703414 0.0160355612607 -0.00440536953645)
(-0.00557726884456 0.0114758298353 -0.00290995904405)
(-0.00294806378304 0.0169954449105 -0.00271482949137)
(-0.00277925396186 0.0160349265173 -0.00440414388791)
(-0.0108817692096 0.0109304572637 -0.0031492499071)
(-0.00874653997661 0.0165367728125 -0.00286010264248)
(-0.00825706293155 0.01563830197 -0.00457140528517)
(-0.015435354087 0.0101461694314 -0.00366003510218)
(-0.014042185537 0.0156978390379 -0.00326976882508)
(-0.0133042203551 0.0149166814729 -0.00507555948516)
(-0.018670648822 0.00926012112007 -0.00442178753993)
(-0.0181584752848 0.0146298107401 -0.00399404595804)
(-0.0173452065897 0.014001636405 -0.00601478248196)
(-0.0201175958352 0.00834689766277 -0.00538157141521)
(-0.0205058522336 0.0134942255096 -0.00495172251669)
(-0.0198393013087 0.0129956459003 -0.00732373710487)
(-0.0192511305802 0.00749024691172 -0.00654158137592)
(-0.0209407660743 0.0122652079597 -0.00616283827787)
(-0.0205952338214 0.0118885446753 -0.00898776940525)
(-0.0157951584271 0.00694716058589 -0.00747716457464)
(-0.0184647499725 0.0111384596666 -0.00753571155853)
(-0.0189297435537 0.0107672081555 -0.0108820956839)
(-0.0102842510239 0.00686409229533 -0.00741230114432)
(-0.0135994861214 0.0105036955304 -0.00824184437222)
(-0.0150804904321 0.00991200682741 -0.0122891631485)
(-0.00408815651523 0.00713872549244 -0.00538509714976)
(-0.00686099413989 0.0102873611004 -0.00741204383607)
(-0.00936648884706 0.00936749437288 -0.0123915791421)
(-0.00126521808166 0.0102535668683 -0.0034383305804)
(-0.00316978170141 0.00893297831649 -0.00956069175908)
(0.00372319353956 0.0130650807492 -0.00546409719218)
(0.00082594490162 0.0149568511982 -0.00265914451884)
(0.00328199317689 0.014376633625 -0.00843118524984)
(0.0105042120804 0.0135976450344 -0.00824174627329)
(0.00694634160693 0.0157927086114 -0.00747653541744)
(0.00991528611945 0.0150785517442 -0.0122894113236)
(0.0166163729286 0.01436221287 -0.00830194921575)
(0.0143675981849 0.0166092294462 -0.00830184617092)
(0.0160830413887 0.0160756842674 -0.0122194684206)
(0.0204471389975 0.0155576872556 -0.00716022948364)
(0.0197228110126 0.0178322155705 -0.00732932520563)
(0.0201554254269 0.0174598764341 -0.0105252211281)
(0.0215113317728 0.01701892679 -0.00573731560388)
(0.0224493031952 0.0195003403065 -0.00568431582715)
(0.021890204496 0.0191294303757 -0.00829963236255)
(0.0200523279804 0.0184174985512 -0.00452853652823)
(0.0220932887332 0.0211923449397 -0.00416775256359)
(0.0211423346803 0.0207543708611 -0.00623784569577)
(0.016646125374 0.01966325838 -0.0036081192498)
(0.0195868965017 0.0226340507828 -0.00302180671102)
(0.0185155829949 0.0221519918321 -0.00459685754012)
(0.0117990076547 0.0207142025184 -0.00298387459199)
(0.0151900365396 0.0239302357316 -0.00218431690864)
(0.0142754047963 0.0233563771293 -0.00338423820737)
(0.00608826228199 0.0214167401801 -0.0026666555973)
(0.00950207858941 0.0249055997943 -0.00171247996074)
(0.00893038573034 0.0242595984518 -0.00265733141127)
(1.59739521791e-05 0.0216624429706 -0.00257852056858)
(0.00323057542761 0.0254240226186 -0.00154019536793)
(0.00304191201498 0.024742406279 -0.00235601168793)
(-0.00605731188267 0.0214159019511 -0.00266497308981)
(-0.00319663200644 0.0254234205054 -0.00153935483943)
(-0.0030080817432 0.0247415365848 -0.00235469491056)
(-0.0117710465746 0.0207126799242 -0.00298062156045)
(-0.00947014364692 0.0249038785562 -0.00170988236607)
(-0.00889846243032 0.0242570957285 -0.00265337639367)
(-0.0166228761416 0.019661303844 -0.00360377968094)
(-0.0151623297538 0.0239276512672 -0.00218005734842)
(-0.0142472845238 0.0233525627943 -0.0033779882464)
(-0.0200346860408 0.0184153981078 -0.0045239809348)
(-0.019565201311 0.0226309513553 -0.00301675964018)
(-0.0184927702949 0.022147360995 -0.00458933659637)
(-0.0214992866425 0.0170176780869 -0.00573298937936)
(-0.0220774513573 0.0211891810021 -0.00416286712946)
(-0.0211250262049 0.0207496363792 -0.00623036110435)
(-0.0204402584059 0.0155575929148 -0.00715696846048)
(-0.0224392573143 0.0194990484137 -0.00567967201214)
(-0.021878151403 0.0191259789743 -0.00829287520217)
(-0.0166130606754 0.0143631209116 -0.00830039135611)
(-0.0197175273488 0.0178317631835 -0.00732659016487)
(-0.0201478647896 0.017457444729 -0.0105205079055)
(-0.0105031087129 0.0136000802876 -0.00824158706397)
(-0.0143651874092 0.0166105340854 -0.00830058016428)
(-0.0160786612998 0.0160748055553 -0.0122167971737)
(-0.00372309239839 0.0130695228707 -0.0054652772667)
(-0.00694572582978 0.0157961032472 -0.00747666302799)
(-0.00991310919996 0.0150794235608 -0.0122887650883)
(-0.00082618156434 0.0149634296545 -0.00266090175164)
(-0.0032815058816 0.0143801405458 -0.00843295949798)
(0.00371119615722 0.0173617041963 -0.0046715827441)
(0.000718080514894 0.0179291738315 -0.00153570601243)
(0.00350162579559 0.0180733023947 -0.00668352499489)
(0.0111414369112 0.0184605000412 -0.00753663531506)
(0.00749095417273 0.0192465075929 -0.00654235702591)
(0.0107728769277 0.0189259656098 -0.010884046384)
(0.0178413061262 0.01971223928 -0.0073292221608)
(0.015564730583 0.0204346606548 -0.00716043035741)
(0.0174688649838 0.0201437976078 -0.0105253070531)
(0.022036256536 0.0213736773138 -0.00585341154914)
(0.021386229451 0.0220216461804 -0.00585401354375)
(0.0218144181481 0.0218012332843 -0.00838438744066)
(0.0232296053073 0.0232397476985 -0.00411475278685)
(0.0243347931206 0.0240028033717 -0.00385802503508)
(0.0236082986614 0.0237231448129 -0.00569581794418)
(0.021670953278 0.0249462526212 -0.00266102274637)
(0.0239913843135 0.0259671573798 -0.00201531244485)
(0.0227752498087 0.025573910299 -0.00321616617113)
(0.0179811702728 0.0264109156689 -0.00159800436986)
(0.0212516132576 0.0275773818165 -0.000606723323928)
(0.0199042935478 0.0271264542865 -0.00125355347878)
(0.0127456939104 0.027613358497 -0.000912922277389)
(0.016470776573 0.028976582191 0.000437397702589)
(0.015333709677 0.0284247309061 0.00018912467418)
(0.00658068777013 0.0283985681973 -0.000586019731369)
(0.010300793402 0.0300129118455 0.00104103246321)
(0.00959736743195 0.0293664326859 0.00105768896147)
(1.78458712654e-05 0.0286697366786 -0.000501029638789)
(0.0035016018843 0.0305586376335 0.0012680962291)
(0.00327102555797 0.0298592661001 0.00142822168672)
(-0.00654602866724 0.0283972663309 -0.000584264115696)
(-0.00346444346096 0.0305576431205 0.00126916606531)
(-0.00323389188952 0.0298581277797 0.001429646501)
(-0.0127141912846 0.0276108824806 -0.000909318154033)
(-0.0102657944707 0.0300100179505 0.00104436354805)
(-0.0095622182773 0.029363126719 0.00106201746956)
(-0.0179546788816 0.0264075102482 -0.00159303730767)
(-0.0164404084945 0.0289721445653 0.00044283439208)
(-0.0153025584911 0.028419638294 0.000195988158263)
(-0.021650543408 0.024942366725 -0.00265564583485)
(-0.021227814114 0.0275719429203 -0.000600447204972)
(-0.019878729591 0.0271201883421 -0.00124513357363)
(-0.0232154430028 0.0232367412684 -0.00410954976225)
(-0.0239738654585 0.0259616637008 -0.00200926611329)
(-0.0227555320769 0.0255673949609 -0.0032075899644)
(-0.022027741905 0.0213721233518 -0.00584929371652)
(-0.0243235077568 0.0239993165941 -0.00385234889559)
(-0.0235943798762 0.0237179860383 -0.00568797626507)
(-0.0178368712344 0.0197122090986 -0.00732677897304)
(-0.0213799856992 0.0220193352617 -0.00585020409278)
(-0.0218053247462 0.0217973986047 -0.00837844957509)
(-0.0111397291119 0.0184627682705 -0.00753565612831)
(-0.0155617223598 0.020434754494 -0.00715802359078)
(-0.0174634099289 0.020142054702 -0.0105213689938)
(-0.00371095249475 0.0173672552185 -0.00467228751293)
(-0.00749008428082 0.0192494436381 -0.00654123707437)
(-0.0107699462923 0.0189267527178 -0.010882123161)
(-0.000718606857146 0.0179368466387 -0.00153669454757)
(-0.00350098661482 0.0180782960894 -0.00668437345775)
(0.00414372169755 0.0195263381071 -0.00340648029424)
(0.00088604938254 0.0185147758492 -0.000584197053198)
(0.00388974309822 0.0196868184497 -0.00472932954674)
(0.0122699543617 0.0209350715515 -0.00616615206826)
(0.00834903495806 0.020113073971 -0.00538445108879)
(0.0118962866949 0.0205906104227 -0.00899280530624)
(0.0195111812654 0.0224330681209 -0.00568522174037)
(0.0170270699623 0.0214946485743 -0.00573923984644)
(0.0191400032586 0.021874508258 -0.00830122110756)
(0.0240194104327 0.0243164881363 -0.00385862702969)
(0.0232535259954 0.0232109638022 -0.00411739148635)
(0.0237377929977 0.0235915637598 -0.00569755293719)
(0.0252903854345 0.0263989865722 -0.00175858469307)
(0.0264186506537 0.0252695161656 -0.00176019695143)
(0.0255718853044 0.0255539114112 -0.00253769371089)
(0.0235887334584 0.0282920531943 3.89869775998e-05)
(0.0260237907109 0.0272781722481 0.000477693108195)
(0.0246117636003 0.027464976183 0.000390631498173)
(0.0195574220217 0.0298611995672 0.00142867874852)
(0.0230155208784 0.0288836743105 0.00222250781086)
(0.0214635889965 0.0290381844919 0.00272501367214)
(0.013854792757 0.0311113576647 0.00239135244318)
(0.0178064587629 0.0302272975943 0.00355457884357)
(0.0165099164216 0.0303186794355 0.00445190892729)
(0.00715081910444 0.0319190499196 0.00289514842368)
(0.011118606479 0.0312078793552 0.00435269057639)
(0.010320544081 0.0312306811029 0.00550900139789)
(1.9155958783e-05 0.0321966982732 0.0030382919332)
(0.00377492899562 0.0317269962633 0.0046723531333)
(0.00351450885038 0.031705033763 0.00596329972989)
(-0.00711369163265 0.0319166264731 0.00289779372906)
(-0.00373628602717 0.0317255000033 0.00467362168298)
(-0.0034755012988 0.0317034931544 0.00596498563552)
(-0.0138212150199 0.0311067884052 0.00239651609416)
(-0.0110821428147 0.0312034389246 0.00435656054241)
(-0.0102836913202 0.0312261929087 0.00551409686339)
(-0.0195294106184 0.0298550841581 0.00143542449477)
(-0.0177747562525 0.0302203405257 0.00356079093533)
(-0.0164773902591 0.0303117562655 0.00445999350133)
(-0.0235671819462 0.0282854040553 4.59325165884e-05)
(-0.0229905344046 0.0288750773222 0.00222967355724)
(-0.0214369954554 0.0290297457754 0.0027346302017)
(-0.02527532868 0.026393346934 -0.00175206524663)
(-0.0260051942535 0.0272694551835 0.000484595121381)
(-0.0245911539337 0.0274562781893 0.000400348126612)
(-0.0240102178697 0.0243124427771 -0.00385325927185)
(-0.0264064817316 0.0252628291333 -0.00175358636212)
(-0.0255571408286 0.0255465199004 -0.00252863053083)
(-0.0195062500252 0.0224309617401 -0.00568144871053)
(-0.0232464139845 0.0232056989365 -0.00411275573974)
(-0.0237279502561 0.0235856073792 -0.00569033832286)
(-0.0122680181623 0.0209357887263 -0.00616360453685)
(-0.0170232942474 0.0214923025552 -0.00573589351025)
(-0.0191339595159 0.0218710635549 -0.0082957860948)
(-0.00414365617253 0.0195312039365 -0.00340564410902)
(-0.00834753354395 0.0201141752427 -0.00538226848505)
(-0.0118928555556 0.0205902347232 -0.00898909927602)
(-0.000886708348483 0.0185216471637 -0.000584411778724)
(-0.0038892240742 0.0196917708846 -0.00472846041197)
(0.0047243695837 0.018985579251 -0.00256216784775)
(0.00122153650324 0.0171437021865 -1.03116512669e-05)
(0.00426949730648 0.0188870551266 -0.00335330129673)
(0.0135009078225 0.0205023283562 -0.00495753886698)
(0.00926397261438 0.018669108855 -0.00442684777942)
(0.0130056051193 0.0198366667575 -0.00733257893848)
(0.0212038299767 0.0220744383701 -0.00417140959243)
(0.0184269359783 0.0200343849191 -0.00453283186131)
(0.020766211179 0.0211248944402 -0.00624266437354)
(0.0259844612242 0.0239703887051 -0.00201896140809)
(0.024961059144 0.0216516271568 -0.00266640423326)
(0.0255895926493 0.0227573931816 -0.00322130038887)
(0.027299702625 0.026001243844 0.000476080849832)
(0.0283127480063 0.0235671903617 3.39299368709e-05)
(0.0274836721246 0.0245928030653 0.000387078838247)
(0.0254177976585 0.0277830408622 0.00266121394145)
(0.027806558341 0.0253955358579 0.0026592543889)
(0.0263745214091 0.0263551107953 0.00376453618037)
(0.0210406331754 0.0292158826713 0.00434840790591)
(0.0245415721226 0.0268251569964 0.00470553359298)
(0.0229499905173 0.0277783083307 0.00643567719605)
(0.0148783586224 0.0303325970681 0.00551591697678)
(0.0189410831994 0.0279985354785 0.00628115574658)
(0.0176147915602 0.0289097993321 0.008391032675)
(0.00766769195582 0.0310438269528 0.00612989528601)
(0.0117857286722 0.0288500490879 0.00727305737559)
(0.0109887755216 0.029710377842 0.0095684933812)
(1.93306204474e-05 0.0312847714711 0.00630768288307)
(0.0039921838009 0.0293025367837 0.00754795943715)
(0.00373594572148 0.0301267440453 0.0100728173567)
(-0.00763012999978 0.0310403429685 0.00613238849632)
(-0.00395424669712 0.0293005479824 0.0075487864977)
(-0.0036970314514 0.0301248244438 0.0100744088864)
(-0.01484411099 0.0303259263163 0.00552083538357)
(-0.0117497399546 0.0288441236127 0.00727662806143)
(-0.0109519229728 0.0297047516511 0.00957329191086)
(-0.021011711959 0.0292067516694 0.00435503999779)
(-0.0189096609297 0.0279891441176 0.00628718819705)
(-0.0175821356359 0.0289009488266 0.00839879211565)
(-0.0253951650083 0.0277728256171 0.00266833616203)
(-0.0245165893661 0.0268133197938 0.00471258577462)
(-0.0229230941772 0.0277673065345 0.00644520442969)
(-0.0272834794343 0.025991962731 0.000483074005894)
(-0.0277877071807 0.0253831816584 0.00266634459404)
(-0.0263534841604 0.0263435393696 0.00377458115342)
(-0.0259740734703 0.0239628416699 -0.00201308283001)
(-0.0283001886984 0.0235566861938 4.10418219242e-05)
(-0.0274684780197 0.024582447405 0.000396730017632)
(-0.0211976537653 0.0220691636241 -0.00416720053946)
(-0.0249534682676 0.0216426546542 -0.00266152030507)
(-0.0255791492194 0.0227484160768 -0.00321338198417)
(-0.0134978364093 0.0205005847801 -0.00495455745845)
(-0.0184224763504 0.0200288439349 -0.00452900683472)
(-0.0207594384373 0.021118838909 -0.00623636458735)
(-0.00472361865815 0.0189889793476 -0.00256103615476)
(-0.00926174825591 0.0186677605289 -0.00442395307338)
(-0.0130013314009 0.0198343392076 -0.00732780838279)
(-0.00122220400858 0.0171492417897 -1.00112727758e-05)
(-0.00426871680312 0.0188909834418 -0.00335121687897)
(0.00538199011851 0.0167953617074 -0.00187499158293)
(0.00170084268121 0.0141772804157 0.000376697871865)
(0.00469798497579 0.0165059143836 -0.00241557334329)
(0.0146383737196 0.0181598931935 -0.00400214077375)
(0.0101519195572 0.0154398147905 -0.00366674633892)
(0.0140138164095 0.0173474375433 -0.00602709501262)
(0.0226473285362 0.0195684347454 -0.00302782650215)
(0.0196747079655 0.0166303932421 -0.00361444271887)
(0.0221661183228 0.0184989411301 -0.00460496870027)
(0.0275961889644 0.0212314908091 -0.000613512888302)
(0.0264270740573 0.0179651663933 -0.00160587833978)
(0.0271438510301 0.0198880701005 -0.001262405125)
(0.0289065581977 0.0229939325136 0.00221710347593)
(0.0298832274181 0.0195397976339 0.00141971157436)
(0.0290582975779 0.0214466147785 0.00271701836675)
(0.0268485400621 0.0245191366261 0.00470357404043)
(0.0292407924986 0.0210224110425 0.00434202738032)
(0.0277988136896 0.0229328209477 0.00643113849772)
(0.0221753025184 0.0257255429123 0.00663828143365)
(0.0257493677015 0.0221564324297 0.00663585257534)
(0.0241364255169 0.0241185893823 0.00934195863894)
(0.0156348503414 0.0266249996433 0.00803829614539)
(0.0198165472589 0.0230625301549 0.00834625467828)
(0.0184874846796 0.0250638632251 0.0114764551002)
(0.00801777452392 0.0271971576949 0.00869112152673)
(0.0122903512471 0.0236503848973 0.00913566118143)
(0.0115032517864 0.0257179774016 0.0128167384327)
(1.8417661628e-05 0.0274081525815 0.00878906305178)
(0.00414507279792 0.023981461932 0.00929096775723)
(0.00390466836078 0.0260731726621 0.0133204304623)
(-0.00798179849777 0.0271927560433 0.0086930260628)
(-0.00411026881332 0.0239791704508 0.00929130802123)
(-0.00386772839814 0.0260709716922 0.0133215921809)
(-0.0156020337881 0.0266163880119 0.0080429808749)
(-0.0122573924343 0.0236432287874 0.00913795786533)
(-0.011468278616 0.0257113200256 0.0128211277998)
(-0.0221476477295 0.025713688619 0.00664473397388)
(-0.019788063482 0.0230511984297 0.00835013468624)
(-0.018456650926 0.0250533376105 0.0114835561161)
(-0.0268268329364 0.0245055754558 0.00471059420663)
(-0.0257266001869 0.0221418497053 0.00664224114741)
(-0.0241111110672 0.0241052259524 0.00935065046994)
(-0.0288908811042 0.0229808458523 0.00222431241007)
(-0.0292236555448 0.0210065957992 0.00434848967058)
(-0.0277790250999 0.0229183240944 0.00644062814577)
(-0.0275860581512 0.0212200735754 -0.00060739565313)
(-0.0298715987029 0.0195252500688 0.00142651890643)
(-0.0290439717845 0.0214329538729 0.00272660681926)
(-0.0226411369736 0.0195595690664 -0.00302332660032)
(-0.0264200811539 0.0179522792058 -0.00160134922313)
(-0.0271340095445 0.0198757220195 -0.00125455189455)
(-0.0146350942843 0.0181549841393 -0.00399840244965)
(-0.0196703261316 0.0166211219861 -0.00361053061511)
(-0.0221595006065 0.0184896644888 -0.00459832632989)
(-0.00538118916448 0.0167962805383 -0.0018729281914)
(-0.0101495259531 0.0154351827438 -0.00366321542419)
(-0.0140094440069 0.0173421797555 -0.00602133255852)
(-0.00170175158837 0.0141800797144 0.000377717483129)
(-0.00469725741061 0.0165073440667 -0.00241203072737)
(0.00607232964713 0.0129739063153 -0.00141505688412)
(0.00221813030758 0.0100121296526 0.000525436636225)
(0.00517270822606 0.0126449415645 -0.00190718373889)
(0.0157082563479 0.0140519859649 -0.00327904828403)
(0.0109376838242 0.010893449416 -0.00315597502076)
(0.0149304880719 0.0133142329262 -0.00508956674164)
(0.0239452599762 0.0151760390014 -0.00219249455649)
(0.0207271686556 0.0117885128076 -0.00299135584599)
(0.023372624609 0.0142628406274 -0.00339512870051)
(0.0289967097332 0.0164563143235 0.000427346122886)
(0.0276303954811 0.012736491366 -0.00092208059785)
(0.0284437102409 0.0153225248211 0.00017721995093)
(0.0302516045658 0.0177911641318 0.00354463547875)
(0.0311340495772 0.0138454053997 0.00237943522124)
(0.0303402602769 0.0164987881693 0.00443949265827)
(0.0280236099839 0.0189253899403 0.00627430591524)
(0.0303584029978 0.0148688009043 0.00550566344827)
(0.0289318197928 0.01760383801 0.00838160107063)
(0.0230831179683 0.0197999466398 0.00834382581997)
(0.0266503656221 0.0156252596355 0.00803173834883)
(0.0250831972428 0.0184763501688 0.0114716626893)
(0.0161985870663 0.0204620469238 0.00944361971432)
(0.020480666858 0.0161876197036 0.00944370988917)
(0.0191868612212 0.0191745977474 0.0137594408665)
(0.00829893420925 0.020885672265 0.00973550741193)
(0.012666644947 0.0165867427097 0.00989188767707)
(0.0119230147737 0.0196756799024 0.0149632958401)
(1.61551247532e-05 0.0210300846765 0.00979321272668)
(0.00425073295299 0.0168096947645 0.0100084336471)
(0.00403271932628 0.0199336749459 0.0154545476657)
(-0.00826756387687 0.0208808011184 0.00973623982376)
(-0.00422119011007 0.0168073861966 0.0100087241031)
(-0.00399988052176 0.0199313028538 0.0154555044865)
(-0.016170308942 0.0204524987933 0.00944511167667)
(-0.0126389957392 0.0165795617007 0.00989298280262)
(-0.0118921817803 0.0196685356677 0.0149664124286)
(-0.0230591826213 0.0197861016259 0.00834764185977)
(-0.0204572170517 0.0161757526362 0.00944535711706)
(-0.0191601848105 0.0191630864342 0.0137643182077)
(-0.028005035818 0.0189086378646 0.00628013661136)
(-0.026631771919 0.0156090031488 0.00803623373908)
(-0.0250614609392 0.0184610442633 0.0114786966931)
(-0.0302381581415 0.0177740693121 0.00355069616694)
(-0.0303446330115 0.0148506108982 0.00551002352038)
(-0.0289150244153 0.0175866706228 0.00838910260734)
(-0.028987885685 0.016440587783 0.00043256533643)
(-0.0311245223577 0.0138276683146 0.00238430655029)
(-0.0303280829062 0.0164817913386 0.00444730374455)
(-0.0239396794925 0.0151630493216 -0.00218855323792)
(-0.0276246424157 0.0127204875492 -0.000918922745117)
(-0.0284354191599 0.0153068146701 0.00018357972983)
(-0.0157051270929 0.0140432433748 -0.00327534358965)
(-0.0207235076175 0.0117759513628 -0.00298830874921)
(-0.023366992645 0.0142500602741 -0.00338938722873)
(-0.00607162521495 0.0129713624795 -0.00141256974966)
(-0.0109355893777 0.0108856997641 -0.00315278434984)
(-0.0149266818968 0.0133055173111 -0.00508402421774)
(-0.00221910984795 0.0100115240757 0.000526855141168)
(-0.00517222871158 0.0126426313997 -0.00190307338088)
(0.00666515386407 0.008073052449 -0.00121548150042)
(0.00261935850729 0.00514148583017 0.000520953155302)
(0.00561175336585 0.00782406367854 -0.00179451511361)
(0.0165479525711 0.00876551928589 -0.00286828258273)
(0.0114831148322 0.00559447154539 -0.00291456555269)
(0.0156520273631 0.00827547316054 -0.00458382657585)
(0.0249213714279 0.0094958171023 -0.00172094188735)
(0.0214297433306 0.00608387724711 -0.00267350538512)
(0.0242766952321 0.0089243229241 -0.00266878911665)
(0.030033346904 0.0102960038593 0.0010300085005)
(0.0284151536919 0.00657948351615 -0.000594266037925)
(0.0293859642693 0.00959378219405 0.00104502687672)
(0.0312324114907 0.0111142453647 0.00434046319075)
(0.0319406509292 0.00715142165155 0.00288344519861)
(0.0312525851878 0.0103182854052 0.00549491454643)
(0.0288758109936 0.0117816997239 0.00726309588186)
(0.0310686041967 0.007668831165 0.00611854685173)
(0.0297326883797 0.0109871129413 0.00955656717822)
(0.0236730666229 0.0122858431092 0.00913162241803)
(0.0272210496249 0.008019552929 0.00868785722359)
(0.0257382063267 0.0115018024522 0.0128084501221)
(0.0166003694789 0.0126599613811 0.00989197785192)
(0.0209043013259 0.00829896007059 0.00973685824554)
(0.0196895995163 0.0119206339621 0.0149613580033)
(0.00849598323196 0.0128890657369 0.0101648139123)
(0.0128972407289 0.00849280812373 0.0101653650492)
(0.0122052074226 0.012200930249 0.0161983238116)
(1.31532416587e-05 0.0129694997143 0.0102239450236)
(0.00431556930843 0.00859926667787 0.010280909142)
(0.00411427124592 0.0123469318651 0.0166932619779)
(-0.00847064137958 0.0128843057851 0.010165467082)
(-0.00429185756467 0.00859714172126 0.0102811952838)
(-0.00408693454038 0.0123446166914 0.0166940429221)
(-0.0165778784202 0.0126502197491 0.00989322824301)
(-0.0128754544426 0.00848613991576 0.010166228473)
(-0.0121798867271 0.0121938519826 0.0162006615948)
(-0.0236544576627 0.0122712711616 0.00913394899637)
(-0.0208863840111 0.00828753319463 0.00973806039152)
(-0.0196681822709 0.0119088591434 0.0149647995952)
(-0.02886175228 0.0117636494961 0.00726612064811)
(-0.0272075247277 0.00800374433279 0.00868968907708)
(-0.0257213109037 0.0114859678494 0.0128125521204)
(-0.031222341961 0.0110950186535 0.00434363390373)
(-0.0310588965948 0.00765068609892 0.00611959809651)
(-0.0297200304812 0.0109688816244 0.00956051109714)
(-0.0300266716709 0.0102776622987 0.00103281846874)
(-0.0319338202819 0.00713297173145 0.00288494230282)
(-0.0312435067709 0.0102995624434 0.00549902149515)
(-0.0249171660151 0.00948005907213 -0.0017186782564)
(-0.0284110249582 0.00656258465466 -0.000593380986085)
(-0.0293799476684 0.00957618337069 0.00104839183157)
(-0.0165456463412 0.00875387596359 -0.00286574950939)
(-0.0214274121255 0.00606989733933 -0.00267232518099)
(-0.0242728974999 0.00890926240056 -0.00266547111672)
(-0.0066647210035 0.00806724185677 -0.00121335945901)
(-0.011481892652 0.00558492342189 -0.00291284412346)
(-0.0156496342482 0.00826420434709 -0.00458015457486)
(-0.00262005624967 0.00513796109644 0.000522270657001)
(-0.00561162977771 0.00781820224015 -0.00179116205553)
(0.00700492564397 0.0027278882654 -0.00117813089697)
(0.00276960001859 -7.67215438776e-06 0.000498126748147)
(0.00587557247349 0.00263546225591 -0.00185577331788)
(0.017005430231 0.0029730611027 -0.00271978835509)
(0.0116769017172 6.03871486132e-06 -0.00285351560796)
(0.0160464517958 0.00280345807435 -0.00441207820296)
(0.0254385771222 0.00323133179067 -0.0015468295357)
(0.0216735276471 1.62126802532e-05 -0.00258364986997)
(0.0247582355361 0.00304185652771 -0.00236548884592)
(0.0305771921967 0.00350598938344 0.00125917066018)
(0.0286838511721 2.31002000436e-05 -0.00050710784323)
(0.0298772579602 0.00327456480802 0.00141776217471)
(0.0317488444191 0.00378132391835 0.00466152885958)
(0.0322147859682 2.83037015588e-05 0.00302937480243)
(0.0317248632704 0.00352071523297 0.0059514608123)
(0.0293258631487 0.0039990350102 0.00754330819346)
(0.0313055744488 2.99366647408e-05 0.00629814407779)
(0.0301467320706 0.00374333411676 0.0100618728259)
(0.0240006993568 0.00415111950559 0.0092930930511)
(0.0274272469072 2.87374262435e-05 0.00879097172583)
(0.026090514191 0.00391210680945 0.0133159789044)
(0.0168221564412 0.0042545169467 0.0100102454428)
(0.0210452081005 2.4388397257e-05 0.00979561588738)
(0.0199460190171 0.00403925043315 0.0154531168479)
(0.00860367001345 0.0043168943285 0.010281460279)
(0.0129764287419 1.83443682693e-05 0.0102247305146)