/*--------------------------------*- C++ -*----------------------------------*\
| =========                 |                                                 |
| \\      /  F ield         | OpenFOAM: The Open Source CFD Toolbox           |
|  \\    /   O peration     | Version:  3.0.1                                 |
|   \\  /    A nd           | Web:      www.OpenFOAM.org                      |
|    \\/     M anipulation  |                                                 |
\*---------------------------------------------------------------------------*/
FoamFile
{
    version     2.0;
    format      ascii;
    class       surfaceScalarField;
    location    "5.1";
    object      alphaPhi;
}
// * * * * * * * * * * * * * * * * * * * * * * * * * * * * * * * * * * * * * //

dimensions      [0 3 -1 0 0 0 0];

internalField   nonuniform List<scalar> 
22672
(
3.71606927272e-06
3.6351975798e-06
-7.35123209619e-06
9.27162440576e-06
2.50841682997e-06
-8.06396013619e-06
1.48780531741e-05
2.41579679478e-06
-8.02220929574e-06
1.90695477536e-05
3.24091561282e-06
-7.43239933826e-06
2.09820621631e-05
4.84836321731e-06
-6.76087046363e-06
2.03116665393e-05
6.84660148485e-06
-6.17620521809e-06
1.74634212992e-05
8.62093858223e-06
-5.7726996134e-06
1.27646913675e-05
1.02005486831e-05
-5.50183156621e-06
6.86807696179e-06
1.13118131499e-05
-5.41521736133e-06
4.11447117592e-07
1.18743665053e-05
-5.41775998736e-06
-6.05919151795e-06
1.18828431468e-05
-5.41223185038e-06
-1.1996449391e-05
1.13343302477e-05
-5.39710182496e-06
-1.67562403602e-05
1.02297968932e-05
-5.47003595474e-06
-1.96793057335e-05
8.65040511537e-06
-5.72736941986e-06
-2.04311668445e-05
6.87458856903e-06
-6.12275420112e-06
-1.86123220778e-05
4.88401896343e-06
-6.70289006868e-06
-1.45212444005e-05
3.28559945004e-06
-7.37670659855e-06
-9.02414636299e-06
2.47392639654e-06
-7.97106298833e-06
-3.58642104416e-06
2.57831147593e-06
-8.01608525954e-06
3.71713081218e-06
-7.30357516406e-06
2.58002626025e-06
9.13019536629e-06
-8.07501133313e-06
9.01225978076e-06
8.88487417529e-06
-1.28086659711e-05
1.57049639415e-05
9.95345665089e-06
-1.42303544867e-05
2.05193029797e-05
1.24687963065e-05
-1.4042209853e-05
2.26252068939e-05
1.60873784994e-05
-1.33448812874e-05
2.19122225592e-05
2.01072367443e-05
-1.25476593085e-05
1.86745939941e-05
2.37493119619e-05
-1.18907567611e-05
1.35633142171e-05
2.67682837201e-05
-1.14564686324e-05
7.26639604031e-06
2.8877849907e-05
-1.12691356817e-05
4.18308103616e-07
2.99515460783e-05
-1.12291134048e-05
-6.44675853299e-06
2.99708714539e-05
-1.12229866349e-05
-1.2792132382e-05
2.8929473014e-05
-1.12497967418e-05
-1.79733581208e-05
2.68363246735e-05
-1.14253294645e-05
-2.12907911462e-05
2.3819145919e-05
-1.18513390619e-05
-2.20910882024e-05
2.01799363764e-05
-1.25050864775e-05
-2.00761002843e-05
1.61738707239e-05
-1.33048201344e-05
-1.53596056027e-05
1.25749438609e-05
-1.40058675744e-05
-8.76760274862e-06
1.00830009403e-05
-1.42011144794e-05
-2.44422001551e-06
9.03072740243e-06
-1.27758324962e-05
9.27994256486e-06
-8.00707173791e-06
2.48768516416e-06
1.47052244044e-05
-8.06267320584e-06
1.00757728945e-05
1.55425167587e-05
-1.42457195752e-05
1.79303016019e-05
1.77755261394e-05
-1.56765850149e-05
2.34343095403e-05
2.17797207649e-05
-1.48149212774e-05
2.57063978516e-05
2.70140336306e-05
-1.31987477341e-05
2.47058011384e-05
3.26076384208e-05
-1.14998108819e-05
2.08903660512e-05
3.76744442054e-05
-1.01097042516e-05
1.50538311175e-05
4.17994418039e-05
-9.19463270808e-06
8.01274717265e-06
4.46662758249e-05
-8.74735399755e-06
4.35772062648e-07
4.61267138895e-05
-8.59820903561e-06
-7.1641437036e-06
4.61567276493e-05
-8.58595982159e-06
-1.42682373478e-05
4.47461180813e-05
-8.71257183283e-06
-2.01872972188e-05
4.19016421167e-05
-9.14627950033e-06
-2.40876176001e-05
3.77755680863e-05
-1.00561277215e-05
-2.51720308448e-05
3.27088449654e-05
-1.14445317976e-05
-2.298577699e-05
2.71310411178e-05
-1.31434463754e-05
-1.75765577222e-05
2.19251725712e-05
-1.4759463776e-05
-9.82323395935e-06
1.79521900582e-05
-1.56225512941e-05
-2.34561692023e-06
1.57392214066e-05
-1.41861603254e-05
1.48989043791e-05
-7.96458968822e-06
3.30958723145e-06
1.88750926319e-05
-7.47945273487e-06
1.25868533017e-05
2.03377817945e-05
-1.40725114495e-05
2.19291072333e-05
2.32618384364e-05
-1.48285535078e-05
2.82969306283e-05
2.81345575947e-05
-1.2722650621e-05
3.06971286979e-05
3.42856047796e-05
-9.67176295224e-06
2.91836995909e-05
4.07424458962e-05
-6.62137825092e-06
2.44418489896e-05
4.65499764088e-05
-4.13368296125e-06
1.74543643274e-05
5.12599031874e-05
-2.47297957285e-06
9.21780591971e-06
5.45348534292e-05
-1.63202562504e-06
4.62717319389e-07
5.62057216981e-05
-1.3239264445e-06
-8.32431423436e-06
5.6244661731e-05
-1.300912325e-06
-1.66470550003e-05
5.46377072617e-05
-1.56886126295e-06
-2.37369658765e-05
5.13862970846e-05
-2.39475656553e-06
-2.85674363155e-05
4.666251512e-05
-4.05649248625e-06
-3.01549376152e-05
4.08445871237e-05
-6.54826677353e-06
-2.78295420231e-05
3.43984619808e-05
-9.59284854495e-06
-2.15525861082e-05
2.82806364577e-05
-1.26324487619e-05
-1.23146510917e-05
2.3445732786e-05
-1.47315089155e-05
-3.1548351263e-06
2.0545310289e-05
-1.39659308397e-05
1.90785572901e-05
-7.33453953847e-06
4.91889726039e-06
2.07749005961e-05
-6.8186978512e-06
1.62064514982e-05
2.24298833349e-05
-1.33796457944e-05
2.7164281378e-05
2.55249548817e-05
-1.32209357481e-05
3.44433312303e-05
3.05328947277e-05
-9.67737497952e-06
3.69302856692e-05
3.67798440121e-05
-4.98118507245e-06
3.47872798968e-05
4.3249665912e-05
-3.64216744833e-07
2.89232320293e-05
4.90354540047e-05
3.37855224266e-06
2.0542754495e-05
5.37368889213e-05
5.90348720471e-06
1.07991905481e-05
5.70104152981e-05
7.26798542527e-06
4.99303578364e-07
5.86872876903e-05
7.81832354172e-06
-9.84693232718e-06
5.87319925126e-05
7.85890387653e-06
-1.97118795555e-05
5.7129211526e-05
7.37344293322e-06
-2.8227639038e-05
5.38769413783e-05
6.02508659746e-06
-3.41845713869e-05
4.91447311268e-05
3.47468520944e-06
-3.63847460595e-05
4.33367902892e-05
-2.92067472766e-07
-3.39520600477e-05
3.68668121776e-05
-4.90106344091e-06
-2.67568309446e-05
3.06507731033e-05
-9.56540824463e-06
-1.59096569143e-05
2.56827681344e-05
-1.30842483492e-05
-4.75147604276e-06
2.26120838057e-05
-1.32250017454e-05
2.09560301742e-05
-6.62900005628e-06
6.9225114212e-06
2.00956512949e-05
-6.24324930095e-06
2.02370384741e-05
2.17085415936e-05
-1.25931608345e-05
3.27719041852e-05
2.45147452064e-05
-1.15246417223e-05
4.09107887857e-05
2.90100225876e-05
-6.61599827602e-06
4.34019549856e-05
3.46293746932e-05
-3.40680523652e-07
4.05418314069e-05
4.03883195295e-05
5.72148651454e-06
3.34908396659e-05
4.55138030873e-05
1.05726693633e-05
2.36695828748e-05
4.97208075654e-05
1.38373192205e-05
1.23889759632e-05
5.26820399865e-05
1.56089941352e-05
5.35742485417e-07
5.42153844353e-05
1.63251400094e-05
-1.13807502632e-05
5.42617567187e-05
1.63867501319e-05
-2.28264822041e-05
5.28075708612e-05
1.57673459959e-05
-3.28202286958e-05
4.98674238559e-05
1.40033664204e-05
-3.99627838736e-05
4.56193645259e-05
1.06679221198e-05
-4.28580289282e-05
4.04633534044e-05
5.76867524284e-06
-4.03932625369e-05
3.4696088985e-05
-2.94104419082e-07
-3.23270002632e-05
2.90979470058e-05
-6.51347386107e-06
-1.99105476867e-05
2.46364087202e-05
-1.1370144204e-05
-6.73918732914e-06
2.18523848316e-05
-1.24116865115e-05
2.0241699557e-05
-6.02490800135e-06
8.70115614887e-06
1.72396031296e-05
-5.84501398413e-06
2.38911395678e-05
1.84590734064e-05
-1.19404813221e-05
3.78558037126e-05
2.06804114381e-05
-1.01302743101e-05
4.67328046254e-05
2.42391861459e-05
-4.10611110899e-06
4.91947911732e-05
2.87286264185e-05
3.43880134131e-06
4.56675275687e-05
3.32988123952e-05
1.06167931122e-05
3.75389449421e-05
3.73469922051e-05
1.62954039499e-05
2.64158861624e-05
4.07026308092e-05
2.01412565266e-05
1.37736223095e-05
4.30832252721e-05
2.22410393571e-05
5.70466522666e-07
4.43160464761e-05
2.31024804736e-05
-1.27122883133e-05
4.43555463685e-05
2.31889775014e-05
-2.55667498373e-05
4.31985757393e-05
2.24634729268e-05
-3.69018400463e-05
4.08416273772e-05
2.03608866215e-05
-4.51197067196e-05
3.74503871916e-05
1.63869371102e-05
-4.8658660289e-05
3.3370858229e-05
1.06314580225e-05
-4.61974771289e-05
2.87875117169e-05
3.4473759953e-06
-3.73788250481e-05
2.43101169961e-05
-4.03086894285e-06
-2.35385551316e-05
2.07722060909e-05
-9.97611723335e-06
-8.50753643127e-06
1.85664980917e-05
-1.17451984462e-05
1.73512886941e-05
-5.61717679018e-06
1.02819480885e-05
1.25340928736e-05
-5.57643859023e-06
2.69146051284e-05
1.33352462551e-05
-1.15088267118e-05
4.19890418516e-05
1.48201163116e-05
-9.21413249259e-06
5.1453535743e-05
1.72104243661e-05
-2.43572751465e-06
5.39066948404e-05
2.02874983512e-05
5.98797237828e-06
4.98826827835e-05
2.3398083664e-05
1.39247733583e-05
4.09003178982e-05
2.61267239372e-05
2.02026352991e-05
2.86837037536e-05
2.83809392615e-05
2.45383211989e-05
1.48887387825e-05
2.99974953309e-05
2.68807190291e-05
5.96056581469e-07
3.08881015167e-05
2.77205722916e-05
-1.37908363593e-05
3.09205302163e-05
2.78218902216e-05
-2.78184337733e-05
3.00874716796e-05
2.71386991356e-05
-4.02871659049e-05
2.84880956202e-05
2.48222865777e-05
-4.93618871598e-05
2.62201941784e-05
2.03049278233e-05
-5.33823121606e-05
2.34665969177e-05
1.39247595604e-05
-5.0911119766e-05
2.03441186246e-05
5.97220120849e-06
-4.14960288206e-05
1.72740113695e-05
-2.37903243293e-06
-2.65501410914e-05
1.48916196086e-05
-9.0653420751e-06
-1.00845084463e-05
1.34142132504e-05
-1.13134099113e-05
1.26173008979e-05
-5.35057447688e-06
1.13888086853e-05
6.63557953204e-06
-5.49030713781e-06
2.90167194601e-05
7.03210714356e-06
-1.13247700316e-05
4.48467516529e-05
7.76373315491e-06
-8.77365610324e-06
5.47174959956e-05
8.94426436721e-06
-1.60456171241e-06
5.71656855504e-05
1.04987820216e-05
7.3405354769e-06
5.28263464331e-05
1.20559587012e-05
1.56815545155e-05
4.32678136728e-05
1.34085079141e-05
2.22767749823e-05
3.02964318082e-05
1.45030182773e-05
2.68493297353e-05
1.57687539776e-05
1.53759896675e-05
2.91492023897e-05
6.16566725369e-07
1.58443120612e-05
3.01959959817e-05
-1.46351246306e-05
1.58625523625e-05
3.03096243709e-05
-2.94239233019e-05
1.54267788058e-05
2.94494791701e-05
-4.26600211776e-05
1.45730872333e-05
2.71511005711e-05
-5.23199431712e-05
1.34683615965e-05
2.24117743799e-05
-5.66488995728e-05
1.21060979404e-05
1.5689474913e-05
-5.41734177003e-05
1.05435324905e-05
7.32512783489e-06
-4.43504476074e-05
8.99520060577e-06
-1.5442002972e-06
-2.86505620154e-05
7.81688371817e-06
-8.62518232861e-06
-1.11921956453e-05
7.08905632011e-06
-1.11332572953e-05
6.69581779986e-06
-5.27075921104e-06
1.19430360583e-05
1.85111766744e-07
-5.49257654334e-06
3.00742328817e-05
1.88962355127e-07
-1.12880585893e-05
4.62836226812e-05
1.90484403111e-07
-8.63613809047e-06
5.63597115066e-05
1.9306614596e-07
-1.32490230791e-06
5.88086167514e-05
1.98598396804e-07
7.85128979514e-06
5.43259574142e-05
2.04078746729e-07
1.63345646071e-05
4.44771269798e-05
2.08478250484e-07
2.3048889888e-05
3.11757808981e-05
2.12025830012e-07
2.75923756955e-05
1.62388019139e-05
2.14924183356e-07
3.00980674001e-05
6.31330367946e-07
2.17878887272e-07
3.1233917557e-05
-1.50761782497e-05
2.20426323933e-07
3.13496569205e-05
-3.0280935921e-05
2.21452604103e-07
3.0410057853e-05
-4.3852815495e-05
2.21491711222e-07
2.79234621917e-05
-5.38178057969e-05
2.21355809273e-07
2.32119897767e-05
-5.82934618976e-05
2.20671188366e-07
1.63610952688e-05
-5.58151062767e-05
2.19768072602e-07
7.84542660095e-06
-4.57880826264e-05
2.20097799658e-07
-1.25194578271e-06
-2.97092066962e-05
2.22482260121e-07
-8.48450591435e-06
-1.17480994571e-05
2.25387206727e-07
-1.1097474262e-05
2.24148201676e-07
-5.2764719954e-06
1.19441481361e-05
-6.27060246116e-06
-5.48843390605e-06
3.00780137288e-05
-6.65935812294e-06
-1.12855478659e-05
4.62903985527e-05
-7.38687750904e-06
-8.63502054103e-06
5.63684972133e-05
-8.560212905e-06
-1.32481787786e-06
5.8817834865e-05
-1.01019128062e-05
7.85117478953e-06
5.43350863392e-05
-1.16454922133e-05
1.63323141952e-05
4.44854990348e-05
-1.2986600004e-05
2.30446897723e-05
3.11836771195e-05
-1.40732547584e-05
2.75871580819e-05
1.6244621007e-05
-1.49411117448e-05
3.00951066357e-05
6.33414437288e-07
-1.54036420169e-05
3.12327515006e-05
-1.50782654242e-05
-1.54174186024e-05
3.13495322048e-05
-3.02856909223e-05
-1.49801620471e-05
3.04090665756e-05
-4.38580239061e-05
-1.41256047717e-05
2.79194209573e-05
-5.38238493511e-05
-1.30217987746e-05
2.32089661045e-05
-5.82993918646e-05
-1.16635504913e-05
1.63597612472e-05
-5.58203181695e-05
-1.0105451646e-05
7.84614036246e-06
-4.57917399365e-05
-8.55899193937e-06
-1.24950874983e-06
-2.97109373152e-05
-7.37848307571e-06
-8.47986477022e-06
-1.17485166914e-05
-6.64628177672e-06
-1.10907895756e-05
-6.2550565692e-06
-5.26935148373e-06
1.13928126893e-05
-1.21867022203e-05
-5.47671293117e-06
2.90292707424e-05
-1.29799739391e-05
-1.13158360914e-05
4.48687224492e-05
-1.44577490618e-05
-8.76857976929e-06
5.47457130691e-05
-1.68355548236e-05
-1.6016458761e-06
5.71950059151e-05
-1.98945835625e-05
7.34337328027e-06
5.2854456033e-05
-2.29850161486e-05
1.56800773778e-05
4.32936589603e-05
-2.56949816797e-05
2.22691631907e-05
3.03185344167e-05
-2.79335207342e-05
2.68354175941e-05
1.5785594185e-05
-2.95478021522e-05
2.9139664052e-05
6.23264249701e-07
-3.04316648042e-05
3.01903625043e-05
-1.46405141952e-05
-3.04607547763e-05
3.03071410785e-05
-2.9437147034e-05
-2.96280417637e-05
2.9444535336e-05
-4.26769663502e-05
-2.80248790456e-05
2.71390998482e-05
-5.23389869288e-05
-2.57661703685e-05
2.24064008751e-05
-5.66683801445e-05
-2.30238140607e-05
1.56896446616e-05
-5.41913659429e-05
-1.99129184651e-05
7.33044446245e-06
-4.43638117126e-05
-1.68515805319e-05
-1.53499600156e-06
-2.86575989293e-05
-1.44735237535e-05
-8.61119899188e-06
-1.11943827452e-05
-1.29954180395e-05
-1.11141310633e-05
-1.21995850683e-05
-5.2499013093e-06
1.02907866817e-05
-1.69241314714e-05
-5.55335745213e-06
2.69393090656e-05
-1.81355425482e-05
-1.14929537677e-05
4.20305536687e-05
-2.0346525302e-05
-9.2024683725e-06
5.15065174741e-05
-2.38872827898e-05
-2.42423584872e-06
5.39619095149e-05
-2.83535842595e-05
6.00360847115e-06
4.99340400839e-05
-3.28974780869e-05
1.39403273253e-05
4.09452562253e-05
-3.69199795048e-05
2.02137833791e-05
2.87179997861e-05
-4.02559954524e-05
2.45497329746e-05
1.49146797406e-05
-4.26255867283e-05
2.68811242853e-05
6.05349132195e-07
-4.38477317805e-05
2.77254472873e-05
-1.37999220598e-05
-4.38842908621e-05
2.78288228778e-05
-2.78376513703e-05
-4.27310698155e-05
2.71407685431e-05
-4.03165384003e-05
-4.0378136231e-05
2.4832178511e-05
-4.93972697061e-05
-3.70004825894e-05
2.03150686712e-05
-5.34209571767e-05
-3.29403488169e-05
1.39402340055e-05
-5.09478670168e-05
-2.83766188642e-05
5.99058847773e-06
-4.15245645536e-05
-2.39156107171e-05
-2.35928620184e-06
-2.65668172847e-05
-2.03891862937e-05
-9.04213038664e-06
-1.00908914045e-05
-1.81870524292e-05
-1.12843321676e-05
-1.69726963446e-05
-5.31782207725e-06
8.71630043539e-06
-1.9825147298e-05
-5.81528460628e-06
2.39305291708e-05
-2.14295324836e-05
-1.19202388165e-05
3.79207448297e-05
-2.4225182014e-05
-1.01115589011e-05
4.68149929519e-05
-2.87003541262e-05
-4.08117677616e-06
4.92819455911e-05
-3.42953313132e-05
3.47479414523e-06
4.57486467067e-05
-4.00269990644e-05
1.06628170537e-05
3.76072237784e-05
-4.51251230139e-05
1.63465653781e-05
2.64671093138e-05
-4.9311480988e-05
2.01956091756e-05
1.38045759716e-05
-5.22600469398e-05
2.2296948122e-05
5.83037661934e-07
-5.378448552e-05
2.31583095461e-05
-1.27195742742e-05
-5.38278200951e-05
2.32462160943e-05
-2.55960676268e-05
-5.23751011758e-05
2.25205771289e-05
-3.69486409437e-05
-4.94397400557e-05
2.04142083925e-05
-4.51794763048e-05
-4.52063541299e-05
1.64367269613e-05
-4.87244034355e-05
-4.00727419788e-05
1.06773242976e-05
-4.62594967772e-05
-3.43282191591e-05
3.48669232636e-06
-3.74279189705e-05
-2.87501674395e-05
-3.99705514142e-06
-2.35683330747e-05
-2.43040510747e-05
-9.9447627191e-06
-8.52020281986e-06
-2.15252818048e-05
-1.17099382225e-05
-1.99163274869e-05
-5.57659023231e-06
6.94287131873e-06
-2.05546279623e-05
-6.21339066503e-06
2.02943966781e-05
-2.22073180171e-05
-1.25737398234e-05
3.28637527032e-05
-2.52919498847e-05
-1.15025881705e-05
4.10251259227e-05
-3.02809207352e-05
-6.58080654577e-06
4.35220118515e-05
-3.65058951383e-05
-2.86322046652e-07
4.06525842612e-05
-4.29524499599e-05
5.79488339899e-06
3.35826392391e-05
-4.87138350428e-05
1.06586508742e-05
2.37377502258e-05
-5.33970903382e-05
1.39304842017e-05
1.24310731393e-05
-5.66578809513e-05
1.57045315698e-05
5.52369448975e-07
-5.83264267216e-05
1.64206187745e-05
-1.13907211248e-05
-5.836790129e-05
1.64832390222e-05
-2.2864712316e-05
-5.67659704473e-05
1.58648651459e-05
-3.28843370574e-05
-5.3518620027e-05
1.40985300868e-05
-4.00476766681e-05
-4.87985952211e-05
1.07555519356e-05
-4.29533412997e-05
-4.30108207002e-05
5.84375730957e-06
-4.04855010436e-05
-3.65615046575e-05
-2.34527324149e-07
-3.24020478593e-05
-3.03653684537e-05
-6.46826152361e-06
-1.9958383232e-05
-2.54141370964e-05
-1.13336164776e-05
-6.75738618486e-06
-2.23510556551e-05
-1.2375238339e-05
-2.068934006e-05
-5.98439114012e-06
4.95077336802e-06
-1.87126583765e-05
-6.79274295769e-06
1.62828640429e-05
-2.01730802656e-05
-1.336632848e-05
2.72811295212e-05
-2.3088646868e-05
-1.32015685258e-05
3.45860872472e-05
-2.79465038029e-05
-9.63937466334e-06
3.70802246502e-05
-3.40815351736e-05
-4.91849734842e-06
3.49274539829e-05
-4.05220011898e-05
-2.7767806367e-07
2.90416183327e-05
-4.63117327683e-05
3.48373335182e-06
2.06331234992e-05
-5.10094417359e-05
6.02084625492e-06
1.08563118163e-05
-5.42745164553e-05
7.39344243005e-06
5.20736967989e-07
-5.59390463771e-05
7.94819716451e-06
-9.86209793363e-06
-5.59745775101e-05
7.98950499562e-06
-1.97627824297e-05
-5.43668921003e-05
7.50161937656e-06
-2.83108768708e-05
-5.11182153415e-05
6.14766815913e-06
-3.42936614354e-05
-4.64016348908e-05
3.58585380578e-06
-3.65073542888e-05
-4.05983431809e-05
-1.98790786253e-07
-3.40724699149e-05
-3.41672633127e-05
-4.82910497002e-06
-2.68581656688e-05
-2.80650517101e-05
-9.51461133367e-06
-1.59790484405e-05
-2.32448346363e-05
-1.30484532337e-05
-4.7834295451e-06
-2.03512108633e-05
-1.31954930752e-05
-1.88804298195e-05
-6.59236877347e-06
3.34508332582e-06
-1.45948732391e-05
-7.46287057944e-06
1.26733756078e-05
-1.54310343626e-05
-1.40703381902e-05
2.20604808976e-05
-1.76575432641e-05
-1.48182089325e-05
2.84555986044e-05
-2.16512382678e-05
-1.26903832631e-05
3.08621832286e-05
-2.68748555105e-05
-9.61326424972e-06
2.93365900099e-05
-3.24578496482e-05
-6.53855831731e-06
2.45698489166e-05
-3.75126159917e-05
-4.03237562281e-06
1.75524618895e-05
-4.16280437612e-05
-2.36401094644e-06
9.27991003636e-06
-4.44882739677e-05
-1.5136888317e-06
4.89924216346e-07
-4.59429447564e-05
-1.2061120833e-06
-8.33310216463e-06
-4.59700827108e-05
-1.18146324216e-06
-1.66952312702e-05
-4.45598121383e-05
-1.44495928503e-06
-2.3822153681e-05
-4.17172720917e-05
-2.27400625352e-06
-2.8683849063e-05
-3.75965139095e-05
-3.94343710598e-06
-3.02896085669e-05
-3.25395054302e-05
-6.4530471856e-06
-2.79653470047e-05
-2.69721575773e-05
-9.51938248316e-06
-2.16698107209e-05
-2.17778964041e-05
-1.25826746553e-05
-1.23960423881e-05
-1.78161731352e-05
-1.47024518635e-05
-3.19171056369e-06
-1.56086402353e-05
-1.39469087033e-05
-1.47640458059e-05
-7.3081318959e-06
2.52569685825e-06
-9.06672310389e-06
-8.05380020731e-06
1.01676372508e-05
-8.8171895455e-06
-1.42557841139e-05
1.80693088535e-05
-9.88117479134e-06
-1.56780397686e-05
2.3601539458e-05
-1.2390525149e-05
-1.47929438622e-05
2.5879760134e-05
-1.60031928894e-05
-1.31498862346e-05
2.48671423611e-05
-2.00173074997e-05
-1.14279247453e-05
2.10273599641e-05
-2.36517198082e-05
-1.00211138282e-05
1.51603321697e-05
-2.66653508736e-05
-9.09566511054e-06
8.08333109869e-06
-2.87708109017e-05
-8.64045481831e-06
4.68017319595e-07
-2.98412331732e-05
-8.48639161087e-06
-7.1716851237e-06
-2.98587343475e-05
-8.47164828062e-06
-1.43161026583e-05
-2.88172096156e-05
-8.598193255e-06
-2.02734620762e-05
-2.67253435737e-05
-9.03458447112e-06
-2.42063343413e-05
-2.37112863525e-05
-9.95235554406e-06
-2.53113962502e-05
-2.0078714386e-05
-1.13557288859e-05
-2.3129253249e-05
-1.60795887182e-05
-1.30746816869e-05
-1.77022234808e-05
-1.24878749146e-05
-1.4717067954e-05
-9.91114660013e-06
-1.00021996605e-05
-1.56050681694e-05
-2.38623564677e-06
-8.95407479297e-06
-1.41795001675e-05
-9.2022866201e-06
-7.94799611832e-06
2.61877395014e-06
-3.60635905265e-06
-8.0791200296e-06
9.10305779893e-06
-2.4754516541e-06
-1.28259787655e-05
1.58426839304e-05
-2.38042984286e-06
-1.42403669592e-05
2.06865137247e-05
-3.2038041027e-06
-1.40305524063e-05
2.27985540657e-05
-4.80997775622e-06
-1.33052057321e-05
2.20738701587e-05
-6.80659111799e-06
-1.24860309822e-05
1.8813293523e-05
-8.57736732049e-06
-1.18137683559e-05
1.36722297707e-05
-1.01553196139e-05
-1.13689621512e-05
7.34063440616e-06
-1.12652714963e-05
-1.11739333208e-05
4.54877841463e-07
-1.18266032618e-05
-1.1128877629e-05
-6.44953751734e-06
-1.18343864264e-05
-1.11199337909e-05
-1.28345215757e-05
-1.12856541221e-05
-1.11465722338e-05
-1.80537587519e-05
-1.01814245109e-05
-1.13246821689e-05
-2.14033955066e-05
-8.6032543273e-06
-1.17583991371e-05
-2.22258933494e-05
-6.83056901271e-06
-1.24255959322e-05
-2.02172043962e-05
-4.84346388763e-06
-1.32448057361e-05
-1.5482167931e-05
-3.24657251711e-06
-1.39763488841e-05
-8.85419209173e-06
-2.43673019441e-06
-1.41934631025e-05
-2.48584900734e-06
-2.54256384246e-06
-1.27798651287e-05
-3.68036637978e-06
-8.00779257064e-06
3.74927574615e-06
-7.35560881709e-06
9.35168095863e-06
-8.07784388912e-06
1.50001198989e-05
-8.02886497404e-06
1.92194980941e-05
-7.42318061406e-06
2.11401386842e-05
-6.73061916841e-06
2.04603190106e-05
-6.12676897095e-06
1.75941761545e-05
-5.71121571243e-06
1.28697196852e-05
-5.43086486712e-06
6.94197269879e-06
-5.33752401393e-06
4.5126157309e-07
-5.33589505637e-06
-6.05502213095e-06
-5.32810447393e-06
-1.20277966798e-05
-5.31288454756e-06
-1.68209057279e-05
-5.38831553834e-06
-1.97712112299e-05
-5.65294616102e-06
-2.05422447673e-05
-6.05947719725e-06
-1.87278454495e-05
-6.65786895251e-06
-1.46205525569e-05
-7.35388068365e-06
-9.09245838707e-06
-7.96484015907e-06
-3.6167196831e-06
-8.0183248947e-06
-7.29708739481e-06
6.09500223916e-06
6.01439411337e-06
-1.94606298388e-05
1.24823351496e-05
7.1540422745e-06
-2.16053185968e-05
1.80443656229e-05
8.62722321546e-06
-2.22114535729e-05
2.18751304507e-05
1.07290120582e-05
-2.19921705291e-05
2.33564127513e-05
1.32158467564e-05
-2.14579973367e-05
2.22894484621e-05
1.57382838848e-05
-2.08475274297e-05
1.89480220927e-05
1.79119458208e-05
-2.03432407476e-05
1.37667971606e-05
1.97152935983e-05
-2.00359071024e-05
7.38035978573e-06
2.09676285797e-05
-1.99964307515e-05
4.26355014749e-07
2.16055271588e-05
-2.00693101144e-05
-6.54298163736e-06
2.16194275458e-05
-2.00623527653e-05
-1.29737440225e-05
2.10056180607e-05
-1.99719891872e-05
-1.82212542495e-05
1.97677198952e-05
-1.99902756875e-05
-2.16426542139e-05
1.79698983917e-05
-2.02758951966e-05
-2.27996483026e-05
1.58010321191e-05
-2.07668172654e-05
-2.14216810009e-05
1.32944060929e-05
-2.13752870779e-05
-1.77012289153e-05
1.08224820226e-05
-2.1919668501e-05
-1.22548991796e-05
8.73574253208e-06
-2.21531643761e-05
-5.98378325713e-06
7.26864422681e-06
-2.15558877467e-05
6.12304404323e-06
-1.94104569798e-05
7.22141517612e-06
1.23436298466e-05
-2.16256452021e-05
1.36851104846e-05
1.35614423994e-05
-2.56797552035e-05
1.88271504818e-05
1.56909729499e-05
-2.64361387289e-05
2.21854075212e-05
1.89111122661e-05
-2.55825623529e-05
2.33153563437e-05
2.28010052103e-05
-2.40599895177e-05
2.20899752091e-05
2.68088828247e-05
-2.2392884354e-05
1.86587040746e-05
3.04161017874e-05
-2.09636528856e-05
1.35207196096e-05
3.33578743474e-05
-1.99610728898e-05
7.25460172719e-06
3.54073202475e-05
-1.94427206804e-05
4.37510162544e-07
3.64605717732e-05
-1.92670847293e-05
-6.39765034022e-06
3.64874999724e-05
-1.92559196408e-05
-1.27144035694e-05
3.54802089776e-05
-1.94076613916e-05
-1.79249414119e-05
3.34562906065e-05
-1.99033915577e-05
-2.14407267941e-05
3.05222458462e-05
-2.08879238681e-05
-2.27601972122e-05
2.69218044833e-05
-2.23064110947e-05
-2.17327052033e-05
2.29321406138e-05
-2.397006979e-05
-1.8486161493e-05
1.90672980073e-05
-2.54972541056e-05
-1.34600878166e-05
1.58710701282e-05
-2.6362545407e-05
-7.11085069787e-06
1.37549282421e-05
-2.5611385906e-05
1.25328135502e-05
-2.15277407744e-05
8.6884472181e-06
1.78610373719e-05
-2.22685199006e-05
1.58064651349e-05
1.8660789776e-05
-2.64630778098e-05
2.1149554561e-05
2.09924676561e-05
-2.63211625557e-05
2.44512891814e-05
2.47343544105e-05
-2.39398942369e-05
2.53465364515e-05
2.93049907097e-05
-2.05979708657e-05
2.37451679085e-05
3.40366507318e-05
-1.71262062998e-05
1.98890976105e-05
3.83358699589e-05
-1.41734029259e-05
1.4315913777e-05
4.18299110136e-05
-1.20934835104e-05
7.65129274259e-06
4.42421013407e-05
-1.09175121866e-05
4.54400417997e-07
4.54909818235e-05
-1.04317321908e-05
-6.7660604161e-06
4.55287309473e-05
-1.04067415901e-05
-1.34945116084e-05
4.43431460372e-05
-1.08470707763e-05
-1.91512432424e-05
4.19603386442e-05
-1.19936094434e-05
-2.30954132663e-05
3.84722527467e-05
-1.40619804308e-05
-2.47863324732e-05
3.41725968791e-05
-1.70044209137e-05
-2.39882277707e-05
2.94541019952e-05
-2.04635309752e-05
-2.07968457895e-05
2.4911968814e-05
-2.37955432425e-05
-1.55713316758e-05
2.12014011157e-05
-2.61784290662e-05
-8.57145953795e-06
1.88903039847e-05
-2.632146149e-05
1.80919531244e-05
-2.20952676575e-05
1.07892485895e-05
2.16695521271e-05
-2.20772055582e-05
1.90228414243e-05
2.1991169423e-05
-2.56364767492e-05
2.48855531637e-05
2.42670254408e-05
-2.39658176439e-05
2.82746349751e-05
2.80996983062e-05
-1.94770660039e-05
2.88956985812e-05
3.28062428819e-05
-1.37940648491e-05
2.67426566515e-05
3.76758402292e-05
-8.10751684413e-06
2.21836382679e-05
4.20976128809e-05
-3.33640142975e-06
1.58160387529e-05
4.56590915795e-05
6.5444896561e-08
8.40771427974e-06
4.81588718308e-05
1.85953354393e-06
4.77525241251e-07
4.94497061909e-05
2.64754026778e-06
-7.48574150235e-06
4.94970446758e-05
2.69403228367e-06
-1.49816619001e-05
4.82864539301e-05
1.98374105912e-06
-2.14459060043e-05
4.58248188825e-05
2.0499624223e-07
-2.60990549634e-05
4.22516135184e-05
-3.18271346958e-06
-2.8332248942e-05
3.78157889105e-05
-7.95827459712e-06
-2.7795306504e-05
3.29464910799e-05
-1.36221953219e-05
-2.45100191417e-05
2.82655318596e-05
-1.92713257735e-05
-1.87669166164e-05
2.44670513421e-05
-2.3740309877e-05
-1.06584629575e-05
2.22154478046e-05
-2.53995660427e-05
2.18990887773e-05
-2.18002100003e-05
1.32750449511e-05
2.31436969176e-05
-2.1567878063e-05
2.29132903707e-05
2.31082329488e-05
-2.41349500891e-05
2.94556537323e-05
2.5146977826e-05
-2.06432292899e-05
3.2976190664e-05
2.87084406535e-05
-1.38066300731e-05
3.3272583601e-05
3.30947382718e-05
-5.56605190618e-06
3.04637865835e-05
3.76711757951e-05
2.44925937952e-06
2.50604883997e-05
4.18893729051e-05
8.99008213256e-06
1.77931133483e-05
4.53125117825e-05
1.35174476072e-05
9.41246922995e-06
4.77063707647e-05
1.61011309705e-05
5.04560839244e-07
4.89551091099e-05
1.72208267951e-05
-8.44860291597e-06
4.90102515586e-05
1.72988589094e-05
-1.69469761714e-05
4.78546965966e-05
1.63035726014e-05
-2.43465097414e-05
4.54982279366e-05
1.37512102934e-05
-2.98457659136e-05
4.20507046442e-05
9.17484714078e-06
-3.27182609837e-05
3.78062590205e-05
2.58995083687e-06
-3.24821207458e-05
3.32168000609e-05
-5.40752883454e-06
-2.90519508273e-05
2.88454570918e-05
-1.35755307945e-05
-2.26298916641e-05
2.53160330543e-05
-2.03553615031e-05
-1.31270172206e-05
2.33008828408e-05
-2.38133558517e-05
2.33374105731e-05
-2.11943784951e-05
1.58025257444e-05
2.20725198624e-05
-2.09745938514e-05
2.69280972669e-05
2.18726582364e-05
-2.24831352852e-05
3.4195660786e-05
2.35313467699e-05
-1.71765496064e-05
3.78489002142e-05
2.65382081811e-05
-8.09897712482e-06
3.78453052426e-05
3.02667692096e-05
2.49088783222e-06
3.4443585778e-05
3.4254103623e-05
1.25402814086e-05
2.81959331339e-05
3.79651040875e-05
2.07445979651e-05
1.99570558037e-05
4.0999250868e-05
2.63894809227e-05
1.05297517504e-05
4.31358917383e-05
2.96067878453e-05
5.35159259133e-07
4.42584300342e-05
3.10164230137e-05
-9.52107407254e-06
4.4316351078e-05
3.11368963162e-05
-1.91077597858e-05
4.32918158624e-05
2.99169275456e-05
-2.75190220364e-05
4.11942986713e-05
2.67185593925e-05
-3.38673396664e-05
3.81282851234e-05
2.09386447881e-05
-3.73139221085e-05
3.43837298179e-05
1.26377741007e-05
-3.73481685289e-05
3.03758235731e-05
2.58111518545e-06
-3.37625875389e-05
2.66474331247e-05
-7.90105279911e-06
-2.66133773217e-05
2.36627807012e-05
-1.68661488781e-05
-1.56332620714e-05
2.20194489297e-05
-2.21104404035e-05
2.22194655403e-05
-2.05402868531e-05
1.79797874996e-05
1.87245474982e-05
-2.04768252968e-05
3.05430403596e-05
1.84287710698e-05
-2.10598306401e-05
3.85039256594e-05
1.96548290922e-05
-1.42146168858e-05
4.22732447222e-05
2.19469414724e-05
-3.28415129073e-06
4.2061483643e-05
2.48264871972e-05
9.0908451531e-06
3.81495532863e-05
2.79662211909e-05
2.08166434223e-05
3.11522805993e-05
3.09236636735e-05
3.03341352735e-05
2.20206654576e-05
3.33591324178e-05
3.69129997201e-05
1.16100361606e-05
3.51123190999e-05
4.06752569705e-05
5.71995977595e-07
3.60638481548e-05
4.23351065653e-05
-1.05466094263e-05
3.61181302327e-05
4.2505805635e-05
-2.11642324798e-05
3.52571943386e-05
4.11157328217e-05
-3.05106249503e-05
3.35396575098e-05
3.73619606305e-05
-3.76174521174e-05
3.10752934404e-05
3.05467518393e-05
-4.1557091713e-05
2.80859732112e-05
2.08688969237e-05
-4.17763096985e-05
2.49239286899e-05
9.11848154896e-06
-3.80505438401e-05
2.20369047229e-05
-3.14610711601e-06
-3.02046034559e-05
1.97555377289e-05
-1.39148549498e-05
-1.77963801248e-05
1.85360045533e-05
-2.06700154991e-05
1.88290386507e-05
-2.0023200792e-05
1.97820071921e-05
1.35361128321e-05
-2.0169999638e-05
3.34852436307e-05
1.32787163123e-05
-2.00619916633e-05
4.1996945871e-05
1.40602357709e-05
-1.21312013413e-05