/*--------------------------------*- C++ -*----------------------------------*\
| =========                 |                                                 |
| \\      /  F ield         | OpenFOAM: The Open Source CFD Toolbox           |
|  \\    /   O peration     | Version:  3.0.1                                 |
|   \\  /    A nd           | Web:      www.OpenFOAM.org                      |
|    \\/     M anipulation  |                                                 |
\*---------------------------------------------------------------------------*/
FoamFile
{
    version     2.0;
    format      ascii;
    class       surfaceVectorField;
    location    "5.1";
    object      ddt0(Uf);
}
// * * * * * * * * * * * * * * * * * * * * * * * * * * * * * * * * * * * * * //

dimensions      [0 1 -2 0 0 0 0];

internalField   nonuniform List<vector> 
22672
(
(0.000134956577461 9.32649380945e-08 -4.03494601256e-05)
(1.14935974778e-05 0.000113990978458 -3.97415674033e-05)
(9.79408134446e-05 8.70357388384e-05 -0.000246072951084)
(0.000371044917845 -4.71980629972e-05 -5.59102585725e-05)
(0.000227784175608 7.91616240482e-05 -0.000195778114101)
(0.000346944413138 0.000105199363969 -0.000313083600888)
(0.000612066250611 -7.14061436501e-05 -3.23141663538e-05)
(0.00052266654433 6.56648106683e-05 -0.000226645471409)
(0.000603572271067 0.000120759691932 -0.000304468674264)
(0.00078495130713 -7.49125934711e-05 1.61485220626e-05)
(0.000740550207745 6.65085403383e-05 -0.000178442809285)
(0.000784492956919 0.000134757185663 -0.00023746960197)
(0.000853056627696 -5.51769516763e-05 6.89127479706e-05)
(0.000870160688471 8.54826133636e-05 -0.000106811248395)
(0.000893167904296 0.000154779193515 -0.000152056530517)
(0.000810134647487 -3.64035260595e-05 0.000108618719644)
(0.000858537277235 0.000112448047172 -3.42619348005e-05)
(0.000867834881748 0.000176722802326 -6.84282165943e-05)
(0.000708072621246 -2.08544213911e-05 0.00013448070976)
(0.000785636980444 0.00011146363588 1.63370354053e-05)
(0.000794668374836 0.000172762547441 -8.7392634418e-06)
(0.00054227713907 3.39210139036e-06 0.000152740981922)
(0.000644120319141 0.000123657308144 5.89041216051e-05)
(0.000652051846639 0.000181248731542 4.24099079099e-05)
(0.000334641983754 2.15930829499e-05 0.000159524933218)
(0.000447526338953 0.000138203374037 8.32874855366e-05)
(0.000452827640875 0.000191445785236 6.94056440384e-05)
(0.000110285352849 2.83939181531e-05 0.000160673560302)
(0.000226629706802 0.000146775277531 9.23754565075e-05)
(0.000228480767036 0.000197220541559 7.73889665918e-05)
(-0.000115415832769 2.34102233537e-05 0.000159898253245)
(-2.02936277356e-06 0.00014774959951 9.28562416866e-05)
(-3.73872884077e-06 0.000197981102384 7.77472723347e-05)
(-0.000327504756657 6.88860688871e-06 0.000154052970309)
(-0.000225829084164 0.000141037052427 8.49782007308e-05)
(-0.000230903303256 0.00019362397068 7.09835852196e-05)
(-0.00050209713615 -1.60094045508e-05 0.000137681011233)
(-0.000429087430546 0.000128094506153 6.25655747872e-05)
(-0.000436457857462 0.000184633489944 4.66717792465e-05)
(-0.000618507119843 -3.2195614828e-05 0.000113761323814)
(-0.000582413016816 0.000117107388282 2.2699368655e-05)
(-0.000590603629301 0.000176985496507 -2.42084154365e-07)
(-0.000679650584331 -5.03028478302e-05 7.69371290896e-05)
(-0.000671089324309 0.000117828909267 -2.56328665875e-05)
(-0.000679460654368 0.000179114782355 -5.59886882411e-05)
(-0.000640191854418 -6.84638236758e-05 2.73735115178e-05)
(-0.000706839232506 9.46486583942e-05 -9.40487163054e-05)
(-0.000728215682314 0.00016130150638 -0.000133275832753)
(-0.000501559686394 -6.51342305596e-05 -1.91230090428e-05)
(-0.000609579307816 7.6455368903e-05 -0.000163134119595)
(-0.000652192908001 0.000141215811502 -0.000214235054917)
(-0.000299243830881 -4.13203102582e-05 -4.15354309107e-05)
(-0.000430528478876 7.61369857949e-05 -0.000209620939839)
(-0.000509620739543 0.000127734448954 -0.000277628970059)
(-0.000101275490647 4.03834430861e-06 -2.60081514174e-05)
(-0.000176175137857 8.81394312895e-05 -0.000179440398008)
(-0.000293965364397 0.000110832331709 -0.0002852476186)
(5.81028689248e-06 0.000118706111091 -2.6550601074e-05)
(-8.06594545193e-05 8.89875730353e-05 -0.000219505466503)
(0.000101013370297 0.000194901668299 -0.000195170221379)
(-3.52776262576e-05 0.000327024397667 -5.50433493493e-05)
(0.000118402851348 0.000314620931442 -0.000311957772174)
(0.000387370747324 0.000193343302417 -0.000366513326938)
(0.000227271104665 0.00034145180671 -0.000366767132872)
(0.000395095782587 0.000358600348613 -0.00054695465625)
(0.000662075106428 0.000202987284175 -0.00037277411434)
(0.000548219261985 0.000347116543094 -0.000418417314971)
(0.000644309766813 0.000392615461979 -0.000554457789341)
(0.000830470453425 0.000223235383222 -0.000301402579742)
(0.00076667407003 0.00035174976982 -0.000348052217842)
(0.000799934110391 0.000422424239169 -0.000452214272773)
(0.000875705738337 0.000246253494931 -0.000209985931166)
(0.000867755858783 0.000359524871953 -0.000244017708143)
(0.000862601143807 0.000448535454282 -0.000318216046996)
(0.000822905781632 0.000249707055626 -0.00012654361904)
(0.000845117165587 0.000356324563961 -0.000145524765862)
(0.000827906635739 0.000458752906497 -0.000190411209853)
(0.000698648997113 0.000241506049468 -5.92395527496e-05)
(0.000752252921955 0.000323228572255 -7.06597535494e-05)
(0.000735593912138 0.00044225415071 -8.72311258579e-05)
(0.000528204862046 0.000241932447271 -1.05493747805e-05)
(0.000607422525025 0.000301509109082 -1.5249511852e-05)
(0.000593967179041 0.00043290018227 -7.46113155869e-06)
(0.000327958009989 0.000246085046318 1.61380088265e-05)
(0.000422473829549 0.000295324379839 1.76045613211e-05)
(0.000414326640969 0.000432186138893 4.28437147451e-05)
(0.000113997400902 0.00024856446559 2.4558137892e-05)
(0.000219148014406 0.000295480693172 3.11203817873e-05)
(0.000216885859194 0.000433520188467 6.48750123386e-05)
(-0.000101348563732 0.000248135176846 1.79361891719e-05)
(1.03575610342e-05 0.000296912387867 3.18965584365e-05)
(1.33757963421e-05 0.000434807070337 6.58436551181e-05)
(-0.000306124720467 0.000245965983036 -6.50919479127e-06)
(-0.000195945357809 0.000299466868874 2.00108359392e-05)
(-0.000186899688533 0.000435753681604 4.61646031942e-05)
(-0.000485415153667 0.00024694661846 -5.24160677911e-05)
(-0.000387965687899 0.000307845721769 -1.07574558686e-05)
(-0.000372741020297 0.000438119058164 -4.17838645813e-07)
(-0.000622767907244 0.000256297679101 -0.000116694821747)
(-0.000544286757362 0.000330285516808 -6.29733678994e-05)
(-0.000525036882131 0.000448367883484 -7.5560142697e-05)
(-0.000696015234178 0.000255700633157 -0.000196618711983)
(-0.000652399207781 0.000364710170887 -0.000134129602865)
(-0.000632495300366 0.00046599563654 -0.000173210981124)
(-0.000679238467671 0.00023596189605 -0.000284556347419)
(-0.000699254483207 0.000372429542227 -0.000228026076046)
(-0.000690633861885 0.000459470318283 -0.000294072961885)
(-0.000547498728138 0.000217300593655 -0.000353632050392)
(-0.00063108308864 0.00036722604681 -0.000328090021222)
(-0.000659665529026 0.000435945449507 -0.000422043590364)
(-0.000314314604215 0.000207034272779 -0.000347525906937)
(-0.000453754440041 0.000363739796434 -0.000396586518114)
(-0.000543574448725 0.000407444567203 -0.000520350891043)
(-6.81110232126e-05 0.000204738065269 -0.000179982847665)
(-0.000175802695137 0.000356256657339 -0.000347579861873)
(-0.000336489803856 0.000371404445532 -0.000513859544616)
(5.20852244638e-05 0.000336498040838 -4.29304773805e-05)
(-9.8120095068e-05 0.000320888577181 -0.000285710843725)
(8.79213230492e-05 0.00046637758262 -0.000226640260843)
(-5.94815023478e-05 0.000546035445575 -3.24832730453e-05)
(0.000134996593038 0.000547209476896 -0.000304913086737)
(0.00039396860671 0.000490195501034 -0.000418671120905)
(0.0002370439649 0.000592995697233 -0.000374189346371)
(0.000430898059174 0.000583896645276 -0.000555966297569)
(0.000665308434643 0.000491870292354 -0.000393695418473)
(0.000550473502154 0.000594729466886 -0.000395043439184)
(0.000663908285657 0.000601614967736 -0.000517356848316)
(0.00081238170828 0.000483071055702 -0.000290667346243)
(0.000746452244577 0.000575877480783 -0.000294901688275)
(0.000790140413126 0.000604155256638 -0.000369844457825)
(0.000834370857883 0.00046165261586 -0.000179556542839)
(0.000815301244567 0.000541038869317 -0.000174220777684)
(0.000819540313529 0.000592752785472 -0.000202443088094)
(0.000765218108072 0.000418537575147 -8.96409003719e-05)
(0.000771014791449 0.000482234841442 -7.52452017457e-05)
(0.000765183855209 0.00056157900483 -5.60109543199e-05)
(0.000637577836755 0.000368963948125 -2.66697126519e-05)
(0.000668899484489 0.00039944070625 -1.10175325131e-05)
(0.00066123745744 0.000510457250922 5.18840367158e-05)
(0.000481224782375 0.000338215847321 1.29044242494e-05)
(0.000534636256714 0.00033377555468 2.72145785466e-05)
(0.000527382786926 0.00046520401488 0.000124314169182)
(0.000302669787422 0.000326641422615 3.25869342819e-05)
(0.000375486954182 0.000303246233762 4.45018191253e-05)
(0.000371265853642 0.000446649581011 0.000170726881309)
(0.000115087465923 0.000325113753001 3.84588023318e-05)
(0.000203212156413 0.000292022017562 5.06858059332e-05)
(0.000202426984908 0.000439744295017 0.000191111291402)
(-7.39807342901e-05 0.000329878500319 3.39712052039e-05)
(2.79314864045e-05 0.000294198483295 5.13488001151e-05)
(2.79266343304e-05 0.000441752794569 0.000191931482848)
(-0.000257086874834 0.000344401964769 1.57625748618e-05)
(-0.000147516244042 0.000309398380196 4.60004249883e-05)
(-0.000144033044288 0.000451884284547 0.0001734717969)
(-0.000423167589079 0.000376668870587 -2.1314755977e-05)
(-0.000314546590576 0.000343722416242 2.89086504176e-05)
(-0.000306429457824 0.000473519864425 0.000130662054199)
(-0.00056309146696 0.000427195642231 -8.04081490185e-05)
(-0.000460118685405 0.000408636539119 -4.69873433822e-06)
(-0.000449982822786 0.000518690355617 6.21464360342e-05)
(-0.000651444451829 0.000473316159491 -0.000165536966929)
(-0.000576295379946 0.00049252181298 -6.39244669173e-05)
(-0.000567880839053 0.000571215440617 -3.88539497782e-05)
(-0.000657446253017 0.00049841239288 -0.00027155974985)
(-0.000643220077288 0.0005554510023 -0.000157081844134)
(-0.000643979048843 0.000605965939686 -0.000176469286323)
(-0.000547819381167 0.000509425687905 -0.000371044488944)
(-0.000607219414963 0.00059345708841 -0.000272171120252)
(-0.000645320912945 0.000620322977927 -0.000335410242486)
(-0.000319732030104 0.000507709394841 -0.00039664047305)
(-0.000453639854739 0.000614122340126 -0.000369628448241)
(-0.000558889191537 0.000619573951511 -0.00047810350699)
(-5.54125220783e-05 0.00048043845857 -0.000210527491589)
(-0.00018514230936 0.000611123288065 -0.000352511399294)
(-0.00036918243573 0.000600798834003 -0.000518833541552)
(7.59125603165e-05 0.000558842494833 -2.04981829622e-05)
(-0.000113332054408 0.000558995932341 -0.000277641118004)
(8.83845518783e-05 0.000662904133493 -0.000180032358574)
(-6.33196371329e-05 0.000700354347477 1.47162713301e-05)
(0.00014903886607 0.000706543109791 -0.000241096840911)
(0.000398396429375 0.000686247035565 -0.00035056166465)
(0.000256453103352 0.000741557619728 -0.000305329560246)
(0.000460778681798 0.000717575804364 -0.000457297058957)
(0.000646792217639 0.000664856953863 -0.000296249708986)
(0.000541277041185 0.00072167018481 -0.000295085454767)
(0.000666821436643 0.000705799198177 -0.000374068002117)
(0.000758729702119 0.000616945547751 -0.000178455119715)
(0.000698611946183 0.000667263610892 -0.000180481779349)
(0.000752762615445 0.000667853691707 -0.000202207101696)
(0.000747561286706 0.000543658546174 -6.99094365903e-05)
(0.000728985625953 0.000585358120916 -6.03868145078e-05)
(0.00074189284454 0.000604701618759 -3.22128216856e-05)
(0.000660515625374 0.000448343963204 3.37816611309e-06)
(0.000660235008588 0.000474569784179 1.93091772781e-05)
(0.000660168021898 0.000515744945836 9.54755471781e-05)
(0.000536651599718 0.000356826582575 4.28667586853e-05)
(0.000557943238942 0.00034931904898 6.12861046476e-05)
(0.000546906712772 0.000414963779103 0.000174611504845)
(0.00040882886582 0.000295474354596 5.88119734221e-05)
(0.000445380073776 0.000259010638605 8.14459792622e-05)
(0.00043295176443 0.000335835657678 0.000203133179606)
(0.000264071275264 0.000265361017778 6.26006907764e-05)
(0.000320250004277 0.000204284599304 8.87595463049e-05)
(0.00031338621822 0.000289334405008 0.000244258124397)
(0.000115522988822 0.000258208817369 6.35758037164e-05)
(0.000185571573068 0.000183926592877 9.22115490882e-05)
(0.000181054055779 0.000270983482876 0.000257245134815)
(-3.46538317208e-05 0.000269960991229 6.33780198997e-05)
(4.75391511734e-05 0.000187064745389 9.30981456832e-05)
(4.82784002223e-05 0.000274035591569 0.000258016860049)
(-0.000183339202227 0.000303267607904 5.91465005442e-05)
(-9.16664598796e-05 0.00021213526391 9.04622164884e-05)
(-8.68019696299e-05 0.000297319913532 0.000246755042981)
(-0.000323446881149 0.000366087656677 4.55246720564e-05)
(-0.000225733949184 0.000267619975584 8.2752572255e-05)
(-0.00021393541786 0.000346185466886 0.000217062385107)
(-0.000457754692638 0.000458547228271 1.17849477629e-05)
(-0.000349430553032 0.000359728435004 6.71741771488e-05)
(-0.000338269040995 0.000426277730513 0.000184025031749)
(-0.000562006347381 0.000556433949282 -5.54693441219e-05)
(-0.000464625743675 0.000485921787066 3.03945862371e-05)
(-0.000462674420376 0.000527378650131 0.000111526862626)
(-0.000600230944087 0.000633326136292 -0.000157693214536)
(-0.000554148329373 0.000600006425564 -4.24252027316e-05)
(-0.000564055440613 0.000618812304078 -5.84756669648e-06)
(-0.000526038513297 0.000683846255013 -0.000270755079549)
(-0.00055612925061 0.000684936366006 -0.00015547087168)
(-0.000604384533241 0.000684648165667 -0.000165383728429)
(-0.000322448539418 0.000705721721896 -0.000325499374485)
(-0.00044207066992 0.000741384831543 -0.000266441793017)
(-0.000558178358445 0.000724682498744 -0.000330696898467)
(-5.56717271975e-05 0.000679341854797 -0.000162482090667)
(-0.000203842217424 0.000760571654528 -0.000280860758773)
(-0.000396569831012 0.000736165160363 -0.00041611923287)
(7.95262306659e-05 0.000714733350566 2.73731326697e-05)
(-0.000126244215376 0.000721185133833 -0.000211618256155)
(0.000106608621481 0.000775451065886 -0.000110580930342)
(-4.44077365606e-05 0.000753937416884 6.57681754962e-05)
(0.000168952510448 0.000797894731179 -0.000159034313382)
(0.000405234501393 0.000769763533531 -0.000249853350363)
(0.000277915575675 0.000772238275693 -0.000216646948686)
(0.000485898367376 0.000762923414332 -0.000328408734309)
(0.000611298256298 0.000715822758815 -0.00017931752513)
(0.000518593434647 0.000728605716462 -0.000187516145911)
(0.000654735429401 0.000717853301741 -0.00021206762548)
(0.00067657194304 0.000629010028705 -6.24134741417e-05)
(0.000624315448744 0.000640811750385 -7.57326612554e-05)
(0.000689027424888 0.000639624293595 -3.79377135866e-05)
(0.000629872792486 0.0005162324194 2.88317993604e-05)
(0.000615682180762 0.00052251698361 2.69291357657e-05)
(0.000631019809838 0.00052893380361 0.000110384446596)
(0.000533556020966 0.000384286735887 7.72171158125e-05)
(0.000521195798095 0.00037698550563 7.97977065822e-05)
(0.000524235597635 0.000397359535373 0.000194734063935)
(0.000428118300818 0.000264801016138 9.98653252245e-05)
(0.00042848834267 0.000226792102396 9.22674974704e-05)
(0.000421815272994 0.00026141315999 0.000228827361408)
(0.000331815049876 0.000185625441639 0.000111393552145)
(0.000346455123368 0.000118642346785 9.56497362469e-05)
(0.000335115986179 0.000163536358171 0.000237615851174)
(0.000228671899561 0.000145866518285 0.000118370404617)
(0.000261708708264 5.8011188792e-05 0.000101141853573)
(0.000252071529501 9.96382525605e-05 0.00025048845376)
(0.00011688500155 0.000137169656178 0.000121733891055)
(0.000168418272289 3.73176818701e-05 0.000106077801708)
(0.000162879467847 7.62198091545e-05 0.000259613155975)
(2.39131570593e-06 0.000152414060028 0.000120182342272)
(6.7945542811e-05 4.16558826534e-05 0.00010786032643)
(6.78110316355e-05 8.06276501705e-05 0.000261235024828)
(-0.000107503471119 0.000195858208818 0.000114068288199)
(-3.27582417672e-05 6.91194448438e-05 0.000104649433627)
(-2.7605614691e-05 0.000111220374245 0.000254273079847)
(-0.000214371449394 0.000276511691376 0.000104402077347)
(-0.00012794012171 0.000132302893368 9.93163492957e-05)
(-0.000119212399241 0.000177219628196 0.000243454860574)
(-0.000331346168106 0.000396780392131 8.5783815623e-05)
(-0.000220959935545 0.000241765522024 9.84254293901e-05)
(-0.000215398121221 0.000277452165945 0.00023598886424)
(-0.000443106586021 0.000529973764228 4.34387276275e-05)
(-0.000326197319917 0.000390949936672 9.02317493797e-05)
(-0.00032914859758 0.00041189210144 0.000207477784926)
(-0.000515578989884 0.000645133515517 -4.02028598754e-05)
(-0.000439485040648 0.00053732088516 4.49938108519e-05)
(-0.000452735822841 0.000543674296413 0.000135574598855)
(-0.000487956761022 0.000734259394649 -0.000151157585148)
(-0.000479299428482 0.000657421867383 -4.92002276243e-05)
(-0.000538401434619 0.000655924758971 2.60733256437e-08)
(-0.000327848242067 0.00078895281792 -0.000221803177305)
(-0.000417259990828 0.000746854046516 -0.000156403776415)
(-0.0005433782196 0.000736104264278 -0.000165626474757)
(-7.37467253044e-05 0.000792148223964 -9.10055354362e-05)
(-0.000224584867291 0.000789749767651 -0.000189560978942)
(-0.000419932127878 0.000781181384721 -0.000283410897186)
(6.06552368999e-05 0.000767093984665 7.92588659762e-05)
(-0.000145556051921 0.000812779647632 -0.000126323432632)
(0.000132075424352 0.000751950735424 -4.02978428475e-05)
(-2.61173493882e-05 0.000702040554568 0.000103709140903)
(0.000189634881134 0.000760883918423 -7.94209983233e-05)
(0.000400150269175 0.000734813527253 -0.000154309744234)
(0.00027974591431 0.000709531994759 -0.000135557449524)
(0.000494384789272 0.000716095034827 -0.000204812159797)
(0.000551030260107 0.000659061613241 -8.39312820361e-05)
(0.000473955499352 0.000649519803927 -0.000101106677304)
(0.000621920828915 0.000651212643312 -7.11516724409e-05)
(0.000564287444656 0.000547174818398 1.36099486522e-05)
(0.000527197659315 0.00054363924909 -5.98846807439e-06)
(0.000598218893374 0.000545376738163 8.46170518027e-05)
(0.000483604078742 0.000407553369884 7.78950429874e-05)
(0.000481919848065 0.000414808991882 7.14736001597e-05)
(0.000497658469456 0.000408604881931 0.000189190486756)
(0.000380583384188 0.000253687807926 9.48480882401e-05)
(0.000366742237761 0.000261114812203 9.28778032706e-05)
(0.000369652107619 0.000254492551041 0.000219833770983)
(0.0003004498262 0.000122994493393 8.8051908493e-05)
(0.000291280105941 0.000111676683141 7.09051876545e-05)
(0.0002823403611 0.000104026596086 0.000196382110786)
(0.000244908035319 4.03484175823e-05 8.53980376749e-05)
(0.000246179747367 4.63394567083e-06 5.56310085807e-05)
(0.00023147303036 -5.89010178955e-06 0.000170915382614)
(0.000188258430868 3.65620060397e-06 8.88492506642e-05)
(0.000205716021475 -4.84815706343e-05 5.93312818915e-05)
(0.000192135488159 -6.60496463374e-05 0.000164754140288)
(0.000118420669942 -2.12174745455e-06 9.22042370831e-05)
(0.000152922229999 -5.85909266488e-05 6.8145658708e-05)
(0.000145377479355 -8.57434321523e-05 0.000167569567926)
(4.4558310612e-05 1.27124720045e-05 9.23274177852e-05)
(8.82416997193e-05 -5.29788221851e-05 7.12954824712e-05)
(8.88919048287e-05 -7.99807156329e-05 0.000170429970435)
(-2.15451359833e-05 5.51435070073e-05 8.98974947229e-05)
(2.48798902978e-05 -3.29147936382e-05 6.49686738034e-05)
(3.32680002511e-05 -5.07832309717e-05 0.000170021921934)
(-8.72543089891e-05 0.000140340415222 9.33397013383e-05)
(-2.78056541291e-05 2.34609124517e-05 5.97297195304e-05)
(-1.7121412274e-05 1.49655156875e-05 0.000176204750892)
(-0.000180187834409 0.000270494348615 0.000102873363147)
(-8.51286352973e-05 0.000132411469234 7.81129436595e-05)
(-7.99828644265e-05 0.000128121637721 0.000203561671655)
(-0.000297761429042 0.000422994206825 9.17868326042e-05)
(-0.000174250534318 0.000278083166881 0.000102514140967)
(-0.000179250545077 0.000273214288077 0.000231259315402)
(-0.000401757400466 0.000563025753859 3.59964431031e-05)
(-0.000305889745477 0.000431022967618 8.923015378e-05)
(-0.000321244924696 0.000425009385465 0.000210672110154)
(-0.000425389849283 0.000675740910827 -5.44464188918e-05)
(-0.000380991583291 0.000559439414224 2.0783677739e-05)
(-0.000446527652418 0.000560912134277 0.000121642848644)
(-0.000321198288524 0.000751339962328 -0.000124161578051)
(-0.000371168141013 0.000665620440554 -6.84366148103e-05)
(-0.00050841314699 0.000667758129107 -2.31465533992e-05)
(-9.87417029902e-05 0.000765852682407 -1.92965775289e-05)
(-0.000226041212161 0.000723991140159 -0.000107063310606)
(-0.00042719033217 0.000731883064722 -0.000156985095087)
(4.21764063514e-05 0.000712982692014 0.0001174238369)
(-0.00016501749108 0.000773262970845 -4.49461830383e-05)
(0.000130475459282 0.000671813670052 8.44953422643e-06)
(-1.10714850244e-05 0.00059465925027 0.000128247726826)
(0.000185875099602 0.000680715226479 -2.26609889867e-05)
(0.000365777863567 0.000634620915591 -8.23543825943e-05)
(0.000270005389393 0.000580153677932 -7.07805985587e-05)
(0.000476364033092 0.00061662341094 -0.000105646649154)
(0.00046698035613 0.000549500294942 -2.31638633421e-05)
(0.000422933231409 0.00051681466174 -4.1391508012e-05)
(0.000568856017228 0.000539911463928 3.19177569045e-05)
(0.000436419647764 0.000436748564106 5.1875183433e-05)
(0.000433430695418 0.000415011990387 2.96711782711e-05)
(0.000494409723205 0.000425774106684 0.000159756763493)
(0.000331508320263 0.000305111333353 8.64563604429e-05)
(0.000359095109727 0.0003032337863 9.02377394799e-05)
(0.000357996392105 0.000297308227767 0.000217268638346)
(0.000231002670026 0.000166304697342 6.89349026849e-05)
(0.000233791557576 0.000172697863793 8.19556733987e-05)
(0.000217161501687 0.000155303247077 0.000189975545515)
(0.000184339557502 5.27772579614e-05 3.84842877423e-05)
(0.000178058372028 5.39927968568e-05 3.63867936084e-05)
(0.000147849904813 1.85257189264e-05 0.000105721428036)
(0.000172005056956 -1.39401878895e-05 2.95642527972e-05)
(0.000170328571542 -2.54335683494e-05 1.78841073285e-05)
(0.000139517994495 -7.51457333911e-05 4.41288099195e-05)
(0.000157286542338 -4.07176150812e-05 3.86276899354e-05)
(0.000158146593994 -6.22532757371e-05 5.86862547207e-05)
(0.000146014016742 -0.000118432648451 3.05561608494e-05)
(0.000120993797238 -4.40163144431e-05 4.72369040961e-05)
(0.000140666368849 -5.90655006794e-05 3.85473456652e-05)
(0.000134881650097 -0.000128816863164 3.90854136636e-05)
(7.96923525185e-05 -2.98651232568e-05 4.39367384895e-05)
(0.000106000170125 -5.30743690947e-05 4.04258748184e-05)
(0.000107467975081 -0.000121626676507 4.38073243616e-05)
(5.32507525521e-05 4.69491380293e-06 3.4800898611e-05)
(7.37999645276e-05 -4.31663583942e-05 5.7449217095e-05)
(8.48437337327e-05 -9.89616191216e-05 3.89778532948e-05)
(3.03274906801e-05 7.47109722652e-05 4.45029618516e-05)
(4.97563864322e-05 -3.75738340906e-06 2.25925108035e-05)
(7.88130334001e-05 -4.96626891554e-05 5.20783489917e-05)
(-3.40750359994e-05 0.000187001657005 7.77537214794e-05)
(2.73426690167e-05 7.67283587881e-05 4.53820216406e-05)
(5.24899109839e-05 4.91508251089e-05 0.00012151603926)
(-0.000147789399125 0.000322581772385 9.99574621426e-05)
(-4.49679990896e-05 0.000191658042877 9.25266276788e-05)
(-3.36355229569e-05 0.000178747948937 0.000201010420478)
(-0.000274428499171 0.000452633670339 7.4017388416e-05)
(-0.000185146788078 0.000318880178088 0.000108138360348)
(-0.000185449809673 0.00031522966028 0.000239143003266)
(-0.000340678877902 0.000564797124152 6.7934818205e-06)
(-0.000287700208772 0.000429738680117 5.58655019018e-05)
(-0.000343923722567 0.000440923040189 0.000195933506839)
(-0.000286485277985 0.000648816058822 -5.13383473649e-05)
(-0.00032029912733 0.000530438480013 -7.61916067166e-06)
(-0.000454750108823 0.000554869595541 8.07501668921e-05)
(-9.75302296148e-05 0.000683343995408 2.96571038232e-05)
(-0.000216897659764 0.000591748856127 -4.16534347927e-05)
(-0.000409142657279 0.000629962008335 -5.70392467325e-05)
(2.63148302522e-05 0.0006029531368 0.000141634820903)
(-0.00016165908849 0.00069083681346 1.2167009252e-05)
(0.000140969434464 0.000527113390943 4.90175940406e-05)
(1.1656766117e-05 0.00042801500022 0.000145414459569)
(0.000193154768409 0.000535219754245 2.58647129568e-05)
(0.000342264038525 0.00048628138008 -2.98177239763e-05)
(0.000268114977216 0.00040884977631 -2.43857496177e-05)
(0.00046493847383 0.00047224512808 -2.99270771382e-05)
(0.000400499804805 0.000410686027375 1.14435336013e-05)
(0.000389313822624 0.000358213315428 -4.53386092433e-06)
(0.000522269476747 0.000402878714259 0.000100608996531)
(0.000342095030039 0.000319142742131 6.80337343178e-05)
(0.000369215327636 0.000281509438141 4.23539939928e-05)
(0.000411505485565 0.000306108521222 0.000192366745485)
(0.000219303113228 0.000218347946785 8.57370524357e-05)
(0.000276633425149 0.000203779195362 9.86453788029e-05)
(0.000252579986086 0.000207136962313 0.000223000443406)
(0.0001214922015 0.000116267634553 4.94075643221e-05)
(0.000148115194331 0.00011588314731 7.63350413912e-05)
(0.000100849879294 0.000100325509054 0.000155736836537)
(0.000105556298121 3.89878515294e-05 1.57866131944e-05)
(0.000109899155943 4.10940014391e-05 2.59016903181e-05)
(5.17066064471e-05 4.81480587576e-06 3.03567300513e-05)
(0.000125252635839 -1.58216713792e-05 4.70061092516e-05)
(0.000114821177809 -8.37273710131e-06 4.86595531331e-05)
(8.37490029805e-05 -5.29428713045e-05 -3.48022826688e-05)
(0.000123094003196 -3.27920962352e-05 5.86059104502e-05)
(0.000133393121216 -4.26980389173e-05 3.51306778337e-05)
(0.000116175194438 -8.31747340611e-05 -1.50499211822e-05)
(0.000123001231672 -2.07060994318e-05 3.17363163877e-05)
(0.000133425014633 -3.44835248243e-05 -5.99696265e-06)
(0.0001313731328 -7.5823570024e-05 -2.18716051924e-05)
(0.000115131423185 -1.69701694188e-05 5.39383534237e-05)
(0.000118024000525 -2.78654329857e-05 -4.37863376748e-06)
(0.000122174967818 -6.74554129737e-05 -1.46547302487e-05)
(0.000102407667151 6.5523633288e-06 4.52408292877e-05)
(0.000100292393346 -2.3723577864e-05 3.21750946232e-05)
(0.000120344989648 -5.95941554631e-05 -4.22334531692e-06)
(0.000110777379757 6.00713080469e-05 2.34715705924e-05)
(0.000102321574239 1.07790791366e-05 4.3341131532e-05)
(0.00013976442035 -2.71649397725e-05 -2.08412892319e-05)
(7.23236794379e-05 0.000136088713996 6.01549278399e-05)
(9.55527277548e-05 5.8729793295e-05 3.65907649707e-05)
(0.00014874266509 3.23287996868e-05 5.79348833379e-05)
(-3.96624201915e-05 0.000234779016203 0.000100707525884)
(3.74646482375e-05 0.000131038081 8.92978730938e-05)
(7.55022853856e-05 0.000122935386831 0.000173477470815)
(-0.000181930284988 0.000333295088933 8.99864738338e-05)
(-0.0001055605884 0.000216051418617 0.000117752545481)
(-8.61055953366e-05 0.000223431513891 0.00024543988945)
(-0.000275321834013 0.000423561284921 4.14528594096e-05)
(-0.000224713237965 0.00029326508014 7.03238119173e-05)
(-0.000263114720463 0.000320533758367 0.000229843516749)
(-0.000264063361098 0.000497261637906 2.06575190053e-06)
(-0.000288215352723 0.000368224264473 3.04656720365e-05)
(-0.000409011438074 0.00041549816167 0.000150745295704)
(-0.000109083502783 0.0005355471919 7.03242822868e-05)
(-0.000216375793136 0.000416790916064 5.22692835893e-06)
(-0.000398880847915 0.000482384815603 1.97205842869e-05)
(2.57939954654e-06 0.000433455641614 0.000158232770539)
(-0.000169659720215 0.000542377659435 6.01376742082e-05)
(0.000153349436142 0.000331772831586 7.20111159101e-05)
(2.82134761305e-05 0.000223360446734 0.000151590600149)
(0.000201730440193 0.000337511753717 5.13174038818e-05)
(0.000332700488369 0.000302360161836 8.98113434239e-07)
(0.00026945148681 0.000212146731455 7.27201747776e-07)
(0.000461217942768 0.000294426034137 1.72517913057e-05)
(0.000364953162386 0.000251593932972 2.63765994673e-05)
(0.000373723316948 0.00018350024443 1.31857089441e-05)
(0.000498117895235 0.000248305571366 0.00014255716945)
(0.000285772709615 0.00019336387499 7.29656384779e-05)
(0.000335398673228 0.000141477739635 4.41385835884e-05)
(0.000361143643588 0.000186186739021 0.000219560323527)
(0.000155909384657 0.000132948227154 8.92433677585e-05)
(0.000233608061179 0.000103243726781 0.000103370341549)
(0.000186399025168 0.00012479877985 0.000231077656389)
(6.59319637076e-05 7.45503989972e-05 5.28291673873e-05)
(0.000107393252619 6.04455829793e-05 7.78364123824e-05)
(3.65868201522e-05 6.25151954515e-05 0.000146496504209)
(6.63845153059e-05 2.34067736942e-05 5.87746302567e-05)
(7.88101360579e-05 2.5592107038e-05 3.38699890574e-05)
(5.26996318191e-06 1.26413821381e-05 1.65866456942e-05)
(8.96715815308e-05 -3.54482595705e-06 3.67841217151e-05)
(9.25777730638e-05 -1.33241698009e-05 6.11062932266e-05)
(5.13637346969e-05 -2.32349265962e-05 -1.6332635259e-05)
(0.000116031936564 -1.18217779944e-06 -2.94721952663e-05)
(0.000133905567519 -2.22582420343e-05 -3.15832859962e-05)
(0.000113579556978 -2.80372251353e-05 -4.43877075701e-05)
(0.000125309952975 5.9613942413e-06 -4.2111912805e-05)
(0.000134647171115 -1.48688446283e-05 -5.0354176891e-05)
(0.000133068373232 -2.19808052483e-05 -2.62065483546e-05)
(0.000125406810874 9.12881167945e-06 -2.6141892568e-05)
(0.000121524929549 -1.08175060887e-05 -4.63361123932e-05)
(0.000130416017018 -1.58390999362e-05 -1.441719093e-05)
(0.000134652428103 1.40361426961e-05 3.02753968675e-05)
(0.000103028369918 -1.12037471995e-05 -2.61309775562e-05)
(0.000129862212046 -1.14190601182e-05 -1.92720355257e-05)
(0.000148113602489 4.03844774188e-05 5.64603259101e-05)
(0.00012225864738 -6.89170568502e-08 4.96216961221e-05)
(0.000170591544349 -2.48330175498e-06 -5.92272571688e-07)
(0.000125301826408 8.74430941388e-05 6.57337102248e-05)
(0.000126978713481 3.38938450525e-05 4.62600053281e-05)
(0.000194145614056 2.93166657974e-05 4.90601717972e-05)