/*--------------------------------*- C++ -*----------------------------------*\
| =========                 |                                                 |
| \\      /  F ield         | OpenFOAM: The Open Source CFD Toolbox           |
|  \\    /   O peration     | Version:  3.0.1                                 |
|   \\  /    A nd           | Web:      www.OpenFOAM.org                      |
|    \\/     M anipulation  |                                                 |
\*---------------------------------------------------------------------------*/
FoamFile
{
    version     2.0;
    format      ascii;
    class       volScalarField;
    location    "5.1";
    object      k;
}
// * * * * * * * * * * * * * * * * * * * * * * * * * * * * * * * * * * * * * //

dimensions      [0 2 -2 0 0 0 0];

internalField   nonuniform List<scalar> 
7968
(
0.000549055600828
0.000631755116604
0.000696624431895
0.000737158721946
0.000760015918083
0.000770497043938
0.000773078154634
0.000770957608743
0.000767159388618
0.000763816866003
0.000763669001386
0.000766890443443
0.000770663012166
0.000772814360175
0.000770310969818
0.00075994053053
0.000737196680389
0.000696746548311
0.000631886031061
0.000549135706992
0.000631816954037
0.000944544897062
0.00114841037703
0.00126521872053
0.0013246093694
0.00134656139457
0.00134738931683
0.00133834064883
0.00132838492217
0.00132227930466
0.00132198984071
0.00132763136639
0.00133732562557
0.00134633014139
0.00134561249642
0.00132385845619
0.00126469241549
0.00114813722323
0.000944461412799
0.000631816092006
0.000696828853698
0.00114855056869
0.00143509021228
0.00159814692463
0.00168106826721
0.00171213027535
0.00171362363346
0.00170243779339
0.0016904724112
0.00168338515508
0.00168291757734
0.00168924863531
0.0017007971932
0.00171193166827
0.0017105869074
0.00167975012737
0.00159708832153
0.00143435330321
0.0011481507902
0.000696678983777
0.000737421675053
0.00126548082488
0.00159826713669
0.00178479701116
0.00187600419346
0.00190605783756
0.00190276332478
0.00188669599489
0.00187216475943
0.00186421795065
0.00186354867763
0.00187041925089
0.00188437413839
0.00190048980296
0.00190404152077
0.00187421505503
0.0017832160831
0.00159701325405
0.00126465819848
0.000737039183113
0.000760322392179
0.00132486375084
0.00168120961993
0.00187599231463
0.00196355118343
0.00198554847344
0.00199678769324
0.00199439951418
0.00198646048772
0.00198052437854
0.00197986085429
0.00198479260738
0.00199229724853
0.00199476043748
0.00198339714767
0.00196160402767
0.00187409530256
0.00167952661627
0.0013236261695
0.00075968629244
0.00077082194774
0.0013467899703
0.00171215814411
0.00190578139137
0.00198517413147
0.0020356520565
0.00205525201763
0.00205406152911
0.00204535786748
0.002038441285
0.00203761315
0.00204332206713
0.00205161137554
0.00205307255906
0.00203387997158
0.00198351372807
0.00190395871974
0.00171032437818
0.00134534984053
0.00076999786435
0.000773383774368
0.00134751488163
0.00171341697776
0.00190204160963
0.00199628553626
0.0020549783718
0.00207424442487
0.00206947224377
0.00205693349066
0.00204753135499
0.00204648167366
0.00205439064199
0.00206649463685
0.00207175197649
0.00205318645537
0.00199494415554
0.00190055063493
0.00171167309925
0.00134601849638
0.000772476167109
0.000771215571963
0.00133835756445
0.0017020526381
0.00188567479415
0.00199372886158
0.00205363815292
0.00206934389162
0.00205885033279
0.00204077322175
0.0020278511716
0.0020265712286
0.00203770514987
0.00205526920601
0.00206642168099
0.00205166813066
0.00199244043243
0.00188444976866
0.00170046184328
0.00133692279711
0.0007703029356
0.000767362437644
0.0013283690161
0.00169011627892
0.00187130889842
0.00198593719441
0.00204516190303
0.00205713904527
0.00204117758835
0.00201722966502
0.0019997736213
0.00199826280273
0.00201365703666
0.00203705185238
0.0020537534976
0.00204291777107
0.00198454830512
0.00187009678086
0.00168859128344
0.00132700431979
0.000766474144901
0.000763975852792
0.00132231171442
0.00168322593654
0.00186381213457
0.00198042056499
0.00203881849973
0.00204849433947
0.00202914859226
0.00200073833618
0.00197938950652
0.00197770109
0.00199682161688
0.00202463778092
0.0020447673518
0.00203633177355
0.00197888013114
0.00186245177228
0.00168167376568
0.00132095526528
0.00076307768483
0.000763814616142
0.00132211675364
0.00168301038016
0.00186359758658
0.00198021843703
0.00203861883701
0.0020482817057
0.00202889979478
0.00200042327729
0.00197900072446
0.00197730106799
0.00199648651469
0.00202436931565
0.00204453471141
0.00203610959369
0.00197864829832
0.00186218226505
0.00168139253039
0.00132069457561
0.000762865387831
0.000767031466164
0.00132783226567
0.00168949963196
0.00187067551266
0.00198536029325
0.00204459786964
0.00205655072895
0.00204051809577
0.00201644963429
0.00199887388877
0.00199734091872
0.00201283581342
0.00203635070707
0.0020531201215
0.00204229879983
0.0019838947056
0.00186932099624
0.00168780953658
0.00132630827284
0.000766040726238
0.000770806147334
0.00133754277123
0.00170106883876
0.00188460027651
0.00199278929174
0.0020527189812
0.0020683881063
0.0020578040445
0.00203962206818
0.00202659855181
0.00202529823575
0.00203651277581
0.00205417519127
0.00206540874447
0.00205067332978
0.00199139127611
0.00188317772084
0.00169925672022
0.00133589879174
0.00076977119827
0.000772964013871
0.00134653924372
0.00171217775242
0.00190061616978
0.00199502010769
0.00205374833626
0.00207297121933
0.0020681049105
0.00205546331421
0.00204598449789
0.00204491537193
0.00205287592643
0.00206506777144
0.00207040326067
0.00205185671511
0.00199353821085
0.00189889635549
0.00171018207727
0.00134480563663
0.00077192986464
0.000770456951071
0.00134580242215
0.0017108371509
0.00190418655716
0.00198335265433
0.00203410897699
0.00205374364804
0.0020524660018
0.0020436751801
0.00203669842658
0.00203584862844
0.00204158328004
0.00204993278433
0.00205145778203
0.0020321947606
0.00198147838063
0.00190210266059
0.00170872123022
0.00134410216299
0.000769512051785
0.000760059279035
0.00132398479626
0.00167999236357
0.00187445503302
0.00196165645349
0.00198337625469
0.00199503453756
0.00199257111485
0.00198456682611
0.00197858045951
0.00197788994719
0.00198282226316
0.00199034761234
0.00199284900602
0.00198099084803
0.00195943750831
0.00187225859254
0.00167800253306
0.00132248955216
0.000759314031867
0.000737285516289
0.00126484598121
0.0015973312251
0.00178353720523
0.00187436864232
0.00190404172925
0.00190040778378
0.00188409751986
0.00186952442447
0.00186154323129
0.00186082937347
0.00186764511899
0.00188156931881
0.00189786293023
0.00190172757798
0.00187225361354
0.00178161760081
0.00159575376611
0.00126376411392
0.000736807331204
0.000696798191016
0.00114821527491
0.00143453643161
0.00159730487795
0.00167987895749
0.00171059556303
0.0017117861464
0.00170036507419
0.00168823890001
0.00168103836998
0.00168051552663
0.00168685979377
0.00169848224198
0.00170980124903
0.00170873109507
0.0016782127228
0.00159590535826
0.00143349510273
0.00114757586246
0.000696575363138
0.000631866372267
0.000944486936543
0.00114824668477
0.00126484833516
0.00132395313109
0.00134562557458
0.00134621650031
0.00133696772304
0.00132684931893
0.00132062742363
0.00132028426625
0.00132595231884
0.00133573569236
0.00134490021899
0.00134439783914
0.00132290214627
0.00126405513298
0.00114773100105
0.000944223660721
0.000631821091968
0.000549091126982
0.000631806909941
0.000696661289137
0.000737134553647
0.000759883516864
0.000770235877918
0.000772701435873
0.000770473332304
0.000766578540183
0.00076315148713
0.000762958299701
0.000766213418447
0.000770052209474
0.000772299898298
0.000769913029292
0.000759679172032
0.00073706470935
0.000696696759963
0.00063187853139
0.000549148132868
0.000620320962898
0.000880967609571
0.00106800325592
0.00118539096027
0.00125384718882
0.00128866192012
0.0013018497368
0.00130283952987
0.00129926015423
0.00129607003235
0.00129583553526
0.0012986521801
0.00130201335513
0.00130095691356
0.00128781497427
0.00125312102391
0.00118483302725
0.00106763741848
0.000880801252844
0.000620408247001
0.000881101551529
0.00176693180229
0.00223467757999
0.00250980983338
0.00266082818599
0.00273051458454
0.0027514167767
0.0027471674554
0.00273555105213
0.00272706765849
0.00272644010049
0.00273386272271
0.00274477213601
0.00274868391459
0.00272768376592
0.0026580032899
0.00250711764177
0.00223227926619
0.00176510807136
0.0008805386036
0.00106827911822
0.00223490831761
0.00285034128079
0.00322024788323
0.00343091908954
0.00353492387183
0.00357257344733
0.00357537281778
0.00356625214831
0.00355827045143
0.00355740556663
0.00356392781924
0.00357209501805
0.00356891517325
0.00353120848407
0.00342723457734
0.00321667264651
0.00284707693445
0.00223234860177
0.00106731435675
0.00118576255988
0.00251024785248
0.00322048355294
0.00365150594762
0.00390021037461
0.00402600677074
0.00407369319818
0.00408085961299
0.00407652057118
0.00407076546501
0.00406972825093
0.00407372973498
0.00407682305493
0.00406926045929
0.00402173099922
0.00389601683751
0.00364735352164
0.00321656738169
0.00250708027246
0.00118445219492
0.0012542740496
0.00266136696339
0.00343124969175
0.00390026878864
0.00417164860078
0.00431212737405
0.00436329813355
0.00436813230836
0.00435796825727
0.00434877498057
0.00434722117654
0.00435389978582
0.00436279850868
0.0043580478712
0.00430770331303
0.00416733316835
0.00389590767661
0.00342698277473
0.00265780678371
0.00125266887726
0.0012890807143
0.00273097804949
0.00353512834809
0.0040258280946
0.0043119039762
0.00444747204703
0.00449042749584
0.00448727447715
0.00447028565034
0.004457160965
0.00445506739625
0.0044648664586
0.00448044632217
0.00448412724051
0.0044424141101
0.00430777969746
0.00402164971457
0.00353088331239
0.00272734859404
0.00128730105099
0.00130220091419
0.00275170768203
0.00357251811702
0.00407311199523
0.00436252293372
0.00448997440841
0.00452229885627
0.00450823717627
0.00448252740692
0.00446450409193
0.0044618418147
0.00447564465325
0.00449964190866
0.00451467114218
0.00448424365619
0.00435825060715
0.00406923250171
0.00356852578562
0.00274823420035
0.00130039127535
0.00130310741994
0.00274733787852
0.00357519261081
0.00408022280815
0.00436727926082
0.00448684445783
0.00450839195301
0.00448254393493
0.00444774917463
0.00442522153933
0.0044220731661
0.00443958937895
0.00447210208851
0.00449916704617
0.00448017655914
0.0043627015317
0.00407654143973
0.00357142368645
0.00274407347447
0.00130135664912
0.00129947379894
0.00273577113351
0.00356626456001
0.0040763976937
0.00435782995279
0.00447092864961
0.00448416664175
0.00444948310611
0.00440804929034
0.00437995880855
0.00437636976679
0.00439871137531
0.00443760819406
0.00447343298171
0.00446320924622
0.00435271985782
0.00407262750515
0.00356255624936
0.00273263386986
0.00129779783559
0.00129627974018
0.00272749473788
0.00355869565057
0.00407131287817
0.004349855698
0.00445962246001
0.00446853484251
0.00442970950234
0.00438287865789
0.00435098282656
0.00434714703059
0.00437286133611
0.00441685671388
0.00445682458813
0.004451151505
0.00434429553639
0.00406736906484
0.00355493554531
0.0027243737648
0.00129462835398
0.00129609566831
0.00272714718483
0.00355830528945
0.00407094365131
0.00434950751237
0.00445930421528
0.00446822988247
0.0044293917287
0.00438250440615
0.00435055543819
0.00434670772386
0.00437246327105
0.00441651534073
0.00445649363823
0.00445080360078
0.00434391432691
0.00406696531224
0.00355448966871
0.00272396599461
0.00129439429951
0.00129897431744
0.00273476979744
0.00356512972235
0.00407531241617
0.00435679252536
0.00446997000042
0.00448325917224
0.00444858112257
0.00440705947154
0.00437887087757
0.00437525379512
0.00439766662998
0.00443665436903
0.00447246803298
0.004462178031
0.00435159354127
0.00407144825098
0.00356127963308
0.00273148636929
0.00129718017193
0.00130237643896
0.00274574836527
0.00357336255871
0.00407840605791
0.00436551574596
0.00448515823533
0.00450675978617
0.00448090002367
0.00444612308525
0.00442351915536
0.00442034424095
0.00443791042873
0.00447040168631
0.00449746821887
0.00447839409738
0.00436080728182
0.00407458199622
0.00356939793636
0.00274229246768
0.00130047506282
0.00130135326029
0.00274967319629
0.00357013425126
0.00407064210746
0.00436011801371
0.00448756187533
0.00451986942349
0.00450577546109
0.00448002662332
0.00446195743119
0.00445926838725
0.00447308541704
0.0044971063922
0.00451214556026
0.00448170167863
0.0043556761858
0.00406655297867
0.00356590623387
0.00274598040574
0.0012993802589
0.00128823638483
0.00272870660819
0.00353242491409
0.00402297712186
0.00430922265979
0.00444455924134
0.00448733827512
0.00448409421543
0.00446706781538
0.00445390974276
0.00445178524998
0.00446156898537
0.00447715049179
0.00448089091262
0.00443932807518
0.0043048974436
0.00401853931079
0.00352789550569
0.00272482363571
0.00128628789465
0.00125353961295
0.0026590709887
0.0034284945916
0.00389726751657
0.00416853196227
0.00430917948597
0.00435985252363
0.004364538849
0.00435438260392
0.00434515850121
0.00434356916947
0.00435021341735
0.00435905365998
0.00435439299079
0.00430453345804
0.00416393426064
0.00389257702624
0.00342388228443
0.00265520854837
0.00125176358554
0.00118521907664
0.00250819688362
0.00321797453835
0.0036486827516
0.00389712675454
0.00402272102517
0.00407017428743
0.00407746146341
0.00407342173289
0.00406769457274
0.00406661996967
0.00407053057022
0.00407334883254
0.00406547463916
0.0040181302931
0.00389257122637
0.00364413338866
0.00321365872466
0.00250468693555
0.00118374262351
0.00106795568978
0.0022332983563
0.00284832890866
0.00321789604892
0.00342824853046
0.00353197380577
0.00356938945405
0.00357203989269
0.00356285054929
0.00355478298873
0.00355386287693
0.00356036922982
0.00356852065236
0.00356541613805
0.00352789774039
0.0034241635922
0.00321389853528
0.00284464886079
0.00223038695268
0.00106684229229
0.000880994541692
0.00176593979571
0.00223338336763
0.00250821516116
0.00265892329443
0.00272833052125
0.00274900687923
0.00274457888956
0.00273281669808
0.00272422030643
0.00272353742919
0.00273097514681
0.00274194635584
0.00274598512406
0.00272517614747
0.0026557448902
0.0025051550884
0.00223062608307
0.00176380980768
0.000880323507472
0.000620353846674
0.00088074737051
0.00106762740449
0.0011848710829
0.00125315898153
0.00128779403065
0.00130081695611
0.00130165613207
0.00129794066079
0.00129464616286
0.00129436800516
0.00129721799284
0.00130066259039
0.00129973351446
0.00128674964831
0.00125223782863
0.00118413190136
0.0010671003193
0.000880459221079
0.000620414037511
0.000676654342126
0.00104570479528
0.00130902824839
0.00147629181547
0.00157651007722
0.00163065891759
0.00165496884105
0.00166223699896
0.00166225666308
0.00166088322561
0.0016605543665
0.0016613556982
0.00166093312505
0.00165344679273
0.00162907806885
0.00157499550001
0.00147495141936
0.00130796627559
0.00104506360657
0.000676751588163
0.00104592861533
0.00217425666017
0.00277474822501
0.0031378578039
0.00334724198748
0.00345403391038
0.00349699442967
0.00350531824286
0.00350023151838
0.00349441855653
0.00349349727898
0.00349769637047
0.00350163560973
0.00349263048915
0.0034493115865
0.00334233453755
0.00313297701066
0.00277018636926
0.00217052270199
0.00104463122181
0.00130942080749
0.0027750592556
0.00354806252416
0.00402462772483
0.00430984005069
0.00446442586906
0.00453475576599
0.00455764047746
0.00455863655039
0.00455451121593
0.00455329629953
0.00455533160986
0.00455296273851
0.00452935678672
0.00445873646557
0.00430400924442
0.00401874995961
0.00354239674137
0.00277021599529
0.00130739641769
0.00147681707762
0.00313848436324
0.00402498197751
0.0045765465983
0.00491252509822
0.00510033373703
0.00519036625416
0.0052276243624
0.00523412088464
0.00523155583542
0.00523000729334
0.00522995919227
0.00522194936488
0.00518398628788
0.00509390911295
0.00490611550205
0.00457004824414
0.0040185541233
0.0031328179608
0.00147429031467
0.00157712456106
0.00334808715343
0.0043104307756
0.00491272948166
0.00528323312213
0.00549519958456
0.00559431007222
0.00562910957393
0.00563319523814
0.00562886813935
0.00562678242187
0.00562756111307
0.00562117978631
0.00558592908637
0.00548777103613
0.00527637390698
0.00490588467767
0.0043035411022
0.00334188863569
0.00157421173057
0.00163128513269
0.00345491007691
0.00446504239032
0.0051004849364
0.00549516071924
0.00571100833862
0.00580808248412
0.00583592687007
0.00583313658929
0.00582464418518
0.00582188714252
0.00582556023151
0.00582460008662
0.00579560124329
0.00570090846013
0.00548760935886
0.00509351864279
0.00445802180136
0.00344857030355
0.0016281603307
0.00165552578183
0.00349778107854
0.00453528787526
0.00519045381801
0.00559443767084
0.00580917185833
0.00589824022463
0.00591458450693
0.00590166331534
0.00588734460017
0.00588395187186
0.00589211578457
0.00589940734871
0.00588026914125
0.00579437590522
0.00558528463733
0.00518330761616
0.00452832890402
0.00349157124967
0.00165238803919
0.00166270177123
0.0035060759798
0.00455825926608
0.00522812745276
0.00563045783426
0.00583996901785
0.0059185392851
0.00592183435277
0.00589756318073
0.00587661895694
0.00587267788209
0.00588629236518
0.0059033604386
0.00589577674445
0.00582047268393
0.00561902141768
0.00522044952393
0.00455130150497
0.00350006728563
0.0016596878782
0.00166266183369
0.00350115145102
0.00455963507047
0.00523539891332
0.00563642807896
0.00584051217986
0.00591005628073
0.00590250121232
0.00586821847613
0.00584128075809
0.00583689147839
0.00585552514711
0.00588153147183
0.00588415617857
0.00581803177055
0.00562312312693
0.00522698196204
0.00455253225314
0.00349526272994
0.00165980797054
0.00166129875856
0.00349569654696
0.00455617631468
0.00523399623782
0.00563406405161
0.00583494221944
0.00589943615606
0.00588571681163
0.00584563079959
0.00581506526934
0.00581040688462
0.00583210713987
0.00586339318888
0.00587198021617
0.00581106979221
0.00561981407817
0.00522508848343
0.00454890934805
0.00348981330106
0.00165852692152
0.00166107283218
0.00349522996113
0.00455569182396
0.00523357755617
0.00563372631301
0.00583467929933
0.00589921411715
0.00588548539461
0.0058453618336
0.00581476349113
0.00581009971081
0.0058318290224
0.00586314979152
0.00587174587864
0.00581079147778
0.00561945137473
0.00522463255089
0.00454836980289
0.00348927834839
0.00165824246224
0.00166200679628
0.0034997714029
0.00455820778705
0.00523416361271
0.00563541923394
0.00583973364082
0.00590943147062
0.00590191146209
0.00586758879803
0.00584060353339
0.00583620965491
0.00585487519486
0.00588091489927
0.00588350720982
0.00581721231745
0.00562204778281
0.00522565022768
0.00455097131807
0.00349372768998
0.00165901788125
0.001661686418
0.00350384600559
0.00455594877968
0.00522610636755
0.00562877488707
0.00583871290868
0.0059176635156
0.00592116441097
0.00589694354162
0.00587598748755
0.00587203468681
0.00588563361289
0.00590263592361
0.00589484918908
0.00581914344977
0.00561723487542
0.00521829100009
0.00454881991425
0.00349765047592
0.00165850290999
0.00165428297608
0.00349486645606
0.00453222221222
0.00518763488212
0.00559202130699
0.00580731914738
0.00589700344081
0.00591375879696
0.0059009956624
0.0058867001135
0.00588328939384
0.00589139523188
0.00589850216825
0.00587893526773
0.00579240768639
0.00558272497775
0.00518031949588
0.00452506231579
0.00348845075362
0.00165095946941
0.00162997651236
0.00345157370295
0.00446146804996
0.00509705788925
0.00549204576185
0.0057082956867
0.00580591518907
0.00583420853952
0.00583159405175
0.00582312639245
0.00582034428092
0.00582394653193
0.00582277075515
0.00579329546657
0.00569803229078
0.00548430335059
0.00508987159968
0.00445419309948
0.00344498550409
0.00162665138212
0.001575903377
0.00334462450589
0.00430666214866
0.00490897678614
0.00527959618396
0.00549175562053
0.00559104049051
0.00562605658759
0.00563018781133
0.00562583715304
0.00562371624323
0.00562445424083
0.00561796424595
0.00558246700388
0.00548410212356
0.00527248225384
0.00490183169678
0.00429943812407
0.00333810768828
0.00157277644304
0.00147580824894
0.00313524005971
0.00402135327217
0.00457278342913
0.0049086978341
0.00509648234014
0.00518657216277
0.00522401850756
0.00523032456595
0.00522765736588
0.00522606005195
0.00522601672849
0.00521806047309
0.00517995938513
0.00508975699544
0.00490194157321
0.00456589187669
0.00401450626808
0.00312918670227
0.00147306116336
0.0013086997843
0.00277231071559
0.00354488058921
0.00402117221598
0.00430616100422
0.00446056611248
0.00453076981772
0.00455356360313
0.0045543843367
0.00455012618658
0.00454884823225
0.00455090120603
0.00454860543857
0.00452503980465
0.00445450149999
0.00429991121345
0.004014839342
0.00353874608531
0.00276704708289
0.00130646830414
0.00104555378685
0.00217229614121
0.00277236260337
0.00313512685437
0.00334418658464
0.00345070416268
0.00349345182388
0.00350160253639
0.00349633656043
0.00349038534023
0.00348939785532
0.00349361847737
0.00349763727384
0.00348875288962
0.00344561105411
0.00333887184354
0.0031298124508
0.00276736405265
0.00216817803272
0.00104409796755
0.000676683457063
0.00104514133868
0.00130815699303
0.00147519998768
0.00157519661056
0.00162912266242
0.00165323115273
0.00166032324629
0.00166018439324
0.00165869616182
0.00165831649276
0.00165914599079
0.00165881186935
0.0016514710431
0.00162729284702
0.00157343136789
0.00147361791308
0.00130687568804
0.00104433437628
0.000676751967119
0.000717640931766
0.001168440942
0.00148679693617
0.00169031307822
0.0018152102839
0.00188627450661
0.00192226525344
0.00193768892555
0.00194325175881
0.00194483465393
0.00194446085685
0.00194218597282
0.00193608397932
0.00192028717343
0.00188409373068
0.00181301089113
0.00168828442879
0.00148512320971
0.00116736651961
0.00071778323821
0.00116880517816
0.00248142856451
0.00318028656485
0.00361087610823
0.00386817445696
0.00400863723488
0.00407488450208
0.00409901217077
0.00410411793931
0.00410343853332
0.00410227877455
0.00410085466069
0.00409416764722
0.0040690074255
0.00400212531538
0.00386129064592
0.00360391957294
0.00317364691726
0.00247575311372
0.0011666946759
0.00148737847217
0.00318070388217
0.0040675689549
0.00462101150432
0.0049618169283
0.00515654880772
0.00525547252691
0.00529688151346
0.00530905992014
0.00531009564791
0.00530850872025
0.00530468412933
0.00529061142928
0.00524825350184
0.00514892926651
0.00495398913216
0.00461304661274
0.00405969872885
0.00317359390573
0.00148421460671
0.00169107745565
0.00361177305772
0.00462154246684
0.00525388165403
0.00564871835891
0.00588022970253
0.00600346052788
0.00605666652503
0.00607269773673
0.00607421829436
0.00607203267023
0.00606666221455
0.00604760072281
0.00599314524204
0.00587068381303
0.00563994467011
0.00524505049658
0.00461264605401
0.00360347134252
0.00168719135754
0.00181612884846
0.00386950445633
0.00496281858679
0.00564914201137
0.00608154629932
0.0063389258955
0.00646983977761
0.00652271439386
0.00653584524154
0.00653484325158
0.00653180691693
0.00652714860486
0.00650855015634
0.006452246543
0.00632284375921
0.00606998453664
0.00563947281566
0.00495304780106
0.003860264037
0.00181166674116
0.00188726057233
0.00401023418835
0.00515784527391
0.0058809705852
0.00634053642485
0.00660550320081
0.00673392359361
0.00677858442602
0.00678331842949
0.00677712367134
0.00677321647563
0.00677157833353
0.0067580245372
0.00670604193483
0.00657781917317
0.00632132217573
0.00586967472932
0.00514742918585
0.00400047690653
0.00188247423573
0.00192319313925
0.00407657906338
0.00525696217607
0.00600573461772
0.00647650792197
0.00674067453222
0.00685920557415
0.00689007422227
0.00688297095379
0.00687020535545
0.00686573608006
0.00686899107201
0.00686392239238
0.0068212563273
0.00670021808432
0.00644632242763
0.00599053925117
0.00524606329893
0.00406669079466
0.00191840434172
0.00193848622042
0.00410081077796
0.00529871487841
0.00606182634937
0.0065359094208
0.00679433011434
0.00690018522534
0.00691578568463
0.00689606195868
0.00687650710524
0.00687176798678
0.00688094055187
0.00688617614515
0.0068551441422
0.00674423593024
0.00649670007267
0.00604187771305
0.0052873378055
0.00409101603093
0.00193395900936
0.00194391614994
0.00410617926022
0.00531160895974
0.00608045659719
0.00655410671147
0.00680621350422
0.00690124678155
0.00690450377781
0.00687414127339
0.00684871246328
0.00684379685137
0.00685828061898
0.0068728261997
0.00685243880978
0.0067511136015
0.00651027263293
0.00605783287976
0.00529976514635
0.00409652170524
0.00193974828329
0.00194545157699
0.00410595071547
0.0053136651002
0.00608403165197
0.00655658065194
0.00680483135335
0.00689385622332
0.0068902737158
0.00685388671011
0.0068250331351
0.00681997782296
0.00683755610527
0.00685751881582
0.00684338911037
0.00674776494514
0.00651105837126
0.00606038497036
0.00530148621418
0.00409632877794
0.00194149935907
0.0019451939014
0.00410538594227
0.00531314197612
0.00608365095438
0.00655636716388
0.00680475306651
0.0068938336576
0.00689020251919
0.00685373949923
0.00682484079612
0.00681978493462
0.00683741745966
0.0068574435116
0.00684335089817
0.00674768145231
0.00651083874808
0.0060599809175
0.00530090484536
0.00409566938333
0.00194116632788
0.0019431305324
0.00410445461482
0.00531003252207
0.00607931419503
0.00655348337493
0.006806071329
0.00690136597651
0.00690460547322
0.00687411873679
0.0068486160592
0.0068437232541
0.00685828385159
0.00687292516473
0.00685252749881
0.00675094784385
0.00650963547303
0.00605663596022
0.00529805978154
0.00409460184491
0.00193879737892
0.00193722686735
0.00409797775334
0.00529612122858
0.00605998891503
0.00653500478801
0.00679440693203
0.00690096828628
0.00691681823536
0.00689707647299
0.00687746697169
0.00687273338392
0.00688194073495
0.00688715365597
0.00685583859366
0.00674424294748
0.00649575997258
0.00603996282596
0.00528459820957
0.00408796966352
0.00193249607747
0.00192161074095
0.00407284921246
0.00525349651302
0.00600324664002
0.00647524280461
0.00674094146263
0.00686077769013
0.00689237223146
0.00688547710739
0.00687271285067
0.00686822727525
0.00687142820907
0.00686609971063
0.00682268251792
0.00670038038711
0.00644497526534
0.00598794949046
0.00524243687161
0.0040627425377
0.00191659827837
0.00188555767541
0.00400594576435
0.00515372820455
0.00587750985426
0.00633835544584
0.00660508551797
0.00673520113243
0.00678094724875
0.00678607714726
0.00677994372027
0.00677600903622
0.006774247155
0.0067602401214
0.00670715774501
0.00657725092955
0.00631900955166
0.00586606856198
0.00514309464768
0.00399592142474
0.00188052440393
0.00181450288888
0.00386504457301
0.00495839958379
0.00564509643721
0.00607816148106
0.00633675331506
0.00646919008486
0.00652308530362
0.00653658710826
0.00653563066003
0.00653255497866
0.00652778014843
0.0065087546976
0.00645140528406
0.00632048227494
0.00606641207701
0.00563518229659
0.0049483093881
0.00385544758611
0.00180977177981
0.00168968171287
0.00360752229463
0.00461715243394
0.00524959496215
0.00564457970186
0.00587635900867
0.00600044144847
0.00605390465279
0.00607002128216
0.00607150203903
0.00606926565413
0.00606384392671
0.0060446206338
0.00598985478412
0.00586655124839
0.00563549493089
0.00524038653481
0.00460781471528
0.00359876520085
0.00168551368924
0.00148630674432
0.00317696254847
0.00406350283536
0.00461676448956
0.0049574184937
0.00515202685202
0.00525089287133
0.00529215544725
0.00530417418066
0.00530507968775
0.00530341745729
0.00529959059643
0.00528557223736
0.00524331223448
0.00514400940774
0.00494914882857
0.00460830887192
0.00405510135367
0.00316933596369
0.00148287640924
0.00116815886305
0.00247853546413
0.00317692629127
0.00360711260508
0.00386401021016
0.00400412236125
0.00407009869614
0.00409400558278
0.00409890211544
0.0040980620842
0.0040968112775
0.00409539396445
0.00408878335161
0.00406379404579
0.00399715664238
0.0038566405559
0.00359963885994
0.00316975229986
0.00247236811828
0.00116584484213
0.000717696318004
0.00116752344109
0.00148546017167
0.00168868306721
0.00181327967665
0.00188404785145
0.00191978602839
0.00193501250478
0.00194041270722
0.00194188324397
0.00194144496555
0.00193917350505
0.00193313992901
0.00191750272407
0.00188155060773
0.00181076272064
0.00168634650166
0.0014835074976
0.00116624268746
0.000717802618938
0.00075230225347
0.00127898012488
0.00164497001253
0.00188023256857
0.00202863598318
0.00211779578216
0.00216780443528
0.00219376397233
0.00220666358413
0.00221210581325
0.00221182520774
0.00220583268365
0.00219248736378
0.00216611787386
0.00211576375023
0.0020264696117
0.0018782238402
0.00164334005837
0.00127792827729
0.000752507274867
0.00127955524963
0.00276163841173
0.00354438195678
0.00403475136214
0.00433751158739
0.00451276883523
0.00460543275597
0.00464886226137
0.00466702832099
0.0046730587582
0.0046718570327
0.00466360266807
0.00464375449803
0.00459916531981
0.0045057153788
0.00432995628301
0.00402707945725
0.00353698285881
0.0027550320411
0.0012769043898
0.00164585399983
0.00354497478326
0.0045231176462
0.00513730322224
0.00552233007711
0.00575000739823
0.00587327359975
0.00593091224538
0.00595343549546
0.00595955492807
0.00595758963264
0.00594798518859
0.00592252541978
0.00586319983546
0.00574057403512
0.00551355232023
0.00512851625001
0.00451439375796
0.00353672502265
0.0016419323734
0.00188138615204
0.0040360587512
0.00513809154451
0.00582622339117
0.00626070074985
0.00652021051165
0.00666138795896
0.00672418660935
0.00674578208543
0.00674960139703
0.00674639057855
0.0067365765289
0.0067090916927
0.00664232324012
0.00650232409548
0.00624692523032
0.0058157915905
0.00512780057894
0.00402609138362
0.00187647228313
0.00203003462271
0.00433955156974
0.00552393720607
0.00626186150852
0.00673053627321
0.00700823698577
0.00715040762396
0.00720790360225
0.00722246685946
0.00722122543374
0.00721650079223
0.00720808658696
0.00718251093587
0.00711534108669
0.00697173694029
0.00670329028801
0.00624578627314
0.00551191323274
0.00432799132306
0.00202428248806
0.00211931681447
0.00451539088179
0.00575263203774
0.00652583242196
0.00701636259078
0.00729731534494
0.00743047042712
0.00747383534499
0.00747608704159
0.00746781615296
0.00746197240715
0.00745736367297
0.00743807975153
0.00737621661553
0.00723496888716
0.00696511027741
0.00649731023424
0.00573770149282
0.00450270815086