/*--------------------------------*- C++ -*----------------------------------*\
| =========                 |                                                 |
| \\      /  F ield         | OpenFOAM: The Open Source CFD Toolbox           |
|  \\    /   O peration     | Version:  3.0.1                                 |
|   \\  /    A nd           | Web:      www.OpenFOAM.org                      |
|    \\/     M anipulation  |                                                 |
\*---------------------------------------------------------------------------*/
FoamFile
{
    version     2.0;
    format      ascii;
    class       surfaceVectorField;
    location    "5.1";
    object      Uf_0;
}
// * * * * * * * * * * * * * * * * * * * * * * * * * * * * * * * * * * * * * //

dimensions      [0 1 -1 0 0 0 0];

internalField   nonuniform List<vector> 
22672
(
(0.00148382334183 0.000386642699782 -0.00122296613606)
(0.00040413060263 0.00145187514663 -0.00122440038822)
(0.000969646092967 0.000950729425088 -0.00293570564905)
(0.00370141753199 3.59165032466e-05 -0.00121724945116)
(0.00222185152459 0.00100185156494 -0.00214938067302)
(0.00304341322191 0.000916286108137 -0.00321945011253)
(0.00593925292938 -4.05214753868e-05 -0.0010542483364)
(0.00497290598586 0.000965068069009 -0.00241888318337)
(0.0055407322776 0.00104223932583 -0.00320290943141)
(0.00761245547003 0.000123629984024 -0.000823275316708)
(0.00716353275237 0.00129509758387 -0.00232707646857)
(0.0075178130861 0.00136808857684 -0.002968307088)
(0.00837613107819 0.000483939064695 -0.00061103577865)
(0.00853741288152 0.00193769975688 -0.0021521286122)
(0.00873819880249 0.00185946912569 -0.00270138368751)
(0.00810882984288 0.000886749012568 -0.000456018102356)
(0.00877125759978 0.00273646130063 -0.00197537971991)
(0.00886657197533 0.00243355389271 -0.00246917004778)
(0.00697153680405 0.00126052744397 -0.000356086378001)
(0.00802427870149 0.0034462229757 -0.00185363166228)
(0.00808818936742 0.00290177617079 -0.0023089417182)
(0.00509529335998 0.00158880483185 -0.0002972674261)
(0.00638818229417 0.00407782995884 -0.00177108403501)
(0.00643656150072 0.00333851720549 -0.00220160025361)
(0.00274071647093 0.00179569407062 -0.000277040944567)
(0.00412386705274 0.00452204225509 -0.00174210302755)
(0.00415644369811 0.00364577050709 -0.00216748130219)
(0.000162459795945 0.00186613118367 -0.000272889631131)
(0.00152065326689 0.00474688842022 -0.00174037225662)
(0.00153321851762 0.00380094336276 -0.00216865020411)
(-0.00242137295945 0.00179874706759 -0.000274256629614)
(-0.00119343474992 0.00475025674041 -0.00173908302249)
(-0.00120267233364 0.00380335920016 -0.0021664452814)
(-0.00479211627781 0.00159366829093 -0.000291342268783)
(-0.00380954232079 0.00453098351452 -0.00173782517303)
(-0.00383816424075 0.00365227626282 -0.00216026440312)
(-0.00669260478399 0.00126565945851 -0.00034682299539)
(-0.0060968406155 0.00408942648238 -0.00176387546565)
(-0.00614041825939 0.00334713592701 -0.00218896473358)
(-0.00785954210259 0.000890433634334 -0.000444191571281)
(-0.00776265215301 0.00345788669336 -0.00184401549068)
(-0.00782142892293 0.00291082766481 -0.0022909779832)
(-0.00815907652918 0.000487478689343 -0.00059755468133)
(-0.00854119179278 0.00274754328839 -0.00196500394219)
(-0.00863158348544 0.00244153774279 -0.00244803860111)
(-0.00743231412005 0.000129083247356 -0.000809245243644)
(-0.00834304878195 0.00195177643041 -0.00214220187485)
(-0.00854043924722 0.0018714564733 -0.0026785694207)
(-0.0057986201069 -3.24839378046e-05 -0.0010409058278)
(-0.0070063287031 0.00131277183761 -0.00231836514997)
(-0.00735990387783 0.0013825122349 -0.00294649807406)
(-0.00360377649254 4.76519526894e-05 -0.00120482183677)
(-0.00485637192409 0.000988111105362 -0.00241208024022)
(-0.00542580256311 0.00106040374888 -0.00318299127685)
(-0.00143259198573 0.000403075802392 -0.00121110257949)
(-0.00214512562462 0.00102963035176 -0.0021420013091)
(-0.0029721873651 0.000937041173041 -0.00320086069169)
(-0.00037321560232 0.00148455343073 -0.00121052244114)
(-0.000943695409168 0.000973601419925 -0.00291717944582)
(0.00103007687669 0.00217774250512 -0.00215081492518)
(5.29868961368e-05 0.00364568869191 -0.00122487682921)
(0.000931690758085 0.00299750248716 -0.00322389379904)
(0.00359733622006 0.00205961876208 -0.00335101440522)
(0.00210082049082 0.00354726282058 -0.00335303221318)
(0.00311959158068 0.00307911178511 -0.00511267240913)
(0.00626901460889 0.00245512797077 -0.00369171131554)
(0.00540230158373 0.00397458112457 -0.00405023451484)
(0.00582539523421 0.0035315883277 -0.00568119436453)
(0.0081914484346 0.00330698789412 -0.00365592976406)
(0.00795637173744 0.00498062659524 -0.0040248420264)
(0.00789339483223 0.00441705996546 -0.00560796647347)
(0.00903293260707 0.00444048638277 -0.00351647255346)
(0.00947324926814 0.00642790560549 -0.00379047844942)
(0.00908252699843 0.00561576650177 -0.00533169483708)
(0.00874880039073 0.00559406375316 -0.00337299327984)
(0.00972718432492 0.00803592756138 -0.00352440423819)
(0.00920507032143 0.00690627328577 -0.00501534043892)
(0.0074561990048 0.00660130595538 -0.00326862931929)
(0.00881827792148 0.00949343819146 -0.00331647321105)
(0.00832166669404 0.00806351256059 -0.00475462204413)
(0.00541502079469 0.00738149267216 -0.00321591963646)
(0.00696517929044 0.0107014815588 -0.00319199627026)
(0.00658397833372 0.00902119329027 -0.00458248364215)
(0.00290017392843 0.00786423947099 -0.00320543433961)
(0.00446786561671 0.0115454209406 -0.00315186057965)
(0.00423920622217 0.00968847939387 -0.00450854437849)
(0.000165127274057 0.0080290705626 -0.00320656564798)
(0.00163675476486 0.0119748877474 -0.00315267651991)
(0.00156200024051 0.010028299671 -0.00449296782288)
(-0.00257668329745 0.00787385065018 -0.00320265156591)
(-0.00130003175046 0.0119825842482 -0.00315067931818)
(-0.00122428779088 0.0100350542417 -0.00449053482017)
(-0.00511081885752 0.00739773812147 -0.0032103583699)
(-0.00414746278023 0.0115659697095 -0.00314580278012)
(-0.00391579640047 0.00970674124925 -0.00450087103766)
(-0.00717978659677 0.00662007125843 -0.00326106796094)
(-0.00667280400688 0.01072853724 -0.00318319658606)
(-0.00628603667499 0.00904592112973 -0.00457016528579)
(-0.0085040501443 0.00561362785706 -0.00336482786159)
(-0.00855896042037 0.00952121143821 -0.00330671357076)
(-0.00805564355833 0.00809012839548 -0.00473908446839)
(-0.00882270858712 0.00446266849755 -0.00350965113571)
(-0.00950065220959 0.00806483116649 -0.0035152297533)
(-0.00897293195181 0.00693506808644 -0.00499865316925)
(-0.00801704316026 0.00333421447293 -0.00365132178117)
(-0.00928135034735 0.00646223975866 -0.00378366151921)
(-0.00888787239048 0.00565016933787 -0.00531615336636)
(-0.00613304048915 0.00248913015315 -0.00368953956239)
(-0.00780057582154 0.00502277619739 -0.00401999894181)
(-0.00773848885469 0.00445877564628 -0.00559403424359)
(-0.00350084834513 0.00210033947981 -0.00334925971256)
(-0.00528618213652 0.00402606739864 -0.00404754613158)
(-0.0057132196693 0.00358115423844 -0.00567018154453)
(-0.000976368662823 0.00222326686958 -0.00214142117075)
(-0.00202165081213 0.00360530941564 -0.00334810441319)
(-0.00304752142475 0.00313351556333 -0.00510020157842)
(-1.84758527685e-05 0.00370540083915 -0.00120591952923)
(-0.000903992551696 0.00305226302715 -0.00319724780329)
(0.000993395141041 0.00491251239591 -0.00242709411721)
(-2.33533884645e-05 0.00587137850461 -0.00106634199408)
(0.0010570850438 0.00547724415219 -0.00321908796107)
(0.00402260752034 0.00534609058317 -0.0040522523228)
(0.00249510340074 0.0062053606107 -0.00369773575119)
(0.00357023103382 0.00576781029979 -0.00568731136568)
(0.0071590854304 0.00636822700928 -0.0043833652257)
(0.006422053319 0.00709853001296 -0.00438497165149)
(0.00663314315717 0.00657889545418 -0.00626042885582)
(0.00935781597683 0.00794178030393 -0.00415939071175)
(0.00940913172608 0.0087005907197 -0.00410292902938)
(0.00890391262866 0.00796435720499 -0.00591869750591)
(0.0102662487537 0.0098204456449 -0.00379841013415)
(0.0111051396492 0.0107950226788 -0.00353952429648)
(0.0101388541764 0.00973318888295 -0.0052755539833)
(0.00986739875231 0.0116826532312 -0.00346788416941)
(0.0113047772227 0.0130336558781 -0.00296652806378)
(0.0101883709035 0.011605702082 -0.00459888410575)
(0.00834374444397 0.0132924923874 -0.00323984016203)
(0.0101492283604 0.0150620584329 -0.00251886162467)
(0.00912333915773 0.0133045115385 -0.00404497356835)
(0.00601215438184 0.0145211473529 -0.00312793721345)
(0.00794053397168 0.0167134152122 -0.00224608415244)
(0.00715712495232 0.0146894865804 -0.00368035323072)
(0.00319921106575 0.0152832639763 -0.00309910275995)
(0.00505140011586 0.0178607270111 -0.00214068891949)
(0.0045792766312 0.0156520833351 -0.00350237462467)
(0.000172086515283 0.0155456794441 -0.00309679019011)
(0.00183465022801 0.0184451153451 -0.0021205230325)
(0.00167847699108 0.0161458061355 -0.00344311738259)
(-0.00286418726829 0.0153012870597 -0.00309383053239)
(-0.00148039261968 0.018457072815 -0.00211629740106)
(-0.00132718397703 0.016157169274 -0.00343823161533)
(-0.00570224387206 0.0145514924757 -0.00311864099628)
(-0.00471956152597 0.0178925206113 -0.00212892610732)
(-0.00424678668592 0.0156825848825 -0.00348851324216)
(-0.00806660758105 0.0133274493302 -0.00322884219588)
(-0.00764495010552 0.0167540359526 -0.00223063993077)
(-0.00685610844474 0.01472967004 -0.00366115526476)
(-0.009623976313 0.0117188529763 -0.00345711546247)
(-0.00989100096065 0.0151023031967 -0.00250374268793)
(-0.00885746356826 0.0133470640437 -0.00402374379266)
(-0.0100559827584 0.00986050463456 -0.0037892401368)
(-0.011078631382 0.0130739266021 -0.00295308185887)
(-0.00995646489633 0.0116501526809 -0.00457711009905)
(-0.0091813473093 0.00798977191158 -0.00415233867985)
(-0.010909698036 0.0108415319813 -0.00352756658256)
(-0.00994181739864 0.0097842202193 -0.00525395023856)
(-0.00701981388959 0.00642646214066 -0.004378005511)
(-0.00924750109632 0.00875841820584 -0.00409178388464)
(-0.00874516022884 0.00802568441429 -0.00589720197045)
(-0.00392298969927 0.00541333751356 -0.00404639083221)
(-0.00630008626832 0.00716880827655 -0.00437468533399)
(-0.00651729929933 0.00665113994266 -0.00623959936337)
(-0.000937175282829 0.00498320304365 -0.00241260277167)
(-0.00241099255978 0.00628367891905 -0.0036849373754)
(-0.00349479979798 0.00584698715799 -0.00566422942693)
(6.10849776963e-05 0.00594859502564 -0.00103944365776)
(-0.00102731178367 0.00555598045664 -0.00318040353877)
(0.00132214595505 0.00709353867823 -0.00233698362806)
(0.000140751775682 0.00753628982601 -0.000835922045272)
(0.0013825723672 0.00744293548589 -0.00298705858423)
(0.00502695253044 0.00789022182931 -0.00403045507989)
(0.00334636287065 0.00812054218233 -0.00366329981163)
(0.00445428316557 0.0078238126625 -0.00561998762379)
(0.008758983321 0.00934588578218 -0.00410453545517)
(0.00799501274743 0.00929056605178 -0.00416335029565)
(0.0080168207714 0.00883779527888 -0.00592406709506)
(0.0113039457165 0.0114293043068 -0.00348306261411)
(0.0114912166125 0.0112407501714 -0.00348351468597)
(0.0105931153808 0.0105297333968 -0.00508512299684)
(0.012264288596 0.0138304272992 -0.00270764222611)
(0.0133931446524 0.013702817743 -0.00244696358585)
(0.0119081563843 0.0126483991852 -0.003868140516)
(0.0116606717981 0.0161804098565 -0.00201750551903)
(0.0134939940715 0.0162877795441 -0.00142289495649)
(0.0118293196043 0.0148662807102 -0.00265051116874)
(0.00976639696352 0.01820251443 -0.00152510561508)
(0.0120039309925 0.0186132942835 -0.000606410904978)
(0.0104808633497 0.0168750807503 -0.00165696714178)
(0.00697378127084 0.0197358096308 -0.00125883585849)
(0.00931546250199 0.0204990420111 -7.56559574331e-05)
(0.00814080073121 0.0185012999784 -0.000993019118849)
(0.00368199424797 0.0206826922169 -0.00116210919204)
(0.00588407414055 0.0218101582096 0.000176175912603)
(0.0051642054421 0.0196297702765 -0.00065765420866)
(0.000182852124774 0.0210088352806 -0.00114003024345)
(0.00211965018611 0.0224789311245 0.000258921789766)
(0.0018779170046 0.0202076466592 -0.000534685801405)
(-0.00332904536305 0.020708111242 -0.00115139297599)
(-0.00173999073537 0.0224944499213 0.000267241136034)
(-0.00150670742213 0.0202230383954 -0.000525493690659)
(-0.00665525151611 0.0197776885096 -0.00124092504181)
(-0.00553658678556 0.0218511671921 0.000198379044163)
(-0.00481955050011 0.0196709512004 -0.000632455789014)
(-0.00948847276484 0.0182483683502 -0.00150554042282)
(-0.00901765715024 0.0205494910777 -4.88421487679e-05)
(-0.0078372065074 0.0185543457953 -0.000962249598752)
(-0.0114180166424 0.0162244770851 -0.00199970908433)
(-0.0117499806837 0.0186581269169 -0.000583816824267)
(-0.0102170345303 0.0169269391577 -0.0016262952914)
(-0.0120509444888 0.013876546959 -0.00269140830463)
(-0.0132692150328 0.0163284193646 -0.00140523564802)
(-0.0115978034645 0.0149160724489 -0.00262158049048)
(-0.0111200050722 0.0114845291248 -0.00346701178734)
(-0.0131916564364 0.0137476709422 -0.00242950691718)
(-0.0117060479094 0.012702842218 -0.00383709602704)
(-0.00861066339327 0.00941420165916 -0.00408846370763)
(-0.0113190246034 0.0112988280233 -0.0034630841956)
(-0.0104255982071 0.0105961029837 -0.00504977451776)
(-0.00491950133335 0.00796973315616 -0.00401323187717)
(-0.00786291928881 0.00936372682585 -0.00414125494153)
(-0.00789216974737 0.00891771262019 -0.00588611317616)
(-0.00126085782412 0.00717630231232 -0.00231177826149)
(-0.00325514321658 0.00820316713106 -0.00363800723828)
(-0.00437183190444 0.00791266590896 -0.005578176878)
(-9.98012030184e-05 0.00761738660936 -0.000799250459021)
(-0.00134902392167 0.00753132428223 -0.00292968351601)
(0.00196550711082 0.00846128833866 -0.00216223822883)
(0.000502123850907 0.00829516163584 -0.000625489655818)
(0.00187411114969 0.00865779289261 -0.00272437862896)
(0.00647466135036 0.00940197102323 -0.00379619502739)
(0.00448167816379 0.00895678969514 -0.00352498749707)
(0.00565318965719 0.00900633909637 -0.00534539976712)
(0.0108537721379 0.011038896338 -0.00354232952646)
(0.00987652723496 0.010195694609 -0.00380347472359)
(0.00978606669325 0.0100667539819 -0.00528423825074)
(0.0137641594298 0.0133314085472 -0.00244741565771)
(0.0138953226757 0.0122006339654 -0.00270702256523)
(0.0127114964761 0.0118410128497 -0.00387027117552)
(0.0147599131107 0.0159466648752 -0.00116221631623)
(0.0160080801604 0.0147017904927 -0.00115865089636)
(0.0141127145474 0.0140488720393 -0.00199472826437)
(0.0139046390373 0.0184903286506 -1.18003424366e-05)
(0.0159661242923 0.0172926428972 0.000362186093934)
(0.0138730632531 0.0163545022945 -0.000149593103869)
(0.0115610923702 0.020670673158 0.00084303875267)
(0.0140987029213 0.0196099690157 0.00157789092818)
(0.0121865328234 0.0184426212544 0.001346866153)
(0.00821072159997 0.0223276522644 0.00135935581366)
(0.0108748352631 0.0214926961475 0.00239093870642)
(0.00940384774598 0.0201340106609 0.00235670897471)
(0.00431527534289 0.0233566656215 0.00159720689441)
(0.00683179734535 0.0228033423485 0.00280803418664)
(0.00593565329516 0.0213152784221 0.00290225260924)
(0.000197464843858 0.0237136449645 0.00166619316925)
(0.00244487854089 0.0234745147369 0.00295965294967)
(0.00214432488977 0.0219235704025 0.00312221565523)
(-0.00393883643483 0.0233875560973 0.00161701315619)
(-0.00203555954412 0.0234923203265 0.00297348437292)
(-0.00174735760827 0.0219423486201 0.0031384184072)
(-0.0078827003765 0.0223769553389 0.00139046193721)
(-0.00646807779156 0.0228506527329 0.00284405951066)
(-0.0055762410493 0.0213653308762 0.00294436564008)
(-0.0112869328195 0.0207201981389 0.000872881449784)
(-0.0105797427693 0.0215484904848 0.00242975866923)
(-0.00910196326484 0.0201962063425 0.00240522103129)
(-0.013667410421 0.0185323947533 1.06566120414e-05)
(-0.013854870121 0.0196534084121 0.00160279837694)
(-0.0119327193286 0.0184969632098 0.00138518524754)
(-0.0145452614816 0.0159866817973 -0.00114333426057)
(-0.015745891561 0.0173272364241 0.000377101543084)
(-0.0136473481079 0.0164015566298 -0.000120976739803)
(-0.0135707212995 0.0133792321264 -0.00242557932544)
(-0.0158003733117 0.0147362917109 -0.00114342098646)
(-0.0139064950454 0.0140956748344 -0.00196317432101)
(-0.0106931341021 0.0111013827025 -0.00351587542949)
(-0.0137096327195 0.0122474570405 -0.00268244920083)
(-0.0125327762289 0.0118989648386 -0.00382623619462)
(-0.00635740369925 0.00947740739523 -0.00376603030263)
(-0.00973160567732 0.0102584514286 -0.00377200235914)
(-0.00964965368455 0.0101396342578 -0.00523048598012)
(-0.00189915650685 0.00854119315052 -0.00212547943582)
(-0.00438228218366 0.00902931246366 -0.00348951017785)
(-0.00556224320653 0.00908920717986 -0.00528443703816)
(-0.000457798643427 0.00836734550328 -0.000580999561565)
(-0.00183703778164 0.00874105695464 -0.00264914909199)
(0.00276644720704 0.00869162847821 -0.00198823892405)
(0.000905758888082 0.00802448826086 -0.000472102343588)
(0.00244990430983 0.00878399624408 -0.00249577213706)
(0.00808700581584 0.00965292826083 -0.00353226719326)
(0.00563842349695 0.0086694906339 -0.00338394350077)
(0.0069462847288 0.00912537045336 -0.00503325639504)
(0.0130980374022 0.011237295069 -0.00296816776236)
(0.0117443333316 0.00979317977317 -0.00347273965262)
(0.0116629116555 0.0101128304869 -0.00460851474535)
(0.0163534000136 0.0134338878749 -0.00141825780388)
(0.0162520344666 0.0115934144763 -0.00201220702942)
(0.0149338895033 0.0117602213139 -0.00264814280263)
(0.0173515134894 0.0159099305213 0.000365751513803)
(0.0185555439592 0.0138437428989 1.17294920873e-06)
(0.0164198125322 0.0138095452389 -0.000140067859709)
(0.0162095178249 0.0182823035905 0.00195187736455)
(0.0183389211268 0.0161504094297 0.00195899138077)
(0.0160028409917 0.015941085146 0.00228422469289)
(0.0133906801954 0.0203090422189 0.00312579088193)
(0.0161057702949 0.0182035971202 0.00350391268553)
(0.0139739503895 0.0178704511458 0.00422520279981)
(0.00946321063881 0.0218512218483 0.0038396170794)
(0.0123592022157 0.0198885533987 0.0045461356958)
(0.0107295010799 0.0194409583736 0.00553160354065)
(0.00495200659192 0.0228082349076 0.0041704802419)
(0.0077227188434 0.0210741160395 0.00508594789749)
(0.00674241266809 0.020537797991 0.00624041977779)
(0.000212012367406 0.0231417604486 0.00426694415335)
(0.00274808040675 0.0216876604889 0.00528365354905)
(0.00242251642273 0.0211052698668 0.00652683648619)
(-0.00455320582603 0.0228425208785 0.00420053072739)
(-0.00230933794793 0.0217061006667 0.00530330044429)
(-0.00199805373581 0.0211263711781 0.00655142528648)
(-0.0091302539188 0.0219052421833 0.00388335624268)
(-0.00734458286282 0.0211240263624 0.00513633843325)
(-0.00636982608882 0.0205943442124 0.00630366257783)
(-0.0131265290429 0.0203593085324 0.00315967559639)
(-0.0120724725657 0.0199468303766 0.00459407645285)
(-0.0104357172393 0.0195090212495 0.00559792519375)
(-0.0159817393185 0.0183190657991 0.00196924330798)
(-0.015876905154 0.0182454366506 0.00352262569762)
(-0.0137363721256 0.0179243842605 0.004263173997)
(-0.0171375057537 0.0159400963128 0.000377014817193)
(-0.0181256657181 0.0161801087522 0.00196386934065)
(-0.0157874153387 0.0159829676788 0.00230288647449)
(-0.0161494966543 0.0134685442276 -0.00140029086186)
(-0.018343232503 0.0138701255898 6.97942147442e-06)
(-0.0162120654134 0.0138466577076 -0.000121853580795)
(-0.0129224680295 0.0112850820322 -0.00293857613048)
(-0.016052941075 0.0116282736524 -0.00199073094539)
(-0.0147430446947 0.0118043051088 -0.00260786326233)
(-0.00795789989584 0.0097130604433 -0.00349548223435)
(-0.0115861228495 0.00984151952018 -0.00343735642895)
(-0.0115126988892 0.0101703586471 -0.00454766613882)
(-0.00269374750741 0.00875644355185 -0.0019450303036)
(-0.00553077738691 0.00872673069307 -0.00334254463467)
(-0.00684561195463 0.00919162675272 -0.00496161447472)
(-0.000859044883532 0.00808268169273 -0.0004237150804)
(-0.00240736019427 0.0088501871383 -0.00240911675679)
(0.00347794065156 0.00794121563168 -0.00186780692031)
(0.00127984950233 0.00688414489744 -0.00037318168747)
(0.00291874359923 0.00800302063176 -0.00233759406037)
(0.00954934176016 0.00873961305687 -0.00332441596013)
(0.00664767428043 0.00737223995688 -0.0032804458854)
(0.00810618370329 0.00823809371562 -0.00477414607126)
(0.0151332885928 0.0100757204039 -0.00251677891969)
(0.0133584367578 0.00826204213503 -0.0032439131691)
(0.0133667562952 0.00904198590338 -0.00405280632152)
(0.0186847753182 0.0119365495313 -0.000592776276337)
(0.0182800287275 0.00968759411802 -0.00151503197972)
(0.0169479487356 0.0104035148954 -0.00164566578902)
(0.0196716984762 0.0140359561326 0.00159441281618)
(0.0207405302502 0.011485624396 0.000866037631874)
(0.0185103248478 0.0121138496592 0.00137119294296)
(0.0182627938335 0.0160454223551 0.00351102670176)
(0.0203688231509 0.01331633114 0.00314795728531)
(0.0179323690837 0.0139047325694 0.00424297746562)
(0.0150122534171 0.017776993287 0.0049242574994)
(0.0178374351859 0.0149379878122 0.00493619274379)
(0.0156030796311 0.0155362715241 0.00651614147989)
(0.0105631989758 0.0191114763586 0.00579246651389)
(0.0136346373126 0.0162818503156 0.00617412238012)
(0.011938583818 0.016883656054 0.00805574689698)
(0.00550649861227 0.0199395400129 0.00619912120463)
(0.00848426671611 0.0172348410166 0.00677492488188)
(0.00747534622912 0.0178358224715 0.00889596283317)
(0.000225861415862 0.0202261692748 0.00632000983999)
(0.00300937134389 0.0177278991708 0.00690373075614)
(0.00267592917089 0.0183292124728 0.00924038472714)
(-0.0050865171184 0.0199720284221 0.00623910815015)
(-0.00254490938179 0.0177435751468 0.00692358228864)
(-0.00222200454175 0.0183497656314 0.0092748901933)
(-0.0102278649046 0.0191645920047 0.00584705864342)
(-0.00809398197908 0.0172805896777 0.00682235590871)
(-0.00708852152653 0.0178917732445 0.0089847720924)
(-0.01476151278 0.0178267946454 0.00495702655408)
(-0.0133551318273 0.0163370157047 0.00623074288138)
(-0.0116549632378 0.0169524084674 0.00814345289839)
(-0.0180474423347 0.0160800108203 0.00351725173029)
(-0.0176240038492 0.0149789002926 0.00494659272549)
(-0.0153840088236 0.0155889404408 0.00655245898782)
(-0.0194607754159 0.0140617299214 0.00159383394493)
(-0.0201634661882 0.0133447925961 0.00314188080362)
(-0.0177285675068 0.0139439515251 0.00424864305935)
(-0.018473754996 0.0119633966854 -0.000583460662057)
(-0.0205266241171 0.0115088943189 0.000861994293834)
(-0.0183040968078 0.0121460778626 0.00137420161803)
(-0.0149449098397 0.0101117153315 -0.00248951124386)
(-0.0180717501787 0.00971569271786 -0.00149887252916)
(-0.0167485876696 0.0104379404205 -0.00161628125175)
(-0.00940981354588 0.00878543726338 -0.00328441882926)
(-0.013190941681 0.00829850097185 -0.00320818578662)
(-0.0132048892011 0.00908545577927 -0.00399210698832)
(-0.00340111774272 0.00799196491214 -0.00182122941147)
(-0.00653476614922 0.00741498254074 -0.00323629431408)
(-0.00799772160646 0.00828799345129 -0.00469699077784)
(-0.00123260025847 0.00692867462931 -0.000324166797075)
(-0.00287410581063 0.00805377544041 -0.00224714291295)
(0.00411004940855 0.00630117056946 -0.00178582065257)
(0.00160789025072 0.00500521597806 -0.000314870669166)
(0.00335546169333 0.0063485683713 -0.00223111545595)
(0.0107592026722 0.0068793957594 -0.00319994309437)
(0.00742694609364 0.00532607209012 -0.00322819446847)
(0.00906403838656 0.00649516299783 -0.00460297947323)
(0.0167879191089 0.00785475678318 -0.00224216622913)
(0.0145866920506 0.00592103376733 -0.00313258534625)
(0.014753096983 0.00706652580351 -0.00368770393563)
(0.0205749620053 0.00922977892108 -5.62180715043e-05)
(0.0198135582678 0.00687870048891 -0.0012483632726)
(0.0185764009894 0.00804869329378 -0.000978148001104)
(0.0215587171776 0.0107887410681 0.002419582101)
(0.0223974390449 0.00811109849907 0.00138520578601)
(0.0202042917196 0.00931086667388 0.00239076836332)
(0.0199510570879 0.0122716798193 0.00457312332734)
(0.0219101211545 0.00935711022119 0.00386864605652)
(0.0195059929995 0.0106358901076 0.00556687496413)
(0.0163583908759 0.0135449455908 0.0061860576245)
(0.0191693041261 0.0104500755227 0.00581510933941)
(0.0169521953716 0.011843188643 0.008080569137)
(0.0114712725146 0.014535238254 0.00715658074811)
(0.0146245129396 0.0113527672066 0.00715582105328)
(0.0129462096588 0.0128472995561 0.00981618930922)
(0.005953226397 0.0151838123062 0.00747953443338)
(0.00910060353452 0.01200008727 0.00760564297666)
(0.00809418105294 0.0135702756351 0.0107527855238)
(0.000236057505489 0.0154271654446 0.00750730320478)
(0.00321722805533 0.012356171258 0.00768595325783)
(0.0028954116814 0.0139625565556 0.0110888812231)
(-0.00551864644832 0.0152152399567 0.0075068300472)
(-0.00273336002443 0.0123689988733 0.00770496870785)
(-0.00241294138298 0.0139796045637 0.0111292648659)
(-0.0111295248917 0.0145833036565 0.00720604014668)
(-0.00869758265324 0.0120356886334 0.00765014640141)
(-0.00769088745356 0.0136179111894 0.0108557661542)
(-0.0161172638818 0.0135896212736 0.00622030905278)
(-0.0143504291261 0.0113952385903 0.00720331025685)
(-0.0126658306115 0.0129050899132 0.00992950614064)
(-0.0197464407585 0.0123055200236 0.00457122179882)
(-0.0189648352357 0.0104871117539 0.00582448733985)
(-0.0167469314804 0.0118910406745 0.00812095864936)
(-0.0213524141731 0.0108137366422 0.00241004115252)
(-0.0217108074238 0.00938421651324 0.00385776045097)
(-0.0193115757923 0.0106715147475 0.00556654376566)
(-0.0203610820441 0.00925398035616 -5.34175732661e-05)
(-0.0221836693164 0.00813352022675 0.00137644327506)
(-0.0200010682943 0.00933999405509 0.00238403325749)
(-0.016593113439 0.00788362519266 -0.00221754707192)
(-0.0196012877065 0.00690391629784 -0.00123434109071)
(-0.0183732185049 0.00807827262466 -0.000956208712861)
(-0.0106149110575 0.00691336358535 -0.00316006127144)
(-0.0144156569153 0.00594944487713 -0.00309726220726)
(-0.0145855434139 0.0070997146431 -0.00362917497492)
(-0.0040316822089 0.00633840512684 -0.00173923169968)
(-0.00731257136522 0.00535750185974 -0.00318435905406)
(-0.00895265461589 0.00653106920805 -0.0045257904219)
(-0.00156076594737 0.00503840196511 -0.000266746190784)
(-0.00331012268505 0.00638476502386 -0.00214144091782)
(0.0045525469046 0.00403352027804 -0.00175724448507)
(0.00181356122754 0.00264983436546 -0.000294861311746)
(0.00366119497444 0.00406599702689 -0.00219715808696)
(0.0116002421047 0.004375321304 -0.00316083672035)
(0.00790590088748 0.00280867277567 -0.00321816545134)
(0.00972790064542 0.00414594912813 -0.00453028789762)
(0.0179317208607 0.00495283917661 -0.00213878238972)
(0.0153432932303 0.003101897752 -0.00310586824009)
(0.0157117738899 0.00448012470902 -0.00351233671293)
(0.0218816774323 0.00577741223184 0.000193060584914)
(0.0207533182352 0.00357495021668 -0.00115547886475)
(0.0196993423947 0.00505730169323 -0.000646203544744)
(0.0228635882611 0.00671519852418 0.00283426974152)
(0.0234178044333 0.0041975350373 0.00161637245901)
(0.0213784386448 0.00581963012666 0.00293165127277)
(0.0211296408686 0.00759473512569 0.00511063206859)
(0.0228568598713 0.00482126078552 0.00418952523939)
(0.0205946592383 0.00661600730209 0.00626979130201)
(0.0173061820099 0.00834671178768 0.00678487276819)
(0.0199877808395 0.00536299745177 0.00620894079823)
(0.0178965504375 0.0073368706729 0.0089105276327)
(0.012117084572 0.00895865364483 0.00760488328183)
(0.0152675994054 0.0058015984471 0.00746929779011)
(0.0136667328684 0.0079460082189 0.0107402537187)
(0.00630538233004 0.00936390293659 0.00781206180111)
(0.00950608814418 0.00615097387078 0.0078039872983)
(0.00855286428668 0.00840083040595 0.0116608007263)
(0.000244205571035 0.00950457427794 0.0078836187609)
(0.00335117464572 0.00633815781227 0.00794820105206)
(0.00305084554445 0.00863256536145 0.01207917396)
(-0.00585657562397 0.00938202787219 0.00784828506206)
(-0.00285324307094 0.00634537397824 0.00796901346451)
(-0.00254609434777 0.00864300591597 0.0121243901506)
(-0.0117723783781 0.00899150957418 0.00764741651158)
(-0.00909023358013 0.00617106437375 0.00785732508696)
(-0.00813089306417 0.00842944268322 0.011780413283)
(-0.0170671639675 0.00838255598418 0.00680748854392)
(-0.0149922147219 0.00582935639824 0.00750910323363)
(-0.0133835769772 0.0079860929606 0.0108606577132)
(-0.0209307362584 0.00762358635936 0.005111025992)
(-0.0197842445165 0.00538677615293 0.00622456803697)
(-0.0176949291887 0.00737313778683 0.00896390126714)
(-0.0226602552607 0.00673832223091 0.00282416257351)
(-0.0226599666321 0.00484118927252 0.00418145374215)
(-0.0204049826568 0.00664472938958 0.00627254076829)
(-0.0216671030041 0.00579949726289 0.000195519757619)
(-0.023204258202 0.00421532186345 0.00160841695798)
(-0.0211767326069 0.00584404015679 0.0029250377323)
(-0.0177355784135 0.00497660150063 -0.00211405622605)
(-0.020540185434 0.00359520832463 -0.00114080880309)
(-0.0194954983355 0.00508201575967 -0.000622832737524)
(-0.0114552473164 0.00440071526453 -0.00312155998988)
(-0.0151719153029 0.0031230550817 -0.00307023688959)
(-0.0155433621688 0.00450531956192 -0.00345396937966)
(-0.00447448739191 0.00406073110483 -0.00171187354516)
(-0.00779185449443 0.00283137118326 -0.00317513198188)
(-0.00961676098 0.00417180425325 -0.00445467055093)
(-0.001767019361 0.00267387953003 -0.000247773991837)
(-0.00361659384655 0.00409202105457 -0.00210999554324)
(0.0047741082664 0.00142995004965 -0.00175578227801)
(0.00188246987159 7.39378716884e-05 -0.000290949441923)
(0.0038139077521 0.00144268844334 -0.00219820210021)
(0.0120233136503 0.00154212340279 -0.00316319697108)
(0.00806597844724 7.54811807878e-05 -0.00321981010302)
(0.0100618324956 0.00146798076553 -0.00451600334077)
(0.0185067797738 0.00173121560656 -0.00212256471513)
(0.0155980592492 7.6119906781e-05 -0.00310617190079)
(0.0161969577876 0.00157679597874 -0.00345767979957)
(0.0225390535578 0.00200402806469 0.000267833009337)
(0.0210689254052 7.72029044131e-05 -0.00113897634837)
(0.020265506048 0.00176540748591 -0.000534521440077)
(0.0235212756474 0.00231483559591 0.00297162795687)
(0.0237619487323 7.94669136146e-05 0.00167448218239)
(0.0219721956646 0.00201887942918 0.00313584672904)
(0.0217298248421 0.00260304417409 0.00528783396902)