/*--------------------------------*- C++ -*----------------------------------*\
| =========                 |                                                 |
| \\      /  F ield         | OpenFOAM: The Open Source CFD Toolbox           |
|  \\    /   O peration     | Version:  3.0.1                                 |
|   \\  /    A nd           | Web:      www.OpenFOAM.org                      |
|    \\/     M anipulation  |                                                 |
\*---------------------------------------------------------------------------*/
FoamFile
{
    version     2.0;
    format      ascii;
    class       volScalarField;
    location    "0.25";
    object      alpha.water;
}
// * * * * * * * * * * * * * * * * * * * * * * * * * * * * * * * * * * * * * //

dimensions      [0 0 0 0 0 0 0];

internalField   nonuniform List<scalar> 
1915
(
0.995529
0.995546
0.995548
0.995574
0.944601
0.995603
0.993348
0.996188
0.999926
0.998678
0.999988
0.998208
1
0.998208
1
0.998212
1
0.998217
1
0.998741
2.18268e-20
5.35256e-20
3.78831e-20
2.31138e-20
2.0867e-20
2.13635e-20
1.82594e-20
1.28238e-20
7.40014e-21
3.34667e-21
1.20253e-21
3.62599e-22
9.53852e-23
2.23484e-23
4.72786e-24
9.0886e-25
1.59315e-25
2.55258e-26
3.73626e-27
4.98315e-28
6.02096e-29
6.53062e-30
6.30493e-31
5.82567e-32
5.15011e-33
4.33378e-34
3.44747e-35
2.57233e-36
1.78485e-37
1.14052e-38
6.6389e-40
3.4761e-41
1.6131e-42
6.5147e-44
2.2376e-45
6.33937e-47
1.41836e-48
2.34191e-50
2.52348e-52
1.31448e-54
4.62366e-19
1.4027e-18
1.62018e-18
2.06339e-18
2.25845e-18
1.85121e-18
1.24695e-18
7.28671e-19
3.71793e-19
1.55672e-19
5.45772e-20
1.65526e-20
4.44785e-21
1.07578e-21
2.36589e-22
4.76101e-23
8.80399e-24
1.49905e-24
2.35263e-25
3.40392e-26
4.53931e-27
5.57636e-28
6.3087e-29
6.78326e-30
6.98625e-31
6.85491e-32
6.36096e-33
5.53611e-34
4.47846e-35
3.33427e-36
2.25954e-37
1.37625e-38
7.42229e-40
3.4808e-41
1.38722e-42
4.55682e-44
1.18133e-45
2.25833e-47
2.81362e-49
1.68328e-51
9.8991e-18
3.22597e-17
4.38362e-17
6.03274e-17
5.79904e-17
4.33596e-17
2.7495e-17
1.53185e-17
7.49417e-18
3.0422e-18
1.05187e-18
3.1871e-19
8.63463e-20
2.11985e-20
4.75575e-21
9.80016e-22
1.86083e-22
3.25988e-23
5.27055e-24
7.86107e-25
1.08074e-25
1.36783e-26
1.59224e-27
1.75343e-28
1.84286e-29
1.83906e-30
1.73058e-31
1.52356e-32
1.24393e-33
9.32945e-35
6.3583e-36
3.88927e-37
2.10393e-38
9.88701e-40
3.94521e-41
1.29659e-42
3.36112e-44
6.42222e-46
7.99473e-48
4.7814e-50
1.56038e-16
5.07429e-16
6.97598e-16
9.07768e-16
7.97262e-16
5.73121e-16
3.5624e-16
1.92666e-16
9.12576e-17
3.62326e-17
1.24184e-17
3.77117e-18
1.03262e-18
2.57886e-19
5.91572e-20
1.2516e-20
2.44763e-21
4.42698e-22
7.40265e-23
1.14313e-23
1.62783e-24
2.1334e-25
2.56908e-26
2.91891e-27
3.15624e-28
3.23159e-29
3.11178e-30
2.79644e-31
2.32551e-32
1.77292e-33
1.2261e-34
7.5985e-36
4.15916e-37
1.97531e-38
7.95756e-40
2.63837e-41
6.89502e-43
1.32744e-44
1.66456e-46
1.00369e-48
1.99079e-15
5.70456e-15
7.46611e-15
9.02029e-15
7.21408e-15
5.0936e-15
3.19824e-15
1.70523e-15
7.87405e-16
3.08157e-16
1.05176e-16
3.20451e-17
8.85813e-18
2.24541e-18
5.25368e-19
1.13878e-19
2.29074e-20
4.27704e-21
7.40483e-22
1.18673e-22
1.75678e-23
2.39585e-24
3.00325e-25
3.54596e-26
3.97521e-27
4.20937e-28
4.18181e-29
3.86817e-30
3.30404e-31
2.58225e-32
1.82747e-33
1.15712e-34
6.4623e-36
3.12752e-37
1.28264e-38
4.32533e-40
1.14883e-41
2.24664e-43
2.86054e-45
1.75213e-47
1.84136e-14
4.42781e-14
5.49402e-14
6.16212e-14
4.55777e-14
3.31494e-14
2.21317e-14
1.20124e-14
5.49634e-15
2.14732e-15
7.32779e-16
2.23368e-16
6.18858e-17
1.57653e-17
3.72002e-18
8.16774e-19
1.67245e-19
3.19532e-20
5.69015e-21
9.42439e-22
1.44753e-22
2.05447e-23
2.68585e-24
3.30571e-25
3.85647e-26
4.24034e-27
4.36411e-28
4.17253e-29
3.67607e-30
2.95743e-31
2.15055e-32
1.39687e-33
7.99051e-35
3.95628e-36
1.65805e-37
5.7081e-39
1.54649e-40
3.08275e-42
3.99961e-44
2.49642e-46
1.11681e-13
2.27967e-13
2.73952e-13
2.91078e-13
2.13269e-13
1.73343e-13
1.3097e-13
7.62566e-14
3.51083e-14
1.40316e-14
4.82165e-15
1.4689e-15
4.0488e-16
1.02368e-16
2.39488e-17
5.21698e-18
1.06294e-18
2.0313e-19
3.64453e-20
6.13225e-21
9.64791e-22
1.41298e-22
1.91754e-23
2.45636e-24
2.98289e-25
3.41033e-26
3.64349e-27
3.60932e-28
3.28798e-29
2.7298e-30
2.04486e-31
1.36596e-32
8.02438e-34
4.0745e-35
1.74914e-36
6.16234e-38
1.70727e-39
3.47808e-41
4.60942e-43
2.93882e-45
4.19746e-13
8.17444e-13
9.52309e-13
1.02249e-12
8.19002e-13
7.99022e-13
6.99875e-13
4.61338e-13
2.13172e-13
9.07205e-14
3.1905e-14
9.82458e-15
2.71554e-15
6.8441e-16
1.58547e-16
3.39493e-17
6.75601e-18
1.2567e-18
2.19735e-19
3.62617e-20
5.65574e-21
8.31905e-22
1.14878e-22
1.51256e-23
1.89844e-24
2.24862e-25
2.48994e-26
2.55485e-27
2.40783e-28
2.0652e-29
1.59576e-30
1.09793e-31
6.63383e-33
3.46033e-34
1.52436e-35
5.50562e-37
1.56246e-38
3.25852e-40
4.41905e-42
2.88342e-44
1.21672e-12
2.16979e-12
2.56564e-12
3.17253e-12
2.89477e-12
3.25082e-12
3.19048e-12
2.51491e-12
1.14567e-12
5.46289e-13
2.00856e-13
6.37844e-14
1.80429e-14
4.64245e-15
1.09254e-15
2.35495e-16
4.65712e-17
8.48028e-18
1.43043e-18
2.25316e-19
3.34397e-20
4.71034e-21
6.32108e-22
8.25207e-23
1.04392e-23
1.25972e-24
1.43015e-25
1.50957e-26
1.46566e-27
1.29544e-28
1.03109e-29
7.30287e-31
4.53855e-32
2.43287e-33
1.10044e-34
4.07794e-36
1.18665e-37
2.53635e-39
3.52421e-41
2.35653e-43
2.83154e-12
5.69283e-12
7.49924e-12
8.43272e-12
8.88413e-12
1.0262e-11
1.09139e-11
1.13297e-11
5.02942e-12
2.79245e-12
1.10555e-12
3.68906e-13
1.08278e-13
2.9059e-14
7.15137e-15
1.6069e-15
3.28504e-16
6.10219e-17
1.03118e-17
1.59164e-18
2.26072e-19
2.98742e-20
3.72386e-21
4.56285e-22
5.52795e-23
6.51718e-24
7.34815e-25
7.79552e-26
7.66932e-27
6.90461e-28
5.61565e-29
4.07132e-30
2.59231e-31
1.42422e-32
6.60315e-34
2.50798e-35
7.47898e-37
1.63798e-38
2.33185e-40
1.59818e-42
1
1
1
1
1
1
1
1
1
1
1
1
1
1
1
1
1
1
1
1
1.00004
0.746405
0.0515435
0.000214453
1.7818e-05
3.86224e-06
3.93093e-07
3.44641e-08
2.69042e-09
3.21309e-10
1.51626e-10
1.40955e-10
1.08787e-10
1.01015e-10
7.38848e-11
4.62405e-11
4.17655e-11
4.17783e-11
2.01154e-10
7.07722e-10
1.31286e-09
1.40553e-09
1.39131e-09
0.52568
2.24838e-06
2.32599e-10
4.77884e-12
0.881244
0.130311
3.15691e-07
-1.44955e-10
1.00001
0.765592
0.100531
4.22184e-11
1.00003
0.999161
0.778706
0.114439
1
0.99995
0.99864
0.825291
1
0.999992
0.99989
0.998858
1
1
0.999987
0.999897
1
1
0.999999
0.999987
1
1
1
0.999997
1
1
0.999999
0.999997
1
1
0.999999
0.999995
0.999889
1.00002
0.999997
0.999993
0.226937
0.565319
0.998657
1
0.000611534
0.0151055
0.183874
0.500234
5.33488e-05
0.000139145
0.000546079
0.00537986
1.04181e-05
1.71386e-05
4.47495e-05
0.000109127
1.03046e-06
2.65902e-06
7.85732e-06
4.50502e-06
9.75718e-08
2.51662e-07
7.99762e-07
2.15444e-06
7.76745e-09
2.15357e-08
6.76802e-08
1.91118e-07
6.48831e-10
1.64716e-09
5.45813e-09
1.58513e-08
1.53213e-10
2.1709e-10
4.31635e-10
1.10562e-09
1.21409e-10
1.17927e-10
8.42665e-11
9.65874e-11
1.1421e-10
1.11567e-10
6.77928e-11
1.41396e-11
1.10418e-10
1.06816e-10
5.90174e-11
8.22606e-13
-9.80086e-12
-3.14212e-10
-8.99035e-10
-1.52648e-09
7.35904e-13
-1.29338e-09
-4.02723e-09
-6.3518e-09
1.93506e-09
1.58409e-08
1.45675e-08
2.2927e-09
2.02349e-09
2.7514e-08
2.91044e-08
2.57717e-08
2.23059e-10
3.86855e-10
1.76735e-09
1.91713e-09
2.92196e-10
-2.30079e-09
-5.28222e-09
-3.19388e-09
3.70867e-10
-4.64585e-09
-7.42952e-09
-1.21077e-11
8.09051e-10
-4.44473e-09
-4.85842e-09
-1.21526e-11
1.32073e-09
-3.48795e-10
-6.24154e-15
-1.16099e-10
3.48974e-12
8.25566e-12
9.67398e-12
1.07337e-11
1.92923e-11
2.16674e-11
2.47131e-11
3.83389e-11
1.72835e-11
1.07973e-11
5.04713e-12
1.81455e-12
5.5003e-13
1.55411e-13
4.07502e-14
9.7835e-15
2.13139e-15
4.19189e-16
7.4228e-17
1.18254e-17
1.69749e-18
2.20564e-19
2.61866e-20
2.99218e-21
3.35983e-22
3.69081e-23
3.92733e-24
3.9948e-25
3.82653e-26
3.39848e-27
2.75519e-28
2.0067e-29
1.29089e-30
7.19417e-32
3.39298e-33
1.31351e-34
3.99791e-36
8.94565e-38
1.30247e-39
9.13865e-42
5.25206e-12
3.07857e-11
1.38138e-11
1.26465e-11
2.12331e-11
3.09652e-11
2.70467e-11
3.44034e-11
1.66383e-11
1.26969e-11
1.71879e-11
7.67376e-12
2.31334e-12
6.87707e-13
1.94728e-13
5.08264e-14
1.20314e-14
2.56243e-15
4.88766e-16
8.32516e-17
1.26401e-17
1.71022e-18
2.06729e-19
2.34531e-20
2.55322e-21
2.66547e-22
2.65962e-23
2.52272e-24
2.25719e-25
1.886e-26
1.45328e-27
1.0175e-28
6.36133e-30
3.47955e-31
1.62426e-32
6.26673e-34
1.9117e-35
4.30691e-37
6.33694e-39
4.50846e-41
1.11393e-10
3.30318e-09
2.87772e-10
3.09054e-11
2.35216e-11
3.30352e-11
3.43074e-11
5.0858e-11
2.63683e-11
1.5137e-11
1.72238e-11
2.82035e-11
7.58737e-12
2.40094e-12
7.49961e-13
2.16794e-13
5.66691e-14
1.3273e-14
2.77209e-15
5.14518e-16
8.46374e-17
1.23143e-17
1.58423e-18
1.88731e-19
2.1237e-20
2.25206e-21
2.24158e-22
2.08399e-23
1.79926e-24
1.43264e-25
1.04317e-26
6.87331e-28
4.04349e-29
2.08761e-30
9.24795e-32
3.4095e-33
1.0014e-34
2.18886e-36
3.1478e-38
2.2047e-40
1.1214e-10
2.05756e-09
9.23222e-09
1.37963e-10
3.77175e-11
4.14157e-11
8.50584e-11
4.8543e-10
2.21641e-10
8.54517e-11
3.96854e-09
1.878e-10
1.25512e-11
6.14828e-12
2.25854e-12
7.43976e-13
2.18625e-13
5.71058e-14
1.32237e-14
2.7081e-15
4.89268e-16
7.78069e-17
1.08832e-17
1.3995e-18
1.68424e-19
1.89154e-20
1.97335e-21
1.902e-22
1.68323e-23
1.35794e-24
9.90279e-26
6.46194e-27
3.72607e-28
1.86857e-29
7.98084e-31
2.8211e-32
7.91601e-34
1.65033e-35
2.26415e-37
1.51609e-39
0.169266
1.0975e-08
4.84788e-07
2.6884e-08
-1.35471e-09
2.80927e-10
4.29156e-10
1.21669e-08
1.50036e-08
5.72646e-07
2.78699e-08
1.40179e-11
1.24443e-11
1.12623e-11
5.2569e-12
2.03598e-12
6.84839e-13
2.02156e-13
5.24775e-14
1.19757e-14
2.39934e-15
4.21338e-16
6.48397e-17
9.12359e-18
1.19265e-18
1.4443e-19
1.61325e-20
1.65343e-21
1.5456e-22
1.3085e-23
9.949e-25
6.72527e-26
3.99146e-27
2.04716e-28
8.88651e-30
3.17302e-31
8.94062e-33
1.86137e-34
2.53736e-36
1.68148e-38
0.857348
0.212067
3.64068e-05
1.38171e-06
2.67782e-08
3.47552e-09
2.84652e-07
6.29103e-07
2.57194e-05
2.4822e-06
8.59909e-11
2.07216e-11
1.98058e-11
1.81908e-11
9.98704e-12
4.51612e-12
1.7519e-12
5.89664e-13
1.72971e-13
4.43023e-14
9.91149e-15
1.93583e-15
3.30379e-16
5.13022e-17
7.34751e-18
9.68091e-19
1.16892e-19
1.28741e-20
1.28619e-21
1.15791e-22
9.31856e-24
6.63844e-25
4.13545e-26
2.21784e-27
1.00311e-28
3.71954e-30
1.08501e-31
2.33184e-33
3.2728e-35
2.22889e-37
0.999009
0.882373
0.256593
0.000155566
1.24868e-06
1.99908e-07
5.73358e-06
0.000217144
5.03971e-05
6.65997e-07
4.63336e-11
2.97967e-11
2.92407e-11
2.58027e-11
1.61223e-11
8.43175e-12
3.76627e-12
1.44567e-12
4.79433e-13
1.37958e-13
3.45331e-14
7.52621e-15
1.43144e-15
2.4667e-16
3.89214e-17
5.61057e-18
7.36422e-19
8.76553e-20
9.41434e-21
9.06784e-22
7.77405e-23
5.87679e-24
3.87108e-25
2.18827e-26
1.04028e-27
4.04409e-29
1.23404e-30
2.76906e-32
4.05139e-34
2.87403e-36
0.999895
0.999138
0.909825
0.314582
0.000347474
5.13625e-06
1.10598e-05
0.000401304
5.51789e-06
2.85882e-10
1.99629e-10
6.8794e-11
3.34134e-11
3.30853e-11
2.48312e-11
1.45961e-11
7.29036e-12
3.12673e-12
1.15523e-12
3.69408e-13
1.02668e-13
2.48654e-14
5.26872e-15
1.00928e-15
1.75906e-16
2.78262e-17
3.98325e-18
5.14121e-19
5.95642e-20
6.15962e-21
5.64536e-22
4.5448e-23
3.17728e-24
1.90041e-25
9.53334e-27
3.90159e-28
1.25082e-29
2.94373e-31
4.51117e-33
3.3503e-35
0.999986
0.9999
0.999231
0.940177
0.388814
0.000628887
6.44975e-05
0.000172409
2.23507e-07
1.43965e-08
1.11788e-09
1.98608e-10
6.28791e-11
3.7103e-11
3.10734e-11
2.4678e-11
1.34711e-11
6.28263e-12
2.53216e-12
8.82683e-13
2.67302e-13
7.0726e-14
1.64873e-14
3.4842e-15
6.67925e-16
1.15714e-16
1.80541e-17
2.52757e-18
3.16153e-19
3.51431e-20
3.44834e-21
2.96131e-22
2.20115e-23
1.39571e-24
7.4032e-26
3.19642e-27
1.07901e-28
2.66957e-30
4.29538e-32
3.34787e-34
0.999994
0.999979
0.999896
0.999321
0.970101
0.461269
0.00307561
9.04989e-05
8.01458e-06
4.1614e-07
2.10087e-08
1.98765e-09
3.11675e-10
9.69043e-11
3.96828e-11
2.52364e-11
2.213e-11
1.18639e-11
5.26181e-12
1.99361e-12
6.48467e-13
1.82389e-13
4.49525e-14
1.01009e-14
2.06776e-15
3.83607e-16
6.41719e-17
9.6324e-18
1.29059e-18
1.53439e-19
1.60735e-20
1.47067e-21
1.16233e-22
7.82087e-24
4.39388e-25
2.00588e-26
7.14845e-28
1.86463e-29
3.16001e-31
2.59325e-33
0.999986
0.999978
0.999953
0.999859
0.999415
0.988473
0.49096
0.00686488
5.51998e-05
8.74475e-06
5.17145e-07
3.46717e-08
4.01465e-09
6.29303e-10
1.42664e-10
3.93194e-11
2.29574e-11
1.94576e-11
1.06582e-11
4.51972e-12
1.61274e-12
4.91647e-13
1.30397e-13
3.13338e-14
6.8183e-15
1.33979e-15
2.36867e-16
3.75182e-17
5.29803e-18
6.63151e-19
7.30626e-20
7.02396e-21
5.82724e-22
4.11214e-23
2.4209e-24
1.15724e-25
4.31563e-27
1.17742e-28
2.08646e-30
1.79107e-32
0.999984
0.999959
0.999934
0.999893
0.999781
0.999308
0.992619
0.470096
0.00555917
8.88053e-05
1.01402e-05
7.2332e-07
7.08035e-08
8.8525e-09
1.21604e-09
2.00101e-10
4.22386e-11
2.01482e-11
1.65243e-11
9.25144e-12
3.71469e-12
1.23804e-12
3.55784e-13
9.1714e-14
2.12239e-14
4.40757e-15
8.19991e-16
1.36267e-16
2.01464e-17
2.63608e-18
3.03245e-19
3.04108e-20
2.62982e-21
1.93321e-22
1.18498e-23
5.89544e-25
2.28756e-26
6.49294e-28
1.19709e-29
1.06975e-31
0.999972
0.999955
0.999906
0.999828
0.999762
0.999622
0.999309
0.987723
0.413717
0.00321413
7.77759e-05
1.22057e-05
1.41138e-06
1.79073e-07
1.99849e-08
2.21413e-09
2.73131e-10
4.52584e-11
1.80327e-11
1.43074e-11
7.92538e-12
2.96136e-12
9.22941e-13
2.54913e-13
6.25688e-14
1.36646e-14
2.65604e-15
4.58999e-16
7.03429e-17
9.52064e-18
1.13136e-18
1.17108e-19
1.04483e-20
7.92292e-22
5.00977e-23
2.57153e-24
1.02979e-25
3.01787e-27
5.74796e-29
5.31191e-31
0.985393
1.00001
0.999877
0.999815
0.999602
0.999462
0.999377
0.998989
0.956473
0.321811
0.00149936
8.23075e-05
1.47918e-05
2.53092e-06
3.22656e-07
3.17953e-08
3.19022e-09
3.2303e-10
4.75744e-11
1.71884e-11
1.35016e-11
6.9808e-12
2.43479e-12
7.25744e-13
1.90112e-13
4.39362e-14
8.96844e-15
1.61702e-15
2.57175e-16
3.59701e-17
4.4027e-18
4.68238e-19
4.28452e-20
3.32791e-21
2.15368e-22
1.13097e-23
4.63304e-25
1.3892e-26
2.70865e-28
2.56527e-30
0.172014
0.664735
0.999377
0.99968
0.999554
0.999224
0.998893
0.998806
0.99831
0.877259
0.199792
0.00112059
8.98281e-05
1.51035e-05
2.56745e-06
3.3997e-07
3.37867e-08
3.04497e-09
2.78463e-10
4.51054e-11
1.72859e-11
1.38612e-11
6.6398e-12
2.21952e-12
6.26046e-13
1.53639e-13
3.30005e-14
6.21521e-15
1.02637e-15
1.4834e-16
1.869e-17
2.03992e-18
1.91106e-19
1.51697e-20
1.00191e-21
5.36448e-23
2.23925e-24
6.83983e-26
1.35867e-27
1.31183e-29
0.000509113
0.0384529
0.249353
0.834292
0.999044
0.999029
0.998772
0.997847
0.997692
0.996879
0.716675
0.0819947
0.0006595
8.49562e-05
1.16533e-05
2.2348e-06
2.8105e-07
2.58872e-08
2.19613e-09
2.31542e-10
4.26658e-11
1.61291e-11
1.25936e-11
5.46272e-12
1.6911e-12
4.43181e-13
1.01152e-13
2.01789e-14
3.51597e-15
5.33876e-16
7.0371e-17
8.00367e-18
7.78592e-19
6.39779e-20
4.36269e-21
2.40635e-22
1.03289e-23
3.23963e-25
6.60113e-27
6.5353e-29
4.20459e-05
0.000214811
0.000798706
0.101877
0.552041
0.996979
0.998246
0.997687
0.996059
0.99575
0.99418
0.495378
0.0156109
0.000359584
6.20868e-05
8.59808e-06
1.55772e-06
1.79047e-07
1.60438e-08
1.37033e-09
1.87337e-10
3.44061e-11
1.30225e-11
1.02233e-11
3.73004e-12
1.05205e-12
2.5613e-13
5.44911e-14
1.01046e-14
1.62694e-15
2.26428e-16
2.70765e-17
2.7585e-18
2.3655e-19
1.67817e-20
9.60453e-22
4.26805e-23
1.38333e-24
2.90848e-26
2.96865e-28
6.69594e-06
2.20075e-05
6.1487e-05
0.000364764
0.0144521
0.286255
0.908785
0.996643
0.99575
0.993335
0.992462
0.912984
0.224553
0.00185097
0.000216748
3.62807e-05
5.29357e-06
8.85701e-07
9.48997e-08
8.24493e-09
8.2378e-10
1.5003e-10
2.61343e-11
9.34646e-12
6.80063e-12
2.37344e-12
6.28145e-13
1.41485e-13
2.76027e-14
4.66046e-15
6.78147e-16
8.45432e-17
8.95575e-18
7.96662e-19
5.85098e-20
3.46067e-21
1.58704e-22
5.30227e-24
1.14818e-25
1.2065e-27
7.84996e-07
3.29907e-06
2.34712e-06
2.89015e-05
0.000121989
0.000958294
0.180504
0.805529
0.993461
0.99216
0.988993
0.987144
0.608952
0.0462285
0.000736356
0.000129917
1.83605e-05
3.08382e-06
4.14575e-07
4.04939e-08
4.10266e-09
5.03696e-10
1.01307e-10
1.66935e-11
7.88185e-12
4.97425e-12
1.50617e-12
3.57204e-13
7.21432e-14
1.25791e-14
1.89031e-15
2.43345e-16
2.66029e-17
2.44009e-18
1.84606e-19
1.12372e-20
5.2992e-22
1.81938e-23
4.04686e-25
4.36729e-27
6.30355e-08
3.44054e-07
1.01494e-06
-4.44062e-07
1.11899e-05
4.21256e-05
0.000665864
0.147169
0.794026
0.988928
0.987118
0.983099
0.922173
0.259
0.00248188
0.000356861
6.20084e-05
8.55419e-06
1.34474e-06
1.65818e-07
1.86669e-08
2.01938e-09
2.69385e-10
5.78547e-11
1.12732e-11
5.29493e-12
2.81284e-12
7.73875e-13
1.65961e-13
3.00793e-14
4.6744e-15
6.21357e-16
7.00792e-17
6.62546e-18
5.16163e-19
3.23236e-20
1.56681e-21
5.52525e-23
1.26162e-24
1.39724e-26
5.70236e-09
2.26157e-08
1.22937e-07
2.98102e-07
-5.99866e-07
4.84787e-06
2.18801e-05
0.00059135
0.223712
0.87178
0.983082
0.979319
0.975529
0.573466
0.0362071
0.000795885
0.000166838
2.49287e-05
3.64714e-06
5.56962e-07
6.97674e-08
7.60701e-09
8.78374e-10
1.4939e-10
2.83162e-11
7.85098e-12
4.24968e-12
1.58783e-12
3.67055e-13
6.83819e-14
1.08607e-14
1.47775e-15
1.70838e-16
1.65625e-17
1.3228e-18
8.48742e-20
4.21253e-21
1.5202e-22
3.55067e-24
4.02149e-26
3.42637e-10
1.78066e-09
8.33187e-09
4.3999e-08
1.87198e-07
-5.52928e-07
7.13292e-07
4.47462e-05
0.000596715
0.436763
0.946463
0.975523
0.965366
0.804827
0.163403
0.00197122
0.000385632
6.2618e-05
9.12825e-06
1.38088e-06
1.98219e-07
2.3574e-08
2.65511e-09
3.65028e-10
7.78584e-11
1.21687e-11
5.61172e-12
3.04593e-12
7.5976e-13
1.44985e-13
2.33385e-14
3.21947e-15
3.78297e-16
3.73577e-17
3.04327e-18
1.99293e-19
1.00974e-20
3.71957e-22
8.86691e-24
1.02481e-25
4.5618e-12
1.74732e-11
1.05248e-10
3.54102e-09
1.12182e-08
-3.80696e-08
3.25071e-07
9.55462e-07
3.92026e-05
0.0413983
0.715183
0.965125
0.95863
0.929484
0.351989
0.00499183
0.000737215
0.000134098
2.04445e-05
3.17731e-06
4.76759e-07
6.14974e-08
7.20004e-09
8.86712e-10
1.46268e-10
2.92003e-11
7.67686e-12
3.83735e-12
1.35693e-12
2.83294e-13
4.67796e-14
6.52982e-15
7.75691e-16
7.75516e-17
6.4042e-18
4.25495e-19
2.18829e-20
8.18504e-22
1.98172e-23
2.32661e-25
4.39593e-13
3.90624e-13
-3.21708e-12
4.92421e-13
2.02547e-09
7.52702e-09
-5.08059e-08
7.46972e-09
3.67738e-06
6.33414e-05
0.382332
0.91024
0.952907
0.938148
0.526499
0.0265502
0.000873001
0.000226424
3.80524e-05
6.18123e-06
9.4038e-07
1.29986e-07
1.60052e-08
1.91049e-09
2.87313e-10
6.12098e-11
9.76518e-12
4.61608e-12
2.15773e-12
4.86041e-13
8.29657e-14
1.18021e-14
1.42184e-15
1.43968e-16
1.20388e-17
8.1007e-19
4.22007e-20
1.59914e-21
3.92307e-23
4.66678e-25
-1.84268e-09
-1.46069e-09
-4.23605e-10
-9.39815e-12
1.78355e-11
1.69277e-10
-2.51634e-09
2.8025e-08
3.61002e-07
-6.46775e-06
0.117957
0.781923
0.938135
0.92535
0.643451
0.0730712
0.00137549
0.000338298
6.12097e-05
1.01588e-05
1.57445e-06
2.31897e-07
3.00987e-08
3.64889e-09
5.08429e-10
1.05743e-10
1.71068e-11
5.3968e-12
3.16302e-12
7.9435e-13
1.39731e-13
2.00322e-14
2.42059e-15
2.45862e-16
2.06496e-17
1.39745e-18
7.33043e-20
2.79972e-21
6.9282e-23
8.31693e-25
-6.79782e-09
-5.49183e-09
-3.58691e-09
-1.49398e-09
-2.76588e-10
-2.3934e-13
1.87663e-11
4.64443e-09
-1.01188e-07
2.29916e-07
2.5372e-05
0.594367
0.910913
0.915012
0.747893
0.155227
0.00216245
0.000506742
9.6688e-05
1.61303e-05
2.61051e-06
3.84273e-07
5.2431e-08
6.52787e-09
8.57503e-10
1.54068e-10
2.99707e-11
6.77051e-12
3.421e-12
1.13482e-12
2.14e-13
3.11407e-14
3.76445e-15
3.81641e-16
3.20297e-17
2.16991e-18
1.1414e-19
4.37769e-21
1.08914e-22
1.31531e-24
3.28643e-14
-6.01371e-10
1.92112e-05
0.000503453
0.000542318
6.88929e-05
2.66503e-09
4.9855e-08
1.32584e-06
2.17848e-06
5.82603e-06
0.40375
0.868302
0.900783
0.832946
0.278557
0.00326948
0.000759117
0.00014694
2.48886e-05
4.05708e-06
6.02777e-07
8.46054e-08
1.08244e-08
1.37235e-09
2.22983e-10
4.56502e-11
8.13519e-12
3.72273e-12
1.48741e-12
2.94253e-13
4.3415e-14
5.25824e-15
5.32222e-16
4.45897e-17
3.01881e-18
1.58904e-19
6.10683e-21
1.52416e-22
1.8475e-24
2.21984e-09
6.22797e-18
0.000461147
0.00144647
0.00147492
0.00145438
0.000242917
2.27186e-06
2.62534e-06
5.94484e-06
1.13184e-05
0.252542
0.816391
0.884504
0.8388
0.341041
0.00537794
0.000956077
0.000188184
3.25681e-05
5.43956e-06
8.27231e-07
1.20284e-07
1.56939e-08
1.96841e-09
3.04388e-10
6.27137e-11
9.40247e-12
4.16029e-12
1.8176e-12
3.65727e-13
5.4233e-14
6.5736e-15
6.64698e-16
5.56115e-17
3.76131e-18
1.97952e-19
7.61318e-21
1.90328e-22
2.31158e-24
1.91739e-09
4.92825e-10
1.31811e-09
0.00110222
0.00150292
0.00149483
0.00107892
7.25783e-05
1.07156e-05
1.17909e-05
1.83623e-05
0.159449
0.768352
0.866397
0.821417
0.329613
0.00503937
0.00102777
0.000205964
3.63064e-05
6.26249e-06
9.92979e-07
1.4812e-07
1.95728e-08
2.45778e-09
3.66826e-10
7.60447e-11
1.14039e-11
4.32908e-12
2.06615e-12
4.16876e-13
6.15159e-14
7.41702e-15
7.46709e-16
6.22698e-17
4.20255e-18
2.20922e-19
8.4948e-21
2.12497e-22
2.58259e-24
-5.45987e-11
9.1017e-10
5.14785e-08
0.000182947
0.00148812
0.00150347
0.00150347
0.000531717
2.77395e-05
1.83973e-05
3.09137e-05
0.158576
0.75147
0.848612
0.779927
0.272604
0.00362808
0.000947852
0.000191841
3.50021e-05
6.08096e-06
1.02132e-06
1.51473e-07
2.00488e-08
2.55222e-09
3.76176e-10
7.88825e-11
1.25657e-11
4.13936e-12
2.11626e-12
4.24542e-13
6.22923e-14
7.47513e-15
7.49862e-16
6.23745e-17
4.20276e-18
2.20741e-19
8.48595e-21
2.12342e-22
2.58074e-24
-3.88077e-08
2.4216e-06
7.53484e-07
2.85369e-06
0.00105
0.0015025
0.00149213
0.000893778
5.66348e-05
3.09201e-05
4.35235e-05
0.182085
0.729195
0.832508
0.681426
0.161091
0.00260501
0.000701098
0.000151516
2.91275e-05
5.57925e-06
9.30563e-07
1.36297e-07
1.81811e-08
2.32394e-09
3.70407e-10
7.53015e-11
1.44203e-11
4.33391e-12
2.02025e-12
3.96274e-13
5.7354e-14
6.81649e-15
6.7931e-16
5.62662e-17
3.78131e-18
1.98311e-19
7.61821e-21
1.90589e-22
2.31463e-24
0.000216871
0.000331271
4.75518e-05
1.41086e-05
0.000276068
0.00150487
0.00150208
0.000662914
6.11905e-05
4.99682e-05
5.18528e-05
0.316457
0.729255
0.816601
0.517958
0.0613621
0.00160662
0.000467976
0.000107537
2.28422e-05
4.34892e-06
7.09535e-07
1.0369e-07
1.38981e-08
1.82156e-09
3.31597e-10
6.36681e-11
1.36477e-11
4.63731e-12
1.71217e-12
3.28523e-13
4.72315e-14
5.59082e-15
5.55301e-16
4.5866e-17
3.07555e-18
1.61028e-19
6.17842e-21
1.5443e-22
1.87229e-24
0.00297362
0.00560097
0.00220728
3.97077e-05
0.000149154
0.000782269
0.000717548
0.000209222
6.73995e-05
6.15882e-05
0.019973
0.58444
0.736599
0.748891
0.356106
0.0178848
0.00113983
0.000312875
6.97671e-05
1.58363e-05
2.88555e-06
4.61062e-07
6.76035e-08
9.15626e-09
1.25669e-09
2.64213e-10
4.97994e-11
1.2241e-11
4.07244e-12
1.3238e-12
2.47526e-13
3.53253e-14
4.16826e-15
4.13004e-16
3.40311e-17
2.27657e-18
1.1893e-19
4.55384e-21
1.13607e-22
1.37324e-24
)
;

boundaryField
{
    leftWall
    {
        type            zeroGradient;
    }
    rightWall
    {
        type            zeroGradient;
    }
    lowerWall
    {
        type            zeroGradient;
    }
    atmosphere
    {
        type            inletOutlet;
        inletValue      nonuniform 0();
        value           nonuniform 0();
    }
    defaultFaces
    {
        type            empty;
    }
    procBoundary1to0
    {
        type            processor;
        value           nonuniform List<scalar> 
44
(
0.970362
0.822521
0.810687
0.970074
0.999978
0.999999
1
1
1
1
1
1
1
1
1
1
1
1
1
1
1.00001
1.00001
0.334124
0.000736465
6.37383e-05
1.29604e-05
1.34733e-06
1.33402e-07
1.1026e-08
1.02606e-09
3.12462e-10
2.73812e-10
2.0979e-10
1.17571e-10
9.40274e-11
7.59671e-11
5.2916e-11
4.18991e-11
5.08089e-11
2.11943e-10
4.2875e-10
6.4122e-10
8.04923e-10
7.09179e-10
)
;
    }
    procBoundary1to3
    {
        type            processor;
        value           nonuniform List<scalar> 
45
(
1.10535e-09
1.061e-09
-1.32416e-11
1.25057e-10
3.16012e-09
0.00500784
0.00560097
0.00479426
0.000494306
0.000250842
0.000236536
0.000186281
0.000145448
0.000100221
6.73993e-05
0.208919
0.703337
0.709699
0.657551
0.191449
0.00302632
0.000852321
0.000199929
4.8017e-05
1.00464e-05
1.74404e-06
2.70862e-07
3.89253e-08
5.37194e-09
8.74217e-10
1.8611e-10
4.57016e-11
9.58589e-12
3.37717e-12
9.59943e-13
1.72751e-13
2.43298e-14
2.85472e-15
2.81841e-16
2.3148e-17
1.54342e-18
8.03611e-20
3.06694e-21
7.62671e-23
9.17721e-25
)
;
    }
}


// ************************************************************************* //
