/*--------------------------------*- C++ -*----------------------------------*\
| =========                 |                                                 |
| \\      /  F ield         | OpenFOAM: The Open Source CFD Toolbox           |
|  \\    /   O peration     | Version:  3.0.1                                 |
|   \\  /    A nd           | Web:      www.OpenFOAM.org                      |
|    \\/     M anipulation  |                                                 |
\*---------------------------------------------------------------------------*/
FoamFile
{
    version     2.0;
    format      ascii;
    class       volScalarField;
    location    "0.25";
    object      p_rgh;
}
// * * * * * * * * * * * * * * * * * * * * * * * * * * * * * * * * * * * * * //

dimensions      [1 -1 -2 0 0 0 0];

internalField   nonuniform List<scalar> 
1915
(
1845.09
1914.78
1752.51
1871.6
1738.43
1869.59
1815.75
1919.15
1898.24
1989.92
1936.29
2032.49
1926.45
2016.94
1875.44
1944.95
1788.81
1805.7
1673.72
1560.5
8.54564
8.54317
8.53863
8.53232
8.52471
8.51584
8.5058
8.4947
8.48261
8.46961
8.45578
8.44119
8.42593
8.41008
8.39374
8.37698
8.35989
8.34256
8.32508
8.30756
8.2901
8.2728
8.25576
8.23909
8.22287
8.2072
8.19218
8.17788
8.1644
8.15179
8.14012
8.12947
8.11988
8.11139
8.10406
8.09791
8.09296
8.08924
8.08675
8.08552
8.54689
8.54424
8.53955
8.53297
8.52531
8.51638
8.50629
8.49514
8.48299
8.46994
8.45606
8.44143
8.42614
8.41026
8.39388
8.37708
8.35995
8.34258
8.32506
8.3075
8.28999
8.27263
8.25553
8.2388
8.22253
8.20682
8.19176
8.17743
8.16391
8.15127
8.13958
8.1289
8.11928
8.11078
8.10344
8.09727
8.09232
8.08859
8.0861
8.08487
8.5491
8.54631
8.5412
8.53456
8.52662
8.51751
8.50729
8.49601
8.48376
8.47061
8.45664
8.44193
8.42656
8.41061
8.39416
8.37729
8.36009
8.34264
8.32504
8.30739
8.28979
8.27234
8.25516
8.23832
8.22195
8.20613
8.19097
8.17654
8.16293
8.15021
8.13844
8.12769
8.11801
8.10945
8.10205
8.09585
8.09086
8.0871
8.0846
8.08335
8.55267
8.54944
8.54397
8.53684
8.52847
8.51913
8.50872
8.49729
8.48489
8.47161
8.45751
8.44268
8.4272
8.41115
8.3946
8.37763
8.36032
8.34276
8.32504
8.30725
8.28951
8.27192
8.25458
8.23759
8.22107
8.2051
8.18979
8.17521
8.16146
8.1486
8.13671
8.12584
8.11606
8.10741
8.09993
8.09366
8.08861
8.08482
8.08229
8.08103
8.55724
8.55393
8.54779
8.53974
8.53081
8.52125
8.51061
8.49898
8.48639
8.47292
8.45865
8.44367
8.42805
8.41187
8.39519
8.37808
8.36063
8.34292
8.32503
8.30707
8.28915
8.27135
8.25381
8.23662
8.21989
8.20371
8.1882
8.17342
8.15948
8.14644
8.13438
8.12335
8.11343
8.10466
8.09707
8.0907
8.08558
8.08173
8.07916
8.07788
8.56397
8.55958
8.55211
8.54425
8.53349
8.52385
8.51294
8.50106
8.48822
8.47452
8.46005
8.44489
8.4291
8.41276
8.39592
8.37865
8.36102
8.34312
8.32503
8.30685
8.28869
8.27065
8.25285
8.2354
8.2184
8.20197
8.18619
8.17116
8.15698
8.14371
8.13143
8.12021
8.11011
8.10118
8.09345
8.08697
8.08175
8.07783
8.07521
8.07391
8.57032
8.56543
8.55716
8.54836
8.53744
8.527
8.51567
8.5035
8.49037
8.4764
8.46168
8.44631
8.43033
8.41381
8.39679
8.37933
8.3615
8.34337
8.32503
8.30659
8.28815
8.26981
8.2517
8.23392
8.2166
8.19985
8.18376
8.16842
8.15394
8.14039
8.12785
8.1164
8.10609
8.09696
8.08907
8.08244
8.0771
8.07309
8.07042
8.06909
8.58186
8.5755
8.56309
8.55313
8.5415
8.53043
8.51869
8.50626
8.49279
8.4785
8.46352
8.44791
8.43173
8.41502
8.3978
8.38013
8.36206
8.34367
8.32504
8.30629
8.28751
8.26882
8.25034
8.23219
8.21448
8.19734
8.18088
8.16518
8.15035
8.13648
8.12363
8.1119
8.10133
8.09198
8.08389
8.07708
8.07161
8.06749
8.06476
8.06339
8.59157
8.58336
8.56952
8.55792
8.54538
8.53383
8.5219
8.50931
8.49544
8.4808
8.46553
8.44968
8.43329
8.41637
8.39894
8.38103
8.3627
8.34401
8.32506
8.30594
8.28678
8.26768
8.24877
8.23018
8.21203
8.19444
8.17754
8.16143
8.1462
8.13194
8.11875
8.10669
8.09582
8.08621
8.07788
8.07088
8.06525
8.06102
8.0582
8.0568
8.6122
8.59794
8.57608
8.56288
8.54887
8.53697
8.52511
8.51266
8.49826
8.48324
8.46766
8.45158
8.43498
8.41786
8.40021
8.38205
8.36343
8.34441
8.32508
8.30556
8.28595
8.26638
8.24698
8.22789
8.20922
8.19113
8.17373
8.15713
8.14145
8.12676
8.11317
8.10073
8.08953
8.07962
8.07103
8.06381
8.058
8.05363
8.05072
8.04928
1517.18
1151.34
1388.79
1104.43
1321.38
1160.12
1277.88
1161.1
1239.4
1138.39
1205.75
1124.33
1177.06
1116.71
1148.49
1107.57
1121.09
1096.63
1094.42
1085.9
1073.55
801.661
53.8562
-4.01297
-4.28854
-4.34224
-4.37578
-4.39803
-4.42326
-4.45965
-4.50668
-4.56295
-4.6289
-4.7058
-4.79567
-4.90099
-5.02503
-5.17019
-5.33958
-5.54226
-5.7847
-6.05789
-6.34896
263.408
9.24174
8.70879
8.65875
552.245
76.3152
8.6944
8.6586
814.476
477.869
67.5492
8.69393
935.748
733.926
512.623
79.2946
987.493
838.467
740.957
576.678
1019.02
913.633
832.599
783.935
1042.36
966.644
903.642
861.309
1056.38
1002.78
955.12
919.012
1064.17
1028.56
994.814
966.784
1069.5
1049.23
1028.31
1009.37
1074.05
1067.03
1057.4
1047.6
1078.74
1085.55
1085.79
1082.54
251.359
632.52
1115.23
1120.2
-3.59661
13.4018
211.822
585.27
-4.32456
-4.3281
-3.95894
2.06708
-4.42202
-4.50467
-4.55182
-4.5653
-4.45751
-4.54321
-4.632
-4.72999
-4.47996
-4.56692
-4.65949
-4.74919
-4.50475
-4.59032
-4.68014
-4.77017
-4.53923
-4.62216
-4.70851
-4.79553
-4.58426
-4.66462
-4.74779
-4.83109
-4.63924
-4.71788
-4.79903
-4.88011
-4.70502
-4.78332
-4.86418
-4.94517
-4.78296
-4.86241
-4.94499
-5.02858
-4.87556
-4.95794
-5.04387
-5.13187
-4.98566
-5.07299
-5.16413
-5.25812
-5.1162
-5.21011
-5.30804
-5.40976
-5.27067
-5.37507
-5.48636
-5.60193
-5.45089
-5.56814
-5.69649
-5.8341
-5.66865
-5.79865
-5.94171
-6.09862
-5.93856
-6.10312
-6.29408
-6.52473
-6.24604
-6.46756
-6.74391
-7.07254
-6.56262
-6.80815
-7.07714
-7.34463
8.60963
8.60426
8.58161
8.566
8.55137
8.53943
8.52815
8.51643
8.5012
8.48576
8.46989
8.45359
8.43681
8.41949
8.40161
8.38319
8.36425
8.34486
8.32512
8.30513
8.28501
8.2649
8.24495
8.22527
8.20603
8.18736
8.16938
8.15224
8.13603
8.12086
8.1068
8.09395
8.08236
8.0721
8.06322
8.05575
8.04974
8.04522
8.04222
8.04072
8.64461
8.62049
8.58829
8.56789
8.55254
8.54091
8.53112
8.52046
8.50407
8.48829
8.47218
8.45571
8.43878
8.42128
8.40317
8.38446
8.36517
8.34538
8.32516
8.30464
8.28395
8.26323
8.24263
8.2223
8.20239
8.18306
8.16444
8.14666
8.12986
8.11413
8.09955
8.08622
8.0742
8.06356
8.05434
8.04659
8.04036
8.03567
8.03256
8.03101
8.58582
8.61287
8.58574
8.56609
8.55107
8.54074
8.53377
8.52553
8.50672
8.49071
8.47444
8.45789
8.44087
8.42321
8.40488
8.38587
8.36621
8.34596
8.32522
8.30411
8.28276
8.26134
8.24001
8.21894
8.19828
8.1782
8.15885
8.14037
8.1229
8.10653
8.09138
8.07751
8.06501
8.05394
8.04435
8.0363
8.02982
8.02495
8.02171
8.0201
8.64757
8.59964
8.58074
8.56064
8.54635
8.53724
8.53515
8.53177
8.50858
8.49286
8.47663
8.46013
8.44308
8.42531
8.40676
8.38743
8.36736
8.34662
8.32529
8.30351
8.28143
8.25923
8.23707
8.21515
8.19365
8.17274
8.15257
8.1333
8.11507
8.09801
8.08221
8.06775
8.05471
8.04317
8.03317
8.02478
8.01803
8.01296
8.00958
8.0079
123.027
8.59366
8.56494
8.54939
8.53802
8.52468
8.52891
8.53454
8.50736
8.49458
8.4787
8.46245
8.44546
8.42759
8.40882
8.38917
8.36865
8.34735
8.32537
8.30284
8.27994
8.25685
8.23377
8.2109
8.18845
8.1666
8.14552
8.12537
8.10631
8.08846
8.07195
8.05684
8.04322
8.03115
8.02071
8.01195
8.00491
7.99961
7.99609
7.99432
647.921
162.606
8.58444
8.53174
8.52591
8.50217
8.51181
8.52991
8.5202
8.49608
8.48077
8.46502
8.44808
8.43008
8.41108
8.39107
8.37008
8.34817
8.32545
8.30208
8.27825
8.25417
8.23005
8.20612
8.1826
8.15971
8.13762
8.1165
8.09652
8.07781
8.0605
8.04467
8.03041
8.01778
8.00686
7.9977
7.99034
7.9848
7.9811
7.97926
825.194
705.663
207.698
8.68216
8.50586
8.48437
8.5037
8.69555
8.53667
8.49534
8.48364
8.46821
8.45108
8.43284
8.41354
8.39314
8.37164
8.34905
8.32552
8.30121
8.27633
8.25113
8.22585
8.20073
8.17603
8.15197
8.12875
8.10657
8.08558
8.06593
8.04776
8.03115
8.01619
8.00295
7.9915
7.98191
7.9742
7.9684
7.96452
7.96258
889.088
862.692
771.836
268.764
8.88899
8.5036
8.52054
8.862
8.51022
8.49894
8.48842
8.47229
8.45452
8.43583
8.41617
8.39537
8.3733
8.34998
8.32554
8.30018
8.27413
8.24767
8.22108
8.19464
8.16862
8.14327
8.11882
8.09546
8.07337
8.0527
8.03358
8.01613
8.00041
7.98651
7.97451
7.96445
7.95637
7.95029
7.94622
7.94418
943.449
923.843
908.454
845.127
350.285
9.2093
8.62039
8.67021
8.51768
8.50733
8.49472
8.4769
8.45812
8.43886
8.41886
8.39767
8.37502
8.35091
8.32547
8.29892
8.27156
8.2437
8.21565
8.18774
8.16026
8.13348
8.10767
8.08304
8.05975
8.03796
8.01783
7.99946
7.98294
7.96833
7.95573
7.94517
7.9367
7.93031
7.92604
7.9239
992.59
977.897
966.382
956.999
920.926
437.622
11.4646
8.58985
8.53069
8.516
8.50084
8.48076
8.46105
8.4415
8.42138
8.39992
8.37673
8.35177
8.32522
8.29735
8.26852
8.23909
8.20942
8.17987
8.15078
8.12245
8.09515
8.06912
8.04453
8.02156
8.00034
7.98098
7.96359
7.94824
7.935
7.92392
7.91502
7.90832
7.90383
7.90158
1037.59
1027.73
1019.04
1012.7
1006.77
987.623
489.88
15.2939
8.61338
8.54075
8.50739
8.48188
8.46136
8.44286
8.42336
8.40192
8.37828
8.35244
8.32467
8.29534
8.26487
8.23369
8.20222
8.17087
8.14001
8.10997
8.08106
8.05351
8.02753
8.00328
7.98089
7.9605
7.94219
7.92605
7.91213
7.9005
7.89117
7.88413
7.87942
7.87707
1078.42
1074.11
1069.53
1065.11
1062.05
1058.52
1045.51
496.243
14.4151
8.65843
8.52671
8.48008
8.4565
8.44122
8.42419
8.40345
8.37948
8.35275
8.32365
8.2927
8.26041
8.22729
8.19384
8.16051
8.12771
8.09582
8.06516
8.03598
8.00851
7.98289
7.95928
7.9378
7.91853
7.90155
7.88694
7.87473
7.86494
7.85756
7.85263
7.85016
1119.23
1117.39
1117.11
1116.23
1114.69
1113.98
1112.46
1093.8
460.275
12.1416
8.5895
8.48773
8.44751
8.4359
8.42311
8.40415
8.38013
8.35244
8.32191
8.28917
8.25488
8.21962
8.18399
8.14849
8.1136
8.07972
8.04718
8.01626
7.9872
7.96015
7.93526
7.91263
7.89236
7.87453
7.85919
7.84639
7.83613
7.82841
7.82325
7.82067
1147.85
1164.73
1163.7
1164
1165.58
1166.23
1166.99
1164.98
1109.71
376.906
10.2653
8.55549
8.45473
8.43492
8.42172
8.4035
8.37973
8.35114
8.31905
8.28438
8.2479
8.21032
8.17231
8.13448
8.09733
8.06131
8.02679
7.99404
7.96331
7.93476
7.90853
7.88473
7.86344
7.84473
7.82865
7.81524
7.80451
7.79644
7.79105
7.78836
206.771
811.576
1216.8
1214.44
1214.9
1216.35
1217.89
1219.6
1217.19
1064.99
248.428
9.83416
8.56851
8.47298
8.42797
8.40171
8.37713
8.34807
8.31452
8.27781
8.23898
8.19891
8.15836
8.11802
8.07848
8.04021
8.0036
7.96894
7.93648
7.90638
7.87878
7.85378
7.83146
7.81187
7.79506
7.78104
7.76983
7.76142
7.75581
7.753
-4.21112
44.4408
316.363
1062.28
1270.68
1266.6
1266.53
1269.3
1272.42
1268.8
910.821
111.731
9.36731
8.65824
8.45621
8.40031
8.37104
8.34185
8.30744
8.26878
8.22751
8.18481
8.14158
8.09859
8.05654
8.01593
7.97716
7.94054
7.90631
7.87465
7.84567
7.81947
7.79613
7.77567
7.75812
7.74352
7.73184
7.72309
7.71726
7.71435
-4.78028
-4.6642
-3.83262
131.479
735.872
1321.3
1316.72
1317.32
1321.45
1325.74
1321.85
660.623
29.5307
9.07924
8.54609
8.40035
8.36091
8.33116
8.29659
8.25638
8.21267
8.16725
8.12126
8.07555
8.0309
7.9879
7.94695
7.90836
7.87237
7.83915
7.80881
7.78144
7.75709
7.73579
7.71755
7.70237
7.69026
7.68119
7.67515
7.67213
-4.84659
-4.92233
-4.93646
-4.58854
15.1579
393.688
1253.92
1369.13
1368.91
1374.16
1377.74
1260.95
317.896
11.1712
8.80618
8.44675
8.35062
8.31602
8.28079
8.23936
8.19344
8.14528
8.09654
8.04811
8.00088
7.95549
7.91237
7.87184
7.83414
7.79942
7.76778
7.73929
7.714
7.6919
7.67301
7.65731
7.64479
7.63542
7.62919
7.62607
-4.86577
-4.9569
-5.03318
-5.06172
-5.03341
-3.88731
256.152
1157.9
1417.95
1419.65
1425.34
1422.15
879.253
74.798
9.60842
8.642
8.36275
8.2971
8.25871
8.2162
8.16842
8.11789
8.06643
8.01537
7.96564
7.91794
7.87276
7.83039
7.79109
7.75497
7.72212
7.69262
7.66647
7.64366
7.62418
7.60801
7.59512
7.58549
7.5791
7.57589
-4.88502
-4.97242
-5.04701
-5.12733
-5.19275
-5.21306
-4.27091
216.5
1181.21
1463.96
1470.9
1473.74
1378.11
395.605
12.3879
9.05638
8.43055
8.27166
8.2277
8.18508
8.13592
8.08344
8.02968
7.97624
7.92423
7.87443
7.82736
7.78335
7.7426
7.70525
7.67137
7.64098
7.6141
7.59068
7.5707
7.55414
7.54096
7.53111
7.52457
7.5213
-4.91597
-4.99885
-5.07178
-5.14055
-5.20803
-5.25364
-5.25683
-4.27521
344.416
1339.86
1510.77
1519.71
1515.52
893.507
64.6605
9.79108
8.5969
8.25925
8.18729
8.14396
8.09414
8.04041
7.98493
7.92953
7.8756
7.82403
7.77538
7.72999
7.68807
7.64972
7.615
7.58393
7.55647
7.53259
7.51224
7.49538
7.48198
7.47197
7.46533
7.462
-4.96294
-5.04272
-5.11039
-5.16687
-5.21803
-5.26349
-5.2948
-5.25563
-3.94254
700.539
1502.9
1563.06
1558.26
1297.1
272.32
11.8055
8.98759
8.28983
8.13815
8.08986
8.04139
7.98709
7.93065
7.87393
7.81861
7.76575
7.71596
7.66958
7.62682
7.58778
7.55251
7.52099
7.49318
7.46901
7.44844
7.43141
7.41787
7.40777
7.40107
7.39771
-5.02826
-5.1067
-5.16816
-5.21314
-5.25356
-5.29613
-5.33188
-5.3722
-5.30159
64.7045
1167.4
1591.37
1601.44
1552.39
595.457
16.638
9.60034
8.35633
8.08045
8.02082
7.97516
7.92175
7.86523
7.80805
7.75207
7.69856
7.64821
7.60137
7.55822
7.51889
7.4834
7.45174
7.42382
7.39958
7.37896
7.3619
7.34835
7.33824
7.33153
7.32817
-5.11554
-5.19721
-5.25533
-5.28947
-5.31978
-5.36283
-5.41276
-5.47145
-5.6225
-5.43516
649.626
1553.06
1644.48
1621.97
911.578
53.7278
9.7536
8.42107
8.02028
7.93871
7.89424
7.84273
7.78703
7.73045
7.67476
7.62144
7.57127
7.52459
7.48163
7.44249
7.4072
7.37574
7.34801
7.32396
7.3035
7.28658
7.27313
7.2631
7.25644
7.25311
-5.22606
-5.31528
-5.37155
-5.39546
-5.42908
-5.48677
-5.55766
-5.61735
-5.74733
-5.82954
206.119
1383.36
1669.3
1654.39
1150.54
139.435
10.7122
8.58829
7.97616
7.84577
7.79756
7.74813
7.69441
7.63972
7.58551
7.53342
7.48432
7.43859
7.39647
7.35808
7.32347
7.29261
7.26542
7.24183
7.22176
7.20516
7.19197
7.18213
7.17559
7.17232
-5.36372
-5.4727
-5.53232
-5.52868
-5.56746
-5.65197
-5.76333
-5.83954
-5.93425
-6.05452
-4.21656
1085.54
1667.82
1689.63
1381.51
295.415
12.387
8.88247
7.93983
7.73626
7.68213
7.63555
7.58565
7.53453
7.48326
7.43365
7.38668
7.34279
7.30226
7.26526
7.23186
7.20205
7.17577
7.15295
7.13353
7.11745
7.10467
7.09512
7.08878
7.08561
-5.53467
-5.6796
-5.71978
-4.81551
-4.83189
-5.90379
-6.14029
-6.19933
-6.24212
-6.46375
-6.27894
761.777
1645.75
1720.74
1591.53
538.891
14.4236
9.25763
7.88628
7.60267
7.54331
7.50234
7.45911
7.41373
7.36715
7.32148
7.27784
7.23677
7.19865
7.16373
7.13211
7.10383
7.07884
7.05712
7.03861
7.02328
7.01106
7.00193
6.99587
6.99283
-5.74066
-5.92983
-5.23592
-3.4526
-3.62306
-3.89276
-6.3412
-6.7546
-6.69467
-6.83844
-7.19399
489.21
1611.28
1749.08
1656.39
678.18
18.5754
9.45773
7.76729
7.4346
7.37731
7.34667
7.31378
7.27662
7.23671
7.19658
7.15754
7.12032
7.08547
7.05333
7.02409
6.99781
6.97454
6.95424
6.93692
6.92254
6.91107
6.90248
6.89677
6.89391
-6.01258
-6.31558
-6.69084
-4.76167
-4.11265
-4.36526
-5.41606
-7.24256
-7.16251
-7.04694
-7.20027
316.195
1571.46
1769.82
1672.87
675.814
18.1854
9.35896
7.56302
7.22732
7.18323
7.16887
7.14977
7.1233
7.09207
7.05905
7.02586
6.99352
6.96278
6.93411
6.9078
6.88401
6.86283
6.8443
6.82843
6.81521
6.80465
6.79672
6.79144
6.78879
-6.32795
-6.7603
-7.22734
-7.12359
-4.44419
-4.76033
-5.10343
-6.94938
-7.6042
-7.23937
-7.13675
324.337
1579.19
1785.19
1636.02
576.292
15.1589
8.87503
7.26073
6.98135
6.96329
6.97113
6.96861
6.95491
6.93406
6.9095
6.88327
6.85672
6.83084
6.80626
6.78342
6.76256
6.74385
6.72738
6.71321
6.70136
6.69186
6.6847
6.67992
6.67752
-6.9145
-7.57485
-8.11969
-8.17087
-5.85824
-5.18531
-5.55174
-6.73548
-7.99271
-7.50987
-7.37378
384.234
1571.37
1803.1
1472.21
352.13
12.3385
7.97667
6.87685
6.70528
6.72643
6.75843
6.77352
6.77372
6.7643
6.74911
6.73063
6.71057
6.69016
6.67022
6.65129
6.63374
6.6178
6.60366
6.59142
6.58113
6.57283
6.56653
6.56232
6.56019
-7.27141
-8.38277
-9.63405
-9.41662
-8.39696
-5.47571
-5.75123
-7.60406
-8.31711
-7.69285
-7.37624
690.266
1619.6
1824.13
1152.85
141.18
9.44617
7.12962
6.48897
6.42765
6.48439
6.53782
6.56903
6.58282
6.585
6.57955
6.56921
6.55603
6.5415
6.52658
6.5119
6.49794
6.48504
6.47345
6.46333
6.45475
6.44776
6.44241
6.4388
6.43698
-1.5512
1.49487
-6.90929
-10.8572
-9.76553
-7.74182
-7.81379
-8.82546
-8.51102
-7.86899
38.6766
1321.95
1690.27
1720.29
816.998
47.4676
8.19676
6.54762
6.14898
6.16473
6.24664
6.31513
6.35937
6.38532
6.39848
6.40255
6.40035
6.39422
6.38577
6.37608
6.36585
6.35566
6.34598
6.33713
6.32929
6.32255
6.31695
6.31259
6.30962
6.30811
)
;

boundaryField
{
    leftWall
    {
        type            fixedFluxPressure;
        gradient        nonuniform 0();
        value           nonuniform 0();
    }
    rightWall
    {
        type            fixedFluxPressure;
        gradient        uniform 0;
        value           nonuniform List<scalar> 
43
(
8.08552
8.08487
8.08335
8.08103
8.07788
8.07391
8.06909
8.06339
8.0568
8.04928
8.04072
8.03101
8.0201
8.0079
7.99432
7.97926
7.96258
7.94418
7.9239
7.90158
7.87707
7.85016
7.82067
7.78836
7.753
7.71435
7.67213
7.62607
7.57589
7.5213
7.462
7.39771
7.32817
7.25311
7.17232
7.08561
6.99283
6.89391
6.78879
6.67752
6.56019
6.43698
6.30811
)
;
    }
    lowerWall
    {
        type            fixedFluxPressure;
        gradient        uniform 0;
        value           nonuniform List<scalar> 
66
(
1845.09
1914.78
1914.78
1871.6
1869.59
1919.15
1989.92
2032.49
2016.94
1944.95
1805.7
1560.5
263.408
9.24174
8.70879
8.65875
8.54564
8.54689
8.5491
8.55267
8.55724
8.56397
8.57032
8.58186
8.59157
8.6122
8.54564
8.54317
8.53863
8.53232
8.52471
8.51584
8.5058
8.4947
8.48261
8.46961
8.45578
8.44119
8.42593
8.41008
8.39374
8.37698
8.35989
8.34256
8.32508
8.30756
8.2901
8.2728
8.25576
8.23909
8.22287
8.2072
8.19218
8.17788
8.1644
8.15179
8.14012
8.12947
8.11988
8.11139
8.10406
8.09791
8.09296
8.08924
8.08675
8.08552
)
;
    }
    atmosphere
    {
        type            totalPressure;
        rho             rho;
        psi             none;
        gamma           1;
        p0              nonuniform 0();
        value           nonuniform 0();
    }
    defaultFaces
    {
        type            empty;
    }
    procBoundary1to0
    {
        type            processor;
        value           nonuniform List<scalar> 
44
(
1799.06
1726.52
1728.85
1787.86
1843.96
1865.45
1853.84
1817
1759.26
1680.55
1580.26
1483.86
1414.84
1362.49
1312.78
1264.78
1220.46
1175.7
1134.76
1091.18
1060.3
1060.3
355.925
-2.99827
-4.04574
-4.20031
-4.26357
-4.30163
-4.32413
-4.34893
-4.38634
-4.43445
-4.49116
-4.55674
-4.63226
-4.71938
-4.8197
-4.93688
-5.07278
-5.23082
-5.41685
-5.63406
-5.87784
-6.14347
)
;
    }
    procBoundary1to3
    {
        type            processor;
        value           nonuniform List<scalar> 
45
(
-6.66511
-6.89878
-7.13148
-7.31464
-7.34135
3.99254
2.32234
-1.49169
-10.5297
-10.2183
-9.45056
-9.24856
-9.05578
-8.6026
-8.0469
480.484
1648.51
1677.32
1550.32
452.839
13.2144
7.43998
6.07852
5.86441
5.91835
6.01501
6.09307
6.1475
6.18381
6.20672
6.21961
6.22536
6.22628
6.224
6.2196
6.21388
6.20757
6.20122
6.19521
6.18973
6.18487
6.18072
6.1774
6.1751
6.17393
)
;
    }
}


// ************************************************************************* //
