/*--------------------------------*- C++ -*----------------------------------*\
| =========                 |                                                 |
| \\      /  F ield         | OpenFOAM: The Open Source CFD Toolbox           |
|  \\    /   O peration     | Version:  3.0.1                                 |
|   \\  /    A nd           | Web:      www.OpenFOAM.org                      |
|    \\/     M anipulation  |                                                 |
\*---------------------------------------------------------------------------*/
FoamFile
{
    version     2.0;
    format      ascii;
    class       volVectorField;
    location    "9.2";
    object      ddt0(U);
}
// * * * * * * * * * * * * * * * * * * * * * * * * * * * * * * * * * * * * * //

dimensions      [0 1 -2 0 0 0 0];

internalField   nonuniform List<vector> 
7968
(
(-7.46963556531e-05 -4.96276343173e-05 0.000128456826746)
(-0.000196762480689 -4.12638387263e-05 0.000106766159614)
(-0.000309392895312 -3.70590318006e-05 9.15759024339e-05)
(-0.000410322258995 -3.46303875883e-05 8.1957255072e-05)
(-0.000493266086948 -3.35878480979e-05 7.33989810808e-05)
(-0.000553988615549 -3.36976480427e-05 6.35070657717e-05)
(-0.000596714100847 -3.34017967395e-05 5.21447238026e-05)
(-0.00061152463638 -3.24902292447e-05 3.92692032935e-05)
(-0.000607720045498 -3.01119362122e-05 2.96880890377e-05)
(-0.000585021550085 -2.76553662292e-05 2.06178961536e-05)
(-0.000548248103013 -2.57192355539e-05 1.2476317999e-05)
(-0.000500241498645 -2.41788116075e-05 5.74322670406e-06)
(-0.000445509136315 -2.3354694172e-05 6.41187222048e-07)
(-0.000389213794194 -2.29041884189e-05 -1.66559344766e-06)
(-0.000331572039838 -2.34322368997e-05 -3.61853113679e-06)
(-0.000277904612646 -2.46600300763e-05 -3.80687655285e-06)
(-0.000224647394556 -2.77492982383e-05 -4.07952966901e-06)
(-0.000169965277747 -3.1300189655e-05 -2.84293594852e-06)
(-0.00011486985036 -3.70357502724e-05 1.89515349485e-06)
(-3.78016809367e-05 -4.68347008241e-05 1.42966840809e-05)
(-6.44748357112e-05 -0.000133258312884 0.000111200878807)
(-0.000171910860286 -0.000117043992077 8.50885191476e-05)
(-0.000300528808783 -0.000112119947623 8.98849301739e-05)
(-0.000420678228924 -0.000113656169873 9.40517048854e-05)
(-0.000525523799904 -0.000119128790186 9.16619415126e-05)
(-0.000599445694508 -0.00012635015063 8.49144161063e-05)
(-0.000640678831339 -0.000129502245375 7.29782281892e-05)
(-0.000648070916755 -0.000130629795968 5.78950789991e-05)
(-0.000627166184245 -0.000125727603952 4.34311710446e-05)
(-0.000584422451803 -0.000119513080883 3.15852689434e-05)
(-0.000527345254517 -0.000112707538429 2.25988572841e-05)
(-0.000462103999966 -0.000105339779149 1.69553821286e-05)
(-0.000395586470604 -9.79616463175e-05 1.34912418414e-05)
(-0.000335348013975 -9.01767353265e-05 1.18310373162e-05)
(-0.000282787149009 -8.30247213918e-05 1.01410121716e-05)
(-0.000241370421123 -7.608345514e-05 8.08993455527e-06)
(-0.000205704369522 -7.40509924996e-05 3.15543028746e-06)
(-0.000167699410095 -7.771833357e-05 -4.88113317866e-06)
(-0.000126220087457 -9.05705082778e-05 -1.48349451038e-05)
(-4.40838340311e-05 -0.000115716082493 -8.48071985257e-06)
(-6.23146985518e-05 -0.000225854136631 0.000100950414582)
(-0.000166341106416 -0.000227725531045 9.49417322856e-05)
(-0.000309617300251 -0.000241019549737 0.000116982646143)
(-0.000444550427708 -0.000259517767979 0.000126312997385)
(-0.000557255575595 -0.000278686323151 0.000122391096005)
(-0.000633884904774 -0.000291087284222 0.000109504433999)
(-0.000671830391513 -0.000296536762477 9.21557534179e-05)
(-0.00067124296378 -0.000295184325592 7.29360632965e-05)
(-0.000638941280928 -0.000286317910947 5.56912700755e-05)
(-0.000583239177864 -0.000275302668167 4.25249296558e-05)
(-0.000513475447253 -0.000261814991015 3.36325601761e-05)
(-0.000437238581034 -0.000247077008196 2.94994647964e-05)
(-0.000362832079237 -0.000232140830482 2.83096541197e-05)
(-0.000298413164644 -0.000216605643367 2.99910224286e-05)
(-0.000246222855355 -0.000200111429226 3.17773142538e-05)
(-0.000209331761195 -0.000182375143788 3.23055939723e-05)
(-0.000183057452798 -0.000167624199006 2.74208686918e-05)
(-0.000158543375638 -0.000158926399723 1.44716956262e-05)
(-0.000131939348451 -0.000160592413733 -1.04651229149e-05)
(-4.91707129369e-05 -0.000177216891241 -2.30247733499e-05)
(-6.07347587349e-05 -0.000312485961527 9.56023218763e-05)
(-0.000168302772742 -0.000332252573995 0.00010228322365)
(-0.000327019557278 -0.000360947136344 0.000128683615351)
(-0.000470978794948 -0.000389174588887 0.000132699737142)
(-0.000587591126816 -0.000414295314106 0.000120092624063)
(-0.000662406273198 -0.000430897513569 0.0001000750608)
(-0.000693515206077 -0.000437019560126 7.80808305989e-05)
(-0.000682953512909 -0.000433569728656 5.59489502232e-05)
(-0.000641480846693 -0.000421380901559 3.83906901925e-05)
(-0.000577045057769 -0.000404282114274 2.80359097767e-05)
(-0.000497661372008 -0.00038524983607 2.10112022001e-05)
(-0.000414459507409 -0.00036535040806 1.85753221791e-05)
(-0.000335101804462 -0.000345222935661 2.01319396872e-05)
(-0.000267245091425 -0.000324362398877 2.56907063963e-05)
(-0.000214344034299 -0.000302157493213 3.17479225218e-05)
(-0.000180319273483 -0.000277804110487 3.72672299025e-05)
(-0.000161149598874 -0.000255996502642 3.75480241777e-05)
(-0.000147091580736 -0.000238518669459 2.60259677756e-05)
(-0.000134554434308 -0.000228061128498 -5.5778948492e-06)
(-5.35899345622e-05 -0.000230753181519 -3.22489550292e-05)
(-5.84383726996e-05 -0.000387015933524 9.06410311679e-05)
(-0.000174128868043 -0.000426664943037 0.000102485123831)
(-0.000346442106465 -0.000464046176979 0.000126179827096)
(-0.000496025003455 -0.00049651066191 0.000121443007245)
(-0.000612743333767 -0.000522137061577 0.000100657396266)
(-0.00068211302268 -0.00053682857932 7.41630058334e-05)
(-0.000704870700034 -0.000539118095805 4.97285703234e-05)
(-0.000685311911384 -0.00053122568279 2.81326416097e-05)
(-0.000634405717255 -0.000515112120334 1.23558081298e-05)
(-0.000562598233252 -0.000492547498321 2.79173496814e-06)
(-0.000479174665158 -0.000469732887569 -1.78029514058e-06)
(-0.000392307871517 -0.000447587288531 -1.42096838184e-06)
(-0.000309891270307 -0.000425848343163 2.80107366997e-06)
(-0.000240023037587 -0.000403703712814 1.10942170438e-05)
(-0.000186702563131 -0.000380236390236 2.05396144882e-05)
(-0.000154078929328 -0.000354349166417 3.0828015298e-05)
(-0.000140504375786 -0.000329602411645 3.59615565913e-05)
(-0.000134421385494 -0.000306803459976 2.9207824381e-05)
(-0.000134098295597 -0.000287241893802 -4.20000159111e-06)
(-5.71264979202e-05 -0.000275424118759 -3.95857560496e-05)
(-5.64412326402e-05 -0.000444476811563 8.45136252229e-05)
(-0.000181220484631 -0.000498052215715 9.62338870505e-05)
(-0.000362111631731 -0.000537414503828 0.000113843825893)
(-0.000515127359941 -0.000567740948086 0.000101789321694)
(-0.000629569624012 -0.000588242776618 7.43260359085e-05)
(-0.000691374723508 -0.000595818135907 4.46595728233e-05)
(-0.00070528900378 -0.000591317766961 1.89995747528e-05)
(-0.00067690291344 -0.000577195343318 -9.53217561441e-07)
(-0.000619098866103 -0.000555479076812 -1.32354443915e-05)
(-0.000543455246625 -0.000530355795816 -1.94043961012e-05)
(-0.000458863662061 -0.000506098139131 -2.1275795392e-05)
(-0.000371774804539 -0.000484319407895 -1.9263163969e-05)
(-0.000288983649322 -0.000464451388757 -1.40487065263e-05)
(-0.00021844016999 -0.000445039405062 -4.55882388796e-06)
(-0.000164847643585 -0.000424761197536 6.97179942076e-06)
(-0.000133818342091 -0.000401325832302 1.9857198143e-05)
(-0.000124084232068 -0.000378389350355 2.90243077327e-05)
(-0.000124160506689 -0.000354109760618 2.56075852075e-05)
(-0.000133514746085 -0.000330543590332 -6.42492099272e-06)
(-6.15478901355e-05 -0.000308031805098 -4.51352068129e-05)
(-5.59423745294e-05 -0.000482392413262 7.74639430522e-05)
(-0.00018569597031 -0.000538568397257 8.53315670225e-05)
(-0.000370432813332 -0.000574462480003 9.70543603715e-05)
(-0.000524269985559 -0.000598182463896 7.99292897616e-05)
(-0.000634273221717 -0.000610561771983 4.96071932878e-05)
(-0.000688540608392 -0.000610004122645 1.90113531774e-05)
(-0.000695033670072 -0.000599008065727 -5.32185500476e-06)
(-0.000659734807682 -0.000579514776842 -2.19204349724e-05)
(-0.000598063336023 -0.000553903543316 -2.98270956995e-05)
(-0.000521856163495 -0.000526928356388 -3.2438781025e-05)
(-0.000439063981161 -0.000502848154885 -3.23901252545e-05)
(-0.000354336095468 -0.000483026347472 -3.00481860775e-05)
(-0.000273072122027 -0.000466504947689 -2.55437938095e-05)
(-0.000203150894895 -0.000451406638374 -1.67796741612e-05)
(-0.000150312317784 -0.000435960090116 -5.48594656681e-06)
(-0.000119644113673 -0.000417809310147 9.56576806382e-06)
(-0.000113081051649 -0.000398379622285 1.99906941464e-05)
(-0.000117844836098 -0.000377109104972 1.84449992413e-05)
(-0.000132645684718 -0.000354831288547 -1.11851511515e-05)
(-6.33003216969e-05 -0.000328629340965 -5.21011331227e-05)
(-5.47830847205e-05 -0.000501229609388 7.08088324039e-05)
(-0.000186430799605 -0.000549585177972 7.20272472606e-05)
(-0.000371693663433 -0.000577371844271 7.86453295083e-05)
(-0.000523983920693 -0.000591908948689 5.83414013251e-05)
(-0.000629317870254 -0.000595437697429 2.71556311286e-05)
(-0.00067664859214 -0.000587184803963 -1.67201428887e-06)
(-0.000676809892993 -0.000570630984444 -2.30012876856e-05)
(-0.000636231087348 -0.000547225472941 -3.52346528642e-05)
(-0.000572715168303 -0.000519629663589 -3.7695529355e-05)
(-0.000498297827367 -0.000493426691151 -3.52966765736e-05)
(-0.00041977741725 -0.000470897307293 -3.37824307781e-05)
(-0.000339816768519 -0.000453021187833 -3.32602583187e-05)
(-0.000261632805411 -0.00043993760346 -3.08878180518e-05)
(-0.000193347913898 -0.000429156072215 -2.43543010445e-05)
(-0.000141611496998 -0.000418574846449 -1.49689740811e-05)
(-0.000111212425308 -0.000405868654083 -3.06381331982e-07)
(-0.000106641584445 -0.000391702207917 1.05047611628e-05)
(-0.000114849654858 -0.000375033262468 9.75653111353e-06)
(-0.000131544647407 -0.000356791934416 -1.78179135852e-05)
(-6.51129521115e-05 -0.00033296796514 -5.96113871683e-05)
(-5.29322294698e-05 -0.000495903056956 6.67394062674e-05)
(-0.000183649791094 -0.000532462095713 5.88109622076e-05)
(-0.000367313809173 -0.000549543864547 6.15324788279e-05)
(-0.000516566590336 -0.000554818176284 4.06302431629e-05)
(-0.000617168522678 -0.000550477615405 9.64518631813e-06)
(-0.000658603945604 -0.00053669090088 -1.61849184068e-05)
(-0.000653972019402 -0.000517323540994 -3.38221921e-05)
(-0.000609983808274 -0.000493144968774 -4.10614320557e-05)
(-0.000548194437414 -0.000468717423305 -3.21127445604e-05)
(-0.000475732293288 -0.000441930340184 -3.1814704913e-05)
(-0.000403526707603 -0.00042129558067 -3.06148212179e-05)
(-0.000328976341531 -0.000406464461362 -3.09710714796e-05)
(-0.000253876920028 -0.000396370100095 -3.12796298724e-05)
(-0.000187815630682 -0.000388055758301 -2.77776387601e-05)
(-0.000137478283671 -0.000380689921816 -2.09181118572e-05)
(-0.00010734604795 -0.000372544682818 -7.64153513059e-06)
(-0.000103744340031 -0.000363303679166 2.74340021599e-06)
(-0.000114225826826 -0.00035200559824 1.03693490176e-06)
(-0.000131643626348 -0.000339559554778 -2.36438305455e-05)
(-6.65773537335e-05 -0.000325367550132 -6.6111163538e-05)
(-5.51050320726e-05 -0.000475856305607 5.3966310337e-05)
(-0.000184005995569 -0.000494013341216 4.60528654386e-05)
(-0.000360652390248 -0.00049847994733 4.75840881387e-05)
(-0.000505096227384 -0.00049510258504 2.78473202924e-05)
(-0.000601069073057 -0.000484626713158 -2.52838404303e-06)
(-0.000638411507133 -0.00046818384732 -2.54290550429e-05)
(-0.000630905731936 -0.000448897649104 -4.00129769036e-05)
(-0.000586145039445 -0.000427084895447 -4.26892743272e-05)
(-0.000524007713223 -0.000404748750748 -3.34529723791e-05)
(-0.000456758993718 -0.000384244666524 -3.0515029889e-05)
(-0.000389691405903 -0.000367263521741 -2.76172740343e-05)
(-0.000319844716849 -0.000353940075495 -2.88800087005e-05)
(-0.000249688625662 -0.000343743334832 -3.29957548423e-05)
(-0.000183825553906 -0.00033619285686 -2.92775036592e-05)
(-0.000135135996647 -0.000329978588718 -2.40895335261e-05)
(-0.000105571538524 -0.000324784067329 -1.21049574511e-05)
(-0.000102602525126 -0.000319428834584 -2.4251905413e-06)
(-0.000113526565073 -0.000313773614251 -5.10273411769e-06)
(-0.000131250634083 -0.000308619878844 -2.88797129496e-05)
(-6.79437465366e-05 -0.000306793644019 -7.15007015813e-05)
(-5.52521082848e-05 -0.000448303165355 4.64406470965e-05)
(-0.000181075120629 -0.000440963491865 3.62856895501e-05)
(-0.00035225783171 -0.000432194567531 3.76329285416e-05)
(-0.000491963263942 -0.000420219499955 1.8819002068e-05)
(-0.000584350091682 -0.000405342830181 -9.82085429754e-06)
(-0.000619508059119 -0.000388380128402 -3.06691550412e-05)
(-0.000611330199846 -0.00037109875245 -4.36604637842e-05)
(-0.000567015678094 -0.000353708722903 -4.49215967049e-05)
(-0.000506555691306 -0.000337026486375 -3.48973311685e-05)
(-0.000441990423053 -0.000322754701573 -3.11193483998e-05)
(-0.000377680624209 -0.000309366027573 -2.80120907147e-05)
(-0.000310653933631 -0.000297212182772 -2.95328510473e-05)
(-0.000243376799725 -0.000287088562245 -3.41474240423e-05)
(-0.000179211878404 -0.000278315216661 -3.00802335751e-05)
(-0.000132204393326 -0.00027218720928 -2.51805200044e-05)
(-0.000103848426304 -0.0002692728556 -1.38157425132e-05)
(-0.000101437355862 -0.000267126834168 -4.40377430756e-06)
(-0.000112623855974 -0.00026708553239 -7.6840029235e-06)
(-0.000130323762405 -0.000270065104941 -3.11982539772e-05)
(-6.81070170785e-05 -0.000280079289984 -7.50086398455e-05)
(-5.41615643079e-05 -0.000405985754553 4.19455917011e-05)
(-0.000175879965156 -0.000378555153651 3.03167637553e-05)
(-0.000342598656063 -0.00035783929634 3.20960644388e-05)
(-0.000478155491293 -0.000338857989609 1.38428230547e-05)
(-0.000568324084401 -0.00031997360731 -1.23855161869e-05)
(-0.000603242897469 -0.000303004184835 -3.23962494859e-05)
(-0.000596602140626 -0.000288104244327 -4.52883569276e-05)
(-0.000553939437375 -0.000275402612502 -4.8244285641e-05)
(-0.00049715829224 -0.000262031254831 -3.44143227652e-05)
(-0.000431545541375 -0.000255751465711 -3.48399424867e-05)
(-0.000367807017054 -0.00024654258674 -3.3054846042e-05)
(-0.000301733006519 -0.000236034703819 -3.40247960449e-05)
(-0.000235162511493 -0.000226021890233 -3.53859809298e-05)
(-0.000174127443323 -0.000217156956927 -3.07998489625e-05)
(-0.000128990249315 -0.000211687116686 -2.44848066678e-05)
(-0.000102254515659 -0.000211096915865 -1.26704530707e-05)
(-0.000100340397526 -0.00021239808578 -3.14561196123e-06)
(-0.000111391569013 -0.000217713624405 -5.95116643881e-06)
(-0.000128664344782 -0.000227903386242 -3.04921737551e-05)
(-6.72355583186e-05 -0.000247807713 -7.6802082443e-05)
(-5.42191475652e-05 -0.000355194929876 3.63246822102e-05)
(-0.000171260979209 -0.000314000117849 2.69014457995e-05)
(-0.000331915678991 -0.000283968397308 3.09476272189e-05)
(-0.000462876735047 -0.000258744729361 1.48044728908e-05)
(-0.000551593159826 -0.000235976791689 -9.62486053592e-06)
(-0.000588421394396 -0.000218175517775 -2.98358487396e-05)
(-0.00058504981247 -0.000204721181628 -4.3629759575e-05)
(-0.000546237644326 -0.000195186767803 -4.91546532846e-05)
(-0.000489810067695 -0.00018944469504 -4.62793214933e-05)
(-0.000426081886963 -0.000183549806085 -4.03251791245e-05)
(-0.000360146367924 -0.000177642357525 -3.74928545655e-05)
(-0.00029289035739 -0.000169798846918 -3.6459631687e-05)
(-0.000227277822968 -0.000162202416195 -3.4795165174e-05)
(-0.000169700392082 -0.00015624573189 -2.94415883625e-05)
(-0.000126336810992 -0.000153235723924 -2.13500744928e-05)
(-0.000101674668136 -0.000155809418636 -9.29542750808e-06)
(-0.00010018548985 -0.000161232603538 4.12883003354e-08)
(-0.000110591277335 -0.000171293137805 -1.94660974989e-06)
(-0.000126620739701 -0.000186248831019 -2.78531898166e-05)
(-6.5224521332e-05 -0.000213144506983 -7.67270722067e-05)
(-5.42563479057e-05 -0.000302453619739 3.2825476842e-05)
(-0.000164899569874 -0.000254016006096 2.542819342e-05)
(-0.000318227182969 -0.000217946874934 3.2828337515e-05)
(-0.000444605431483 -0.000187299477547 2.03720691359e-05)
(-0.000532975370915 -0.000160689791554 -1.48011432311e-06)
(-0.000572773938707 -0.000141296755779 -2.21239448089e-05)
(-0.000573991712033 -0.000128082811159 -3.69304101172e-05)
(-0.000540155932995 -0.000120098813511 -4.50581075741e-05)
(-0.000486947959457 -0.000116967328486 -4.58605019904e-05)
(-0.00042391386994 -0.000115513347381 -4.35610945509e-05)
(-0.000356910798656 -0.00011287879763 -4.06864063791e-05)
(-0.000289003068691 -0.000108500522072 -3.7285755363e-05)
(-0.000224240836385 -0.000104484360467 -3.28344037801e-05)
(-0.000168508426223 -0.000102197851069 -2.53147524433e-05)
(-0.00012711904171 -0.000103368724949 -1.57551919428e-05)
(-0.000104232269744 -0.000110206648512 -4.01375434044e-06)
(-0.000102590308513 -0.000120118788613 3.85997571741e-06)
(-0.000110361242342 -0.000133419823294 2.03111589358e-06)
(-0.000124604368477 -0.000150464753707 -2.63275880469e-05)
(-6.3098319803e-05 -0.000179622716644 -7.51535898237e-05)
(-5.37985946923e-05 -0.000251057462298 3.09125830884e-05)
(-0.000156711619094 -0.000203417976666 2.42150878834e-05)
(-0.000301014460129 -0.000165149378937 3.56064348509e-05)
(-0.000421875203788 -0.000131287471169 2.78001770742e-05)
(-0.000510359264288 -0.000101515993612 8.87450999821e-06)
(-0.000554187684319 -8.02010631472e-05 -1.00586505335e-05)
(-0.00056093598534 -6.67015419779e-05 -2.49028394276e-05)
(-0.00053321062332 -5.94450795095e-05 -3.51953981145e-05)
(-0.000484105261925 -5.80735573052e-05 -3.91099448967e-05)
(-0.000422961134525 -5.90639819333e-05 -3.91170984903e-05)
(-0.000356317575437 -5.97222963466e-05 -3.69236714105e-05)
(-0.000288970436018 -5.93081166137e-05 -3.27675949006e-05)
(-0.00022562823153 -5.97832394657e-05 -2.67697875486e-05)
(-0.000171945355663 -6.18012775742e-05 -1.81981112462e-05)
(-0.000132683079798 -6.74072008931e-05 -8.35704751478e-06)
(-0.000111253640815 -7.8217795373e-05 1.97890065134e-06)
(-0.000107836948542 -9.12137056871e-05 8.45466564346e-06)
(-0.00011188303507 -0.000106095348128 4.52884766227e-06)
(-0.000122875532961 -0.000123252725016 -2.54364840622e-05)
(-6.04162509177e-05 -0.000146059978884 -7.23387353373e-05)
(-5.42665537504e-05 -0.00020276182434 2.94793658656e-05)
(-0.000147193042722 -0.000164533214871 2.17435023645e-05)
(-0.000280267362452 -0.000128727070484 3.7019129832e-05)
(-0.000394592642124 -9.51539087405e-05 3.52800126175e-05)
(-0.000482251797898 -6.47910053868e-05 2.20154031805e-05)
(-0.000530805163448 -4.21041118884e-05 5.77840938216e-06)
(-0.000543724170806 -2.87313441111e-05 -7.83462656619e-06)
(-0.000523455309914 -2.18472111155e-05 -1.90139273755e-05)
(-0.000480096109624 -2.1615685478e-05 -2.522129662e-05)
(-0.000422636526013 -2.46539608123e-05 -2.73126021276e-05)
(-0.000358208855083 -2.81063937645e-05 -2.62499701895e-05)
(-0.000293220858293 -3.12416748705e-05 -2.24620427095e-05)
(-0.00023238895364 -3.53081305322e-05 -1.62231414088e-05)
(-0.000181164183145 -4.13700856288e-05 -8.3335812667e-06)
(-0.000144107052767 -5.05004756073e-05 -2.30104575444e-07)
(-0.000123031462828 -6.34407970894e-05 7.47291099153e-06)
(-0.000116632115315 -7.71198296541e-05 1.09536265102e-05)
(-0.000116219462521 -9.11205575481e-05 4.74557355419e-06)
(-0.000119481184422 -0.000104756247418 -2.55702868617e-05)
(-5.49142315989e-05 -0.000117966270942 -7.03376294152e-05)
(-5.42816203043e-05 -0.00015830756719 2.8796083732e-05)
(-0.000139101689605 -0.000135641600566 1.67698901523e-05)
(-0.000258933581223 -0.000107024752738 3.39015854223e-05)
(-0.000365644628656 -7.81758073479e-05 3.8889714511e-05)
(-0.000451207214453 -5.12177501766e-05 3.2314269728e-05)
(-0.000503228044948 -3.06433376917e-05 2.08893932393e-05)
(-0.000522655354026 -1.8924502077e-05 8.91919329307e-06)
(-0.000510045775769 -1.3527155126e-05 -2.14236386556e-06)
(-0.000473604314997 -1.48011269173e-05 -9.85068794945e-06)
(-0.000421671750453 -1.92360523423e-05 -1.37440271289e-05)
(-0.000361390332909 -2.45049346507e-05 -1.43502959019e-05)
(-0.000299841425866 -2.98122958865e-05 -1.21794134712e-05)
(-0.000242730620772 -3.6050562933e-05 -8.38276837646e-06)
(-0.000194621496772 -4.31942639484e-05 -1.69362412613e-06)
(-0.000158576659089 -5.24233113669e-05 4.43478029779e-06)
(-0.000136836198064 -6.41850820743e-05 8.79787074361e-06)
(-0.000126881928899 -7.58837250807e-05 9.16609133845e-06)
(-0.00012031759144 -8.47603518807e-05 -2.61609796065e-08)
(-0.000114779874398 -9.10261052603e-05 -2.85967188418e-05)
(-4.9454910991e-05 -9.19688929357e-05 -6.60948145432e-05)
(-5.43825825028e-05 -0.000115283399889 2.90946576357e-05)
(-0.000135671461673 -0.00010882414008 8.75762775612e-06)
(-0.000241407275356 -9.17040055302e-05 2.29780754276e-05)
(-0.000338905919655 -7.21491912091e-05 3.2082103185e-05)
(-0.000419948654278 -5.28525438032e-05 3.20560082133e-05)
(-0.000472593250912 -3.79195944034e-05 2.56105908538e-05)
(-0.000497417024506 -3.08220381733e-05 1.66395757732e-05)
(-0.000492406739036 -2.79995714332e-05 5.86586423394e-06)
(-0.00046391472038 -3.06634892413e-05 -2.669979073e-06)
(-0.000419466839101 -3.55862641503e-05 -8.03511124214e-06)
(-0.000365834901789 -4.09683537177e-05 -1.01009228673e-05)
(-0.00031009430307 -4.63016335625e-05 -9.55789546558e-06)
(-0.000256934369712 -5.20983660214e-05 -6.81798140376e-06)
(-0.000211414040138 -5.76767985035e-05 -3.4067646642e-06)
(-0.000176403499605 -6.40169173943e-05 -1.56032589401e-07)
(-0.000152569816572 -7.18769994035e-05 1.16292687289e-06)
(-0.000136751011655 -7.87520626981e-05 -1.95143069929e-06)
(-0.000122654105967 -8.10305567767e-05 -1.1670070136e-05)
(-0.000107047242515 -7.73116525558e-05 -3.44067613606e-05)
(-4.28972521072e-05 -6.54242019914e-05 -5.97376890543e-05)
(-5.65422415751e-05 -7.44538924544e-05 3.36084389763e-05)
(-0.000140939926138 -8.15176722622e-05 1.98284873703e-06)
(-0.000233143031471 -7.97549465684e-05 2.97627741316e-06)
(-0.000318861420455 -7.50245699881e-05 7.63719512528e-06)
(-0.000391729683428 -6.82543106958e-05 8.46259117432e-06)
(-0.000441310979728 -6.39446037564e-05 4.86133593396e-06)
(-0.000470046040471 -6.27341304844e-05 -6.95545006412e-07)
(-0.000471192152555 -6.25970021249e-05 -9.86065160792e-06)
(-0.000451637709656 -6.55291621043e-05 -1.75909703875e-05)
(-0.000417144928419 -6.90082460301e-05 -2.28559797427e-05)
(-0.000372889764849 -7.27699246751e-05 -2.63618684667e-05)
(-0.000325006326985 -7.63333251878e-05 -2.76505179465e-05)
(-0.000277091674998 -7.99546146982e-05 -2.70302237399e-05)
(-0.000233786074264 -8.31383820976e-05 -2.63997933167e-05)
(-0.000197898585019 -8.36213349146e-05 -2.5954738941e-05)
(-0.000170577053587 -8.48509572536e-05 -2.60837629502e-05)
(-0.000147519236622 -8.18162473593e-05 -2.79803873387e-05)
(-0.000122763949085 -7.49097257675e-05 -3.31523971307e-05)
(-9.65577129468e-05 -6.18879996481e-05 -4.31680439227e-05)
(-3.56245901184e-05 -4.05000077797e-05 -5.03355622227e-05)
(-6.31130705128e-05 -2.24162926271e-05 4.57679914918e-05)
(-0.000161547020606 -2.46207563764e-05 2.32796476133e-05)
(-0.000244342422109 -2.57771599413e-05 9.67589565529e-06)
(-0.000315313247417 -2.64049624196e-05 1.70023886514e-06)
(-0.000374696755899 -2.64869662213e-05 -5.22648551661e-06)
(-0.000414138350134 -2.85745948423e-05 -1.1606431182e-05)
(-0.000444302045606 -3.26860752723e-05 -1.75442924066e-05)
(-0.000449968922647 -3.3435697867e-05 -2.60075063803e-05)
(-0.000442202748964 -3.64866611653e-05 -3.41784761132e-05)
(-0.000422972314052 -3.99813889548e-05 -4.24548078532e-05)
(-0.000393589823265 -4.2233117096e-05 -4.92080090449e-05)
(-0.000357598917874 -4.38051714654e-05 -5.43184968403e-05)
(-0.000316917419114 -4.47803790909e-05 -5.73647336525e-05)
(-0.000273660766456 -4.48315663872e-05 -5.80639360935e-05)
(-0.000232568603038 -4.18907635156e-05 -6.00790268193e-05)
(-0.000194870916376 -3.99016119432e-05 -5.76485070699e-05)
(-0.000158161350793 -3.43692282399e-05 -5.51365108872e-05)
(-0.000120831016924 -2.8951591859e-05 -5.06836523074e-05)
(-8.29714365831e-05 -2.14620529804e-05 -4.45076366676e-05)
(-2.72472931025e-05 -1.02846885872e-05 -3.45168160974e-05)
(-6.30376497562e-05 -3.52788531576e-05 0.00033321523728)
(-0.000190697390771 -3.19363728271e-05 0.000302207538145)
(-0.000326634288635 -3.68247641002e-05 0.000284424019303)
(-0.000453940283075 -4.47867637291e-05 0.000267429653861)
(-0.000557749454184 -5.18439117675e-05 0.000242747875733)
(-0.000629065206777 -5.4995312187e-05 0.00020904268717)
(-0.000668367658241 -5.4236756619e-05 0.000171323239714)
(-0.000672288982006 -5.04363935267e-05 0.000131922664288)
(-0.000647887918034 -4.59520072082e-05 9.62994695209e-05)
(-0.000603162828062 -4.12539395834e-05 6.49851826195e-05)
(-0.000544404651325 -3.74354032219e-05 3.93745466027e-05)
(-0.000476757110316 -3.45044447882e-05 2.07116939879e-05)
(-0.000405977434012 -3.26559616808e-05 7.77836773652e-06)
(-0.000340009626345 -3.09000262711e-05 9.31647122282e-07)
(-0.000282283064391 -2.82389547431e-05 -2.81925776275e-06)
(-0.000233968203046 -2.40164015867e-05 -4.10600148098e-06)
(-0.000195150264048 -1.94086300599e-05 -6.74648221459e-06)
(-0.000160263106438 -1.66764812426e-05 -1.04193906831e-05)
(-0.00012141064211 -2.20741541773e-05 -1.13249382835e-05)
(-4.90195793756e-05 -4.22504181421e-05 8.06273096573e-07)
(-4.58342604124e-05 -0.000124714564641 0.000311146975519)
(-0.000195656707607 -0.000150686622389 0.000342044992273)
(-0.000354473455581 -0.00017516352982 0.000360067794104)
(-0.000490484082617 -0.000195506247029 0.000355241926511)
(-0.000599025202143 -0.000210624844956 0.000330948566351)
(-0.000672181911607 -0.000219693417262 0.000294909964865)
(-0.000707548151361 -0.000221907025827 0.000249853421552)
(-0.000705677366053 -0.000217771783733 0.000201958288661)
(-0.000671776377156 -0.000209786831201 0.000158009891952)
(-0.000613507950842 -0.000200103056838 0.000122193963737)
(-0.000539632285574 -0.000190524613692 9.5770941128e-05)
(-0.000458411757761 -0.000181091016224 7.94013554814e-05)
(-0.000376695421359 -0.00017244805165 7.0989400684e-05)
(-0.000301719083844 -0.000162680326045 6.84928227339e-05)
(-0.000238650309594 -0.00015158182729 6.83487852504e-05)
(-0.000188369688293 -0.000138389031889 6.710157232e-05)
(-0.000149388590451 -0.000124110028993 6.05126315687e-05)
(-0.000117542488832 -0.000111307928588 4.39383083016e-05)
(-9.22881419805e-05 -0.000105311946245 1.27538397908e-05)
(-4.33796405552e-05 -0.000115751324574 -3.04660590233e-05)
(-4.5911331411e-05 -0.000241155987247 0.000302950916585)
(-0.000212173652228 -0.00028726878823 0.000370076155263)
(-0.000377870190381 -0.000317666278679 0.000392988491098)
(-0.000515107574696 -0.000341984472799 0.00037987481595)
(-0.000623684309366 -0.000361212045353 0.000345027571047)
(-0.000695225825165 -0.00037376050895 0.000297715745557)
(-0.000727730510141 -0.000379189663142 0.000244639762145)
(-0.000722076169956 -0.000378904379926 0.000192295151034)
(-0.000683519388525 -0.000371009111477 0.000146090653584)
(-0.000620195832417 -0.000358745336373 0.000110154007193)
(-0.000540657381667 -0.000345472102138 8.55835597713e-05)
(-0.000454452929058 -0.000331260744503 7.29025279398e-05)
(-0.000367407093473 -0.000315712651704 6.96917289634e-05)
(-0.000286803830442 -0.000297963814581 7.33524044197e-05)
(-0.000219181552829 -0.000278655093763 8.02690303922e-05)
(-0.000164971014426 -0.000257494550822 8.59802400093e-05)
(-0.000123460534401 -0.000235926302075 8.50745884279e-05)
(-9.03029150308e-05 -0.00021577836748 7.14058774451e-05)
(-7.0749642682e-05 -0.000199733579142 3.03686234916e-05)
(-3.72458637672e-05 -0.000189216862633 -4.74647269276e-05)
(-5.2640160298e-05 -0.000354562583808 0.000295723281537)
(-0.000230624228629 -0.000405607579067 0.000373157398256)
(-0.000400542561074 -0.00043477461457 0.000387250731656)
(-0.000537993243873 -0.000457483888496 0.000361556781406)
(-0.000643925581802 -0.000474831301102 0.000313999432918)
(-0.000711925191485 -0.000486423491072 0.000254993585125)
(-0.000741391924815 -0.000491295475729 0.000194132076684)
(-0.000730827738872 -0.00048936469809 0.000138862314698)
(-0.0006861853627 -0.000481179489932 9.06058002852e-05)
(-0.000619846550032 -0.00046831740251 5.72880529954e-05)
(-0.000538589193579 -0.000452590891543 3.63765903224e-05)
(-0.000449516503668 -0.000435052180679 2.82835057182e-05)
(-0.000358969437469 -0.000415418041267 3.11861128315e-05)
(-0.000275173468328 -0.000394740789443 4.13051386276e-05)
(-0.000204209476037 -0.0003725077904 5.66324465582e-05)
(-0.000146530656514 -0.000348810920701 7.16018573084e-05)
(-0.000102660108894 -0.000325033695496 7.97865326409e-05)
(-6.96491894257e-05 -0.000302375962553 7.3739994515e-05)
(-5.48132909099e-05 -0.000282343391879 3.4373887846e-05)
(-3.11186617215e-05 -0.000260400333523 -6.03482509242e-05)
(-5.93104944107e-05 -0.000449714671683 0.000280982361409)
(-0.000245260899717 -0.000501310613834 0.000356055172287)
(-0.000420079103107 -0.000527161058169 0.000359436505686)
(-0.000557271424335 -0.000544926137658 0.000321058367804)
(-0.000660584880034 -0.000557879495932 0.000260244462298)
(-0.000724318505857 -0.000566084034122 0.000190621234118)
(-0.000747612038618 -0.000568315265774 0.000123976312035)
(-0.000732660467405 -0.000563147017954 6.63729524395e-05)
(-0.000685525406582 -0.000553820038947 2.15828887382e-05)
(-0.00061515832036 -0.00054037754578 -8.58040996378e-06)
(-0.000530095681847 -0.000522964535414 -2.522213005e-05)
(-0.000438748772571 -0.000503363414951 -2.89537896808e-05)
(-0.000347200591652 -0.000482583652406 -2.16965196315e-05)
(-0.000262231322379 -0.000461373886583 -5.46517591491e-06)
(-0.000189062648929 -0.000438876310691 1.73393081596e-05)
(-0.000129453027375 -0.000415836069339 4.07959138864e-05)
(-8.47695014545e-05 -0.000392973377418 5.84752655852e-05)
(-5.26014352197e-05 -0.000370840739145 5.97645116667e-05)
(-4.34134074055e-05 -0.000348278321249 2.56593180673e-05)
(-2.61245202015e-05 -0.000318788645151 -7.58028216982e-05)
(-6.27058130228e-05 -0.000516867711212 0.000257042265267)