/*--------------------------------*- C++ -*----------------------------------*\
| =========                 |                                                 |
| \\      /  F ield         | OpenFOAM: The Open Source CFD Toolbox           |
|  \\    /   O peration     | Version:  3.0.1                                 |
|   \\  /    A nd           | Web:      www.OpenFOAM.org                      |
|    \\/     M anipulation  |                                                 |
\*---------------------------------------------------------------------------*/
FoamFile
{
    version     2.0;
    format      ascii;
    class       volScalarField;
    location    "9.2";
    object      p;
}
// * * * * * * * * * * * * * * * * * * * * * * * * * * * * * * * * * * * * * //

dimensions      [1 -1 -2 0 0 0 0];

internalField   nonuniform List<scalar> 
7968
(
4702.098906
4702.10697594
4702.11702451
4702.13039463
4702.14596398
4702.16353713
4702.18309095
4702.20362532
4702.22447551
4702.24459655
4702.26326093
4702.28005017
4702.29475347
4702.30748112
4702.31833122
4702.32744992
4702.33470467
4702.33979597
4702.34324465
4702.34410667
4702.10550018
4702.11649265
4702.12811383
4702.14262407
4702.15847625
4702.17617989
4702.19541985
4702.21579168
4702.23647637
4702.25647282
4702.27505384
4702.29178864
4702.30648501
4702.31924716
4702.33022395
4702.3393044
4702.34628521
4702.3503013
4702.35231493
4702.35090039
4702.11483743
4702.12789102
4702.14102408
4702.15643698
4702.17220187
4702.18916485
4702.20744761
4702.22680438
4702.2466
4702.26602122
4702.28432642
4702.30108485
4702.31609137
4702.32933304
4702.34079077
4702.35020113
4702.3571098
4702.3604142
4702.36144146
4702.35899677
4702.1282166
4702.14271481
4702.15688499
4702.17262443
4702.18797133
4702.20395829
4702.22106875
4702.23928284
4702.25799516
4702.27678797
4702.29470369
4702.31137427
4702.32659188
4702.34022537
4702.35218607
4702.3620594
4702.36919905
4702.37234646
4702.37286521
4702.36980608
4702.14462878
4702.15949673
4702.17381077
4702.18920852
4702.20379845
4702.21869944
4702.23464652
4702.25175058
4702.2696288
4702.28762859
4702.30509178
4702.3215704
4702.33681062
4702.35069644
4702.36305967
4702.37339448
4702.38098329
4702.38453585
4702.38533773
4702.38237891
4702.16383987
4702.17877285
4702.19258678
4702.20713636
4702.22067293
4702.23436755
4702.24908116
4702.26509973
4702.28212393
4702.2994602
4702.31648451
4702.33273466
4702.34794804
4702.36199696
4702.3747022
4702.38554916
4702.39373832
4702.39802963
4702.39954894
4702.39702375
4702.18551745
4702.20027162
4702.21326109
4702.22673398
4702.23914326
4702.25161013
4702.26517036
4702.28029101
4702.29663982
4702.31345222
4702.33008883
4702.34607335
4702.36115003
4702.37520862
4702.38813091
4702.39941275
4702.40820486
4702.41328801
4702.41567481
4702.4137658
4702.2088645
4702.22343795
4702.23551914
4702.24792097
4702.25924382
4702.27060394
4702.28323585
4702.29768845
4702.31356898
4702.33000432
4702.34631168
4702.36197615
4702.37680894
4702.39072849
4702.40367309
4702.41520013
4702.42442027
4702.43024242
4702.43347891
4702.43196644
4702.23301003
4702.24737604
4702.25866609
4702.270161
4702.28053282
4702.29098722
4702.30287445
4702.31681017
4702.33239301
4702.34874023
4702.36477842
4702.37995023
4702.39434226
4702.40806499
4702.42094409
4702.43256499
4702.44206838
4702.4483852
4702.45232046
4702.45110033
4702.25635238
4702.2709926
4702.281823
4702.29269521
4702.30236558
4702.31213318
4702.32342103
4702.33690558
4702.35231995
4702.36848701
4702.38421589
4702.39903124
4702.41298289
4702.42639583
4702.43916233
4702.45074754
4702.46034302
4702.46687588
4702.47118239
4702.4702533
4702.27890603
4702.29360748
4702.30428848
4702.31483658
4702.32409382
4702.33341481
4702.34424513
4702.3572909
4702.37230396
4702.38811678
4702.40355016
4702.41813408
4702.43186145
4702.44504964
4702.45762378
4702.46903259
4702.47851927
4702.48501744
4702.48941897
4702.48869825
4702.29986966
4702.31450523
4702.32531998
4702.33590517
4702.3451048
4702.35425763
4702.36480339
4702.37745068
4702.39186064
4702.40715706
4702.4223152
4702.43672709
4702.4504276
4702.46350596
4702.47578491
4702.48687626
4702.49605036
4702.50231491
4702.50650645
4702.50591212
4702.31861408
4702.33333443
4702.34458767
4702.35553341
4702.36496129
4702.37421385
4702.38466974
4702.39702119
4702.4109889
4702.42571166
4702.44053039
4702.45485172
4702.46850744
4702.48134572
4702.49324209
4702.5038772
4702.51256103
4702.51837323
4702.52213268
4702.52158301
4702.33515626
4702.3499871
4702.36183946
4702.37336633
4702.38325316
4702.3928599
4702.40346937
4702.41571546
4702.42942894
4702.44386365
4702.45836737
4702.47247747
4702.48583577
4702.49831005
4702.5097394
4702.51979324
4702.52783395
4702.53299863
4702.53612218
4702.53562004
4702.34941948
4702.36433851
4702.37676864
4702.38895602
4702.39942004
4702.40961095
4702.42067922
4702.43310592
4702.44679774
4702.46109305
4702.47537071
4702.4891664
4702.50213669
4702.51414234
4702.52498768
4702.5343399
4702.54167677
4702.54606438
4702.54851994
4702.54797196
4702.36135388
4702.37607558
4702.38882433
4702.40154518
4702.41264148
4702.42353168
4702.43524267
4702.44814662
4702.4620876
4702.47644105
4702.49060158
4702.50411784
4702.51668054
4702.52814136
4702.53831743
4702.54694393
4702.55352533
4702.55721576
4702.55910304
4702.55842143
4702.37065144
4702.38477623
4702.39729715
4702.41017512
4702.42176585
4702.43339177
4702.44587182
4702.45945517
4702.47385505
4702.48848755
4702.50268899
4702.51601913
4702.52819181
4702.53919504
4702.54874959
4702.55669131
4702.56269642
4702.56589569
4702.56745962
4702.5668136
4702.37697753
4702.38956465
4702.40100218
4702.413471
4702.4253703
4702.43777803
4702.45121078
4702.46568473
4702.48084704
4702.49596288
4702.51037381
4702.5236312
4702.53553743
4702.54600831
4702.55501808
4702.56242573
4702.56806537
4702.57116023
4702.57289186
4702.57260335
4702.38086472
4702.3914796
4702.4013647
4702.41295267
4702.42496043
4702.43799972
4702.45235268
4702.46779716
4702.4837851
4702.49945202
4702.51412757
4702.52741541
4702.53913732
4702.54923609
4702.55782811
4702.56490964
4702.57047273
4702.57385121
4702.57603627
4702.57618065
4702.38132486
4702.38877371
4702.39704235
4702.40754076
4702.41929965
4702.43273249
4702.44760688
4702.46359627
4702.47995895
4702.49597364
4702.51097951
4702.52458199
4702.53661342
4702.54699507
4702.55565676
4702.56292861
4702.56871127
4702.57278393
4702.57561407
4702.57668931
4206.67899161
4206.68585695
4206.69500509
4206.70834116
4206.7250346
4206.74450007
4206.76588658
4206.78839061
4206.81075921
4206.83189659
4206.8510584
4206.86784323
4206.88211752
4206.89409002
4206.90423295
4206.91271629
4206.91981734
4206.92555341
4206.93030521
4206.93261408
4206.68391843
4206.69339314
4206.70263189
4206.71708961
4206.73557081
4206.7571575
4206.78047465
4206.80447587
4206.82785896
4206.84945459
4206.86854403
4206.88477684
4206.89811534
4206.90883526
4206.91742144
4206.92421286
4206.92972151
4206.93419836
4206.93858495
4206.93895559
4206.69199502
4206.70199764
4206.71001609
4206.72467749
4206.7440638
4206.76659755
4206.79070192
4206.81522208
4206.83888107
4206.8604535
4206.87927377
4206.89502784
4206.90771081
4206.91767426
4206.92539786
4206.93129119
4206.93600153
4206.9402224
4206.94581991
4206.94650185
4206.70486476
4206.71636365
4206.72469686
4206.74032714
4206.76079763
4206.78416218
4206.80873286
4206.83335885
4206.85701494
4206.87814488
4206.89646796
4206.91162516
4206.92351522
4206.93286698
4206.93976483
4206.94469159
4206.94835434
4206.95177331
4206.95736414
4206.95747341
4206.72183834
4206.73528074
4206.74450518
4206.76118962
4206.78276129
4206.80696326
4206.83201581
4206.85673766
4206.87999938
4206.90076024
4206.91852826
4206.93308009
4206.94441763
4206.9528334
4206.95864788
4206.96246766
4206.96494782
4206.96737146
4206.97225503
4206.9711735
4206.74233681
4206.75784799
4206.76793101
4206.78536897
4206.8077312
4206.83251762
4206.85779155
4206.88254736
4206.90561609
4206.92601697
4206.94328137
4206.95723523
4206.96789563
4206.97547058
4206.98041772
4206.98316652
4206.98454924
4206.98608444
4206.99007845
4206.98751033
4206.76542567
4206.78278253
4206.79353435
4206.81134765
4206.83411552
4206.85907983
4206.884379
4206.90910461
4206.9320335
4206.9521307
4206.96895766
4206.98238229
4206.99243021
4206.99929491
4207.00346606
4207.00543508
4207.00596154
4207.0068101
4207.00997332
4207.00597272
4206.79018215
4206.80902374
4206.82019955
4206.8380122
4206.86079265
4206.88572556
4206.91092708
4206.93561628
4206.95842054
4206.97820615
4206.99464564
4207.0076537
4207.01722535
4207.02349667
4207.02704561
4207.0284256
4207.02849212
4207.02871245
4207.03119261
4207.02608286
4206.8153283
4206.83526747
4206.8466245
4206.86413492
4206.88673592
4206.91142123
4206.93637048
4206.96087154
4206.98328125
4207.00237415
4207.01837779
4207.03124746
4207.04083754
4207.04681369
4207.05001166
4207.05107998
4207.05085466
4207.05083022
4207.05270139
4207.04686244
4206.84026086
4206.86039835
4206.87166121
4206.88880639
4206.91101894
4206.93529027
4206.95982667
4206.98393478
4207.00568144
4207.0243853
4207.04005274
4207.05265513
4207.06220525
4207.06826589
4207.07136431
4207.07234329
4207.07202206
4207.07200626
4207.07345485
4207.06726917
4206.86350219
4206.88361702
4206.89473455
4206.91135979
4206.93301641
4206.95674886
4206.98074573
4207.00434684
4207.02563569
4207.04396736
4207.05934694
4207.07175645
4207.0812161
4207.08732385
4207.09047768
4207.09150058
4207.09121257
4207.09123298
4207.09256139
4207.08647549
4206.88442207
4206.90402252
4206.91475086
4206.93107509
4206.95218482
4206.97533396
4206.99872321
4207.02175631
4207.04284597
4207.06085297
4207.07600441
4207.08833097
4207.09770804
4207.10375019
4207.10697663
4207.10811991
4207.10795576
4207.10796201
4207.10950723
4207.10396472
4206.90299875
4206.92152782
4206.93172511
4206.94770897
4206.96819882
4206.99071385
4207.01345187
4207.03582674
4207.05657841
4207.07463123
4207.089674
4207.10186163
4207.11097851
4207.11706953
4207.1205535
4207.12195091
4207.12204128
4207.12209376
4207.12411228
4207.11947173
4206.91906568
4206.93616676
4206.94569322
4206.96115015
4206.98092558
4207.00275872
4207.02483139
4207.04650182
4207.06672238
4207.08452895
4207.09953717
4207.11166841
4207.12089637
4207.12728826
4207.13117068
4207.13300278
4207.13353693
4207.13390725
4207.13652356
4207.13303904
4206.93278971
4206.9481682
4206.95686925
4206.97158274
4206.99047967
4207.01149715
4207.03290291
4207.05395184
4207.07369941
4207.09125556
4207.10620545
4207.11840634
4207.12785641
4207.13463179
4207.13904369
4207.14147756
4207.14255627
4207.14361435
4207.14685372
4207.14478585
4206.94421404
4206.95765496
4206.96543609
4206.97916091
4206.99692362
4207.01691802
4207.0376243
4207.05812133
4207.07755903
4207.09501973
4207.11003412
4207.12242052
4207.13218228
4207.13941972
4207.14446364
4207.14757779
4207.14957617
4207.1513788
4207.15528995
4207.15471226
4206.95353023
4206.96509487
4206.97198234
4206.98454222
4207.00100763
4207.01987511
4207.03977126
4207.05975081
4207.0790986
4207.09657987
4207.11175642
4207.12442145
4207.13458575
4207.14219838
4207.14792597
4207.15198967
4207.15495251
4207.15755084
4207.16203851
4207.16266206
4206.96080663
4206.97082341
4206.97728745
4206.98885743
4207.00414731
4207.02201702
4207.04123467
4207.06086607
4207.07998369
4207.09751398
4207.11286121
4207.12580888
4207.13631382
4207.14453616
4207.1508574
4207.15564521
4207.15941804
4207.16265543
4207.16720712
4207.16845572
4206.96637788
4206.97563936
4206.9831064
4206.99446374
4207.00885961
4207.02572527
4207.04408446
4207.06309485
4207.08185869
4207.09931629
4207.11480593
4207.12802762
4207.13894642
4207.14771838
4207.15467965
4207.16012826
4207.16449129
4207.1679159
4207.17149862
4207.17244261
4206.96886826
4206.97537078
4206.98270615
4206.99311473
4207.00592801
4207.02098426
4207.03767865
4207.05535342
4207.07336722
4207.0906321
4207.10642407
4207.12035858
4207.13233215
4207.14234438
4207.15084532
4207.15777654
4207.16342571
4207.16776256
4207.17130916
4207.17302293
3711.25302732
3711.25974882
3711.2689449
3711.28293343
3711.30109917
3711.32264949
3711.34646663
3711.37133383
3711.3958924
3711.41880588
3711.43917729
3711.45658347
3711.47099313
3711.4827464
3711.49241214
3711.50052565
3711.50750369
3711.51360286
3711.51900189
3711.52191712
3711.25726109
3711.2702285
3711.28125213
3711.29703893
3711.31783008
3711.34221189
3711.36857917
3711.39540564
3711.42111632
3711.44453517
3711.46487568
3711.48174683
3711.49517104
3711.50544708
3711.51317577
3711.51890038
3711.52336823
3711.52726902
3711.53042791
3711.52859084
3711.26493273
3711.28044555
3711.29028258
3711.30507869
3711.32623692
3711.35173687
3711.37935759
3711.40724161
3711.43373529
3711.45744882
3711.4775726
3711.49382028
3711.50633563
3711.51535316
3711.52187291
3711.52656236
3711.53049978
3711.53475896
3711.53898932
3711.53617205
3711.27800387
3711.29597075
3711.305055
3711.31940484
3711.3410877
3711.36751781
3711.39596475
3711.42434559
3711.45086121
3711.47427763
3711.49389673
3711.50948773
3711.52125298
3711.52920159
3711.53462377
3711.53829608
3711.54165016
3711.54622671
3711.55139428
3711.54755623
3711.2960999
3711.31696766
3711.32645584
3711.34124745
3711.36385537
3711.39123312
3711.32483983
3711.34851572
3711.43489393
3711.46367422
3711.48839881
3711.50889275
3711.59394232
3711.62817776
3711.55458216
3711.55685097
3711.55905545
3711.56303482
3711.56792706
3711.56227017
3711.31839451
3711.34206239
3711.35251912
3711.36801636
3711.39140783
3711.14021512
3710.84550653
3711.04154202
3711.30731428
3711.35438819
3711.39723301
3711.43573872
3711.7190043
3712.00609079
3711.80877601
3711.58018197
3711.58104261
3711.58395294
3711.5878335
3711.5800913
3711.34368697
3711.36974468
3711.3812294
3711.39724866
3711.31920262
3710.56889121
3710.28636915
3710.8106899
3711.25752482
3711.3044638
3711.3470491
3711.38521229
3711.8569615
3712.50633347
3712.37221278
3711.68998889
3711.60562185
3711.60741721
3711.61006651
3711.60044826
3711.37078485
3711.3984648
3711.41089769
3711.42711137
3711.19269846
3710.18988253
3710.0661019
3710.77904189
3711.31927044
3711.35095178
3711.37818444
3711.40092142
3711.96539603
3712.80796663
3712.82403245
3711.86781691
3711.63102268
3711.63200077
3711.63353742
3711.62253794
3711.3982387
3711.42685219
3711.43985024
3711.45604701
3711.15791067
3710.11893316
3710.0454166
3710.81935494
3711.38709415
3711.40841872
3711.42520341
3711.43741402
3712.02742887
3712.92671957
3712.97905058
3711.96398013
3711.65594895
3711.65623018
3711.6569932
3711.64520067
3711.42476598
3711.45362902
3711.4664877
3711.48274465
3711.17838948
3710.12007815
3710.04448243
3710.83137307
3711.4087046
3711.42979967
3711.4463799
3711.4584334
3712.05884999
3712.97436344
3713.02718216
3711.99299722
3711.67911752
3711.67894927
3711.67917331
3711.66718944
3711.44947289
3711.47852824
3711.49172719
3711.5065832
3711.19570963
3710.11792096
3710.04009476
3710.83978916
3711.42653719
3711.44736552
3711.46379658
3711.47581124
3712.08681572
3713.01877608
3713.07227405
3712.01914782
3711.69961725
3711.69926205
3711.69931297
3711.6875513
3711.4712676
3711.49958405
3711.51192441
3711.52654018
3711.20930527
3710.11202763
3710.03188109
3710.84428939
3711.4403093
3711.46087083
3711.477223
3711.48927084
3712.11099302
3713.0595789
3713.11388795
3712.04194983
3711.71695151
3711.71664624
3711.71686897
3711.70569441
3711.49016729
3711.51731578
3711.52870127
3711.54272751
3711.30724313
3710.26374606
3710.16789885
3710.95152351
3711.52397752
3711.53399096
3711.54007802
3711.54205251
3712.13509721
3713.03239178
3713.03342202
3711.98626961
3711.73081168
3711.73087971
3711.73161371
3711.72144448
3711.50618823
3711.53168833
3711.54191503
3711.5552359
3711.49290158
3710.76726688
3710.57624714
3711.19958837
3711.66781815
3711.66280305
3711.65407716
3711.64144267
3712.1160984
3712.79186974
3712.60440636
3711.83296301
3711.74149266
3711.74217823
3711.7436505
3711.73496648
3711.51963114
3711.5429328
3711.55194176
3711.56444153
3711.58395274
3711.36431191
3711.16857832
3711.47072057
3711.75200211
3711.74740878
3711.73930802
3711.72748659
3711.99682651
3712.27174662
3712.01450168
3711.7492342
3711.74939701
3711.7508066
3711.75326529
3711.74651631
3711.53082923
3711.55141293
3711.5594294
3711.57106039
3711.58948125
3711.6121492
3711.54730424
3711.60379371
3711.7051703
3711.71937755
3711.73027443
3711.7376197
3711.82022101
3711.84559455
3711.75223139
3711.75395968
3711.75519494
3711.7574757
3711.76085169
3711.75626247
3711.54012791
3711.55787631
3711.56543981
3711.57652224
3711.59385593
3711.61535656
3711.63870895
3711.66213736
3711.6842203
3711.70390646
3711.72050301
3711.73374239
3711.74368256
3711.75063088
3711.75511761
3711.7578328
3711.76007702
3711.76299325
3711.76682447
3711.76416896
3711.54787719
3711.56315987
3711.5711028
3711.58249774
3711.59919088
3711.61960913
3711.64190886
3711.66454877
3711.6862058
3711.70571863
3711.72235326
3711.73580849
3711.74613034
3711.75363272
3711.75884617
3711.76240214
3711.76525436
3711.76816099
3711.77155108
3711.77009143
3711.5542779
3711.56680076
3711.57562567
3711.58789786
3711.60416467
3711.62341825
3711.64440171
3711.66590787
3711.6867393
3711.70578498
3711.722416
3711.73625176
3711.747244
3711.75563458
3711.76184022
3711.76632003
3711.76969298
3711.77245111
3711.77502927
3711.77425407
3711.55765572
3711.56412303
3711.571314
3711.58207566
3711.59598999
3711.6126809
3711.63140566
3711.65127201
3711.67124811
3711.69021381
3711.70729018
3711.72201104
3711.73430279
3711.74434445
3711.75250602
3711.7591609
3711.76461333
3711.76899062
3711.77274027
3711.77450577
3215.81430608
3215.82043907
3215.83067788
3215.84660061
3215.86785064
3215.89321123
3215.92119714
3215.9500911
3215.97811048
3216.00371429
3216.02588252
3216.04414162
3216.05857779
3216.0696722
3216.07822827
3216.08513823
3216.0912057
3216.09713419
3216.10278291
3216.10702021
3215.81724309
3215.83115618
3215.84369579
3215.86116855
3215.88494863
3215.91318194
3215.94390843
3215.97507463
3216.0046966
3216.03117821
3216.05354387
3216.0714055
3216.08489599
3216.09456612
3216.10128229
3216.10591014
3216.10945202
3216.11285322
3216.11514321
3216.11335759
3215.82529983
3215.84257336
3215.85553603
3215.87249784
3215.89675576
3215.9258943
3215.9574897
3215.98930128
3216.01931689
3216.0458716
3216.06800545
3216.0853942
3216.09824115
3216.10712363
3216.11295262
3216.1166983
3216.11952388
3216.1226618
3216.12467181
3216.12151209
3215.83980835
3215.859306
3215.87230016
3215.88868325
3215.91297042
3215.77127345
3215.56012761
3215.69226581
3215.86456393
3215.91417021
3215.95917857
3215.99934765
3216.18853428
3216.40349531
3216.26586696
3216.12914014
3216.13173757
3216.1353962
3216.13815086
3216.13402095
3215.86072557
3215.88286741
3215.89643593
3215.91279323
3215.53190717
3214.70948017
3214.51151168
3215.07573504
3215.51843766
3215.60200076
3215.6808697
3215.75489778
3216.23997883
3217.00749117
3217.10207951
3216.48293921
3216.15070307
3216.1542084
3216.15677738
3216.15071393
3215.88662822
3215.91140824
3215.92571653
3215.75941872
3214.36317809
3213.47179043
3213.86546484
3214.76214523
3215.32093956
3215.39433928
3215.46300259
3215.52686086
3216.15314935
3217.35152714
3218.15100365
3217.56359348
3216.32574551
3216.17762919
3216.17950588
3216.1711724
3215.91593904
3215.94308968
3215.95795118
3215.26760882
3213.23340374
3213.02037074
3213.6701954
3214.60291522
3215.18406842
3215.2380357
3215.28733842
3215.33191362
3216.00679875
3217.3676855
3218.59366745
3218.74268732
3216.83068288
3216.20393131
3216.20504685
3216.19468616
3215.94692999
3215.97595184
3215.99114032
3214.83304717
3212.8151817
3212.98214007
3213.63580856
3214.58682921
3215.17315816
3215.20467447
3215.23181023
3215.25442509
3215.94685283
3217.39125156
3218.73365208
3219.32130656
3217.3463732
3216.23134688
3216.23196656
3216.22013716
3215.97787994
3216.00811447
3216.02343432
3214.71636995
3212.75209916
3212.9946874
3213.65537309
3214.61962094
3215.20988909
3215.22976719
3215.24560987
3215.25710716
3215.95770295
3217.43814179
3218.82392859
3219.50542241
3217.54590184
3216.25832029
3216.25871373
3216.24593683
3216.00737468
3216.03817854
3216.0532401
3214.72214611
3212.72383712
3212.97070717
3213.64149089
3214.62098902
3215.22099786
3215.24076231
3215.25672679
3215.26847439
3215.9818079
3217.49028974
3218.9020094
3219.593839
3217.59523154
3216.2833584
3216.28325946
3216.27038325
3216.0341135
3216.06485713
3216.07969818
3214.72436587
3212.69194973
3212.94310608
3213.62402016
3214.61898644
3215.22892485
3215.24866051
3215.26471188
3215.27664526
3216.00269665
3217.53926742
3218.97703114
3219.67924594
3217.64154307
3216.30546026
3216.30512522
3216.29244596
3216.05733047
3216.08737199
3216.10171945
3214.72233009
3212.65597295
3212.91150386
3213.60258142
3214.61336453
3215.23339625
3215.25318256
3215.26929966
3215.28114324
3216.01991536
3217.58457571
3219.04843557
3219.76104921
3217.6842378
3216.32404648
3216.32366754
3216.31152605
3216.07678561
3216.10556014
3216.11934604
3214.9143387
3212.79967911
3213.00751885
3213.71096686
3214.73340833
3215.35291368
3215.36130146
3215.36596165
3215.36636719
3216.09972455
3217.65702993
3219.09861926
3219.71169545
3217.54591347
3216.33884816
3216.33863859
3216.32736116
3216.09256885
3216.11958616
3216.13277066
3215.48411498
3213.43690522
3213.31111404
3214.02880369
3215.04882001
3215.64875487
3215.6358796
3215.61922001
3215.59828906
3216.29269833
3217.7617753
3219.07126806
3219.18211523
3217.03092979
3216.35010388
3216.3502964
3216.34046204
3216.10512119
3216.12999513
3216.14249535
3216.00659778
3214.69345166
3213.96856376
3214.47950066
3215.47126421
3216.03109367
3216.00065292
3215.9664908
3215.92818098
3216.55086918
3217.84084794
3218.66501103
3217.93364369
3216.51956386
3216.35828616
3216.35905472
3216.35124886
3216.11510354
3216.13756303
3216.14930367
3216.16185752
3215.8276738
3215.18115539
3215.22163985
3215.93790141
3216.37098496
3216.33297949
3216.29130462
3216.24556473
3216.69521106
3217.48439309
3217.5029697
3216.74827545
3216.36248575
3216.36422574
3216.36568262
3216.36022494
3216.12333146
3216.14323368
3216.15434034
3216.16695729
3216.18632373
3216.05005206
3215.91764621
3216.17829606
3216.37278711
3216.37097481
3216.36553023
3216.35606547
3216.52570279
3216.73296589
3216.53736687
3216.36556352
3216.36691286
3216.3688927
3216.37089002
3216.36769736
3216.13072601
3216.14809021
3216.15892415
3216.17212665
3216.19141929
3216.2148859
3216.2404504
3216.26631568
3216.2909543
3216.31268695
3216.33097983
3216.34539536
3216.35596228
3216.36308667
3216.36747279
3216.37000218
3216.37167462
3216.37347106
3216.37531637
3216.37361059
3216.13727642
3216.15081708
3216.16092928
3216.17465863
3216.19350644
3216.21606036
3216.24074178
3216.2659162
3216.2899951
3216.3115987
3216.32993215
3216.34460613
3216.35563385
3216.36342115
3216.36862955
3216.37202069
3216.37438598
3216.37648348
3216.37844748
3216.37787879
3216.1420979
3216.14801959
3216.15591415
3216.16809886
3216.18441581
3216.20413939
3216.22627668
3216.24956579
3216.27259416
3216.29399462
3216.31281948
3216.3285313
3216.34105145
3216.35071115
3216.35810848
3216.36381178
3216.36844846
3216.37245041
3216.37618648
3216.37847362
2720.36484159
2720.37103078
2720.38380015
2720.40299031
2720.42882414
2720.45949033
2720.49312684
2720.52747034
2720.56028874
2720.5896688
2720.61437196
2720.63385277
2720.6483102
2720.65853132
2720.66550669
2720.67055247
2720.67484951
2720.67976416
2720.68458917
2720.68993061
2720.36694116
2720.37705479
2720.39062792
2720.4101825
2720.43783449
2720.4709046
2720.50703591
2720.54357137
2720.57798403
2720.60826423
2720.63323814
2720.65255511
2720.66650756
2720.6759055
2720.68192699
2720.68571623
2720.68850876
2720.6917807
2720.69419659
2720.69597507
2720.37705973
2720.38886251
2720.40368622
2720.42342997
2720.45200059
2720.31738864
2720.11446317
2720.24863315
2720.42288791
2720.47654282
2720.52471953
2720.56712803
2720.75473499
2720.96685263
2720.83272467
2720.69886086
2720.70090172
2720.70311416
2720.70427946
2720.70556309
2720.39437257
2720.40677216
2720.42262901
2720.43161262
2719.75613721
2719.05847841
2719.00737856
2719.51294434
2719.92793415
2720.0238005
2720.11416381
2720.19883437
2720.66069041
2721.39586273
2721.70115044
2721.29976295
2720.7240457
2720.7176768
2720.7190617
2720.71994049
2720.41985785
2720.43367432
2720.45002042
2719.71784567
2718.15765326
2717.81555207
2718.27394008
2718.99571527
2719.4796404
2719.56638766
2719.6475618
2719.72309406
2720.30279936
2721.4527296
2722.51536289
2722.64777022
2721.36397314
2720.73946092
2720.74055194
2720.73944884
2720.45100529
2720.46641843
2720.2975153
2718.23578204
2717.1559866
2717.35282336
2717.78073486
2718.50332053
2718.99678808
2719.06604624
2719.1298082
2719.18805684
2719.82090382
2721.1783228
2722.5819084
2723.57946976
2722.81826567
2720.92013869
2720.76696089
2720.76332729
2720.48592137
2720.50291781
2719.80680746
2717.16543667
2716.88947971
2717.05079756
2717.44440264
2718.14823031
2718.6299678
2718.67821554
2718.7214727
2718.75958266
2719.41010567
2720.89562478
2722.5468959
2723.84721721
2724.03858903
2721.43110672
2720.7964869
2720.79063254
2720.52236887
2720.54072473
2719.38011274
2716.87474476
2716.8156911
2716.95473988
2717.3294234
2718.01617586
2718.48129524
2718.50825195
2718.53143714
2718.55033637
2719.20031756
2720.74734881
2722.53477688
2724.00018833
2724.52639862
2721.9462661
2720.82704645
2720.81969581
2720.55818781
2720.57754058
2719.27080467
2716.84380519
2716.81202205
2716.94518331
2717.31595014
2718.00105417
2718.46267801
2718.47966213
2718.49412683
2718.50482482
2719.15878515
2720.7385107
2722.58208181
2724.10560026
2724.69380728
2722.14564265
2720.8569196
2720.84874589
2720.5919389
2720.61130189
2719.28070442
2716.81353294
2716.78292719
2716.9169731
2717.29139263
2717.98547404
2718.45426598
2718.4714898
2718.48673381
2718.49845232
2719.1647457
2720.77574206
2722.6561611
2724.20697262
2724.79910605
2722.19762638
2720.88529942
2720.8760223
2720.62178944
2720.64095016
2719.28643455
2716.77920814
2716.74973508
2716.88482762
2717.26326027
2717.96748468
2718.44429055
2718.46190127
2718.47766804
2718.48978289
2719.1680069
2720.80989509
2722.72718134
2724.30537844
2724.90127278
2722.24616245
2720.90981388
2720.89999282
2720.64700947
2720.6655627
2719.28718345
2716.74020186
2716.71201653
2716.84850917
2717.23142285
2717.94718458
2718.43265071
2718.45091539
2718.46678403
2718.47846901
2719.1681875
2720.84046859
2722.79452945
2724.40014533
2724.99962233
2722.29061297
2720.92995799
2720.91996623
2720.66729393
2720.68484206
2719.48385231
2716.83939068
2716.79973822
2716.94661705
2717.34100644
2718.07670848
2718.56968782
2718.57803595
2718.58330974
2718.5842926
2719.2770427
2720.95590815
2722.89311006
2724.4600298
2724.9859209
2722.15063019
2720.94552357
2720.93594904
2720.68271187
2720.69909359
2720.05802959
2717.31443502
2717.10630134
2717.2858217
2717.71004004
2718.48076755
2718.98255208
2718.97246393
2718.95848442
2718.9395563
2719.61918249
2721.24450628
2723.03871881
2724.41660568
2724.56310417
2721.63327478
2720.95700126
2720.94873149
2720.69384157
2720.70912986
2720.57788462
2718.55267793
2717.59259593
2717.82804767
2718.30256768
2719.10763578
2719.6091273
2719.58137609
2719.54950517
2719.51273467
2720.15580124
2721.64345587
2723.16299916
2724.20253751
2723.27542736
2721.12573395
2720.96537477
2720.95910764
2720.70170885
2720.71608631
2720.73042072
2720.10430607
2718.70311589
2718.50637659
2719.02950692
2719.83816352
2720.31214647
2720.27139901
2720.22653466
2720.17692859
2720.74393402
2721.99725749
2723.13444339
2723.19329091
2721.67149793
2720.97137499
2720.97142167
2720.96776255
2720.70766052
2720.72110126
2720.734911
2720.74112954
2720.13310686
2719.72232063
2719.90830898
2720.516159
2720.90260985
2720.85755398
2720.80832131
2720.75440783
2721.17503312
2721.93533506
2722.19198286
2721.67556738
2720.98429531
2720.97509306
2720.97593826
2720.97498941
2720.7134389
2720.72595063
2720.73896894
2720.75479502
2720.77796262
2720.64251507
2720.51024352
2720.77737253
2720.97777266
2720.97867224
2720.97517912
2720.96694001
2721.14018712
2721.35128244
2721.15252204
2720.97753865
2720.97828192
2720.97908089
2720.98016601
2720.98093101
2720.7186438
2720.7288047
2720.74011473
2720.75581347
2720.77823328
2720.80510435
2720.83445077
2720.86414206
2720.89218033
2720.91691102
2720.93738226
2720.95319627
2720.96449058
2720.97185081
2720.97617488
2720.97848433
2720.97985421
2720.98139205
2720.98329906
2720.98510299
2720.72438842
2720.73014316
2720.74008483
2720.75484471
2720.77475138
2720.79863054
2720.82519043
2720.85281124
2720.87973432
2720.90431061
2720.92537148
2720.9422567
2720.9549025
2720.96381092
2720.9698868
2720.97409961
2720.97733836
2720.9803922
2720.98343532
2720.9864336
2224.90539533
2224.91063694
2224.92765638
2224.95128441
2224.98346196
2225.02124753
2225.06228228
2225.1036797
2225.14270991
2225.17699363
2225.20498403
2225.22608124
2225.24053603
2225.24977418
2225.25433474
2225.25647657
2225.25802781
2225.26092566
2225.26418987
2225.27098381
2224.90564352
2224.90677873
2224.92140197
2224.94386415
2224.97628842
2225.01512698
2224.96686775
2225.00378449
2225.09978811
2225.14002764
2225.17368932
2225.20052355
2225.28574562
2225.32125739
2225.25414296
2225.25766296
2225.26004499
2225.26376267
2225.26713641
2225.276328
2224.91922996
2224.91802783
2224.93464324
2224.95824639
2224.59970326
2224.08862563
2224.06314768
2224.32796222
2224.60899699
2224.70133517
2224.78687178
2224.86552866
2225.18111506
2225.63428227
2225.90403932
2225.59510061
2225.27545076
2225.27675241
2225.27783401
2225.28828629
2224.94084577
2224.93827337
2224.95618843
2224.25844802
2223.20737719
2222.79243302
2223.09828238
2223.63168259
2224.01433567
2224.1058004
2224.19024155
2224.26759571
2224.73745596
2225.67024013
2226.55849452
2226.63229996
2225.89164149
2225.2945329
2225.29470952
2225.30507539
2224.97252131
2224.96865339
2224.56863181
2222.75852281
2222.08778169
2222.12848728
2222.35605785
2222.8573222
2223.23795037
2223.31505544
2223.38476766
2223.44717127
2223.97066993
2225.13025536
2226.42112784
2227.44036491
2227.26507858
2225.66829976
2225.32037431