/*--------------------------------*- C++ -*----------------------------------*\
| =========                 |                                                 |
| \\      /  F ield         | OpenFOAM: The Open Source CFD Toolbox           |
|  \\    /   O peration     | Version:  3.0.1                                 |
|   \\  /    A nd           | Web:      www.OpenFOAM.org                      |
|    \\/     M anipulation  |                                                 |
\*---------------------------------------------------------------------------*/
FoamFile
{
    version     2.0;
    format      ascii;
    class       surfaceScalarField;
    location    "3.3";
    object      alphaPhi;
}
// * * * * * * * * * * * * * * * * * * * * * * * * * * * * * * * * * * * * * //

dimensions      [0 3 -1 0 0 0 0];

internalField   nonuniform List<scalar> 
22672
(
6.27064749395e-06
6.28323206186e-06
-1.2553879519e-05
1.43276859603e-05
4.7961118651e-06
-1.28531503097e-05
2.19418194895e-05
4.32096312164e-06
-1.1935091807e-05
2.73068779437e-05
4.86383791146e-06
-1.02288891049e-05
2.93689279887e-05
6.34503825796e-06
-8.40706456311e-06
2.79561454782e-05
8.32922959161e-06
-6.91649789103e-06
2.366388623e-05
1.02101817553e-05
-5.91792566199e-06
1.70006051117e-05
1.19461395445e-05
-5.28282667374e-06
8.84346352219e-06
1.31858692558e-05
-5.02868174242e-06
-9.58750590505e-10
1.38176204437e-05
-4.97318089668e-06
-8.84657087167e-06
1.38186391781e-05
-4.97302639688e-06
-1.70067909434e-05
1.31887166674e-05
-5.02849658289e-06
-2.36742418948e-05
1.1950546841e-05
-5.28309585207e-06
-2.79705454592e-05
1.02154680027e-05
-5.91916410616e-06
-2.93861538023e-05
8.33463597059e-06
-6.91897748763e-06
-2.73239567093e-05
6.34958726578e-06
-8.41171057726e-06
-2.19559920307e-05
4.86724966836e-06
-1.02352145135e-05
-1.4337467728e-05
4.32441266879e-06
-1.19429369835e-05
-6.27466192051e-06
4.801123934e-06
-1.28639290454e-05
6.29110738378e-06
-1.25657670772e-05
4.78750872875e-06
1.43460133415e-05
-1.28502897548e-05
1.40302327776e-05
1.40374557931e-05
-1.84840679919e-05
2.32265986689e-05
1.48444194896e-05
-1.97198162673e-05
2.96388789112e-05
1.71812210822e-05
-1.87296432766e-05
3.21594758185e-05
2.08535619388e-05
-1.70290948106e-05
3.07221083879e-05
2.51218228562e-05
-1.53551335967e-05
2.58876427519e-05
2.91104003294e-05
-1.40657892769e-05
1.85236495799e-05
3.2546800428e-05
-1.32366305846e-05
9.60905834618e-06
3.49691526851e-05
-1.28686096745e-05
2.17603884533e-09
3.61960096319e-05
-1.27714496291e-05
-9.60583796663e-06
3.61970830283e-05
-1.2770424876e-05
-1.85235423607e-05
3.49722960922e-05
-1.2865879869e-05
-2.58921723584e-05
3.25518429438e-05
-1.32326655711e-05
-3.07318043223e-05
2.9116452257e-05
-1.40613538021e-05
-3.21732969432e-05
2.51279766761e-05
-1.53518945986e-05
-2.96535525036e-05
2.08588248049e-05
-1.70290087378e-05
-2.32386325974e-05
1.71856026132e-05
-1.8733165214e-05
-1.40375698248e-05
1.48498223642e-05
-1.97264724949e-05
-4.78964009182e-06
1.40465456536e-05
-1.84933529866e-05
1.4361781909e-05
-1.28603097904e-05
4.31637313323e-06
2.19581094637e-05
-1.19284708169e-05
1.48466673991e-05
2.32247746374e-05
-1.97175564723e-05
2.55686662796e-05
2.55521026426e-05
-2.14296173913e-05
3.3046668501e-05
2.97307157014e-05
-2.00274640254e-05
3.60281831619e-05
3.54196133219e-05
-1.75475098915e-05
3.44413042552e-05
4.17046476079e-05
-1.49959910334e-05
2.89581413604e-05
4.75183056791e-05
-1.29247053443e-05
2.06628703151e-05
5.2384513465e-05
-1.15425134743e-05
1.06964035248e-05
5.57917247991e-05
-1.08561340501e-05
6.91182766573e-09
5.75114998088e-05
-1.06260769838e-05
-1.06838628076e-05
5.75120285194e-05
-1.06241592333e-05
-2.0653830269e-05
5.57931545236e-05
-1.08508966097e-05
-2.89548248979e-05
5.23869860638e-05
-1.1534155429e-05
-3.44449589013e-05
4.75208845553e-05
-1.29142986526e-05
-3.60380066323e-05
4.17073259013e-05
-1.49863262833e-05
-3.30592735806e-05
3.54218378949e-05
-1.75418149409e-05
-2.55799877697e-05
2.97332981347e-05
-2.00268577548e-05
-1.48538682721e-05
2.5557091122e-05
-2.14333584067e-05
-4.31874203583e-06
2.3235600055e-05
-1.97241513135e-05
2.19789142114e-05
-1.19358876586e-05
4.86183902212e-06
2.73143191538e-05
-1.02179833123e-05
1.71898132387e-05
2.96230979132e-05
-1.87263049195e-05
2.97579529586e-05
3.30121885911e-05
-2.00283167086e-05
3.85221948054e-05
3.84724180629e-05
-1.75058966834e-05
4.19791935454e-05
4.55356309364e-05
-1.35731734743e-05
4.00313912163e-05
5.31730514466e-05
-9.52050086129e-06
3.35405733729e-05
6.01546310535e-05
-6.14571561241e-06
2.38316523783e-05
6.59106202759e-05
-3.81701596259e-06
1.22932205552e-05
6.99184200779e-05
-2.58844775803e-06
1.03128150439e-08
7.19416736846e-05
-2.14720758076e-06
-1.22738305316e-05
7.19407281611e-05
-2.14455075919e-06
-2.38158518524e-05
6.99158090602e-05
-2.5806332298e-06
-3.35314632728e-05
6.59063807847e-05
-3.80378341426e-06
-4.00308841682e-05
6.01492260974e-05
-6.12892019394e-06
-4.19869728802e-05
5.3167247752e-05
-9.50396966463e-06
-3.85344137515e-05
4.55305468539e-05
-1.35613102778e-05
-2.9770155793e-05
3.84692845023e-05
-1.75003344384e-05
-1.71983426871e-05
3.30136005621e-05
-2.00282167411e-05
-4.86549225466e-06
2.96325627761e-05
-1.8729833949e-05
2.73368057146e-05
-1.02233564418e-05
6.34394476096e-06
2.93638461331e-05
-8.39349722814e-06
2.0863853617e-05
3.21307466295e-05
-1.70275939698e-05
3.54510707017e-05
3.59788137367e-05
-1.75536901026e-05
4.55942255824e-05
4.19099352849e-05
-1.35808115891e-05
4.950753111e-05
4.94233012215e-05
-7.80082915178e-06
4.70455480605e-05
5.74258772095e-05
-1.79091953335e-06
3.92831899149e-05
6.46380017948e-05
3.27926338965e-06
2.78065274469e-05
7.05447115549e-05
6.84225015717e-06
1.43065331429e-05
7.4635360626e-05
8.7833496759e-06
1.15229034969e-08
7.66920364926e-05
9.54457761404e-06
-1.42848079942e-05
7.66894099181e-05
9.54765845441e-06
-2.77886639998e-05
7.46272507119e-05
8.79252439621e-06
-3.92723882116e-05
7.05320654344e-05
6.85810946282e-06
-4.70440860581e-05
6.4621360091e-05
3.2995452219e-06
-4.95145665023e-05
5.74079116306e-05
-1.77013588494e-06
-4.56067636088e-05
4.9406650495e-05
-7.78405579245e-06
-3.54645222334e-05
4.18973153669e-05
-1.35703755019e-05
-2.08743195151e-05
3.59729131743e-05
-1.75494847193e-05
-6.34941075428e-06
3.21353155168e-05
-1.7027594541e-05
2.93833536135e-05
-8.39598085229e-06
8.32491411538e-06
2.79424825595e-05
-6.90360854897e-06
2.51274053818e-05
3.06874165176e-05
-1.53590187867e-05
4.17312603446e-05
3.43878413368e-05
-1.50130650611e-05
5.32291001893e-05
3.99578674565e-05
-9.54557919626e-06
5.75122175646e-05
4.6954433908e-05
-1.81443816192e-06
5.44187196709e-05
5.43237930656e-05
6.19575353992e-06
4.52668406522e-05
6.08675126669e-05
1.29221145498e-05
3.1935727649e-05
6.62595543233e-05
1.76165544793e-05
1.63920116752e-05
6.99864647667e-05
2.01924027263e-05
9.84117760589e-09
7.18425705866e-05
2.12316805829e-05
-1.63732370952e-05
7.18386665975e-05
2.12338670189e-05
-3.19197039061e-05
6.99744288459e-05
2.01994053742e-05
-4.52569547252e-05
6.62393228074e-05
1.76300763738e-05
-5.44171386681e-05
6.08404691768e-05
1.29410777083e-05
-5.7518936058e-05
5.42928067285e-05
6.2167154744e-06
-5.32411553644e-05
4.69245266682e-05
-1.79528141849e-06
-4.17448010881e-05
3.99327891253e-05
-9.53186602105e-06
-2.5138198224e-05
3.43719510952e-05
-1.50056240897e-05
-8.33089862976e-06
3.06838368035e-05
-1.53558818057e-05
2.79558891851e-05
-6.90339329258e-06
1.02039852026e-05
2.36444890379e-05
-5.90588596104e-06
2.91102425602e-05
2.58573825933e-05
-1.40763695794e-05
4.75371646263e-05
2.89164883629e-05
-1.29553586577e-05
6.02044334793e-05
3.34846439072e-05
-6.19431925143e-06
6.4723324405e-05
3.92128194142e-05
3.22316231258e-06
6.0962519316e-05
4.5194881614e-05
1.28894713762e-05
5.04900454652e-05
5.04229548534e-05
2.09173677751e-05
3.5462222659e-05
5.4759870053e-05
2.65273041749e-05
1.81352593115e-05
5.76857391279e-05
2.9627735212e-05
6.01688069507e-09
5.90907064535e-05
3.0881144584e-05
-1.81239617039e-05
5.90863553075e-05
3.08824101527e-05
-3.54534009856e-05
5.76716909969e-05
2.9632006442e-05
-5.04861845569e-05
5.47346404072e-05
2.65375474869e-05
-6.09652840659e-05
5.03873574093e-05
2.09322759401e-05
-6.47315870139e-05
4.51529147516e-05
1.29063895408e-05
-6.02165511661e-05
3.9169784475e-05
3.23951692499e-06
-4.75496726097e-05
3.34477861303e-05
-6.1813235259e-06
-2.91204062316e-05
2.88900974108e-05
-1.29474154869e-05
-1.02099609374e-05
2.5844846332e-05
-1.40714633994e-05
2.36492178984e-05
-5.90332191272e-06
1.19381338189e-05
1.69774115995e-05
-5.27115326294e-06
3.25423325809e-05
1.85048047847e-05
-1.32514459128e-05
5.23963828795e-05
2.06443125197e-05
-1.15820347352e-05
6.59542902178e-05
2.38096338781e-05
-3.88274220011e-06
7.06319552254e-05
2.777573278e-05
6.75917425861e-06
6.63624754923e-05
3.1904038721e-05
1.75607779956e-05
5.48308889567e-05
3.5434499333e-05
2.65198119383e-05
3.84032713033e-05
3.83744332049e-05
3.28131993336e-05
1.96336912101e-05
4.03739176929e-05
3.6081387302e-05
2.21363930154e-10
4.13305072733e-05
3.7393684343e-05
-1.96337392413e-05
4.13251213346e-05
3.73950460313e-05
-3.84053053579e-05
4.03572105427e-05
3.6086018294e-05
-5.48385070189e-05
3.83444848146e-05
3.28231245762e-05
-6.63739846403e-05
3.53943166917e-05
2.65285968948e-05
-7.06449914882e-05
3.18559850281e-05
1.7567904076e-05
-6.59662714953e-05
2.77251644702e-05
6.76611909658e-06
-5.24072385258e-05
2.37647487088e-05
-3.87610594932e-06
-3.2550295924e-05
2.0610382363e-05
-1.15770664186e-05
-1.19430746751e-05
1.84845543668e-05
-1.3246976001e-05
1.69736231706e-05
-5.26744207719e-06
1.31776669302e-05
8.81459533658e-06
-5.01472176745e-06
3.49628367704e-05
9.60129678041e-06
-1.2881900295e-05
5.57992160039e-05
1.07022865219e-05
-1.08942428534e-05
6.99561595006e-05
1.2306887418e-05
-2.65427774466e-06
7.47215764251e-05
1.4318091123e-05
8.69249810275e-06
7.00953806108e-05
1.63996187464e-05
2.01303291421e-05
5.77631834712e-05
1.81385790122e-05
2.9628608383e-05
4.04058410424e-05
1.96305656037e-05
3.61013220377e-05
2.06055381322e-05
2.05986262942e-05
3.95755684635e-05
-5.25991166164e-09
2.10574403159e-05
4.08838349113e-05
-2.06181837996e-05
2.10511761973e-05
4.08868798439e-05
-4.04223308505e-05
2.05795162657e-05
3.95818205669e-05
-5.7783737642e-05
1.95990812005e-05
3.61068684526e-05
-7.01167033978e-05
1.80973800216e-05
2.96298951087e-05
-7.47397214555e-05
1.63514021738e-05
2.01276350735e-05
-6.99683547513e-05
1.42668343668e-05
8.68687693863e-06
-5.58069965972e-05
1.2261070752e-05
-2.65750346315e-06
-3.49676881616e-05
1.06660158221e-05
-1.08951049345e-05
-1.31805312495e-05
9.57746299808e-06
-1.28799289568e-05
8.80439466813e-06
-5.01133830527e-06
1.38099579478e-05
-3.95774397407e-08
-4.95585139259e-06
3.61898680852e-05
4.96776279444e-10
-1.27789983953e-05
5.75165626072e-05
3.08552944719e-08
-1.06554072005e-05
7.19726577557e-05
5.0196115267e-08
-2.19909601233e-06
7.67681956242e-05
5.61927932859e-08
9.46624432345e-06
7.19420091147e-05
4.78060151857e-08
2.11782179109e-05
5.91626355891e-05
3.21428668403e-08
3.08857323759e-05
4.13618543606e-05
1.23145449332e-08
3.74191410495e-05
2.10674664551e-05
-2.83686994338e-09
4.08958212462e-05
-1.27495581017e-08
-1.54246319484e-08
4.21531038491e-05
-2.10938509211e-05
-2.13240686834e-08
4.2153577359e-05
-4.13899825944e-05
-2.08981542838e-08
4.08966173368e-05
-5.91931341127e-05
-1.54204686382e-08
3.74177513923e-05
-7.19710972748e-05
-4.37333508438e-09
3.0879766217e-05
-7.67906986195e-05
5.62417756944e-09
2.11654011611e-05
-7.19839855346e-05
1.25132598562e-08
9.44750707519e-06
-5.75210629415e-05
1.0972165847e-08
-2.21288298733e-06
-3.61907084804e-05
-6.71092258105e-10
-1.06635169415e-05
-1.38105910866e-05
-2.1596876405e-08
-1.2781146817e-05
-5.20116508095e-08
-4.95417094274e-06
1.38115178344e-05
-8.89633760634e-06
-4.95471084227e-06
3.61899477677e-05
-9.60489070747e-06
-1.27731108728e-05
5.75134961423e-05
-1.06479925076e-05
-1.06446311832e-05
7.19636251804e-05
-1.22155045904e-05
-2.18443576315e-06
7.67528345154e-05
-1.42158609028e-05
9.48304547809e-06
7.19239631979e-05
-1.63131886332e-05
2.11899464693e-05
5.9147204539e-05
-1.8082597113e-05
3.08916782378e-05
4.13497367018e-05
-1.96119728646e-05
3.74216649291e-05
2.10583773659e-05
-2.06116899309e-05
4.09003279429e-05
-1.91551586962e-08
-2.10941828746e-05
4.21562832128e-05
-2.1096821097e-05
-2.10982506521e-05
4.21544213793e-05
-4.13879628787e-05
-2.06233662111e-05
4.08937848012e-05
-5.91854144119e-05
-1.96301734318e-05
3.74122660111e-05
-7.19584320915e-05
-1.81083534243e-05
3.08772371212e-05
-7.67773762614e-05
-1.63424852432e-05
2.1167134344e-05
-7.19731287739e-05
-1.424441889e-05
9.45271844851e-06
-5.75139153917e-05
-1.22412888455e-05
-2.20699659519e-06
-3.61870938177e-05
-1.06683440136e-05
-1.06590758591e-05
-1.38096420262e-05
-9.6200082097e-06
-1.27789753202e-05
-8.90670246361e-06
-4.95501597004e-06
1.31811593233e-05
-1.70653577923e-05
-5.01214875988e-06
3.49629676912e-05
-1.85208934881e-05
-1.2865703828e-05
5.57895876106e-05
-2.06099269729e-05
-1.08647436427e-05
6.99290288483e-05
-2.37431193643e-05
-2.61188901504e-06
7.467427348e-05
-2.76999214722e-05
8.73893739308e-06
7.00388356223e-05
-3.18386600401e-05
2.0161038966e-05
5.77116601367e-05
-3.53952906853e-05
2.96398849523e-05
4.03641272979e-05
-3.83644656547e-05
3.61001641078e-05
2.05753280574e-05
-4.03931142293e-05
3.95700972013e-05
-2.2708178299e-08
-4.13683001087e-05
4.0872082169e-05
-2.06209920046e-05
-4.13699583707e-05
4.08700113243e-05
-4.04096699793e-05
-4.03966417622e-05
3.95618892263e-05
-5.77564422568e-05
-3.83701896046e-05
3.60868603021e-05
-7.00770135738e-05
-3.54058184954e-05
2.96178292542e-05
-7.46991066046e-05
-3.18495052353e-05
2.01293945799e-05
-6.99358084931e-05
-2.77078044893e-05
8.70031656845e-06
-5.57856527504e-05
-2.37498883223e-05
-2.64143978636e-06
-3.49562294431e-05
-2.06148576165e-05
-1.08829792063e-05
-1.31772051397e-05
-1.85251410444e-05
-1.2873915409e-05
-1.70700215795e-05
-5.01385079045e-06
1.19419737123e-05
-2.37384489543e-05
-5.26881442462e-06
3.25401915268e-05
-2.58897702799e-05
-1.32294555659e-05
5.23792702629e-05
-2.89077700976e-05
-1.15410420122e-05
6.59095035645e-05
-3.34506073788e-05
-3.8229628418e-06
7.05568195184e-05
-3.91695999741e-05
6.82247520913e-06
6.62728425816e-05
-4.51538977328e-05
1.75993592083e-05
5.47478489996e-05
-5.0398402315e-05
2.65280462495e-05
3.83340960344e-05
-5.47573091312e-05
3.28063844408e-05
1.95845454524e-05
-5.77041185846e-05
3.60607077269e-05
-2.42752602932e-08
-5.91204886637e-05
3.73609819074e-05
-1.96331683814e-05
-5.91198316811e-05
3.73585968377e-05
-3.83820307292e-05
-5.77010133325e-05
3.60530396724e-05
-5.47945414281e-05
-5.47517166002e-05
3.27936322132e-05
-6.63111691655e-05
-5.03913729273e-05
2.65024536717e-05
-7.05796602647e-05
-4.51439422317e-05
1.75630537379e-05
-6.59132115146e-05
-3.91551955628e-05
6.78120470979e-06
-5.23719876423e-05
-3.343673366e-05
-3.85454586572e-06
-3.25310500521e-05
-2.88962973717e-05
-1.15594949947e-05
-1.19366252566e-05
-2.58818586122e-05
-1.32375825555e-05
-2.37358694852e-05
-5.2708344747e-06
1.02059388262e-05
-2.80383821801e-05
-5.90605690356e-06
2.91041389873e-05
-3.07336807999e-05
-1.40541265361e-05
4.75116524095e-05
-3.44028805278e-05
-1.29124739397e-05
6.01465102966e-05
-3.99538782737e-05
-6.13170264702e-06
6.46296701905e-05
-4.69417736529e-05
3.28894100971e-06
6.08511020275e-05
-5.43058137473e-05
1.29304680387e-05
5.03859159891e-05
-6.08548619095e-05
2.09217241377e-05
3.53788451928e-05
-6.62591042842e-05
2.65088279079e-05
1.80768238457e-05
-6.99972585655e-05
2.9594963244e-05
-2.34859535539e-08
-7.18579746809e-05
3.08376760911e-05
-1.81241132965e-05
-7.18551080735e-05
3.08353976556e-05
-3.54261015995e-05
-6.9987683412e-05
2.95881246166e-05
-5.04301782829e-05
-6.62428732148e-05
2.64954763427e-05
-6.08861932031e-05
-6.08331200693e-05
2.0897546608e-05
-6.46484315766e-05
-5.4277712079e-05
1.28960924576e-05
-6.01474849071e-05
-4.69089716788e-05
3.25281102473e-06
-4.75028522023e-05
-3.992348369e-05
-6.15787438873e-06
-2.90941271635e-05
-3.43782938434e-05
-1.2926665675e-05
-1.02005070759e-05
-3.07162919892e-05
-1.40592794634e-05
-2.80297034038e-05
-5.90661762098e-06
8.32450031452e-06
-2.94555274229e-05
-6.90732015544e-06
2.51155811001e-05
-3.21832452112e-05
-1.53415007925e-05
4.16986226849e-05
-3.6008816842e-05
-1.49769914879e-05
5.31641691372e-05
-4.19271052274e-05
-9.49247080958e-06
5.7411863572e-05
-4.94315851427e-05
-1.75780007812e-06
5.42984089988e-05
-5.74245547522e-05
6.23232975794e-06
4.5150941629e-05
-6.46323136754e-05
1.29249198854e-05
3.18413319535e-05
-7.05406303673e-05
1.7591293079e-05
1.63276184128e-05
-7.46324602476e-05
2.01487741302e-05
-2.14474754416e-08
-7.66885277488e-05
2.1178609769e-05
-1.63700593283e-05
-7.66840414485e-05
2.11772307178e-05
-3.18825790606e-05
-7.46192133594e-05
2.0144170147e-05
-4.51884525372e-05
-7.05185609185e-05
1.75813178615e-05
-5.43259009348e-05
-6.46019286763e-05
1.29062340407e-05
-5.74246197569e-05
-5.73867380808e-05
6.20774182601e-06
-5.31628074051e-05
-4.93900520398e-05
-1.78044457316e-06
-4.16902441565e-05
-4.18891154115e-05
-9.50680770653e-06
-2.51071062166e-05
-3.59784512348e-05
-1.49829774514e-05
-8.31995354532e-06
-3.2161632072e-05
-1.53416534313e-05
-2.94440155929e-05
-6.90571352832e-06
6.33798021283e-06
-2.73918651679e-05
-8.40164241471e-06
2.08447517226e-05
-2.96734529535e-05
-1.70165575293e-05
3.5411715056e-05
-3.30475575657e-05
-1.75280522246e-05
4.55265358765e-05
-3.84996548139e-05
-1.35424000598e-05
4.9409058023e-05
-4.55554290867e-05
-7.75869964345e-06
4.69290330341e-05
-5.31814994276e-05
-1.76282518314e-06
3.91690703407e-05
-6.01526680756e-05
3.28055498854e-06
2.77119925551e-05
-6.59011286068e-05
6.81770996137e-06
1.42421003242e-05
-6.9902296548e-05
8.73936448156e-06
-1.78676470501e-08
-7.19197373096e-05
9.49119478445e-06
-1.42771699742e-05
-7.19152850266e-05
9.49059045527e-06
-2.77450967091e-05
-6.98887182329e-05
8.73733340693e-06
-3.9197623144e-05
-6.58787109256e-05
6.81279806329e-06
-4.69485749192e-05
-6.01223393596e-05
3.27145706764e-06
-4.94170640155e-05
-5.31447934838e-05
-1.77299230436e-06
-4.55250258758e-05
-4.55170288051e-05
-7.76495808723e-06
-3.54058341344e-05
-3.84650372879e-05
-1.35431635618e-05
-2.0839104823e-05
-3.30201278934e-05
-1.7524952668e-05
-6.33516391265e-06
-2.96542602316e-05
-1.70113591931e-05
-2.7381483194e-05
-8.3976289344e-06
4.85118821176e-06
-2.2016606022e-05
-1.02264267828e-05
1.71636894562e-05
-2.32660715892e-05
-1.87199452972e-05
2.97135397004e-05
-2.55848756246e-05
-2.00124321283e-05
3.84555883112e-05
-2.97594794513e-05
-1.74821635441e-05
4.18897895991e-05
-3.54438210596e-05
-1.3546016435e-05
3.99280220863e-05
-4.17194193946e-05
-9.50031887453e-06
3.34402621263e-05
-4.752212311e-05
-6.14216895195e-06
2.37492659878e-05
-5.23791854585e-05
-3.83055161624e-06
1.22377018401e-05
-5.57775868479e-05
-2.61286997734e-06
-1.49716636198e-08
-5.74912958737e-05
-2.17585168172e-06
-1.2266533138e-05
-5.74877302279e-05
-2.17598438272e-06
-2.3774988598e-05
-5.57668383449e-05
-2.61317270807e-06
-3.34607989304e-05
-5.23614412439e-05
-3.83104926036e-06
-3.99410078246e-05
-4.74987298454e-05
-6.1428806529e-06
-4.189424395e-05
-4.16920822788e-05
-9.49933152847e-06
-3.84539086129e-05
-3.54156687668e-05
-1.35409932697e-05
-2.97094511729e-05
-2.97349707289e-05
-1.74742850931e-05
-1.71601999814e-05
-2.55660855379e-05
-2.00034186039e-05
-4.84953405084e-06
-2.32535676885e-05
-1.87112863436e-05
-2.20100841517e-05
-1.02209694685e-05
4.30225155686e-06
-1.43837207001e-05
-1.1935139006e-05
1.48164922263e-05
-1.40663613274e-05
-1.9713874287e-05
2.55226024208e-05
-1.48699328708e-05
-2.14210141773e-05
3.29843252665e-05
-1.72057821209e-05
-2.00153854905e-05
3.59508953475e-05
-2.087654514e-05
-1.75337082306e-05
3.43553590742e-05
-2.51392150915e-05
-1.49850427945e-05
2.8875188725e-05
-2.91204628419e-05
-1.29214025414e-05
2.05945411764e-05
-3.25494153515e-05
-1.15478380002e-05
1.06498050024e-05
-3.49651921007e-05
-1.08669891667e-05
-1.36437137486e-08
-3.61870194981e-05
-1.06399230486e-05
-1.06754629221e-05
-3.61847156179e-05
-1.06404336799e-05
-2.06157254017e-05
-3.49583608881e-05
-1.08673683189e-05
-2.8890694963e-05
-3.25387392687e-05
-1.15471440989e-05
-3.43637047876e-05
-2.91067170466e-05
-1.29187590235e-05
-3.59520479496e-05
-2.51237785656e-05
-1.49795895351e-05
-3.29812335926e-05
-2.08614862685e-05
-1.75249227564e-05
-2.55181133248e-05
-1.71935933354e-05
-2.00046848373e-05
-1.48127884218e-05
-1.48614150215e-05
-2.14101170863e-05
-4.30033913459e-06
-1.40615957346e-05
-1.97044019892e-05
-1.4381213511e-05
-1.19291741727e-05
4.77288814595e-06
-6.30061388913e-06
-1.28560433679e-05
1.40009712383e-05
-4.81117175681e-06
-1.84832600105e-05
2.31843217427e-05
-4.33606906123e-06
-1.97172399586e-05
2.95851194747e-05
-4.87975289564e-06
-1.87266931448e-05
3.2096094134e-05
-6.36162592925e-06
-1.70259831599e-05
3.06538607559e-05
-8.34360793793e-06
-1.53531538881e-05
2.5822466062e-05
-1.02218574011e-05
-1.40671961392e-05
1.84696510936e-05
-1.19542051223e-05
-1.32426005855e-05
9.57234258395e-06
-1.31902099344e-05
-1.28775818082e-05
-1.34741205133e-08
-1.38190676115e-05
-1.27821492206e-05
-9.59718793191e-06
-1.38181085435e-05
-1.27828114507e-05
-1.84892590059e-05
-1.31876679289e-05
-1.28787087525e-05
-2.58347612132e-05
-1.1950390487e-05
-1.3242909868e-05
-3.06585988043e-05
-1.02173521712e-05
-1.40655230743e-05
-3.20940114283e-05
-8.33951307111e-06
-1.53488527227e-05
-2.95788849622e-05
-6.35773911173e-06
-1.70189497977e-05
-2.3176980739e-05
-4.87761031968e-06
-1.87177342123e-05
-1.39950066236e-05
-4.33539297221e-06
-1.97080147911e-05
-4.76944963309e-06
-4.81170198869e-06
-1.84753222445e-05
-6.30037663636e-06
-1.28502827872e-05
6.2599022216e-06
-1.25604909753e-05
1.43074324532e-05
-1.28587377914e-05
2.19138302682e-05
-1.19424133233e-05
2.7272630559e-05
-1.02385777423e-05
2.93293180038e-05
-8.41824604891e-06
2.79137458269e-05
-6.92809373629e-06
2.36220609867e-05
-5.93015507601e-06
1.69646272887e-05
-5.29669316374e-06
8.81796396217e-06
-5.0435465707e-06
-1.2058920886e-08
-4.98901804729e-06
-8.8395835906e-06
-4.99058512445e-06
-1.69795043808e-05
-5.04771051127e-06
-2.36279401969e-05
-5.30187961769e-06
-2.79105218784e-05
-5.93477068551e-06
-2.93193540474e-05
-6.93068081392e-06
-2.72579407845e-05
-8.41913373478e-06
-2.18990365789e-05
-1.02365615602e-05
-1.42958274072e-05
-1.19385400189e-05
-6.2532314503e-06
-1.28543112154e-05
-1.25536066171e-05
9.36805522996e-06
9.37984460504e-06
-3.13017792871e-05
1.86225913205e-05
1.06817493268e-05
-3.27894356494e-05
2.63848020855e-05
1.20916881462e-05
-3.17889907264e-05
3.14267959622e-05
1.4143908606e-05
-2.94147915631e-05
3.29814852221e-05
1.66219899527e-05
-2.65837441396e-05
3.10029427115e-05
1.91820444379e-05
-2.41199624898e-05
2.59564453995e-05
2.14970007676e-05
-2.23683962839e-05
1.85261900724e-05
2.34838166144e-05
-2.13363584474e-05
9.6012719992e-06
2.48958173177e-05
-2.09995687045e-05
-1.09204168854e-09
2.56205114936e-05
-2.09913261205e-05
-9.60451046265e-06
2.56203949432e-05
-2.09900028928e-05
-1.85320328781e-05
2.48953530509e-05
-2.09963271439e-05
-2.59658792118e-05
2.34829718838e-05
-2.13322213652e-05
-3.10161097229e-05
2.14955031805e-05
-2.23644367437e-05
-3.29969020591e-05
1.91795315129e-05
-2.41177163851e-05
-3.14411390059e-05
1.66182070244e-05
-2.65856805418e-05
-2.63951602137e-05
1.41395641551e-05
-2.94207573875e-05
-1.86279731943e-05
1.20885649294e-05
-3.17986889116e-05
-9.36907399677e-06
1.06818869983e-05
-3.28047150566e-05
9.38455731672e-06
-3.13194014635e-05
1.06784790742e-05
1.86342372172e-05
-3.27831613774e-05
2.03387782471e-05
2.0334722626e-05
-3.77973404777e-05
2.7950450811e-05
2.26771510748e-05
-3.79169497566e-05
3.27537088996e-05
2.61976182298e-05
-3.55866051372e-05
3.4147492467e-05
3.05160755542e-05
-3.23169594108e-05
3.20248669782e-05
3.50431854389e-05
-2.90936490065e-05
2.67503027816e-05
3.92235446207e-05
-2.65177446318e-05
1.90911291541e-05
4.27266631104e-05
-2.48202858086e-05
9.90796566547e-06
4.52007893541e-05
-2.39904238379e-05
9.83634252193e-09
4.64670330907e-05
-2.3719860717e-05
-9.88945813919e-06
4.64665866624e-05
-2.37173327745e-05
-1.90756940502e-05
4.51993039018e-05
-2.39835975054e-05
-2.67396503761e-05
4.27241511465e-05
-2.4809881492e-05
-3.20199702482e-05
3.92196693436e-05
-2.65052055739e-05
-3.4147590727e-05
3.50375539757e-05
-2.90822691637e-05
-3.27564836997e-05
3.0508767303e-05
-3.23106287542e-05
-2.79533546453e-05
2.61898586365e-05
-3.55865884854e-05
-2.03400147669e-05
2.26714478968e-05
-3.79226951657e-05
-1.0677775616e-05
2.03341705583e-05
-3.78078750275e-05
1.86429035432e-05
-3.27964302036e-05
1.20955660633e-05
2.63868856032e-05
-3.17766681103e-05
2.26921790088e-05
2.79340875855e-05
-3.79135163614e-05
3.08156115831e-05
3.07866232606e-05
-3.76624869735e-05
3.58166211138e-05
3.52298828258e-05
-3.40607257614e-05
3.71460884219e-05
4.07325972602e-05
-2.90934987522e-05
3.47078148507e-05
4.65446789959e-05
-2.40591792396e-05
2.89155697109e-05
5.19289926261e-05
-1.98378991255e-05
2.05946164814e-05
5.63813923036e-05
-1.68762807636e-05
1.06773898235e-05
5.94973764909e-05
-1.52354836845e-05
1.69026681879e-08
6.10797303188e-05
-1.45782816604e-05
-1.06449545085e-05
6.10785176364e-05
-1.45742511397e-05
-2.05657415236e-05
5.94936348751e-05
-1.52244205294e-05
-2.88926502802e-05
5.63754812226e-05
-1.68585687363e-05
-3.46925111391e-05
5.19205873356e-05
-1.98153728929e-05
-3.7138119445e-05
4.65338776177e-05
-2.40370507337e-05
-3.58136895601e-05
4.07202739906e-05
-2.90777408245e-05
-3.08149601241e-05
3.52176293502e-05
-3.40533504326e-05
-2.26915003499e-05
3.07772686527e-05
-3.76626389768e-05
-1.20940605272e-05
2.79314751791e-05
-3.79188956405e-05
2.63972881661e-05
-3.17843273877e-05
1.4152964736e-05
3.14132429356e-05
-2.93972791345e-05
2.62204492362e-05
3.27235509519e-05
-3.55831979601e-05
3.52683517019e-05
3.57737823938e-05
-3.4063339915e-05
4.07018737709e-05
4.06478134155e-05
-2.83573712721e-05
4.19820235016e-05
4.67209111129e-05
-2.08415175854e-05
3.90374693804e-05
5.31517415622e-05
-1.31830716255e-05
3.23927084045e-05
5.90752011006e-05
-6.64709842893e-06
2.29879767012e-05
6.39051975799e-05
-1.93608923006e-06
1.18827955071e-05
6.72445415917e-05
7.69568209011e-07
2.10013054475e-08
6.8946349594e-05
1.84796697759e-06
-1.1842341523e-05
6.89437497022e-05
1.85356009711e-06
-2.29511105445e-05
6.72369315797e-05
7.84805989017e-07
-3.23628932123e-05
6.38929147953e-05
-1.90945662751e-06
-3.90167713174e-05
5.90588389267e-05
-6.61329599844e-06
-4.19703671134e-05
5.31322360514e-05
-1.31487312831e-05
-4.069691484e-05
4.67005303503e-05
-2.08150173033e-05
-3.52669644064e-05
4.06286536285e-05
-2.83413010915e-05
-2.62199157954e-05
3.5758677954e-05
-3.40566742283e-05
-1.41520220343e-05
3.27167942816e-05
-3.55830466818e-05
3.14225763105e-05
-2.94006662795e-05
1.6633891049e-05
3.29540309812e-05
-2.65681085364e-05
3.05426059458e-05
3.41074056673e-05
-3.23201170965e-05
4.07758742849e-05
3.7093702618e-05
-2.91069842597e-05
4.67822285141e-05
4.19165628898e-05
-2.08557200554e-05
4.80119145358e-05
4.79358136717e-05
-1.02456325471e-05
4.44158538808e-05
5.4294462518e-05
6.62611663391e-07
3.66854997658e-05
6.01926187739e-05
9.89203196648e-06
2.59231565285e-05
6.49561515257e-05
1.65536781005e-05
1.33703961369e-05
6.82328063365e-05
2.03477863675e-05
2.1470683914e-08
6.98969852284e-05
2.19429675194e-05
-1.33288002378e-05
6.98928767006e-05
2.1948800007e-05
-2.58851769631e-05
6.82209485164e-05
2.03649496785e-05
-3.66543592564e-05
6.4936951261e-05
1.65832522152e-05
-4.43941972955e-05
6.01670624501e-05
9.93116117896e-06
-4.79994561599e-05
5.4264627742e-05
7.02727648708e-07
-4.67772902961e-05
4.79047167873e-05
-1.02103882038e-05
-4.07754300327e-05
4.18877789826e-05
-2.0831359214e-05
-3.05434373269e-05
3.70706066682e-05
-2.90934126068e-05
-1.6634346127e-05
3.40943092755e-05
-3.23141974133e-05
3.29589369738e-05
-2.6566681097e-05
1.91927505567e-05
3.09689059786e-05
-2.41112410383e-05
3.50675988475e-05
3.198305394e-05
-2.91095984494e-05
4.65856313249e-05
3.46563866063e-05
-2.40936143586e-05
5.32123392751e-05
3.89731366769e-05
-1.32292018501e-05
5.43731511316e-05
4.43393532233e-05
6.21569625487e-07
5.01440016243e-05
5.00632866671e-05
1.46558130044e-05
4.12488102156e-05
5.5368725338e-05
2.66414299377e-05
2.90560564226e-05
5.9652657004e-05
3.51126262441e-05
1.49611924723e-05
6.25863552438e-05
3.99338322634e-05
1.86353072532e-08
6.40693083884e-05
4.20017955374e-05
-1.4925027645e-05
6.40642342347e-05
4.20062217768e-05
-2.90229501288e-05
6.25710048039e-05
3.99472050757e-05
-4.12215612532e-05
5.96276894441e-05
3.51380394152e-05
-5.01250359395e-05
5.53342023716e-05
2.6677409965e-05
-5.43626115981e-05
5.00223070045e-05
1.46967221675e-05
-5.3208527988e-05
4.42963420833e-05
6.58919936307e-07
-4.65864167762e-05
3.89331985902e-05
-1.31993074265e-05
-3.50697446319e-05
3.46233311659e-05
-2.4075021613e-05
-1.91939791065e-05
3.19615830869e-05
-2.90989120306e-05
3.09665814811e-05
-2.41050089521e-05
2.150595964e-05
2.5925235151e-05
-2.23682423652e-05
3.92430577031e-05
2.67187521805e-05
-2.65490296155e-05
5.19628099114e-05
2.88795383763e-05
-1.98985220174e-05
5.9129891046e-05
3.23483571073e-05
-6.73621727156e-06
6.02686336961e-05
3.66315251453e-05
9.79174066028e-06
5.54471120804e-05
4.1191732636e-05
2.65828610195e-05
4.54897863538e-05
4.54383714071e-05
4.08048410864e-05
3.19708690635e-05
4.8896324397e-05
5.08027358468e-05
1.64337570624e-05
5.12823326363e-05
5.64685767463e-05
1.351014887e-08
5.24697620153e-05
5.89010347927e-05
-1.64076484319e-05
5.24640776799e-05
5.89036512659e-05
-3.19471416111e-05
5.12651281658e-05
5.64773944776e-05
-4.54713310962e-05
4.88668925954e-05
5.08225312286e-05
-5.54349274227e-05
4.53974018245e-05
4.08328334385e-05
-6.02625816505e-05
4.11416268687e-05
2.66146342805e-05
-5.91282056284e-05
3.65778881777e-05
9.82385361289e-06
-5.19649245603e-05
3.22975952102e-05
-6.70917894741e-06
-3.92457471676e-05
2.88372358888e-05
-1.9880416078e-05
-2.15077072496e-05
2.66888405825e-05
-2.65367446608e-05
2.59141287467e-05
-2.23585532431e-05
2.34912212397e-05
1.8505466898e-05
-2.1342507378e-05
4.27415824939e-05
1.90782235253e-05
-2.48613671575e-05
5.64083816237e-05
2.0584447642e-05
-1.6953510102e-05
6.39537719181e-05