/*--------------------------------*- C++ -*----------------------------------*\
| =========                 |                                                 |
| \\      /  F ield         | OpenFOAM: The Open Source CFD Toolbox           |
|  \\    /   O peration     | Version:  3.0.1                                 |
|   \\  /    A nd           | Web:      www.OpenFOAM.org                      |
|    \\/     M anipulation  |                                                 |
\*---------------------------------------------------------------------------*/
FoamFile
{
    version     2.0;
    format      ascii;
    class       surfaceScalarField;
    location    "1.5";
    object      meshPhiCN_0;
}
// * * * * * * * * * * * * * * * * * * * * * * * * * * * * * * * * * * * * * //

dimensions      [0 3 -1 0 0 0 0];

internalField   nonuniform List<scalar> 
22672
(
0
0
0
0
0
0
0
0
0
0
0
0
0
0
0
0
0
0
0
0
0
0
0
0
0
0
0
0
0
0
0
0
0
0
0
0
0
0
0
0
0
0
0
0
0
0
0
0
0
0
0
0
0
0
0
0
0
0
0
0
0
0
0
0
0
0
0
0
0
0
0
0
0
0
0
0
0
0
0
0
0
0
0
0
0
0
0
0
0
0
0
0
0
0
0
0
0
0
0
0
0
0
0
0
0
0
0
0
0
0
0
0
0
0
0
0
0
0
0
0
0
0
0
0
0
0
0
0
0
0
0
0
0
0
0
0
0
0
0
0
0
0
0
0
0
0
0
0
0
0
0
0
0
0
0
0
0
0
0
0
0
0
0
0
0
0
0
0
0
0
0
0
0
0
0
0
0
0
0
0
0
0
0
0
0
0
0
0
0
0
0
0
0
0
0
0
0
0
0
0
0
0
0
0
0
0
0
0
0
0
0
0
0
0
0
0
0
0
0
0
0
0
0
0
0
0
0
0
0
0
0
0
0
0
0
0
0
0
0
0
0
0
0
0
0
0
0
0
0
0
0
0
0
0
0
0
0
0
0
0
0
0
0
0
0
0
0
0
0
0
0
0
0
0
0
0
0
0
0
0
0
0
0
0
0
0
0
0
0
0
0
0
0
0
0
0
0
0
0
0
0
0
0
0
0
0
0
0
0
0
0
0
0
0
0
0
0
0
0
0
0
0
0
0
0
0
0
0
0
0
0
0
0
0
0
0
0
0
0
0
0
0
0
0
0
0
0
0
0
0
0
0
0
0
0
0
0
0
0
0
0
0
0
0
0
0
0
0
0
0
0
0
0
0
0
0
0
0
0
0
0
0
0
0
0
0
0
0
0
0
0
0
0
0
0
0
0
0
0
0
0
0
0
0
0
0
0
0
0
0
0
0
0
0
0
0
0
0
0
0
0
0
0
0
0
0
0
0
0
0
0
0
0
0
0
0
0
0
0
0
0
0
0
0
0
0
0
0
0
0
0
0
0
0
0
0
0
0
0
0
0
0
0
0
0
0
0
0
0
0
0
0
0
0
0
0
0
0
0
0
0
0
0
0
0
0
0
0
0
0
0
0
0
0
0
0
0
0
0
0
0
0
0
0
0
0
0
0
0
0
0
0
0
0
0
0
0
0
0
0
0
0
0
0
0
0
0
0
0
0
0
0
0
0
0
0
0
0
0
0
0
0
0
0
0
0
0
0
0
0
0
0
0
0
0
0
0
0
0
0
0
0
0
0
0
0
0
0
0
0
0
0
0
0
0
0
0
0
0
0
0
0
0
0
0
0
0
0
0
0
0
0
0
0
0
0
0
0
0
0
0
0
0
0
0
0
0
0
0
0
0
0
0
0
0
0
0
0
0
0
0
0
0
0
0
0
0
0
0
0
0
0
0
0
0
0
0
0
0
0
0
0
0
0
0
0
0
0
0
0
0
0
0
0
0
0
0
0
0
0
0
0
0
0
0
0
0
0
0
0
0
0
0
0
0
0
0
0
0
0
0
0
0
0
0
0
0
0
0
0
0
0
0
0
0
0
0
0
0
0
0
0
0
0
0
0
0
0
0
0
0
0
0
0
0
0
0
0
0
0
0
0
0
0
0
0
0
0
0
0
0
0
0
0
0
0
0
0
0
0
0
0
0
0
0
0
0
0
0
0
0
0
0
0
0
0
0
0
0
0
0
0
0
0
0
0
0
0
0
0
0
0
0
0
0
0
0
0
0
0
0
0
0
0
0
0
0
0
0
0
0
0
0
0
0
0
0
0
0
0
0
0
0
0
0
0
0
0
0
0
0
0
0
0
0
0
0
0
0
0
0
0
0
0
0
0
0
0
0
0
0
0
0
0
0
0
0
0
0
0
0
0
0
0
0
0
0
0
0
0
0
0
0
0
0
0
0
0
0
0
0
0
0
0
0
0
0
0
0
0
0
0
0
0
0
0
0
0
0
0
0
0
0
0
0
0
0
0
0
0
0
0
0
0
0
0
0
0
0
0
0
0
0
0
0
0
0
0
0
0
0
0
0
0
0
0
0
0
0
0
0
0
0
0
0
0
0
0
0
0
0
0
0
0
0
0
0
0
0
0
0
0
0
0
0
0
0
0
0
0
0
0
0
0
0
0
0
0
0
0
0
0
0
0
0
0
0
0
0
0
0
0
0
0
0
0
0
0
0
0
0
0
0
0
0
0
0
0
0
0
0
0
0
0
0
0
0
0
0
0
0
0
0
0
0
0
0
0
0
0
0
0
0
0
0
0
0
0
0
0
0
0
0
0
0
0
0
0
0
0
0
0
0
0
0
0
0
0
0
0
0
0
0
0
0
0
0
0
0
0
0
0
0
0
0
0
0
0
0
0
0
0
0
0
0
0
0
0
0
0
0
0
0
0
0
0
0
0
0
0
0
0
0
0
0
0
0
0
0
0
0
0
0
0
0
0
0
0
0
0
0
0
0
0
0
0
0
0
0
0
0
0
0
0
0
0
0
0
0
0
0
0
0
0
0
0
0
0
0
0
0
0
0
0
0
0
0
0
0
0
0
0
0
0
0
0
0
0
0
0
0
0
0
0
0
0
0
0
0
0
0
0
0
0
0
0
0
0
0
0
0
0
0
0
0
0
0
0
0
0
0
0
0
0
0
0
0
0
0
0
0
0
0
0
0
0
0
0
0
0
0
0
0
0
0
0
0
0
0
0
0
0
0
0
0
0
0
0
0
0
0
0
0
0
0
0
0
0
0
0
0
0
0
0
0
0
0
0
0
0
0
0
0
0
0
0
0
0
0
0
0
0
0
0
0
0
0
0
0
0
0
0
0
0
0
0
0
0
0
0
0
0
0
0
0
0
0
0
0
0
0
0
0
0
0
0
0
0
0
0
0
0
0
0
0
0
0
0
0
0
0
0
0
0
0
0
0
0
0
0
0
0
0
0
0
0
0
0
0
0
0
0
0
0
0
0
0
0
0
0
0
0
0
0
0
0
0
0
0
0
0
0
0
0
0
0
0
0
0
0
0
0
0
0
0
0
0
0
0
0
0
0
0
0
0
0
0
0
0
0
0
0
0
0
0
0
0
0
0
0
0
0
0
0
0
0
0
0
0
0
0
0
0
0
0
0
0
0
0
0
0
0
0
0
0
0
0
0
0
0
0
0
0
0
0
0
0
0
0
0
0
0
0
0
0
0
0
0
0
0
0
0
0
0
0
0
0
0
0
0
0
0
0
0
0
0
0
0
0
0
0
0
0
0
0
0
0
0
0
0
0
0
0
0
0
0
0
0
0
0
0
0
0
0
0
0
0
0
0
0
0
0
0
0
0
0
0
0
0
0
0
0
0
0
0
0
0
0
0
0
0
0
0
0
0
0
0
0
0
0
0
0
0
0
0
0
0
0
0
0
0
0
0
0
0
0
0
0
0
0
0
0
0
0
0
0
0
0
0
0
0
0
0
0
0
0
0
0
0
0
0
0
0
0
0
0
0
0
0
0
0
0
0
0
0
0
0
0
0
0
0
0
0
0
0
0
0
0
0
0
0
0
0
0
0
0
0
0
0
0
0
0
0
0
0
0
0
0
0
0
0
0
0
0
0
0
0
0
0
0
0
0
0
0
0
0
0
0
0
0
0
0
0
0
0
0
0
0
0
0
0
0
0
0
0
0
0
0
0
0
0
0
0
0
0
0
0
0
0
0
0
0
0
0
0
0
0
0
0
0
0
0
0
0
0
0
0
0
0
0
0
0
0
0
0
0
0
0
0
0
0
0
0
0
0
0
0
0
0
0
0
0
0
0
0
0
0
0
0
0
0
0
0
0
0
0
0
0
0
0
0
0
0
0
0
0
0
0
0
0
0
0
0
0
0
0
0
0
0
0
0
0
0
0
0
0
0
0
0
0
0
0
0
0
0
0
0
0
0
0
0
0
0
0
0
0
0
0
0
0
0
0
0
0
0
0
0
0
0
0
0
0
0
0
0
0
0
0
0
0
0
0
0
0
0
0
0
0
0
0
0
0
0
0
0
0
0
0
0
0
0
0
0
0
0
0
0
0
0
0
0
0
0
0
0
0
0
0
0
0
0
0
0
0
0
0
0
0
0
0
0
0
0
0
0
0
0
0
0
0
0
0
0
0
0
0
0
0
0
0
0
0
0
0
0
0
0
0
0
0
0
0
0
0
0
0
0
0
0
0
0
0
0
0
0
0
0
0
0
0
0
0
0
0
0
0
0
0
0
0
0
0
0
0
0
0
0
0
0
0
0
0
0
0
0
0
0
0
0
0
0
0
0
0
0
0
0
0
0
0
0
0
0
0
0
0
0
0
0
0
0
0
0
0
0
0
0
0
0
0
0
0
0
0
0
0
0
0
0
0
0
0
0
0
0
0
0
0
0
0
0
0
0
0
0
0
0
0
0
0
0
0
0
0
0
0
0
0
0
0
0
0
0
0
0
0
0
0
0
0
0
0
0
0
0
0
0
0
0
0
0
0
0
0
0
0
0
0
0
0
0
0
0
0
0
0
0
0
0
0
0
0
0
0
0
0
0
0
0
0
0
0
0
0
0
0
0
0
0
0
0
0
0
0
0
0
0
0
0
0
0
0
0
0
0
0
0
0
0
0
0
0
0
0
0
0
0
0
0
0
0
0
0
0
0
0
0
0
0
0
0
0
0
0
0
0
0
0
0
0
0
0
0
0
0
0
0
0
0
0
0
0
0
0
0
0
0
0
0
0
0
0
0
0
0
0
0
0
0
0
0
0
0
0
0
0
0
0
0
0
0
0
0
0
0
0
0
0
0
0
0
0
0
0
0
0
0
0
0
0
0
0
0
0
0
0
0
0
0
0
0
0
0
0
0
0
0
0
0
0
0
0
0
0
0
0
0
0
0
0
0
0
0
0
0
0
0
0
0
0
0
0
0
0
0
0
0
0
0
0
0
0
0
0
0
0
0
0
0
0
0
0
0
0
0
0
0
0
0
0
0
0
0
0
0
0
0
0
0
0
0
0
0
0
0
0
0
0
0
0
0
0
0
0
0
0
0
0
0
0
0
0
0
0
0
0
0
0
0
0
0
0
0
0
0
0
0
0
0
0
0
0
0
0
0
0
0
0
0
0
0
0
0
0
0
0
0
0
0
0
0
0
0
0
0
0
0
0
0
0
0
0
0
0
0
0
0
0
0
0
0
0
0
0
0
0
0
0
0
0
0
0
0
0
0
0
0
0
0
0
0
0
0
0
0
0
0
0
0
0
0
0
0
0
0
0
0
0
0
0
0
0
0
0
0
0
0
0
0
0
0
0
0
0
0
0
0
0
0
0
0
0
0
0
0
0
0
0
0
0
0
0
0
0
0
0
0
0
0
0
0
0
0
0
0
0
0
0
0
0
0
0
0
0
0
0
0
0
0
0
0
0
0
0
0
0
0
0
0
0
0
0
0
0
0
0
0
0
0
0
0
0
0
0
0
0
0
0
0
0
0
0
0
0
0
0
0
0
0
0
0
0
0
0
0
0
0
0
0
0
0
0
0
0
0
0
0
0
0
0
0
0
0
0
0
0
0
0
0
0
0
0
0
0
0
0
0
0
0
0
0
0
0
0
0
0
0
0
0
0
0
0
0
0
0
0
0
0
0
0
0
0
0
0
0
0
0
0
0
0
0
0
0
0
0
0
0
0
0
0
0
0
0
0
0
0
0
0
0
0
0
0
0
0
0
0
0
0
0
0
0
0
0
0
0
0
0
0
0
0
0
0
0
0
0
0
0
0
0
0
0
0
0
0
1.28338583624e-08
-2.67695837171e-10
8.08907546816e-10
2.30430803882e-08
-7.21763791244e-10
2.85365929464e-09
2.30428397227e-08
-8.8160539953e-10
4.68165814535e-09
2.30425989236e-08
-8.28307028781e-10
5.86596874599e-09
2.30423582568e-08
-7.75013462301e-10
7.05028411743e-09
2.30421175105e-08
-7.21724622082e-10
8.2346042798e-09
1.28334103146e-08
-5.2633074598e-10
7.20046038407e-09
0
-1.78750666098e-10
2.78743402499e-09
0
0
0
0
0
0
0
0
0
0
0
0
0
0
0
0
0
0
0
0
0
0
0
0
0
0
0
0
0
0
0
0
3.63196111734e-08
-8.00118996161e-10
1.66722545943e-09
1.08545210791e-07
-2.79702468987e-09
9.33148967262e-09
1.45323350352e-07
-4.41013055011e-09
2.16221091667e-08
1.45314913446e-07
-4.68365497052e-09
3.1648042554e-08
1.45306476537e-07
-4.40005285248e-09
3.91241388621e-08
1.45298039684e-07
-4.11658572712e-09
4.66003653643e-08
1.45289602743e-07
-3.83325359527e-09
5.40767220874e-08
1.08516176262e-07
-3.18077622481e-09
5.33115549649e-08
3.63148320613e-08
-1.79931325093e-09
3.3540545864e-08
0
-4.64416593392e-10
9.1396837486e-09
0
0
0
0
0
0
0
0
0
0
0
0
0
0
0
0
0
0
0
0
0
0
0
0
0
0
1.2804284888e-08
-2.97361820788e-10
3.68584750538e-10
1.31926295466e-07
-2.40376945979e-09
7.24116529438e-09
2.81616446426e-07
-5.98840280055e-09
2.8652233884e-08
3.45527058108e-07
-8.29252985791e-09
5.73854465073e-08
3.45483232758e-07
-8.56001630485e-09
8.00880938337e-08
3.45439407391e-07
-8.04088131347e-09
9.78808201803e-08
3.45395582131e-07
-7.52219728815e-09
1.15673862565e-07
3.45351756726e-07
-7.00396429374e-09
1.33467220969e-07
2.81441306422e-07
-5.96794518865e-09
1.36404910848e-07
1.31874024875e-07
-3.81944060496e-09
9.92209873915e-08
1.2803543137e-08
-1.37309512546e-09
3.7681808948e-08
0
-1.49065560691e-10
3.66622831451e-09
0
0
0
0
0
0
0
0
0
0
0
0
0
0
0
0
0
0
0
0
0
0
0
3.57684325687e-08
-5.3381103694e-10
1.22675310516e-09
2.17624296166e-07
-3.22402233419e-09
1.41276230415e-08
4.08924420664e-07
-7.35200268442e-09
4.7672399362e-08
4.87315784907e-07
-9.88413916281e-09
8.87869007899e-08
4.87229125556e-07
-1.01359405665e-08
1.20568279916e-07
4.87142466199e-07
-9.520864221e-09
1.45690468293e-07
4.87055806869e-07
-8.90642043659e-09
1.70812838251e-07
4.86969147481e-07
-8.29260923313e-09
1.95935389729e-07
4.08558523598e-07
-7.10972346122e-09
2.02133229119e-07
2.17486263011e-07
-4.68063220533e-09
1.55548858924e-07
3.57637447354e-08
-1.83157824377e-09
6.81283767367e-08
0
-2.67647506034e-10
1.04439210549e-08
0
0
0
0
0
0
0
0
0
0
0
0
0
0
0
0
0
0
0
0
0
0
0
4.59016027631e-08
-5.33807089659e-10
1.91352361119e-09
2.4388866562e-07
-3.22389303842e-09
1.83552003174e-08
4.45768961768e-07
-7.35139722543e-09
5.8051003501e-08
5.27816909897e-07
-9.88305347258e-09
1.04521835696e-07
5.27714690608e-07
-1.01347709995e-08
1.39423619483e-07
5.27612471335e-07
-9.51979657047e-09
1.66666025701e-07
5.27510252147e-07
-8.90545480253e-09
1.93908431916e-07
5.27408032872e-07
-8.29174555767e-09
2.21150838175e-07
4.45331668111e-07
-7.10907618243e-09
2.27850640649e-07
2.43714160379e-07
-4.68034658915e-09
1.77110311362e-07
4.5893875065e-08
-1.83153152855e-09
8.04177248196e-08
0
-2.67646462982e-10
1.37524528924e-08
0
0
0
0
0
0
0
0
0
0
0
0
0
0
0
0
0
0
0
0
0
0
0
4.58480898697e-08
-5.33803027055e-10
2.30767928615e-09
2.43599054003e-07
-3.22376377669e-09
2.08483088748e-08
4.45229901129e-07
-7.35079172593e-09
6.39845677408e-08
5.27174102058e-07
-9.88196774561e-09
1.12886374057e-07
5.27072199117e-07
-1.01336014611e-08
1.4848441405e-07
5.26970296177e-07
-9.51872899224e-09
1.75726820297e-07
5.26868393153e-07
-8.90448915802e-09
2.02969226519e-07
5.26766490186e-07
-8.29088191952e-09
2.30211632761e-07
4.44793960619e-07
-7.10842888195e-09
2.36198256785e-07
2.43425088724e-07
-4.68006097325e-09
1.83014417506e-07
4.58403861466e-08
-1.83148486513e-09
8.28986965082e-08
0
-2.67645355938e-10
1.41461627755e-08
0
0
0
0
0
0
0
0
0
0
0
0
0
0
0
0
0
0
0
0
0
0
0
4.57945785236e-08
-5.33799032252e-10
2.7018334145e-09
2.43309485883e-07
-3.22363450745e-09
2.33413754583e-08
4.44690985885e-07
-7.35018632652e-09
6.9918030101e-08
5.26531498162e-07
-9.8808820049e-09
1.21250853886e-07
5.26429911489e-07
-1.01324318488e-08
1.57545208669e-07
5.26328324811e-07
-9.51766143157e-09
1.8478761491e-07
5.26226738118e-07
-8.90352351789e-09
2.12030021138e-07
5.26125151458e-07
-8.29001821678e-09
2.39272427389e-07
4.44256398484e-07
-7.1077815701e-09
2.44545931501e-07
2.43136060588e-07
-4.67977540377e-09
1.88918625529e-07
4.57868986357e-08
-1.8314382019e-09
8.53797101482e-08
0
-2.67644279543e-10
1.45398742058e-08
0
0
0
0
0
0
0
0
0
0
0
0
0
0
0
0
0
0
0
0
0
0
0
4.57410687165e-08
-5.33795055408e-10
3.09598598788e-09
2.4301996126e-07
-3.2235052449e-09
2.58344000224e-08
4.44152216052e-07
-7.34958084939e-09
7.58513905812e-08
5.25889098185e-07
-9.87979631379e-09
1.29615275182e-07
5.2578782783e-07
-1.01312623289e-08
1.66606003225e-07
5.25686557406e-07
-9.51659385231e-09
1.93848409488e-07
5.25585287053e-07
-8.90255792059e-09
2.21090815715e-07
5.25484016608e-07
-8.2891546117e-09
2.48333221982e-07
4.43718981656e-07
-7.1071343233e-09
2.52893664725e-07
2.42847075893e-07
-4.67948977781e-09
1.94822935481e-07
4.57334128169e-08
-1.83139157476e-09
8.78607658133e-08
0
-2.67643208686e-10
1.49335872012e-08
0
0
0
0
0
0
0
0
0
0
0
0
0
0
0
0
0
0
0
0
0
0
0
3.55725063086e-08
-2.97354327272e-10
2.67344828049e-09
2.16373076105e-07
-2.40332207396e-09
2.46982178854e-08
4.06520111474e-07
-5.98597590233e-09
7.40443505552e-08
4.84426986891e-07
-8.28794203564e-09
1.26572699064e-07
4.84340181033e-07
-8.55501325448e-09
1.61649936739e-07
4.84253375152e-07
-8.03631434754e-09
1.86773294208e-07
4.84166569288e-07
-7.51806658159e-09
2.11896470086e-07
4.84079763399e-07
-7.00026982473e-09
2.37019464463e-07
4.06153076273e-07
-5.96521116591e-09
2.39850183214e-07
2.16233753905e-07
-3.81829782278e-09
1.81800660798e-07
3.55676212718e-08
-1.37293433653e-09
7.86529903033e-08
0
-1.490635392e-10
1.18893891965e-08
0
0
0
0
0
0
0
0
0
0
0
0
0
0
0
0
0
0
0
0
0
0
0
1.27152653319e-08
0
1.02690934711e-09
1.30918675531e-07
-8.0004452423e-10
1.53130413073e-08
2.79398338876e-07
-2.79629089584e-09
5.22088836857e-08
3.42779032127e-07
-4.40839364014e-09
9.33787028084e-08
3.4273357644e-07
-4.68165871422e-09
1.19796365861e-07
3.42688120715e-07
-4.39823066806e-09
1.37591126683e-07
3.42642665068e-07
-4.11493765574e-09
1.5538557149e-07
3.42597209378e-07
-3.83177952048e-09
1.73179700262e-07
2.79215731548e-07
-3.17974303433e-09
1.72347319654e-07
1.30862918479e-07
-1.79897037488e-09
1.2269443746e-07
1.27144187959e-08
-4.64390190282e-10
4.57300532533e-08
0
0
4.32430022352e-09
0
0
0
0
0
0
0
0
0
0
0
0
0
0
0
0
0
0
0
0
0
0
0
0
0
0
3.59828649387e-08
0
4.15516105734e-09
1.07504933617e-07
-2.67685008498e-10
1.94787447911e-08
1.43912922541e-07
-7.21703606669e-10
3.96247107936e-08
1.43903661438e-07
-8.81516974742e-10
5.23352830515e-08
1.43894400267e-07
-8.28226282599e-10
5.98122172184e-08
1.43885139191e-07
-7.74940403814e-10
6.72890212037e-08
1.43875878058e-07
-7.21659318779e-10
7.47656949746e-08
1.07472744706e-07
-5.26295250063e-10
7.12986557646e-08
3.59774444528e-08
-1.78745764829e-10
4.36680938617e-08
0
0
1.16248207853e-08
0
0
0
0
0
0
0
0
0
0
0
0
0
0
0
0
0
0
0
0
0
0
0
0
0
0
0
0
0
0
0
0
1.26853770593e-08
0
1.90612186645e-09
2.27762868535e-08
0
5.92084977332e-09
2.27760155011e-08
0
8.6210586633e-09
2.27757441484e-08
0
9.80540000622e-09
2.27754728432e-08
0
1.09897365898e-08
2.27752015273e-08
0
1.21740683753e-08
1.26848720654e-08
0
1.02666940132e-08
0
0
3.8842037819e-09
0
0
0
0
0
0
0
0
0
0
0
0
0
0
0
0
0
0
0
0
0
0
0
0
0
0
0
0
0
0
0
0
0
0
0
0
0
0
0
0
0
0
0
0
0
0
0
0
0
0
0
0
0
0
0
0
0
0
0
0
0
0
0
0
0
0
0
0
0
0
0
0
0
0
0
0
0
0
0
0
0
0
0
0
0
0
0
0
0
0
0
0
0
0
0
0
0
0
0
0
0
0
0
0
0
0
0
0
0
0
0
0
0
0
0
0
0
0
0
0
0
0
0
0
0
0
0
0
0
0
0
0
0
0
0
0
0
0
0
0
0
0
0
0
0
0
0
0
0
0
0
0
0
0
0
0
0
0
0
0
0
0
0
0
0
0
0
0
0
0
0
0
0
0
0
0
0
0
0
0
0
0
0
0
0
0
0
0
0
0
0
0
0
0
0
0
0
0
0
0
0
0
0
0
0
0
0
0
0
0
0
0
0
0
0
0
0
0
0
0
0
0
0
0
0
0
0
0
0
0
0
0
0
0
0
0
0
0
0
0
0
0
0
0
0
0
0
0
0
0
0
0
0
0
0
0
0
0
0
0
0
0
0
0
0
0
0
0
0
0
0
0
0
0
0
0
0
0
0
0
0
0
0
0
0
0
0
0
0
0
0
0
0
0
0
0
0
0
0
0
0
0
0
0
0
0
0
0
0
0
0
0
0
0
0
0
0
0
0
0
0
0
0
0
0
0
0
0
0
0
0
0
0
0
0
0
0
0
0
0
0
0
0
0
0
0
0
0
0
0
0
0
0
0
0
0
0
0
0
0
0
0
0
0
0
0
0
0
0
0
0
0
0
0
0
0
0
0
0
0
0
0
0
0
0
0
0
0
0
0
0
0
0
0
0
0
0
0
0
0
0
0
0
0
0
0
0
0
0
0
0
0
0
0
0
0
0
0
0
0
0
0
0
0
0
2.24781833662e-08
-7.04255174062e-10
6.62832565661e-10
7.0883523887e-08
-2.84079186832e-09
4.61926548379e-09
9.34694125687e-08
-4.84454954123e-09
1.16421734272e-08
9.34652225576e-08
-5.30455718606e-09
1.78302637211e-08
9.34610325554e-08
-5.08264362777e-09
2.27547169717e-08
9.34568425596e-08
-4.8608127891e-09
2.7679252971e-08
9.34526525596e-08
-4.63906461993e-09
3.26038716334e-08
7.08690665867e-08
-3.89706856689e-09
3.26886889753e-08
2.24762448805e-08
-2.12401260352e-09
2.05527188282e-08
0
-4.91191598189e-10
5.39928638473e-09
0
0
0
0
0
0
0
0
0
0
0
0
0
0
0
0
0
0
0
0
0
0
0
0
0
0
5.15175489777e-08
-1.67667105143e-09
6.11308299723e-10
2.04048572291e-07
-7.36739925321e-09
8.19583594852e-09
3.85920144341e-07
-1.50783067859e-08
3.10751468481e-08
4.66437372678e-07
-1.99940996661e-08
6.30613440111e-08
4.6635746315e-07
-2.07685282834e-08
9.08114151771e-08
4.66277553654e-07
-1.987991654e-08
1.14191340034e-07
4.66197644118e-07
-1.89924617773e-08
1.37572344011e-07
4.66117734543e-07
-1.81061640195e-08
1.60954427119e-07
3.8557569779e-07
-1.59778072248e-08
1.68749994688e-07
2.03903092853e-07
-1.11149168256e-08
1.32976027596e-07
5.15048337199e-08
-5.03482708411e-09
6.47554286565e-08
0
-1.06565823804e-09
1.41931635879e-08
0
0
0
0
0
0
0
0
0
0
0
0
0
0
0
0
0
0
0
0
2.242522639e-08
-7.5751471571e-10
-1.2791947818e-10
2.32893885936e-07
-6.661276348e-09
4.18372013174e-09
6.19225678854e-07
-1.92884369719e-08
3.00141408987e-08
9.91068142179e-07
-3.29121908381e-08
8.79152042279e-08
1.1432437436e-06
-4.07730974684e-08
1.58915750919e-07
1.14286932877e-06
-4.15676493906e-08
2.19721404526e-07
1.14249491398e-06
-3.97290890302e-08
2.72398217606e-07
1.14212049921e-06
-3.78943880927e-08
3.25077863345e-07
1.14174608437e-06
-3.60635467365e-08
3.77760341776e-07
9.8929693643e-07
-3.23012058794e-08
4.03637627971e-07
6.18171373198e-07
-2.39666672724e-08
3.49946655386e-07
2.32673462393e-07
-1.2993309541e-08
2.14035636739e-07
2.24223378185e-08
-4.19004093497e-09
7.26581478234e-08
0
-4.3787975327e-10
6.9768729515e-09
0
0
0
0
0
0
0
0
0
0
0
0
0
0
0
0
0
9.3064875693e-08
-2.38784008917e-09
8.08936172224e-11
4.95786413562e-07
-1.25050415422e-08
1.25254219267e-08
1.11308052706e-06
-3.04165602452e-08
6.35208938012e-08
1.65784827532e-06
-4.82528409094e-08
1.59365117679e-07
1.86961108833e-06
-5.78649943834e-08
2.68617565335e-07
1.8687675122e-06
-5.85023045787e-08
3.60856037019e-07
1.86792393601e-06
-5.58734211222e-08
4.41412482419e-07
1.86708035972e-06
-5.32514082732e-08
5.21972254901e-07
1.86623678329e-06
-5.06362659002e-08
6.02535354485e-07
1.65368457959e-06
-4.56492590581e-08
6.47075523566e-07
1.11018896335e-06
-3.48962312324e-08
5.83075294135e-07
4.94889510505e-07
-2.0304092581e-08
3.9703990927e-07
9.30230782793e-08
-7.77024549004e-09
1.69189725148e-07
0
-1.380194088e-09
2.9576655601e-08
0
0
0
0
0
0
0
0
0
0
0
0
0
0
0
0
0
1.63688448025e-07
-3.1481677969e-09
1.29583333002e-09
6.86266172371e-07
-1.50507437219e-08
2.32466333588e-08
1.44436136438e-06
-3.49101229208e-08
9.60403677273e-08
2.08028788924e-06
-5.41753388426e-08
2.19712665644e-07
2.3231624218e-06
-6.43618055455e-08
3.54372771343e-07
2.32195140072e-06
-6.4915945931e-08
4.65936590837e-07
2.32074037943e-06
-6.19857371034e-08
5.63107324536e-07
2.31952935799e-06
-5.90637064544e-08
6.60279547415e-07
2.31831833649e-06
-5.61498540196e-08
7.57453259451e-07
2.07420862259e-06
-5.0714557073e-08
8.1277402113e-07
1.4398747432e-06
-3.91025857591e-08
7.41794771232e-07
6.84646045056e-07
-2.32314815245e-08
5.25296474687e-07
1.63565012969e-07
-9.31326673057e-09
2.4638385518e-07
0
-1.81964569551e-09
5.31969646195e-08
0
0
0
0
0
0
0
0
0
0
0
0
0
0
0
0
0
1.85982095168e-07
-3.14808976547e-09
2.99768776978e-09
7.43246756219e-07
-1.50493845338e-08
3.24974236448e-08
1.53686294944e-06
-3.49043324276e-08
1.18840074276e-07
2.19546860987e-06
-5.41635317089e-08
2.57098883355e-07
2.44600843123e-06
-6.43465660923e-08
4.02698993049e-07
2.44468516298e-06
-6.49008441996e-08
5.20547881714e-07
2.44336189457e-06
-6.19719534302e-08
6.22218965455e-07
2.44203862588e-06
-5.90512408307e-08
7.23890049179e-07
2.44071535705e-06
-5.61387064738e-08
8.25561132953e-07
2.18879898587e-06
-5.07056759834e-08
8.82678729355e-07
1.53186881973e-06
-3.90974001111e-08
8.05828885446e-07
7.41376420416e-07
-2.3229639228e-08
5.74588751424e-07
1.8582174722e-07
-9.31297441353e-09
2.75171651299e-07
0
-1.81963603371e-09
6.20172523116e-08
0
0
0
0
0
0
0
0
0
0
0
0
0
0
0
0
0
1.8575644422e-07
-3.14801173956e-09
4.63982791469e-09
7.42306216838e-07
-1.50480253695e-08
4.0328258903e-08
1.53485233274e-06
-3.48985419961e-08
1.36501903194e-07
2.19253565528e-06
-5.41517245882e-08
2.84055223854e-07
2.44271901673e-06
-6.43313265932e-08
4.35087924274e-07
2.44139983754e-06
-6.48857424825e-08
5.54360002523e-07
2.44008065818e-06
-6.1958169797e-08
6.56031086282e-07
2.43876147854e-06
-5.90387753e-08
7.57702170018e-07
2.43744229872e-06
-5.61275589984e-08
8.59373253738e-07
2.18588664296e-06
-5.06967949194e-08
9.14928526613e-07
1.52987364082e-06
-3.90922144662e-08
8.32474363147e-07
7.40441666041e-07
-2.32277969143e-08
5.91985901917e-07
1.85596592349e-07
-9.31268206244e-09
2.82901653636e-07
0
-1.81962638893e-09
6.36516653226e-08
0
0
0
0
0
0
0
0
0
0
0
0
0
0
0
0
0
1.85530819891e-07
-3.14793371851e-09
6.28194137431e-09
7.41366050363e-07
-1.50466662149e-08
4.81587463274e-08
1.53284296016e-06
-3.48927515081e-08
1.54162818984e-07
2.18960491537e-06
-5.4139917481e-08
3.11010491895e-07
2.43943223828e-06
-6.43160871464e-08
4.67476375496e-07
2.43811714818e-06
-6.48706407729e-08
5.88172123369e-07
2.43680205777e-06
-6.19443861587e-08
6.89843207139e-07
2.43548696729e-06
-5.90263097607e-08
7.91514290847e-07
2.4341718765e-06
-5.61164114849e-08
8.93185374571e-07
2.18297651463e-06
-5.0687913802e-08
9.47178803898e-07
1.5278797061e-06
-3.90870289115e-08
8.59120913307e-07
7.39507284482e-07
-2.3225954595e-08
6.09383965552e-07
1.8537146414e-07
-9.31238976698e-09
2.90632003852e-07
0
-1.81961674366e-09
6.52861049383e-08
0
0
0
0
0
0
0
0
0
0
0
0
0
0
0
0
0
1.85305222238e-07
-3.14785569943e-09
7.92402816609e-09
7.40426256921e-07
-1.50453071096e-08
5.59888858672e-08
1.53083483174e-06
-3.48869611452e-08
1.71822821645e-07
2.18667639011e-06
-5.41281103486e-08
3.37964687415e-07
2.43614809595e-06
-6.43008476721e-08
4.99864346738e-07
2.43483709486e-06
-6.48555390992e-08
6.21984244199e-07
2.43352609356e-06
-6.19306025491e-08
7.23655327935e-07
2.43221509207e-06
-5.90138442687e-08
8.25326411696e-07
2.43090409045e-06
-5.61052641693e-08
9.26997495417e-07
2.1800686008e-06
-5.06790328049e-08
9.79429561215e-07
1.52588701546e-06
-3.90818432606e-08
8.85768535918e-07
7.38573276053e-07
-2.3224112277e-08
6.26782942266e-07
1.8514636264e-07
-9.31209740443e-09
2.98362701913e-07
0
-1.81960713001e-09
6.69205712322e-08
0
0
0
0
0
0
0
0
0
0
0
0
0
0
0
0
0
1.62728419901e-07
-2.38757094862e-09
8.31345836064e-09
6.82038526753e-07
-1.249916694e-08
5.86578969246e-08
1.43514754585e-06
-3.03891382894e-08
1.78181291088e-07
2.06672282886e-06
-4.81945299946e-08
3.46599679703e-07
2.307896051e-06
-5.77884754332e-08
5.07580084478e-07
2.3066863767e-06
-5.84261822955e-08
6.26075922825e-07
2.30547670216e-06
-5.58039428345e-08
7.23256619965e-07
2.30426702746e-06
-5.31885739901e-08
8.20435827972e-07
2.30305735251e-06
-5.05800757125e-08
9.17613546756e-07
2.06064964454e-06
-4.56046770508e-08
9.65377488911e-07
1.43066344187e-06
-3.48706435428e-08
8.67303881775e-07
6.80416986617e-07
-2.02953842228e-08
6.06278984587e-07
1.62603583308e-07
-7.76899073681e-09
2.81372194243e-07
0
-1.38016084355e-09
6.01864886595e-08
0
0
0
0
0
0
0
0
0
0
0
0
0
0
0
0
0
9.23435696007e-08
-7.57478654291e-10
5.38984357874e-09
4.91674670472e-07
-6.65876113172e-09
4.66470380537e-08
1.1035087772e-06
-1.92720500442e-08
1.51499022306e-07
1.64325747356e-06
-3.28716033972e-08
3.01623722582e-07
1.85300954841e-06
-4.07165711151e-08
4.43534209768e-07
1.85214728829e-06
-4.1510628119e-08
5.44498250286e-07
1.85128502798e-06
-3.96770442208e-08
6.25076942446e-07
1.85042276756e-06
-3.78473197434e-08
7.05652307458e-07
1.84956050686e-06
-3.60214547486e-08
7.86224345352e-07
1.638999866e-06
-3.22682990883e-08
8.21411306292e-07
1.10054721809e-06
-2.39489128375e-08
7.23997549309e-07
4.90750966657e-07
-1.29881366775e-08
4.83964087175e-07
9.22986613349e-08
-4.18952587064e-09
2.02987591391e-07
0
-4.37875290953e-10
3.4873128853e-08
0
0
0
0
0
0
0
0
0
0
0
0
0
0
0
0
0
2.22118063339e-08
0
1.44835620105e-09
2.30518825962e-07
-1.67644708999e-09
2.30754454134e-08
6.12650642345e-07
-7.36390744983e-09
9.16772883948e-08
9.80301785081e-07
-1.50656398035e-08
1.99760088151e-07
1.13071103703e-06
-1.99736312733e-08
3.02693224278e-07
1.13031880323e-06
-2.07471479911e-08
3.72275140519e-07
1.12992656932e-06
-1.9860401064e-08
4.24970874894e-07
1.1295343354e-06
-1.89748111669e-08
4.77663776539e-07
1.12914210141e-06
-1.80903783884e-08
5.30353845487e-07
9.78444484376e-07
-1.59659156799e-08
5.47052623323e-07
6.11540525201e-07
-1.11094172917e-08
4.6099555601e-07
2.30282089995e-07
-5.0337674612e-09
2.75171928159e-07
2.22085504357e-08
-1.0656153983e-09
9.14467145994e-08
0
0
8.55205444542e-09
0
0
0
0
0
0
0
0
0
0
0
0
0
0
0
0
0
0
0
0
5.09037204208e-08
0
5.13459722323e-09
2.0153279356e-07
-7.04207203337e-10
3.10590077175e-08
3.81034709853e-07
-2.84017498834e-09
8.34566422384e-08
4.60481605192e-07
-4.84297166678e-09
1.37640568138e-07
4.6039539201e-07
-5.30272293746e-09
1.71896985654e-07
4.6030917883e-07
-5.08096931265e-09
1.95284110762e-07
4.60222965645e-07
-4.85929841604e-09
2.18670156744e-07
4.60136752471e-07
-4.63771019591e-09
2.42055123586e-07
3.80661976139e-07
-3.8961670121e-09
2.43210919963e-07
2.01373079576e-07
-2.12376593205e-09
1.8513308882e-07
5.08894776716e-08
-4.91178655575e-10
8.75205022492e-08
0
0
1.87090558126e-08
0
0
0
0
0
0
0
0
0
0
0
0
0
0
0
0
0
0
0
0
0
0
0
0
0
0
2.21578373445e-08
0
3.027292512e-09
6.9868495556e-08
0
1.44444218183e-08
9.21275109652e-08
0
2.89315953602e-08
9.21228469285e-08
0
3.74891596219e-08
9.2118182778e-08
0
4.24141642314e-08
9.21135187725e-08
0
4.73390861647e-08
9.21088546923e-08
0
5.22639253804e-08
6.98524024471e-08
0
4.99665138616e-08
2.2155679486e-08
0
3.03626657195e-08
0
0
7.7620306435e-09
0
0
0
0
0
0
0
0
0
0
0
0
0
0
0
0
0
0
0
0
0
0
0
0
0
0
0
0
0
0
0
0
0
0
0
0
0
0
0
0
0
0
0
0
0
0
0
0
0
0
0
0
0
0
0
0
0
0
0
0
0
0
0
0
0
0
0
0
0
0
0
0
0
0
0
0
0
0
0
0
0
0
0
0
0
0
0
0
0
0
0
0
0
0
0
0
0
0
0
0
0
0
0
0
0
0
0
0
0
0
0
0
0
0
0
0
0
0
0
0
0
0
0
0
0
0
0
0
0
0
0
0
0
0
0
0
0
0
0
0
0
0
0
0
0
0
0
0
0
0
0
0
0
0
0
0
0
0
0
0
0
0
0
0
0
0
0
0
0
0
0
0
0
0
0
0
0
0
0
0
0
0
0
0
0
0
0
0
0
0
0
0
0
0
0
0
0
0
0
0
0
0
0
0
0
0
0
0
0
0
0
0
0
0
0
0
0
0
0
0
0
0
0
0
0
0
0
0
0
0
0
0
0
0
0
0
0
0
0
0
0
0
0
0
0
0
0
0
0
0
0
0
0
0
0
0
0
0
0
0
0
0
0
0
0
0
0
0
0
0
0
0
0
0
0
0
0
0
0
0
0
0
0
0
0
0
0
0
0
0
0
0
0
0
0
0
0
0
0
0
0
0
0
0
2.19128066764e-08
-9.01320380949e-10
4.65828403499e-10
6.91016643869e-08
-3.6598252772e-09
3.80088100491e-09
9.11203021425e-08
-6.28576563579e-09
1.02021111625e-08
9.11160845816e-08
-6.94313368432e-09
1.61927881245e-08
9.11118669924e-08
-6.72119714825e-09
2.11172184605e-08
9.11076494752e-08
-6.49934332867e-09
2.60417314695e-08
9.11034319463e-08
-6.27757219474e-09
3.09663271535e-08
6.9087112036e-08
-5.33688875864e-09
3.12493238753e-08
2.19108553673e-08
-2.94141190651e-09
1.97352480066e-08
0
-6.88075030376e-10
5.202385253e-09
0
0
0
0
0
0
0
0
0
0
0
0
0
0
0
0
0
0
0
0
0
0
0
1.32740283701e-09
-5.78983916282e-11
-3.15959057688e-11
9.1020764316e-08
-3.91646812534e-09
2.50290624743e-10
2.9618128121e-07
-1.49323273836e-08
8.31433592953e-09
5.31609593884e-07
-2.88711501096e-08
3.38107474855e-08
6.30405802625e-07
-3.7794346348e-08
7.03063339259e-08
6.30284131043e-07
-3.93341738729e-08
1.03555571525e-07
6.30162459495e-07
-3.80188659027e-08
1.32595053092e-07
6.30040787918e-07
-3.67054592439e-08
1.61636436048e-07
6.2991911643e-07
-3.53939539377e-08
1.90679720263e-07
5.31059636419e-07
-3.17809220332e-08
2.03025500796e-07
2.95901400879e-07
-2.2804003396e-08
1.67565167533e-07
9.09787265357e-08
-1.1141583869e-08
9.20410916659e-08
1.32739212431e-09
-2.78691797436e-09
2.52892978984e-08
0
-3.85091259274e-11
3.99391982731e-10
0
0
0
0
0
0
0
0
0
0
0
0
0
0
0
0
0
9.22404517135e-08
-3.96918475327e-09
-1.39628516397e-09
4.83464752213e-07
-2.01095373295e-08
2.85131959594e-09
1.08809325106e-06
-4.79058495137e-08
3.64224413021e-08
1.6204433836e-06
-7.51719133921e-08
1.11436303286e-07
1.82747287916e-06
-9.00295092562e-08
2.04789879115e-07
1.82678052009e-06
-9.16629643729e-08
2.88449360791e-07
1.82608816111e-06
-8.85125099086e-08
3.63378558139e-07
1.82539580222e-06
-8.53697044394e-08
4.38314582275e-07
1.8247034433e-06
-8.22345479331e-08
5.13257433119e-07
1.61701395715e-06
-7.5253506857e-08
5.56615745591e-07
1.0856775053e-06
-5.87230554818e-08
5.04084219686e-07
4.82678942054e-07
-3.51494766752e-08
3.43717674906e-07
9.2189368073e-08
-1.39811606374e-08
1.49427793554e-07
0
-2.63736937328e-09
2.8564502935e-08
0
0
0
0
0
0
0
0
0
0
0
0
0
0
2.18333715002e-08
-9.81214332361e-10
-7.20295407079e-10
3.64600226748e-07
-1.27142992951e-08
-3.71791600629e-09
1.20551479802e-06
-4.44592622208e-08
1.3807324258e-08
2.24038128807e-06
-8.76650842887e-08
9.06500775439e-08
3.05017527297e-06
-1.25147772656e-07
2.29725358467e-07
3.35146994077e-06
-1.44183501621e-07
3.89380392716e-07
3.34964366938e-06
-1.45400008977e-07
5.30496690843e-07
3.34781739797e-06
-1.40338296578e-07
6.58077837997e-07
3.3459911267e-06
-1.35292695225e-07
7.85670279927e-07
3.34416485543e-06
-1.3026320505e-07
9.13274016701e-07
3.04073619316e-06
-1.20189751765e-07
9.95400708747e-07
2.23265869034e-06
-9.72727484836e-08
9.37668066272e-07
1.20192213481e-06
-6.37443086966e-08
7.09905242782e-07
3.64015163424e-07
-3.04930127844e-08
3.86965341811e-07
2.18299902486e-08
-8.32588014543e-09
1.15615271997e-07
0
-6.08112300012e-10
7.56876567473e-09
0
0
0
0
0
0
0
0
0
0
0
9.06093540323e-08
-3.09392190562e-09
-2.38169044118e-09
7.34796538832e-07
-2.25485996379e-08
-3.17375355045e-09
1.96894171751e-06
-6.55916155274e-08
3.71516343034e-08
3.31733303827e-06
-1.18579593815e-07
1.62045883084e-07
4.32337629802e-06
-1.62296644619e-07
3.61742091985e-07
4.68987672292e-06
-1.83695816896e-07
5.79489289641e-07
4.68674154602e-06
-1.8442626858e-07
7.6919148694e-07
4.68360636908e-06
-1.77967726355e-07
9.41064251896e-07
4.68047119199e-06
-1.71532712081e-07
1.11294776071e-06
4.67733601477e-06
-1.65121225671e-07
1.28484201338e-06
4.306826306e-06
-1.52935895448e-07
1.40025416241e-06
3.30278797441e-06
-1.2586165439e-07
1.34169193834e-06
1.96098626198e-06
-8.5875641489e-08
1.06506154056e-06
7.32844695623e-07
-4.46582803524e-08
6.45175436344e-07
9.05604906192e-08
-1.46004085252e-08
2.39267606513e-07
0
-1.91640362573e-09
3.20322567119e-08
0
0
0
0
0
0
0
0
0
0
0
1.59368685845e-07
-4.07966593879e-09
-3.04314779119e-09
9.98219003567e-07
-2.66568966104e-08
2.76183822972e-09
2.44070716982e-06
-7.37818767535e-08
6.6948668309e-08
3.95093423972e-06
-1.3008327855e-07
2.29755465467e-07
5.05590750978e-06
-1.75859225299e-07
4.71567919545e-07
5.45458246301e-06
-1.97999222363e-07
7.25851677358e-07
5.45055918577e-06
-1.98524186398e-07
9.43712231165e-07
5.44653590808e-06
-1.91561327708e-07
1.1404909766e-06
5.44251263017e-06
-1.84624901989e-07
1.3372741162e-06
5.43848935177e-06
-1.77714909106e-07
1.53406164986e-06
5.03447127737e-06
-1.64792624452e-07
1.66742795234e-06
3.93151096234e-06
-1.36300228965e-07
1.60596085759e-06
2.42936343737e-06
-9.41050023397e-08
1.29792333144e-06
9.94960691441e-07
-5.01303893718e-08
8.1908206991e-07
1.59224596255e-07
-1.72086077404e-08
3.33731543389e-07
0
-2.526371647e-09
5.75153602595e-08
0
0
0
0
0
0
0
0
0
0
0
1.81069354277e-07
-4.07957904856e-09
-1.93918407257e-09
1.07352348945e-06
-2.66545078127e-08
1.20380380792e-08
2.56790186896e-06
-7.37694625689e-08
9.46661430435e-08
4.11742379951e-06
-1.30053785609e-07
2.81066381793e-07
5.24580579262e-06
-1.75814046913e-07
5.45088121787e-07