/*--------------------------------*- C++ -*----------------------------------*\
| =========                 |                                                 |
| \\      /  F ield         | OpenFOAM: The Open Source CFD Toolbox           |
|  \\    /   O peration     | Version:  3.0.1                                 |
|   \\  /    A nd           | Web:      www.OpenFOAM.org                      |
|    \\/     M anipulation  |                                                 |
\*---------------------------------------------------------------------------*/
FoamFile
{
    version     2.0;
    format      ascii;
    class       volVectorField;
    location    "1.8";
    object      ddt0(U);
}
// * * * * * * * * * * * * * * * * * * * * * * * * * * * * * * * * * * * * * //

dimensions      [0 1 -2 0 0 0 0];

internalField   nonuniform List<vector> 
7968
(
(0.00019252628164 0.00023385290114 -0.00039803162031)
(0.000569140010535 0.000179264091626 -0.000368421681069)
(0.000968009736641 0.000145540119293 -0.000312972670447)
(0.00126368196729 0.000124346872631 -0.000235559758734)
(0.00141914715588 0.000117469865577 -0.000147168848023)
(0.00139666214084 0.000119430001042 -5.68239859142e-05)
(0.00119593373326 0.000124615283008 2.50241297531e-05)
(0.000838507055737 0.000130831249012 9.22121404408e-05)
(0.000368904506515 0.000135441277744 0.000136684451945)
(-0.000166461792278 0.000133557244384 0.000145663556796)
(-0.0007132012823 0.000132905995251 0.000134538395893)
(-0.0011991793344 0.000132703377304 0.000102946166798)
(-0.00157637554635 0.000128222552103 4.2917088776e-05)
(-0.00181228978761 0.000123575108558 -3.37695868666e-05)
(-0.00188150177853 0.000121249163849 -0.000118079555034)
(-0.00177973196049 0.000123302248306 -0.000204586522441)
(-0.00151884026029 0.000133374472203 -0.000284958354412)
(-0.00113992052265 0.00015508463118 -0.000352970386197)
(-0.000675725881003 0.00018547988217 -0.000400300239589)
(-0.000228690930697 0.000231096279275 -0.000426220955591)
(0.000140202826369 0.000680655341027 -0.00036367868666)
(0.000510369557163 0.000613829978198 -0.000487350247245)
(0.000959772763692 0.00057670945191 -0.000499922860959)
(0.00129385269433 0.000561777634883 -0.000448514681656)
(0.00147743298945 0.000566220296312 -0.000367543377265)
(0.00146992122193 0.000578114685855 -0.000270321254244)
(0.00127003957141 0.000586209688112 -0.000172798138387)
(0.00090107731618 0.000588661816625 -8.75162933364e-05)
(0.000407294015897 0.00058446632317 -2.80010020982e-05)
(-0.000152642736272 0.000572436615225 -2.39040322306e-06)
(-0.000717482515224 0.000565151813931 -1.10209976732e-05)
(-0.00122526772527 0.00056291928096 -5.12433854954e-05)
(-0.00162162257381 0.000558344083779 -0.000120121744408)
(-0.00186562103894 0.000553097174169 -0.000208170838221)
(-0.00193267944852 0.00054896288147 -0.000302643564098)
(-0.00181816584249 0.000547212064002 -0.000392460612839)
(-0.00153540839957 0.000553905364573 -0.00046488164103)
(-0.00112864391303 0.00057555266362 -0.000509611808457)
(-0.000627356344851 0.000609943950557 -0.000498912621649)
(-0.000185261271678 0.000660549335926 -0.000394239408406)
(0.000105741375464 0.00113561372236 -0.000304689458016)
(0.00047548784531 0.00111403940509 -0.000500017816389)
(0.000962339131053 0.00111084535365 -0.00053708640454)
(0.00131984436547 0.00112772526473 -0.000483175326888)
(0.0015142037797 0.00115699463399 -0.000391524641209)
(0.00150478294181 0.00118267388381 -0.000281900007555)
(0.00129459368762 0.00119189700616 -0.00017319007361)
(0.000912627953501 0.00118466492907 -8.01631155108e-05)
(0.000406613906882 0.00116597977943 -1.58672504582e-05)
(-0.000161244193875 0.00114353807026 1.37779350697e-05)
(-0.000729592484123 0.00112531621436 4.48406710483e-06)
(-0.00124089104617 0.00111431741271 -4.01188205621e-05)
(-0.00164130543785 0.00110734216986 -0.000113715944516)
(-0.00188838047244 0.00110107621144 -0.000207549383251)
(-0.00195659125715 0.00109236663546 -0.000309205292317)
(-0.00183852599243 0.00107961397725 -0.000406201459453)
(-0.00154549467236 0.00106927839523 -0.00048438084248)
(-0.00112179977683 0.00106843567594 -0.000529517612325)
(-0.000594392216529 0.00107753176554 -0.000499249688473)
(-0.000154698057108 0.0010890866078 -0.000336498337492)
(8.24005992804e-05 0.00149073742344 -0.000224330648352)
(0.000459902168153 0.00150524030622 -0.00045191235969)
(0.000981742043642 0.00152470309739 -0.000488776217718)
(0.00135629905807 0.00155825736383 -0.000413800660813)
(0.00155072478934 0.0015954438861 -0.000298181511915)
(0.00152731077429 0.0016197199781 -0.000169421931063)
(0.00129762121282 0.00161917803928 -5.04795354396e-05)
(0.00089858337691 0.00159706365437 4.56586080102e-05)
(0.000384119365541 0.00156129755728 0.000107709289571)
(-0.000183845493568 0.0015256214634 0.000132561997035)
(-0.00074696289359 0.00149784520129 0.000120481119835)
(-0.00125211199872 0.00148474196123 7.46192505914e-05)
(-0.0016496567279 0.00148126147602 -1.03162813573e-06)
(-0.00189836411722 0.00148061009118 -9.88760264552e-05)
(-0.00197118559079 0.00147666855404 -0.000208219424305)
(-0.0018558325837 0.00146537299531 -0.000317393549601)
(-0.00155922273184 0.00145108674641 -0.00041098330774)
(-0.00112382845406 0.00143954150884 -0.000470123984415)
(-0.000574138051166 0.00143196932086 -0.000440125786513)
(-0.000133369506876 0.00141163215954 -0.000254929454624)
(7.32281492847e-05 0.00170239672069 -0.000131715111334)
(0.000463245201224 0.00174649342471 -0.000373246946507)
(0.00101278471954 0.00177876351168 -0.000401597211701)
(0.00139553505114 0.00181504906282 -0.00030278962905)
(0.00158042638488 0.00184549015911 -0.000163244508161)
(0.00153454288206 0.0018559297379 -1.72285466539e-05)
(0.00128085194482 0.00183780815902 0.000107495911455)
(0.000863311248582 0.00179671157054 0.000201570487321)
(0.000342736541731 0.00174265131545 0.000256608284426)
(-0.000219677761175 0.00169262188849 0.000273804866654)
(-0.000768775693984 0.00165849292646 0.000258496518625)
(-0.00125872338154 0.00164570269274 0.000211939449615)
(-0.00164847285542 0.0016491611241 0.000137067176614)
(-0.00189706308375 0.00165934158941 3.8595882734e-05)
(-0.00197506466809 0.00166756332475 -7.47403593498e-05)
(-0.00186645472115 0.0016671125805 -0.000193808206417)
(-0.00157262779637 0.00165962585324 -0.000301485237079)
(-0.00113218175904 0.00164775712466 -0.000375135739031)
(-0.000567628994872 0.00163073200856 -0.000350919921208)
(-0.000124174175247 0.00158490072673 -0.000159978175505)
(7.41404139625e-05 0.0017307754213 -3.54439787417e-05)
(0.000475613966924 0.00179346675428 -0.000275739433444)
(0.00104259701197 0.00182761439578 -0.000292801776879)
(0.00142514181366 0.001854754133 -0.000174511788941)
(0.00159393851246 0.00186789892305 -1.80579921683e-05)
(0.00152179255722 0.00185789720866 0.000136565374676)
(0.0012426860175 0.00181941300311 0.000261690375578)
(0.000807143838926 0.00175942824612 0.000347714535071)
(0.000283970680783 0.00168973252692 0.000390250117313)
(-0.000264521732158 0.00162853388248 0.000397345358985)
(-0.000791517748277 0.00159026165542 0.000377275481458)
(-0.00126031930303 0.00157800287691 0.000333360378137)
(-0.00163592128237 0.00158802500427 0.000264504482997)
(-0.00188100452652 0.00161015733292 0.000171430980253)
(-0.00196384764715 0.00163341581602 5.97189190148e-05)
(-0.00186390702151 0.00164868474658 -6.2158068927e-05)
(-0.0015767800592 0.00165454368432 -0.000177864665041)
(-0.00113815372664 0.00165019432639 -0.000261469297232)
(-0.000568082318424 0.0016315792051 -0.000244475748652)
(-0.000123130776021 0.00157060963537 -6.12918760206e-05)
(7.9073259251e-05 0.00156814955636 5.33270018792e-05)
(0.000487082719322 0.0016364435552 -0.000175043369024)
(0.00105992674033 0.00166552648748 -0.00018135439628)
(0.00143463765241 0.00167882852979 -5.07407731457e-05)
(0.00158479760734 0.00167433381568 0.000113849755141)
(0.00148754911301 0.00164632910788 0.000268594160083)
(0.00118541306293 0.00159254289623 0.000387337311659)
(0.000735782134109 0.00152076308524 0.000460931108141)
(0.000214370246603 0.00144220669936 0.000488309979401)
(-0.000316303499455 0.00137538834025 0.000483957284543)
(-0.000816473980099 0.00133309456904 0.000459523134484)
(-0.0012586283035 0.00132037483903 0.000419701086648)
(-0.00161491734863 0.00133276850674 0.000359827156126)
(-0.00185189453872 0.00136151367002 0.00027712668827)
(-0.00193642385807 0.00139459607191 0.000173207868379)
(-0.00184454789942 0.00142241627047 5.46935887286e-05)
(-0.00156643133769 0.00144008585065 -6.09978710231e-05)
(-0.00113477754338 0.00144455036923 -0.000148733359236)
(-0.0005683642415 0.00142961306337 -0.000138828281093)
(-0.000126118579518 0.0013657388785 2.81664572194e-05)
(8.59338714165e-05 0.00123386235226 0.000127386345634)
(0.000495538423111 0.00129682015831 -8.55231797185e-05)
(0.00106479216064 0.00131793422113 -8.39283692927e-05)
(0.00142812884051 0.00131948055558 5.28246594297e-05)
(0.00155936147549 0.00130298556138 0.000217793030668)
(0.00143937741928 0.00126424145049 0.000366658190145)
(0.00111814027492 0.00120444120735 0.000474514768243)
(0.000658257272656 0.00113127431043 0.000533275413896)
(0.000140854335124 0.00105325029281 0.000544297263694)
(-0.000371098912299 0.000987002853186 0.000528239347632)
(-0.000844134804017 0.000942822539116 0.000499965880315)
(-0.00125871063067 0.000926270039172 0.000464869730772)
(-0.00159343074249 0.0009339826374 0.000415078729769)
(-0.00181878446971 0.000960128727694 0.000345654387904)
(-0.00190172083476 0.000993560448295 0.000253947958783)
(-0.00181582457391 0.00102521872592 0.000143985021531)
(-0.00154703836348 0.0010483857037 3.34881715581e-05)
(-0.00112502632238 0.00105810696909 -5.35137748999e-05)
(-0.000567611574315 0.00104825671934 -4.89531009878e-05)
(-0.00013079624984 0.000995739564036 9.88814118616e-05)
(9.31455313571e-05 0.000766865153471 0.000178854883991)
(0.000500940739243 0.000815993010062 -1.99944954591e-05)
(0.00106202102581 0.000829528102208 -1.37373260139e-05)
(0.0014128603379 0.000825788946708 0.000122582743359)
(0.00152705363888 0.000806494765271 0.000285457990669)
(0.00138905134807 0.000770164953058 0.00042594016585)
(0.00105331220876 0.000718375965223 0.000521775547599)
(0.000585945848511 0.000656966405343 0.000566860125213)
(7.1967483359e-05 0.000591061358394 0.000562630274571)
(-0.000424682887695 0.000532428626876 0.000536004630466)
(-0.00087532236618 0.000488851535527 0.000503918495262)
(-0.00126609708999 0.000465426299244 0.000471947606644)
(-0.00158037866105 0.000460820195719 0.000430052752563)
(-0.00179245685265 0.00047264334989 0.000373126677849)
(-0.00187099201601 0.000493162248541 0.000294574179945)
(-0.00178790716912 0.000515449018995 0.000195775753956)
(-0.00152650772289 0.000533082696211 9.28380090893e-05)
(-0.00111365812155 0.000540619373821 1.02206369628e-05)
(-0.000562736431922 0.000533114652626 1.07866666955e-05)
(-0.000131796338383 0.000494094529257 0.000134809037899)
(9.92021104334e-05 0.000222008966072 0.000203457311753)
(0.000504643961212 0.000250964757757 1.4074066956e-05)
(0.00105754010398 0.000258482649898 2.29822689176e-05)
(0.00139853483334 0.000255774206413 0.000157806086018)
(0.0015006890311 0.000243378387607 0.000317497609414)
(0.00135068942958 0.00022144886152 0.000451262694847)
(0.00100500949814 0.00019012810957 0.000538624123343)
(0.000531795367377 0.000151740872385 0.000574850499466)
(1.76979896079e-05 0.000107232067744 0.000560784261072)
(-0.000471700671852 6.39840556027e-05 0.000526774603178)
(-0.000909613046331 2.46123570838e-05 0.000490910970275)
(-0.0012856071316 -6.04051026297e-06 0.000458750736235)
(-0.0015856313311 -2.75313165999e-05 0.000419608417133)
(-0.00178626163342 -3.92005897902e-05 0.000369535650151)
(-0.00185853635741 -4.32270291525e-05 0.000300019451379)
(-0.00177436323543 -4.226338381e-05 0.00021042533715)
(-0.0015161700291 -4.11620239712e-05 0.000114591695908)
(-0.0011093596824 -4.3651913191e-05 3.66565056364e-05)
(-0.000566242763525 -5.24859083583e-05 3.55229890033e-05)
(-0.000137130557062 -7.89286876641e-05 0.000148889942724)
(0.000102621145277 -0.000343405951779 0.000197323823052)
(0.000507889557959 -0.000337680106492 1.30438811587e-05)
(0.00105619100057 -0.000335289137827 2.36670547904e-05)
(0.00139271352336 -0.000333664929913 0.000158174610825)
(0.0014897000415 -0.000334175316415 0.00031686208319)
(0.00133442184768 -0.000335691111346 0.000449165199807)
(0.000983011226317 -0.00034011729101 0.000534868048498)
(0.000503242944235 -0.000349428888913 0.000569396231547)
(-1.51399494874e-05 -0.000366280696669 0.000553202050843)
(-0.000506422101063 -0.000390961833284 0.000515790006804)
(-0.00094447074336 -0.000423338475731 0.000476550243676)
(-0.00131757602255 -0.000459661659937 0.000441883930616)
(-0.00161317143126 -0.000497763629252 0.000401082258933)
(-0.00180771009101 -0.00053522602512 0.000350220052976)
(-0.00187352360813 -0.000568312433028 0.000281575584437)
(-0.00178451060312 -0.000594627650735 0.000194103971674)
(-0.00152422217716 -0.000615361107172 0.000100654265017)
(-0.00111691481034 -0.000631623180282 2.41152221239e-05)
(-0.000575567933669 -0.000643185693437 2.21713786499e-05)
(-0.000142584898923 -0.000653186024341 0.000132969369619)
(0.000103231115918 -0.000873607050455 0.000161369247518)
(0.000511033925551 -0.000889773290346 -2.19654542368e-05)
(0.0010590000745 -0.000893068687992 -1.06715563327e-05)
(0.0013970838859 -0.000888809236927 0.000124417393065)
(0.00149628599483 -0.000879633215101 0.000284995239742)
(0.00134268619088 -0.000863200277719 0.000421589723298)
(0.000990166805331 -0.000843038404941 0.000513091516757)
(0.000505138938666 -0.000824783251362 0.000553708137268)
(-2.40432902337e-05 -0.000813828918061 0.000542220941805)
(-0.000528783416541 -0.000820030120148 0.000505010293439)
(-0.000978256269203 -0.000843626801025 0.000463190452594)
(-0.00135996971207 -0.000883114370696 0.000424386792223)
(-0.00166110246936 -0.000934451215344 0.000377918334764)
(-0.00185613795537 -0.000993098980129 0.000319200793768)
(-0.00191717819702 -0.00105033189715 0.000243557606182)
(-0.00182018127735 -0.00109958698094 0.00015128178598)
(-0.00155151735504 -0.00113858940913 5.52335068628e-05)
(-0.0011368394335 -0.00116525349038 -2.34726719079e-05)
(-0.000591373989844 -0.00117830195714 -2.54871299326e-05)
(-0.000148801046586 -0.0011739447253 9.05402359144e-05)
(0.000102010699715 -0.00131414227793 0.00010097037901)
(0.000513121096777 -0.00134747047973 -8.70906610031e-05)
(0.00106225180761 -0.00135793808371 -7.74217875199e-05)
(0.00140589018087 -0.00135643233097 5.72140468316e-05)
(0.00151366445409 -0.00134500370427 0.000219864146066)
(0.00136853924691 -0.00131977804336 0.000363205290888)
(0.00101993650952 -0.00128396687273 0.00046442021766)
(0.000531404039743 -0.00124574405973 0.000515647465398)
(-1.13592877705e-05 -0.00121339004733 0.000514551109146)
(-0.000537113496292 -0.0012017643348 0.000481470071099)
(-0.00100834437442 -0.0012153360032 0.000438305477727)
(-0.00140901410245 -0.00125454375634 0.000393918459332)
(-0.00172344275137 -0.0013133388262 0.000338567572579)
(-0.00192282299709 -0.00138360250417 0.000267666009253)
(-0.00197913200931 -0.00145352824398 0.000180668205542)
(-0.00187161576702 -0.00151329960953 8.05764694272e-05)
(-0.00158987853745 -0.00155957597298 -1.88214962305e-05)
(-0.00116285639406 -0.00159027423147 -0.00010084524619)
(-0.00061065826086 -0.00160156626394 -0.000101681856306)
(-0.000155292422174 -0.00158323027892 2.64979185507e-05)
(0.00010019885672 -0.0016183810771 2.2480018947e-05)
(0.000512371049778 -0.00166140972195 -0.00017382786659)
(0.00106049280784 -0.00167929271949 -0.000168758297355)
(0.0014109736689 -0.00168576265445 -3.79832428089e-05)
(0.00153177578283 -0.00168027602264 0.000123054041891)
(0.0014012850965 -0.00165697811081 0.000271322098795)
(0.00106251908928 -0.00161703279536 0.000382782083856)
(0.000574430475985 -0.00156925284797 0.000447372303946)
(1.85151009599e-05 -0.00152380626645 0.000460781516256)
(-0.000532225767349 -0.00149863162451 0.000436653594357)
(-0.00103249916566 -0.00150220445913 0.000394121486306)
(-0.00145921589582 -0.00153683249212 0.000342891624733)
(-0.00179090611123 -0.00159461703436 0.000276324475217)
(-0.00199570715368 -0.00166452326253 0.000191840496233)
(-0.00204617142085 -0.00173357593374 9.3072612401e-05)
(-0.00192531676928 -0.00179140792423 -1.46337332156e-05)
(-0.00162948361302 -0.00183421569902 -0.000118342070904)
(-0.00118949531628 -0.00186216933625 -0.000199745263539)
(-0.000627602109926 -0.00186973555894 -0.0001978844278)
(-0.000159604473169 -0.0018420060298 -5.91519100968e-05)
(9.97463032131e-05 -0.00175403421651 -6.61189600038e-05)
(0.000509643907505 -0.0017973266935 -0.000269939071782)
(0.00105082810028 -0.00182046991189 -0.000272543801639)
(0.0014063896199 -0.00183701407877 -0.000151895348048)
(0.00154204015864 -0.00184243250046 2.94913107869e-06)
(0.00143041608607 -0.00182876108224 0.000151426861139)
(0.00110636393585 -0.00179438072115 0.000269988011401)
(0.000623544463188 -0.00174728991728 0.00034691954598)
(5.76340724907e-05 -0.00169829492958 0.000375302254088)
(-0.00051752858827 -0.00166578569003 0.000362573808123)
(-0.00104879509528 -0.00166094481695 0.000323198970576)
(-0.00150365759349 -0.00168714492684 0.000266428149789)
(-0.00185294910304 -0.00173615772959 0.000189834230792)
(-0.00206224373621 -0.00179565086362 9.44448939234e-05)
(-0.00210634883391 -0.00185352887454 -1.279445414e-05)
(-0.00197209892457 -0.0018998878372 -0.000124378651136)
(-0.00166224495838 -0.00193318778436 -0.000228649211596)
(-0.00121096692185 -0.00195312629369 -0.000306802906284)
(-0.000643323477231 -0.00195692434442 -0.000300935456205)
(-0.000164807206191 -0.00192938671724 -0.000153405525217)
(0.000102815169043 -0.00171020733491 -0.000159556464786)
(0.000506673930714 -0.00174233925259 -0.000363953593005)
(0.00103270854153 -0.00176481006753 -0.000375412897921)
(0.00138932140359 -0.00178812156669 -0.000271037608792)
(0.00153876346753 -0.00180499012111 -0.000129854455495)
(0.00144779022812 -0.00180457451396 1.35547896954e-05)
(0.001141985712 -0.00178144217421 0.000135224605751)
(0.000669120786585 -0.00174251746345 0.000221382637843)
(9.81868276926e-05 -0.00169777793483 0.000262942631518)
(-0.000497107249075 -0.00166418251815 0.000262014532667)
(-0.00105637203909 -0.00165356938518 0.000227683594951)
(-0.00153689691176 -0.00166995136325 0.000167796338249)
(-0.00190133923107 -0.00170583469841 8.4593831639e-05)
(-0.00211373634229 -0.00174958125171 -1.75842217798e-05)
(-0.00215087836801 -0.00179066293515 -0.000128190959468)
(-0.00200471754081 -0.00182165052993 -0.000239473012295)
(-0.00168361404662 -0.00184265341793 -0.000338690389491)
(-0.00122465495602 -0.00185464854274 -0.00040933662408)
(-0.000658070065923 -0.00185724996196 -0.000398779558463)
(-0.000172483914417 -0.00183856459608 -0.000248051825865)
(0.000113561500975 -0.00149179078317 -0.000248763310849)
(0.000510597863667 -0.00150246023093 -0.000442219542161)
(0.00101421903769 -0.00151558862656 -0.000461241504363)
(0.00136548086546 -0.00153712853985 -0.00037711554483)
(0.00152413004776 -0.00155946515213 -0.000255061088699)
(0.00145209937361 -0.00156917434207 -0.00012246605733)
(0.00116506144459 -0.00155792162875 -2.54623613724e-06)
(0.000704438466005 -0.00153073205027 8.84011354973e-05)
(0.000133165467118 -0.0014957411699 0.000139592344678)
(-0.00047585293968 -0.00146733821939 0.000148997633166)
(-0.00105682561233 -0.00145401346401 0.000120451201992)
(-0.00155792361921 -0.00146255189455 6.08216182071e-05)
(-0.00193415888386 -0.00148523170109 -2.3502452756e-05)
(-0.00214802158233 -0.00151349661164 -0.000128712763025)
(-0.0021796859968 -0.0015388610216 -0.000239162839085)
(-0.00202476039216 -0.00155673988662 -0.000344995094102)
(-0.00169602978299 -0.00156814374087 -0.000434490214941)
(-0.00123468943633 -0.00157660911957 -0.000493603438313)
(-0.000675960026573 -0.00158308006275 -0.000478563403157)
(-0.000185822110411 -0.00158063647888 -0.000334511631819)
(0.000136209255597 -0.00113743495921 -0.000326138613045)
(0.000530142044919 -0.00112008198402 -0.000492659694019)
(0.00100547438384 -0.00111541925442 -0.000512899805424)
(0.00134394672831 -0.00112446175928 -0.000447196595583)
(0.00150378662628 -0.00114171513398 -0.00034489905671)
(0.00144411761779 -0.0011538908802 -0.000226338580654)
(0.00117261383889 -0.00115134629755 -0.000112853506403)
(0.000723905291639 -0.00113629801233 -2.05714156537e-05)
(0.00015538099008 -0.0011136199261 3.70476885731e-05)
(-0.000459343513722 -0.00109425881503 5.43287530676e-05)
(-0.00105335723788 -0.00108406905579 2.93802767725e-05)
(-0.00156828741425 -0.00108738706953 -2.88085083531e-05)
(-0.0019516706428 -0.00110002730891 -0.000114006366094)
(-0.00216661279544 -0.0011161543753 -0.000216678781868)
(-0.0021947466963 -0.00113068323808 -0.000323043162595)
(-0.00203530475615 -0.00114086770493 -0.000421180975446)
(-0.00170495318948 -0.00114959150063 -0.000499316961535)
(-0.00124747958954 -0.00116156642084 -0.00054661183264)
(-0.000702267892381 -0.00117832088119 -0.000530536295313)
(-0.000207013097643 -0.00119663747422 -0.000406033887099)
(0.000167852965412 -0.000683456022012 -0.000381512049966)
(0.00056353052664 -0.000628948116899 -0.000485482873188)
(0.00100852170311 -0.000595789669519 -0.000485330853782)
(0.00132790314618 -0.000578974858885 -0.000422324956656)
(0.00147935311239 -0.000577600940717 -0.000329241802291)
(0.00142194028109 -0.000581363224071 -0.000220789153991)
(0.00115926013535 -0.000581579157735 -0.00011585011342)
(0.000721212471746 -0.000576998616324 -2.86785421361e-05)
(0.000159984893767 -0.000564793671754 2.62223575666e-05)
(-0.000453580907723 -0.000557971806 4.3865227874e-05)
(-0.00104931902254 -0.000556214499888 2.14454879711e-05)
(-0.00156696333891 -0.00056035261588 -3.44327111443e-05)
(-0.00195238162981 -0.000571409845637 -0.000116390692307)
(-0.00216724182435 -0.000582196948545 -0.000215201981436)
(-0.00219542525381 -0.000593983442382 -0.000317498811777)
(-0.00203775570564 -0.000607099767227 -0.000411635727214)
(-0.0017127552833 -0.00062484071739 -0.000486366699996)
(-0.00126560447505 -0.000651177735245 -0.000533488725937)
(-0.000736784446694 -0.000685242825515 -0.000532058181542)
(-0.000233627041323 -0.000727465399875 -0.000455158726615)
(0.000214782833297 -0.000233637593315 -0.000412954017918)
(0.000614022960349 -0.000186940273568 -0.000380448813573)
(0.00101629803763 -0.000155680032788 -0.000320100379573)
(0.00130188872915 -0.000135000590043 -0.000234734978581)
(0.001428314386 -0.000126982566927 -0.00013629426909)
(0.00135821546 -0.000126607420275 -3.59954397896e-05)
(0.00109635172507 -0.000129059848909 5.31740764223e-05)
(0.000673298080391 -0.000132014070587 0.000122069895041)
(0.000129295865442 -0.000130377624014 0.000154681022531)
(-0.000468703214988 -0.000131813352687 0.000162759248035)
(-0.0010470533723 -0.000132799673764 0.000139153550529)
(-0.00155241404039 -0.000134769028554 8.93474836227e-05)
(-0.00192748041791 -0.000138716363762 2.07846736184e-05)
(-0.00213611284802 -0.000141237954767 -6.74834907868e-05)
(-0.00216775672582 -0.000145658059766 -0.000162322650887)
(-0.00202130815576 -0.000153407971458 -0.000255456661672)
(-0.00171330428753 -0.000167332700908 -0.000339304304209)
(-0.00128630130146 -0.000189077401932 -0.000408064412234)
(-0.000780037267765 -0.000215897619722 -0.000455439683211)
(-0.000268475833201 -0.000250666955175 -0.000482743154176)
(0.000262525203173 0.000306379465546 -0.00131415248917)
(0.000724248058219 0.000318184222673 -0.00126058076887)
(0.00116824711589 0.00032907414593 -0.00112667331776)
(0.00148641311713 0.000343050449264 -0.000922130800476)
(0.0016415179811 0.000353339081783 -0.000673218936198)
(0.00160327312039 0.000356814525766 -0.00040564310559)
(0.00137031307344 0.000352120710468 -0.000150103057751)
(0.000965384034967 0.00034169824242 6.22364876861e-05)
(0.000430114588265 0.000329130509585 0.000203627105022)
(-0.000167167599636 0.000322522493857 0.000254324640571)
(-0.000760828251058 0.000317787122822 0.000221474852202)
(-0.00130146284635 0.000317002015332 0.000108822850391)
(-0.00172902581969 0.000322404685205 -7.91597505005e-05)
(-0.0019953504935 0.000328754947861 -0.000318245689949)
(-0.00207964189521 0.000333080525592 -0.000579026278524)
(-0.00198001550158 0.00033383784637 -0.00083442134827)
(-0.0017124410104 0.000330332648088 -0.00105944154335)
(-0.00131329299681 0.0003229314798 -0.00123707274984)
(-0.000812417111027 0.000313467538727 -0.00135111005461)
(-0.000291380864662 0.000297656147688 -0.00140022377929)
(0.00028511062253 0.000839504764636 -0.00125141217902)
(0.000757222889686 0.000853166620742 -0.00139153967143)
(0.00119925204723 0.000869136888275 -0.00133500281004)
(0.00151637932405 0.000893430876285 -0.00115763687311)
(0.00166731500934 0.000913618392098 -0.00091331723443)
(0.0016254817615 0.000920517663092 -0.00063611130143)
(0.00138912976153 0.000909511735906 -0.000362077139276)
(0.000980553625698 0.000885100830919 -0.000128756922238)
(0.00044497724716 0.000857499700165 3.149161385e-05)
(-0.000156228926261 0.000838578553053 9.86642320189e-05)
(-0.000758890259298 0.000825954397285 6.90939968035e-05)
(-0.00130254277639 0.000823694323433 -5.16286187338e-05)
(-0.00173088836706 0.000833151841331 -0.000251042097402)
(-0.00199971546861 0.000846645007809 -0.000503134168905)
(-0.00208561753581 0.000856347260874 -0.000774114198091)
(-0.00198734568147 0.000858213676538 -0.00103138550169)
(-0.00172254790405 0.000852952814391 -0.00124670651612)
(-0.00132554333578 0.000843339971958 -0.00139761181273)
(-0.000828100629789 0.000832444053303 -0.00144666144404)
(-0.000302491081432 0.000809626976116 -0.00133296374235)
(0.000300634452444 0.00133872178453 -0.00111343544389)
(0.000782326006629 0.00135248204361 -0.00133649820084)
(0.00122710101125 0.00137219049963 -0.00130133578254)
(0.00153634591678 0.00139956090527 -0.0011112560663)
(0.00167188960324 0.00142038872286 -0.000843764965669)
(0.00161315549839 0.00142343508577 -0.000545222559224)
(0.00136372996951 0.00140373465133 -0.000257517557449)
(0.000950294378397 0.00136651005427 -1.86443974979e-05)
(0.000419565277071 0.00132332495562 0.000142142174556)
(-0.000170867626443 0.00128806835349 0.00020759699843)
(-0.00076065190891 0.00126850659992 0.000175594140594)
(-0.00129137156532 0.00126772602318 5.21521215054e-05)
(-0.00171086516189 0.00128135605192 -0.000150407130372)
(-0.00197767686456 0.00130002683777 -0.000407135943104)
(-0.00206776604444 0.00131516257006 -0.000685846600686)
(-0.00197773665154 0.00132149363685 -0.000953829884895)
(-0.00172258810999 0.00131908956032 -0.00118034115424)
(-0.00133271512499 0.00131152097056 -0.00133554270529)
(-0.000838376663481 0.00130318519703 -0.00136505289316)
(-0.000311068332414 0.00128452009077 -0.00118555861991)
(0.000316901816044 0.00171844370046 -0.000906547453389)
(0.000812021016066 0.00173520259105 -0.00116449173798)
(0.00125950860912 0.00175061594669 -0.00111856597076)
(0.00155622273044 0.00176852007371 -0.000892850213268)
(0.00166931209544 0.00177616250252 -0.000588670054251)
(0.00158625642556 0.00176423231516 -0.000265034948059)
(0.00131799676734 0.00172836958704 3.17165922652e-05)
(0.000897171057994 0.00167557214453 0.000264451787793)
(0.000373345778446 0.00161799937168 0.00041164207193)
(-0.000198304041307 0.00157118830039 0.000465684924853)
(-0.000763649042146 0.0015459714041 0.000428416984411)
(-0.00127218475668 0.00154636091222 0.000305852438044)
(-0.00167833703433 0.00156568835344 0.000107738986431)
(-0.0019423511227 0.00159391605009 -0.000146872932542)
(-0.00203864051666 0.00162103930557 -0.000430512261755)
(-0.00196068934985 0.00164021536262 -0.000711963951652)
(-0.00171937634672 0.00165052189415 -0.000958776748308)
(-0.00133987379463 0.00165360335743 -0.00113412069708)
(-0.000849291791756 0.00165204003922 -0.00116813680153)
(-0.000319165020309 0.00163207439282 -0.00096374938553)
(0.000329867665827 0.00193466339408 -0.000650443642789)
(0.000837817922091 0.00195315617534 -0.000919942106811)
(0.00128568588084 0.00195818044585 -0.000852321680368)
(0.00156662056711 0.00195847828145 -0.000589670727138)
(0.00165507058904 0.00194585578033 -0.000253175557046)
(0.00154577391617 0.00191431384684 8.77917416408e-05)
(0.00125790977656 0.00186209876149 0.000383561025684)
(0.000830627725098 0.00179528350697 0.000601216258946)
(0.000315571583485 0.00172601954723 0.000726501367147)
(-0.000233904160876 0.00167022562766 0.000762393226343)
(-0.000769841398729 0.00164031181788 0.000718848799798)
(-0.00125118206076 0.00164010503302 0.000600410914322)
(-0.00163958033908 0.00166363718307 0.000413060635973)
(-0.00189751100666 0.00170089174314 0.000168677546203)
(-0.00199899018562 0.00174062507565 -0.000111545278068)
(-0.00193326421381 0.00177590559548 -0.000399886145956)
(-0.00170641752189 0.00180349779899 -0.000661976980094)
(-0.0013389138468 0.00182223062292 -0.000855896575038)
(-0.000853556797317 0.00183061399188 -0.000900610410558)
(-0.000322784358856 0.00180955982911 -0.000690600710855)
(0.000337191854537 0.00195096920845 -0.000368599006655)
(0.000851857614422 0.00197061823302 -0.00063344664261)
(0.00129683452502 0.00196374879733 -0.000544737799042)
(0.00156124626683 0.00194578842387 -0.000255282959128)
(0.00162627416304 0.00191381869347 0.000100446496704)
(0.00149399668489 0.00186542795715 0.000446734274474)
(0.00118891747111 0.00180046529141 0.000730612867216)
(0.000755254915157 0.00172381076664 0.000923598459841)
(0.000249450621574 0.00164632602989 0.00101913215155)
(-0.000275799297907 0.00158384276719 0.00103220381637)
(-0.000779902111611 0.00154923351529 0.000980034888706)
(-0.00123121944112 0.00154638122825 0.000870016562461)
(-0.00159836837529 0.00157092206953 0.000701076609967)
(-0.00184749667659 0.00161331993003 0.000476447934961)
(-0.00195074153186 0.00166224978429 0.000209452911268)
(-0.00189391378728 0.00171063165693 -7.44185471917e-05)
(-0.00167987982104 0.0017537230662 -0.00033953653494)
(-0.00132445186102 0.00178676536484 -0.000542193591687)
(-0.000846550908909 0.00180424007223 -0.000595781771064)
(-0.000320509138062 0.00178193352669 -0.000394069973353)
(0.000336688723251 0.00175796884595 -9.51665354027e-05)