/*--------------------------------*- C++ -*----------------------------------*\
| =========                 |                                                 |
| \\      /  F ield         | OpenFOAM: The Open Source CFD Toolbox           |
|  \\    /   O peration     | Version:  3.0.1                                 |
|   \\  /    A nd           | Web:      www.OpenFOAM.org                      |
|    \\/     M anipulation  |                                                 |
\*---------------------------------------------------------------------------*/
FoamFile
{
    version     2.0;
    format      ascii;
    class       volScalarField;
    location    "1.8";
    object      epsilon;
}
// * * * * * * * * * * * * * * * * * * * * * * * * * * * * * * * * * * * * * //

dimensions      [0 2 -3 0 0 0 0];

internalField   nonuniform List<scalar> 
7968
(
0.00298205707967
0.00324170218804
0.00342432329167
0.00351686099467
0.00355690558389
0.00357103132231
0.0035735787336
0.00357165149536
0.00356894872828
0.00356698130161
0.00356709025313
0.00356902726276
0.00357148020004
0.00357294035658
0.00356995724265
0.00355562539401
0.00351567688719
0.00342344782284
0.00324126032248
0.00298197283425
0.00324165234529
0.00465118820093
0.00561982488662
0.00615715572958
0.00642589324457
0.00654340625142
0.00658353370292
0.0065893465806
0.00658416077128
0.00657959282036
0.00658045555137
0.00658609726511
0.00659098381565
0.00658362540645
0.00654152134388
0.00642253756487
0.00615335985769
0.00561659021275
0.00464913239985
0.0032411913481
0.00342428377751
0.00561989278011
0.00721162045007
0.00814797004253
0.00864994661097
0.00889008567515
0.00898608633455
0.00901288204854
0.0090137279268
0.00901100791596
0.00901303288675
0.00901892522703
0.00901872655091
0.00898997494678
0.00889041429404
0.00864691644909
0.00814302963968
0.00720658000813
0.00561620765893
0.00342327260019
0.00351704267271
0.00615826690861
0.00814932094493
0.00936707986812
0.0100479968796
0.0103904252076
0.010538778474
0.010593354894
0.0106138958732
0.0106193618457
0.0106223087066
0.0106218613068
0.0106042454152
0.010550586903
0.0103974064158
0.0100488115279
0.0093630336977
0.00814316864671
0.00615298332684
0.00351541705699
0.00355757541377
0.006429039075
0.00865392919759
0.0100507222161
0.0108530911351
0.011270884129
0.0114770937071
0.0115644352875
0.0115929909049
0.0116009301647
0.0116051673907
0.0116045882785
0.0115806497643
0.0114946420884
0.0112880154585
0.0108615369033
0.0100502868063
0.00864810422449
0.00642272840757
0.00355539569696
0.00357237529973
0.00654913408536
0.00889735645727
0.0103964228179
0.0112736680879
0.0117596807474
0.0120011687684
0.0120998484236
0.0121308178459
0.0121389972497
0.012144529319
0.0121461356888
0.0121217186093
0.012025263276
0.0117819956753
0.0112917637322
0.0104020027476
0.00889359941604
0.00654277409537
0.00356984888903
0.00357557992214
0.00659155862283
0.00899612631808
0.0105468589719
0.0114765444797
0.012000260295
0.0122544186536
0.0123553363955
0.0123843053548
0.0123907982775
0.0123974383382
0.0124028375617
0.0123822362551
0.0122847126006
0.012028790167
0.0114994112134
0.0105594397388
0.00899586103378
0.00658621031162
0.00357299593344
0.00357405772288
0.00659854914952
0.00902370389039
0.0105972024438
0.0115621839848
0.012097234534
0.0123534987122
0.0124513409313
0.0124759183046
0.0124797982138
0.0124873424131
0.0124970240439
0.0124822804139
0.0123888625851
0.0121311682778
0.0115899870639
0.0106162573014
0.00902758669805
0.00659501433293
0.00357171440307
0.00357109113708
0.00659291477423
0.00902299825401
0.0106114524678
0.0115882899574
0.0121254091966
0.0123794933518
0.0124729767354
0.0124933814904
0.0124950598871
0.0125034233477
0.012516655774
0.0125071732075
0.0124188761861
0.0121636461566
0.0116201235054
0.0106340572123
0.00903114417567
0.00659170406807
0.00356938773985
0.00356853096743
0.00658639006912
0.00901646012246
0.0106139957854
0.0115927726531
0.0121295766509
0.0123817987478
0.0124728362565
0.0124912443442
0.0124920817308
0.012501268696
0.012516585612
0.0125100100084
0.0124247287369
0.012171501136
0.0116280627772
0.0106396369926
0.00902886708845
0.00658781595942
0.00356791035449
0.00356778863451
0.00658445396266
0.00901410129937
0.0106136694645
0.0115929642445
0.0121304099905
0.0123835476998
0.0124757784359
0.0124954879371
0.0124974304549
0.0125072372107
0.0125227442922
0.0125159411909
0.0124299942442
0.0121757975044
0.0116312932617
0.0106419350789
0.00903047862174
0.00658848595769
0.00356786968808
0.00356940199471
0.00658752577037
0.00901617880404
0.0106104410823
0.0115888727442
0.0121278614996
0.0123846080865
0.0124815058773
0.0125055056492
0.0125101429752
0.0125203177871
0.0125341693694
0.0125239981394
0.0124336941617
0.0121755791416
0.0116289538141
0.0106403124101
0.00903504502364
0.006593236033
0.00356939453841
0.0035718314378
0.00659069541028
0.00901334106447
0.0105911850044
0.0115630095848
0.0121010791165
0.0123614725492
0.0124645184153
0.012494408144
0.012502554936
0.0125128071897
0.0125234000851
0.0125074027652
0.0124106112236
0.0121482247941
0.0116022644239
0.010625028121
0.00903150795348
0.00659607169925
0.00357134588127
0.00357317047561
0.00658252665482
0.00898357527305
0.0105350367106
0.0114769297365
0.0120048306531
0.012264040519
0.0123712305674
0.0124064900986
0.0124179768297
0.0124277754038
0.0124341188691
0.0124116740256
0.0123096235444
0.0120476717397
0.0115124886024
0.0105665305428
0.00899750244333
0.00658560299086
0.00357211745076
0.00357012670156
0.00654035776085
0.00888473636289
0.0103835996253
0.0112656128657
0.0117637465737
0.0120108372862
0.0121160039999
0.0121534409676
0.0121667390974
0.0121754375188
0.0121777979932
0.0121510871158
0.0120495383112
0.0118000721299
0.0113042202734
0.0104053613396
0.008891884509
0.00654000081568
0.00356839875179
0.003555756533
0.00642173585665
0.00864298767508
0.0100389582723
0.0108444071564
0.0112695113062
0.011485249111
0.0115785478903
0.0116129959386
0.0116256174235
0.0116326827518
0.0116326157429
0.0116066110394
0.0115161776215
0.0113070547637
0.0108692463035
0.0100494125482
0.00864324106801
0.00641801810242
0.00355347949252
0.00351577269998
0.00615302119709
0.0081410281281
0.00935758982636
0.0100402492602
0.0103878687565
0.0105438985798
0.0106041433609
0.0106294503861
0.0106387537586
0.0106440556317
0.0106443566871
0.0106317430206
0.0105730495383
0.0104099828134
0.0100514623261
0.00935885960433
0.00813622123635
0.00614706312469
0.00351325281079
0.0034235105816
0.00561658518655
0.00720600488346
0.00814108423234
0.00864374571499
0.0088869904817
0.00898812585317
0.00902082049931
0.00902720827448
0.00902858084072
0.00903344642984
0.00904027131345
0.00903785057234
0.00900354746408
0.00889647760531
0.00864589310812
0.0081372054043
0.00719904452139
0.00561009036704
0.0034211788268
0.00324130128824
0.00464932822508
0.00561637568905
0.00615268912841
0.00642153276019
0.00654053680106
0.00658329141453
0.00659229980679
0.00659022096204
0.00658822598557
0.00659072433979
0.00659673454152
0.00660015869303
0.00658951331041
0.00654309940928
0.00641999786149
0.00614801188216
0.00561035530007
0.00464419886111
0.00323965221515
0.00298199248434
0.00324128647343
0.0034234478279
0.00351561460465
0.00355551048829
0.0035697893077
0.0035727510322
0.00357137065562
0.00356909842074
0.00356783588126
0.00356828907334
0.00357013342131
0.00357237946466
0.00357308433676
0.0035691631886
0.00355398871143
0.00351351954426
0.00342127212088
0.00323966434589
0.00298148208964
0.00323701138177
0.00462292895668
0.00558087480205
0.00611681766297
0.00639002178611
0.00651529338017
0.00656414679818
0.00657775242985
0.00657774525262
0.00657523935116
0.0065759425851
0.00657947105205
0.00657950989304
0.00656517859089
0.00651527895521
0.00638913186762
0.00611552990012
0.00557969296238
0.00462217793563
0.00323675264674
0.00462328626983
0.00536759620654
0.006219957684
0.00674017355114
0.0070188079332
0.00715250481092
0.00720841872725
0.00722729998696
0.00723140775288
0.00723172241297
0.00723250847769
0.00723341059268
0.00722975551792
0.00721056594691
0.00715388348041
0.00701935770166
0.00674009829886
0.00621952140332
0.00536690594596
0.00462242110875
0.00558116847069
0.00622022739418
0.00717038853746
0.00778934362812
0.0081406452829
0.00831993306743
0.00840102797284
0.00843236316507
0.00844207543794
0.00844471433991
0.00844597951537
0.00844552503594
0.00843707346277
0.0084059005772
0.00832401614394
0.00814346532193
0.00779083900838
0.00717072100663
0.00621951150101
0.00557958614552
0.00611723437905
0.0067406849213
0.00778948213313
0.00849894225135
0.00891724987075
0.00913991591091
0.00924625589254
0.00929150997282
0.00930861812509
0.00931426510036
0.0093159648348
0.00931338377243
0.00929848788085
0.00925435307427
0.00914739130395
0.00892299280639
0.00850249890894
0.00779087948311
0.00674007614553
0.00611509894805
0.00639103901772
0.00701972895614
0.00814092229107
0.00891718885798
0.00938640920214
0.00964373464493
0.0097730717591
0.00983035016117
0.00985193736284
0.00985908003111
0.00986122282283
0.00985800347749
0.00983939797149
0.00978382628361
0.00965484099805
0.00939560312831
0.00892332260855
0.00814377823658
0.00701950427452
0.00638871389517
0.00651730347019
0.00715398279845
0.00832035110681
0.00913956096032
0.00964307160136
0.00992675102553
0.0100706013958
0.0101337399596
0.0101567926737
0.0101640721807
0.0101666103653
0.0101640276715
0.0101446626782
0.0100837515211
0.0099404767984
0.00965566943301
0.0091485491983
0.00832500552832
0.00715449159454
0.00651529138193
0.00656715160288
0.00721036235436
0.00840139899597
0.00924512076741
0.00977057427471
0.0100688919661
0.0102190307344
0.010283322743
0.0103052796075
0.0103115261445
0.010314375966
0.0103134447342
0.0102957699369
0.0102341974094
0.010084890872
0.00978549293033
0.00925679159558
0.0084079989432
0.00721191767201
0.00656597415304
0.0065813480401
0.00722930927101
0.00843217217482
0.0092883895768
0.00982606984939
0.0101301239379
0.010281320419
0.0103438500956
0.0103632466397
0.0103678461384
0.0103709263307
0.0103720998271
0.0103574417234
0.0102980395718
0.010147937723
0.00984290287514
0.00930230763001
0.00844063109521
0.00723208680754
0.00658137370948
0.00658144085449
0.00723292398697
0.00844086684395
0.00930375728762
0.00984600815226
0.0101513309707
0.0103013064572
0.01036125827
0.0103780485629
0.0103811378557
0.0103844259104
0.0103875051028
0.010375825485
0.0103193172944
0.0101706216153
0.0098643615505
0.0093191957379
0.00845100741128
0.00723699188882
0.00658276752752
0.00657816272747
0.00723218590184
0.00844205021475
0.00930802029372
0.00985162671449
0.0101568953247
0.0103057432761
0.0103640802795
0.0103794327572
0.0103817972008
0.010385350803
0.0103896432406
0.010379800183
0.0103251585592
0.0101776519351
0.00987137526428
0.00932478528214
0.00845374405749
0.0072375681057
0.00658069022641
0.00657699669782
0.00723169209503
0.00844188454284
0.00930849957155
0.00985243921637
0.0101579592148
0.0103070753956
0.0103657500953
0.0103815000114
0.0103842679331
0.0103881714745
0.0103927191738
0.0103829656397
0.0103281830186
0.0101803121149
0.00987353418569
0.00932642719463
0.00845492787922
0.00723831345243
0.00658115684477
0.00657859662206
0.00723151525837
0.00844034795183
0.00930506492715
0.00984831090571
0.0101543794691
0.0103051504237
0.0103660934648
0.010384032171
0.0103882778357
0.0103925732182
0.0103963613003
0.0103848801504
0.0103278937531
0.0101780910872
0.00987036600025
0.00932372465248
0.0084541499628
0.0072388823574
0.00658397945697
0.00657754982482
0.00722720803671
0.00843130056363
0.00928982575496
0.00982943067639
0.0101347257055
0.0102872110319
0.010351323086
0.0103725171821
0.0103788951935
0.0103834925527
0.0103856531797
0.010371124507
0.0103107907937
0.0101588419126
0.00985151797182
0.00930870010675
0.00844472233955
0.00723432724287
0.00658270966642
0.00656303071964
0.00720790122716
0.00840016133628
0.00924564678699
0.00977420626518
0.0100742962694
0.0102261385708
0.0102924758524
0.0103167127496
0.0103251617601
0.010329809281
0.010329910279
0.01031211695
0.0102491118358
0.0100973517626
0.00979508747725
0.00926341568756
0.00841189750423
0.00721374583165
0.00656660740136
0.00651345792565
0.00715156826053
0.00831901070121
0.00913965215535
0.00964549600614
0.00993195030248
0.0100778563141
0.0101433058187
0.010168882258
0.0101785311929
0.0101828968347
0.0101812000044
0.0101614148491
0.0100987145397
0.00995275144934
0.009664849864
0.00915419404744
0.00832796284665
0.00715551349742
0.0065149264598
0.00638794177039
0.00701769277494
0.00813967133156
0.00891694323361
0.0093877855294
0.00964756733965
0.00977947712055
0.00983912969679
0.0098632233701
0.00987264413853
0.00987644322471
0.00987389601575
0.00985475580694
0.00979739108181
0.00966605703765
0.00940298419249
0.0089273780256
0.00814561406806
0.00701976599993
0.00638750647815
0.00611503569314
0.00673916590424
0.0077884054966
0.00849843048797
0.00891781613125
0.00914233438507
0.00925111979983
0.00929875797022
0.00931816527829
0.00932581921606
0.00932893102102
0.00932693316157
0.00931209449392
0.00926626720306
0.00915602216684
0.00892813057552
0.00850502775297
0.00779185334686
0.00673991074785
0.00611348138023
0.00557974611321
0.00621919575293
0.00716947050914
0.00778858896682
0.008140490302
0.00832108382845
0.00840416616714
0.00843781906998
0.00844980404774
0.00845427079346
0.00845683537195
0.00845685343289
0.00844762778721
0.00841443710731
0.00832975296368
0.008146580338
0.00779219364795
0.00717117150054
0.00621925968834
0.00557805764617
0.00462246654863
0.00536691297163
0.00621906129587
0.00673908015803
0.00701790392576
0.00715240875766
0.00720972732445
0.00723035915035
0.00723623142678
0.00723799117408
0.00723973723877
0.00724090326212
0.00723651925051
0.00721572647205
0.0071569941263
0.00702066120145
0.00674032971062
0.00621939232462
0.00536657800541
0.00462127563053
0.00323680403268
0.00462241749026
0.00557948344128
0.00611465775571
0.00638768432626
0.00651361916948
0.00656391302865
0.00657946712572
0.00658167220416
0.00658097394762
0.00658291898185
0.00658650499793
0.00658520779274
0.00656887592019
0.00651663221626
0.00638854033108
0.00611396170726
0.00557821686028
0.00462131395383
0.00323592479868
0.00341566791623
0.00556652860089
0.00713745202019
0.00807173265188
0.00858334298037
0.00883919840387
0.00895202950091
0.00899285502243
0.00900288927371
0.00900398576081
0.00900605631939
0.00900823746879
0.00899979151942
0.008958804736
0.00884459600568
0.00858681514782
0.00807322283832
0.00713732530829
0.0055656215997
0.00341529703729
0.00556727257101
0.00620951656001
0.00716211160104
0.00778503147074
0.00814124834735
0.00832535233412
0.00841026102186
0.00844395191819
0.00845481149216
0.00845782567343
0.00845918409874
0.00845847615521
0.0084490351336
0.00841577071969
0.00833047964181
0.00814541814406
0.00778782544934
0.00716331703335
0.00620920979169
0.00556611846806
0.0071378827606
0.00716253620896
0.00800355647392
0.00860804949026
0.00897526813694
0.00917604137274
0.00927476726825
0.00931761012
0.00933367175429
0.00933927318747
0.0093412547487
0.00933929522725
0.00932596020904
0.00928461701781
0.00918609078154
0.00898429071433
0.00861495923156
0.00800759978098
0.00716350227934
0.00713723442572
0.00807149949841
0.00778520642632
0.00860748453994
0.00923360374034
0.00962947636236
0.00985446723665
0.00996985645205
0.0100228070586
0.0100439529201
0.0100517474206
0.0100544913734
0.0100518379603
0.0100348934916
0.00998473530907
0.00987023499355
0.00964417533097
0.00924540127213
0.00861503154117
0.00778799673576
0.00807249803302
0.00858255190712
0.00814074269246
0.00897323120496
0.00962747872915
0.0100509927359
0.0102974127413
0.0104267932586
0.0104865711076
0.010510340662
0.0105190597245
0.0105225358635
0.010520408151
0.0105022088044
0.0104464137844
0.0103187849804
0.0100714180693
0.00964427949809
0.00898444742247
0.00814559197064
0.0085859633179
0.00883810391551
0.00832399588335
0.00917198728183
0.00984942263449
0.010293669338
0.0105552672024
0.0106925480085
0.0107546408199
0.0107779426044
0.0107859937641
0.0107900616409
0.0107897706575
0.0107730915899
0.0107159246896
0.0105813138503
0.0103191627819
0.0098707645047
0.0091866083856
0.00833089114449
0.0088443854056
0.00895071050959
0.00840802169175
0.00926855793689
0.00996135191
0.01041865687
0.0106876727242
0.0108267765419
0.0108868307839
0.010906960659
0.0109130079332
0.010917545593
0.0109201845532
0.0109074476063
0.0108528776655
0.0107170316011
0.010447984607
0.00998636380978
0.00928602436801
0.00841679301277
0.00896004509158
0.00899102710626
0.00844078153015
0.00930938338314
0.0100109348098
0.0104742183892
0.0107449502663
0.0108817347258
0.0109372254681
0.0109528450037
0.0109562742944
0.0109611807062
0.0109671771386
0.0109595699162
0.0109099324096
0.0107766588089
0.0105062071013
0.0100385717363
0.0093289997075
0.00845115303105
0.00900326486087
0.00899989815231
0.00845056453044
0.00932368682515
0.0100294953675
0.0104946571434
0.0107643310986
0.0108975456924
0.0109483545351
0.0109598535178
0.0109609892439
0.0109662250001
0.0109751784064
0.0109722627396
0.0109276202838
0.0107980052674
0.0105286142073
0.0100589375416
0.00934487944619
0.00846228428907
0.00901472383737
0.00899906937669
0.00845237236269
0.00932780358822
0.0100355133419
0.0105011194982
0.0107696835616
0.0109005420701
0.0109485578405
0.0109577626542
0.0109577815486
0.0109634602038
0.0109743700622
0.0109743816657
0.0109327823788
0.0108054234575
0.0105368575605
0.0100663748309
0.00935023168071
0.00846530383376
0.0090162519355
0.00899850818981
0.00845257694493
0.00932879558976
0.0100372467781
0.0105033724356
0.0107723060276
0.010903441894
0.0109517782333
0.0109614535555
0.0109620880562
0.0109684464621
0.0109799553136
0.0109802563645
0.010938461416
0.0108104355939
0.0105408789395
0.010069272409
0.00935215036749
0.00846655417913
0.00901790375467
0.00899854026076
0.00845109866562
0.0093264294441
0.0100343509668
0.0105010149101
0.0107717755247
0.0109058282034
0.0109576282828
0.0109705654854
0.0109735315282
0.0109807214826
0.0109913168378
0.0109890888568
0.0109437231141
0.0108120613096
0.0105397536689
0.0100668376931
0.00934997706537
0.00846547033509
0.00901897857733
0.00898932488207
0.00844149480244
0.00931331632269
0.0100179629623
0.0104835179439
0.0107559086836
0.0108940450512
0.0109512268663
0.0109692748202
0.010975671979
0.0109835704685
0.0109918725386
0.0109849553363
0.0109338191568
0.0107971023441
0.0105220144059
0.0100494028021
0.00933560963631
0.00845494845016
0.00900835154797
0.00894894331159
0.00840873042641
0.00927291397748
0.00996910260332
0.0104292673927
0.0107002904507
0.0108411704879
0.0109035623514
0.0109269771404
0.0109368656436
0.0109450179392
0.0109501368463
0.0109376998278
0.0108807288459
0.0107402116397
0.0104651964315
0.00999747753195
0.00929223192549
0.00841986837733
0.00896425734897
0.00883643641122
0.00832451942124
0.00917600885981
0.00985666542474
0.0103039576341
0.0105677626044
0.0107072490809
0.010772194946
0.0107992993136
0.0108115468078
0.010819270431
0.0108211097602
0.0108040522167
0.010743638308
0.0106034883687
0.0103346782523
0.00987990378735
0.00919106312219
0.00833253767569
0.00884688750581
0.00858108270885
0.00814094584102
0.00897634525724
0.00963324430034
0.0100591656544
0.0103081210886
0.0104401092463
0.0105031228867
0.0105307748334
0.0105434650191
0.010550099438
0.0105493940561
0.0105300853022
0.0104705014931
0.0103370664925
0.010083158284
0.00965038097002
0.0089868496544
0.00814596222551
0.00858694623366
0.0080701026546
0.00778499251037
0.00860937813515
0.009237414799
0.0096350762664
0.00986210943869
0.00998012611116
0.0100362864425
0.0100610209356
0.0100722084642
0.0100774178212
0.0100755432206
0.0100571106051
0.0100032807596
0.0098833419975
0.00965172880667
0.0092487428623
0.00861603732051
0.00778787025589
0.00807279001552
0.00713642256578
0.00716196633946
0.00800425854351
0.0086098970892
0.00897827772711
0.00918058633963
0.0092815078958
0.00932715329659
0.00934623298892
0.00935448967846
0.00935831298772
0.00935678728313
0.00934190961578
0.00929720865722
0.00919432219043
0.00898851573065
0.00861659821088
0.00800820133456
0.00716371223905
0.00713759356689
0.00556594972128
0.00620883398169
0.00716187560407
0.00778517387543
0.00814194634413
0.00832710352081
0.0084137486081
0.00844972343922
0.00846301042961
0.00846813298956
0.00847083393516
0.00847031597279
0.0084595569208
0.00842363147593
0.00833512974136
0.00814742973062
0.00778853143211
0.00716393293764
0.0062099604008
0.00556635766725
0.0034153522793
0.00556587303275
0.00713602458954
0.00806980330233
0.00858170580731
0.00883907507076
0.00895472266074
0.00899925889662
0.00901319690623
0.00901771766768
0.00902186171961
0.00902417355687
0.00901363657331
0.00896873645143
0.0088499876981
0.00858864197988
0.00807348666604
0.00713783018403
0.00556647254802
0.00341420944915
0.00350754563717
0.0060943993811
0.00806426276368
0.00928957093118
0.00999458661622
0.0103667766383
0.0105413179587
0.0106100564079
0.0106307351363
0.0106360467194
0.0106407645503
0.0106434543356
0.0106279166576
0.0105612051495
0.010385986364
0.0100108380951
0.00930076472387
0.00806921632598
0.00609442739562
0.00350721013319
0.00609563593845
0.00672569610796
0.00778401200339
0.0085073341708
0.00894145678267
0.00917836997898
0.00929460532087
0.00934436516671
0.00936238487298
0.00936844824259
0.00937122186282
0.00937018914679
0.009356093565
0.00930894045334
0.00919390334313
0.00895647117705
0.00851964257458
0.00779164143864
0.00672812135576
0.00609522298316
0.00806449202726
0.00778417473213
0.00861721435368
0.00925589091777
0.00966427222431
0.00989963132768
0.0100220444775
0.0100784772201
0.0101013265229
0.0101103369362
0.0101141227694
0.0101123491972
0.0100957850752
0.0100441726077
0.00992462525788
0.00968948046822
0.00927797096157
0.00863292180865
0.00779197120321
0.00806918438897
0.00928677527069
0.00850540122746
0.00925294971231
0.00987523394419
0.0102908787937
0.0105395852268
0.0106738948415
0.0107381029279
0.0107647312296
0.0107753850515
0.0107804369341
0.0107795635721
0.0107617861581
0.0107049265581
0.0105756259208
0.0103279349838
0.00990849032867
0.00927793810168
0.00851981889602
0.00929967412019
0.00998732769164
0.00893553873566
0.00965547370027
0.0102837931215
0.0107138914708
0.0109765344941
0.0111193423022
0.0111863459889
0.0112128031477
0.0112230801082
0.0112293187038
0.0112311627785
0.0112157001302
0.0111580402461
0.0110221477715
0.0107619372493
0.0103276848671
0.00968918214039
0.00895629765748
0.0100093436447
0.0103545841173
0.00916764074497
0.00988342958609
0.0105228000266
0.0109655477616
0.0112357843864
0.0113796182669
0.011442969198
0.0114646319341
0.0114721410041
0.0114795499058
0.0114863745663
0.0114774548126
0.0114245618112
0.0112885570627
0.0110218445255
0.01057532808
0.00992425086444
0.00919355194556
0.0103852655424
0.0105245841712
0.00927939195978
0.00999860788744
0.0106469212216
0.0110962437252
0.0113665074275
0.0115042278652
0.0115582580382
0.0115713023018
0.0115741002378
0.0115826509331
0.0115963117703
0.0115974540566
0.0115543485943
0.0114244253888
0.0111579046569
0.0107052913885
0.0100444898442
0.00930896116104
0.0105626824825
0.0105894644202
0.00932569066639
0.0100493552299
0.0107029019938
0.0111527901002
0.01141777354
0.0115452822766
0.0115873196417
0.0115903110643
0.0115876291125
0.0115971811723
0.0116182378903
0.0116307291426
0.0115997928973
0.0114795566869
0.0112178878764
0.01076470471
0.0100982602718
0.00935747157715
0.0106331587069
0.0106066924394
0.00934135873356
0.0100684948135
0.0107240813909
0.0111720206718
0.0114304767944
0.011548023851
0.011579337139
0.0115737578687
0.0115663993543
0.011576787897
0.0116041842503
0.0116264700778
0.0116064502931
0.0114955515404
0.0112396393868
0.0107878885584
0.0101189002905
0.00937427737106
0.0106541487434
0.010608748349
0.00934602526899
0.0100756025382
0.010732226535
0.0111787150747
0.0114330217857
0.0115445220445
0.011569507595
0.0115590311038
0.0115493046143
0.0115606414244
0.0115921986317
0.0116206330255
0.0116071000112
0.0115014377973
0.0112485114938
0.0107972647974
0.0101267146325
0.00937952324057
0.0106587443094
0.0106104054908
0.00934821586679
0.0100793064335
0.0107372423997
0.0111846043498
0.0114393115416
0.011551027825
0.0115763911869
0.0115666845263
0.0115581045642
0.0115708088249
0.0116036130373
0.0116326397975
0.0116186353259
0.0115114966786
0.0112564630779
0.0108029552809
0.0101303787679
0.00938188209236
0.0106623159622
0.0106113752339
0.00934746797341
0.0100788727169
0.0107382007287
0.0111886148286
0.0114481924835
0.0115663887631
0.0115989408112
0.0115958204304
0.011591948255
0.0116062966305
0.0116371075586
0.0116607844313
0.011639081667
0.0115236767687
0.011261543729
0.0108032546437
0.0101285100593
0.00938014529161
0.0106630860148
0.0105964202178
0.00933458826141
0.0100645408089
0.0107235034923
0.0111769012488
0.0114434475459
0.011571992224
0.0116162538427
0.0116235392915
0.0116266502207
0.0116423561457
0.0116682569886
0.0116821740903
0.0116479175014
0.0115201828497
0.0112486293018
0.0107853523743
0.0101102091922
0.00936397620938
0.0106433966423
0.0105325971579
0.00928954201787
0.0100160671316
0.0106705532433
0.011123501079
0.0113953809628
0.0115343882452
0.0115916129907
0.0116105914765
0.0116210766923
0.0116372507654
0.0116563011274
0.0116582208351
0.0116100342975
0.0114700677395
0.0111908942879
0.0107257601051
0.0100545817089
0.00931314817771
0.0105703239061
0.0103622043826
0.00917736549619
0.00990037935013
0.0105455146411
0.0109919290555
0.0112638547868
0.0114093416375
0.0114766480039
0.0115053198454
0.0115214518855
0.0115368174739
0.0115485541248
0.0115391989679
0.0114795715208
0.0113317484222
0.0110508376876
0.0105907487162
0.00992950701819
0.00919385862388
0.010388493108
0.00999326426971
0.00894340062314
0.00966972636862
0.0103030894055
0.0107364489255
0.0110012646839
0.0111463778194
0.0112178877091
0.0112515796311
0.0112701852786
0.011283444584
0.0112887596004
0.0112712628453
0.0112055566737
0.0110570405955
0.0107826010163
0.0103356599996
0.00968907339239
0.00895326109129
0.0100089101056
0.00928993871035
0.00851044294636
0.00926312740763
0.00988939838024
0.0103077387662
0.0105588817688
0.0106965577954
0.010765506608
0.0107987477581
0.0108163529647
0.0108266298683
0.0108273901312
0.0108061655213
0.0107407331656
0.010599435387
0.0103391066119
0.00990984234175
0.0092743980578
0.0085156797124
0.00929803590481
0.00806459683552
0.0077863156226
0.00862305798838
0.00926459402068
0.00967491059044
0.00991224236035
0.010037779842
0.0100988154074
0.0101271952528
0.0101413863083
0.010148621505
0.0101473449111
0.0101269693748
0.0100674981437
0.00993790880542
0.00969339843224
0.00927586505645
0.00862911407672
0.00778933045588
0.00806868503239
0.00609396113546
0.00672586620837
0.007786357593
0.00851141694468
0.00894679638002
0.0091851995993
0.0093039845921
0.00935750613153
0.00937989409239
0.00938989558942
0.00939501500076
0.00939379042671
0.0093762688156
0.00932281168102
0.00920036204612
0.00895689260415
0.00851728722816
0.00778984567758
0.00672818750877
0.00609578475643
0.00350718043256
0.00609383813155
0.00806421341871
0.00929045906133
0.00999694543751
0.0103720103769
0.010551535861
0.0106269906348
0.0106548604361
0.0106663319434
0.0106745606302
0.0106770567538
0.0106566749992
0.0105810631665
0.0103956728222
0.0100127083453
0.00929952706982
0.00806917118844
0.00609604488668
0.00350574298377
0.00355113056369
0.00638083246151
0.00861038973499
0.0100517447809
0.0109162435202
0.0113916669098
0.0116226107231
0.0117159540458
0.0117448007419
0.0117535241894
0.0117627216015
0.0117701470498
0.0117533288784
0.011667806942
0.0114406932051
0.0109642761747
0.0100914954626
0.00863430061457
0.00638751075773
0.0035513977774
0.00638270243895
0.00702149013141
0.00817333997315
0.00899166746798
0.009505656892
0.00980032697945
0.00995202470534
0.0100198862446
0.0100456046928
0.0100550173719
0.0100603025626
0.0100609079666
0.0100443230813
0.00998468272044
0.0098397800677
0.00954859538621
0.00903167549497
0.00820269513122
0.00703595845896
0.00638883014371
0.0086091482419
0.00817161635815
0.00904368507425
0.00974553499959
0.010215023761
0.0104982006063
0.0106519598699
0.0107252587214
0.010755891447
0.0107685376781
0.0107752098168
0.0107757181366
0.0107580660905
0.0106971077583
0.0105541377899
0.0102773793179
0.00980647091043
0.00909341552517
0.00820319541007
0.00863450943556
0.0100406345199
0.00898160642985
0.00973507746843
0.0104025989786
0.0108690977215
0.0111602833537
0.011323265793
0.0114020600761
0.011434337406
0.0114475775654
0.0114560247655
0.0114596342316
0.0114440629563
0.0113818178767
0.0112340656832
0.0109528027534
0.0104861775019
0.00980611417926
0.00903165812017
0.0100899318984
0.0108895894097
0.00948178341678
0.0101866657073
0.0108486637987
0.0113220947927
0.01162138308
0.0117861274795
0.011861131088
0.0118879244865
0.0118981569464
0.0119086930415
0.0119192816987
0.0119124886654
0.0118566314482
0.011709778885
0.0114235511318
0.0109515732046
0.0102758969059
0.00954735324243
0.010961544298
0.0113473652054
0.00976073483141
0.0104488956721
0.0111141786835
0.0115930775466
0.0118901095419
0.012044171851
0.0121040274638
0.0121174060623
0.0121207836034
0.0121340630269
0.0121565165463
0.0121664018408
0.0121264724737
0.0119900843593
0.0117066923969
0.0112307598658
0.0105513021454
0.00983712297879
0.0114382374019
0.0115624934972
0.00989874540137
0.0105835557353
0.0112519511924
0.0117285695976
0.0120125799061
0.0121446994469
0.012180219882
0.0121740573262
0.0121673220739
0.0121838817028
0.0122224043738
0.0122554250976
0.0122395042633
0.0121222273254
0.0118499083267
0.0113763602104
0.0106936073733
0.00998122505766
0.0116676133409
0.0116439773453
0.0099573090299
0.010643119692
0.0113118443319
0.0117796670089
0.0120443788332
0.0121495130907
0.0121577602731
0.012130435462
0.0121122057572
0.0121319222622
0.0121878184231
0.012245582548
0.012256605856
0.0121625691061
0.011906019609
0.0114398086599
0.0107562852643
0.0100418303072
0.0117578730981
0.0116650067015
0.0099784900278
0.0106662939425
0.0113332721479
0.0117912825938
0.0120377496805
0.0121191860576
0.0121043536921
0.0120597454098
0.012031593991
0.0120538010471
0.0121245188449
0.0122027134023
0.0122367323325
0.0121632577088
0.0119212792676