/*--------------------------------*- C++ -*----------------------------------*\
| =========                 |                                                 |
| \\      /  F ield         | OpenFOAM: The Open Source CFD Toolbox           |
|  \\    /   O peration     | Version:  3.0.1                                 |
|   \\  /    A nd           | Web:      www.OpenFOAM.org                      |
|    \\/     M anipulation  |                                                 |
\*---------------------------------------------------------------------------*/
FoamFile
{
    version     2.0;
    format      ascii;
    class       surfaceVectorField;
    location    "1.8";
    object      Uf_0;
}
// * * * * * * * * * * * * * * * * * * * * * * * * * * * * * * * * * * * * * //

dimensions      [0 1 -1 0 0 0 0];

internalField   nonuniform List<vector> 
22672
(
(0.000236657584754 5.8372617718e-05 -0.000223405892239)
(7.51415132092e-05 0.000206736259213 -0.000222551808451)
(0.000124615854109 0.000108728534732 -0.000443393597594)
(0.000594215101005 3.07357516987e-05 -0.00024241565661)
(0.00037365722241 0.000164353959265 -0.000338775200706)
(0.00045585282689 0.000110491684837 -0.000521911166528)
(0.000962765483851 2.33905345768e-05 -0.000220444248209)
(0.000801430586513 0.00015691274269 -0.000369739972193)
(0.000860104055982 0.000120373694738 -0.000525462754535)
(0.00125303679439 3.44597285766e-05 -0.000173352620978)
(0.00117049344812 0.00017766452928 -0.000341482920786)
(0.00120750712485 0.000142110792657 -0.000467935394489)
(0.00140925512578 6.03712449624e-05 -0.000117460478346)
(0.00142093241941 0.000223682709587 -0.000287146674184)
(0.00143961703958 0.000173617836958 -0.000379900511784)
(0.00140482924135 9.23502821142e-05 -6.11085071569e-05)
(0.00150689150618 0.000281892150098 -0.000220955236958)
(0.00151423687236 0.000208563259424 -0.000277465651706)
(0.00124137606566 0.000122720454431 -9.73376917373e-06)
(0.00141713931563 0.000337831987547 -0.000153860523886)
(0.00141868315997 0.000239670217245 -0.000174378122263)
(0.000941287923835 0.000146276781402 3.13510736691e-05)
(0.00116596044509 0.000383085876548 -9.36601550693e-05)
(0.00116530916466 0.000263251815272 -8.29969881802e-05)
(0.000546657583284 0.000159413099807 5.69706195895e-05)
(0.000789693027094 0.000411580859384 -4.93768331897e-05)
(0.00078884330936 0.000277006458395 -1.69497414493e-05)
(0.000106282916062 0.000161016274127 6.56222068658e-05)
(0.000338207893998 0.000420865389247 -2.63218177677e-05)
(0.000338392364572 0.000280607377667 1.95100561435e-05)
(-0.000326539814693 0.000151623044697 5.830652096e-05)
(-0.000132203845413 0.000411907506941 -2.52813878437e-05)
(-0.000130151878971 0.00027469041237 2.09159724277e-05)
(-0.000702173430035 0.000132325616944 3.59773568753e-05)
(-0.000565751011503 0.000386565052866 -4.45238282498e-05)
(-0.000562305002105 0.000260226684971 -1.09307464006e-05)
(-0.00098272436772 0.00010536730409 7.97195161721e-07)
(-0.000916797196936 0.000346831089923 -8.16886949843e-05)
(-0.000913079825818 0.00023856919854 -6.62795429386e-05)
(-0.00113779555847 7.48993508237e-05 -4.31245778601e-05)
(-0.00114894137203 0.000297370499669 -0.000132011939994)
(-0.00114684941416 0.000211463016902 -0.000142298802141)
(-0.00115257500325 4.56788559833e-05 -9.22299884824e-05)
(-0.00123742021137 0.000244225696682 -0.000189561133553)
(-0.00124063971222 0.000181766690351 -0.000229445864672)
(-0.0010276245691 2.40669999916e-05 -0.000142320840866)
(-0.00117295293127 0.000193947512499 -0.000248731772189)
(-0.00118722652277 0.000152124340452 -0.000318897690902)
(-0.000786056264901 1.69155621073e-05 -0.000185779287516)
(-0.000965280523636 0.000157550612657 -0.000299917828065)
(-0.000997890844434 0.000127618859282 -0.000399118795591)
(-0.000476747778198 2.55178022178e-05 -0.00020677465927)
(-0.000652565665307 0.000144258158724 -0.000328139892644)
(-0.000707338374927 0.000111710508564 -0.000453566650225)
(-0.000179411045496 5.13727069428e-05 -0.000188458591481)
(-0.000288172693719 0.000153642263484 -0.000300033479549)
(-0.000367159296447 0.000103493557403 -0.000450979100367)
(-4.36561269273e-05 0.000193815659083 -0.000187289540837)
(-9.19761284693e-05 0.000100789587373 -0.000373226798134)
(0.000196896984511 0.000325472020387 -0.000337921116917)
(4.71661712199e-05 0.000530417247754 -0.00024189407463)
(0.000131601097805 0.000409032061198 -0.00052057763804)
(0.000593762050513 0.000307059909283 -0.000466099516289)
(0.000357792037375 0.000523000819171 -0.000468648038289)
(0.00047404083412 0.00041623250548 -0.000755511502673)
(0.00102092422167 0.000330647125575 -0.000490778644771)
(0.000851487129045 0.000558487971591 -0.000546772025754)
(0.000919435924875 0.00045542598415 -0.000828736897924)
(0.00135867397539 0.000389898017492 -0.000455276973992)
(0.00127146750857 0.000636844359752 -0.00052709087563)
(0.00130027008973 0.00052767741756 -0.000796928993569)
(0.00154181391014 0.000471937910348 -0.000390641432796)
(0.00155357144395 0.000746581914554 -0.000461055705725)
(0.00155483027613 0.000620873918599 -0.000706038453948)
(0.00154166288 0.00055724405276 -0.000313707253688)
(0.00164720204029 0.00086361151233 -0.000372223215063)
(0.00163682493737 0.000716255337044 -0.000581567555005)
(0.0013609245663 0.000630200077727 -0.000237786909782)
(0.0015431025864 0.00096534721189 -0.000278960830963)
(0.00153206274993 0.000797046027431 -0.000446776057504)
(0.00102735930686 0.000681446130531 -0.000174388061928)
(0.00126114369694 0.00104007407779 -0.000195465710596)
(0.00125482210397 0.000854616149972 -0.000323422037525)
(0.000588029191055 0.000706318844374 -0.000132669270547)
(0.000843646933297 0.0010816013219 -0.000133797278732)
(0.000843800931606 0.000885422125704 -0.000230689422443)
(9.99602287625e-05 0.000704644157051 -0.000117225412477)
(0.000347132254246 0.00108988270207 -0.00010165619399)
(0.000353567149364 0.000890592330805 -0.000180947439435)
(-0.000377881860733 0.0006786918203 -0.000128111737053)
(-0.000166608400749 0.00106803530559 -0.000101049271799)
(-0.000154917666555 0.000873221112577 -0.000178284842645)
(-0.00079235863526 0.000631455448293 -0.000162189880109)
(-0.00063871259839 0.00102016483229 -0.000129348397426)
(-0.000623193829942 0.000836315740253 -0.000219122210416)
(-0.00109978523688 0.000567306688131 -0.00021449783014)
(-0.00102035570108 0.000950071116962 -0.000181490334885)
(-0.00100241214441 0.000782522153993 -0.000295812726012)
(-0.00126751580173 0.000492651536771 -0.000278448495687)
(-0.00127212843604 0.000862840393787 -0.000251089844865)
(-0.00125421372382 0.000714895355487 -0.000397738744272)
(-0.0012769213342 0.000415417080849 -0.000346062917259)
(-0.00136688255449 0.000765170299981 -0.000330311497127)
(-0.00135387971716 0.000637608073433 -0.000511538616145)
(-0.00112682781206 0.000347120490839 -0.000406328759388)
(-0.00129157221688 0.000665275085343 -0.000409276349873)
(-0.00129297402087 0.00055645538695 -0.000621420781379)
(-0.000840614685093 0.000301662106728 -0.000442278433193)
(-0.0010538261163 0.000578023909128 -0.000471888992487)
(-0.00108327740678 0.000482128337921 -0.000706686252016)
(-0.000475018569091 0.000286735947514 -0.000421398712924)
(-0.000694966851868 0.000518958275614 -0.000493578194066)
(-0.000762345469336 0.000426406952823 -0.000740296190956)
(-0.000140596780582 0.000307136031784 -0.000298864428906)
(-0.000269623143779 0.000492801237614 -0.00042164266564)
(-0.000382367716508 0.000395688844545 -0.000673580811826)
(-1.68438566395e-05 0.000500170503457 -0.000203761994617)
(-9.89419816684e-05 0.000389893771257 -0.000446951668775)
(0.000188816410191 0.000717323731022 -0.000372620996002)
(3.78303942618e-05 0.0008720317915 -0.000223932029553)
(0.000142463413292 0.000776755736139 -0.000530430482361)
(0.000631569469901 0.000760508244622 -0.000549320547754)
(0.000380269164039 0.0009186637181 -0.000501485048746)
(0.000516976646067 0.0008228699664 -0.000838415370043)
(0.00111310771179 0.000848314806225 -0.000583084256613)
(0.000941727965379 0.00100543712912 -0.000589793965789)
(0.00101317931295 0.00091056230145 -0.000928486716886)
(0.0014875844279 0.000974553508274 -0.000532869607363)
(0.00140870070138 0.00113959854976 -0.000549954686666)
(0.00142686467502 0.00104238113773 -0.000877230125866)
(0.00168259365108 0.00111666313528 -0.000442637487993)
(0.00171058405273 0.00130005613813 -0.00045090222482)
(0.00169331388105 0.00119583898044 -0.000748482567801)
(0.00167119954476 0.00124787977109 -0.000337476792338)
(0.00179597088808 0.0014552459725 -0.000327157795378)
(0.00176641003014 0.00134231147457 -0.000580239387133)
(0.00146204031267 0.00134977208745 -0.000236639631777)
(0.00166313461886 0.00157975529387 -0.000204119234989)
(0.00163694987273 0.00145922433005 -0.000405247817945)
(0.00109017943009 0.00141390095729 -0.0001548749274)
(0.00134088460144 0.00166319323 -9.96237738217e-05)
(0.00132583720645 0.0015368604307 -0.000251257202897)
(0.000608963661179 0.00143866152117 -0.000102784202175)
(0.000879208744352 0.00170252190369 -2.55740049389e-05)
(0.000877524275189 0.00157361133261 -0.000139703745011)
(8.05525173774e-05 0.00142708200168 -8.54800533117e-05)
(0.000340026238405 0.00170209288425 1.02730236647e-05)
(0.000350772938435 0.0015736313023 -8.37980016978e-05)
(-0.000433643216238 0.00138389288702 -0.000102285932172)
(-0.000211934589724 0.00166736901093 6.75003626825e-06)
(-0.000190884726732 0.00154260632928 -8.51369940396e-05)
(-0.000878754643017 0.00131404135162 -0.000148648852202)
(-0.000716592439248 0.00160416486974 -3.21110741607e-05)
(-0.000687847538752 0.00148581876341 -0.000138887714304)
(-0.00120922214799 0.0012221762341 -0.00021808234961)
(-0.00112471231978 0.00151745993889 -9.98876798632e-05)
(-0.00109061894195 0.00140710768369 -0.000236920519616)
(-0.00139055592578 0.00111361750418 -0.000302952846306)
(-0.00139595727016 0.00141076257862 -0.000189031657488)
(-0.00136019924386 0.00130938496878 -0.000366587723651)
(-0.00140090814444 0.000995244737385 -0.000393524929741)
(-0.00150111843014 0.00128885340388 -0.000292340833418)
(-0.0014705101281 0.00119580443369 -0.000513330328924)
(-0.0012354066425 0.000878498043656 -0.000474836582972)
(-0.00142281174233 0.00115778070002 -0.000398411826191)
(-0.00140996651666 0.00107199433177 -0.000658006697081)
(-0.000915781420308 0.000779703981971 -0.00052318875336)
(-0.00116371393211 0.0010320269244 -0.000486898798439)
(-0.00118710546543 0.000950537015284 -0.000773627956286)
(-0.000503607199374 0.000711499908091 -0.000493822146782)
(-0.000764993230672 0.000929838970852 -0.000524767034863)
(-0.000838711003275 0.000848255882857 -0.000823054760567)
(-0.000131219762711 0.000675353420076 -0.000326540231351)
(-0.000283387278808 0.000861317265551 -0.000443586431104)
(-0.000416171622016 0.000777606333182 -0.000740903393522)
(-7.13844729825e-06 0.000816910014705 -0.000181360961985)
(-0.000108345769977 0.000734052071846 -0.000447959232849)
(0.000206922478361 0.00106368669114 -0.000352796082297)
(4.60646233168e-05 0.00115065999274 -0.000183464348535)
(0.00016317423637 0.00110140698027 -0.000485550019669)
(0.000709086107853 0.00115468080632 -0.000541958466781)
(0.000436335441317 0.00124226072024 -0.000478687572523)
(0.000589220700168 0.00117953304932 -0.000825759824446)
(0.00124914752223 0.00128710820405 -0.000556664395842)
(0.00106792719499 0.00136420943361 -0.000554913491279)
(0.00114736131892 0.00129916393946 -0.00089883280488)
(0.00165511210072 0.00145372743639 -0.000467987304122)
(0.00157733105178 0.00152840913118 -0.000477085777442)
(0.00159606985106 0.00146506260989 -0.000794774145382)
(0.00184929654298 0.0016248995631 -0.000335422532206)
(0.00188674024488 0.00170702812338 -0.000333077924783)
(0.00186602047944 0.0016468317234 -0.000601155321335)
(0.00181140303683 0.00177114399505 -0.000193800238029)
(0.0019490656408 0.00186614007708 -0.000170036112281)
(0.00191566799756 0.00181073279668 -0.000372999421936)
(0.00156097328322 0.00187523999488 -6.71033770339e-05)
(0.0017750847484 0.00198314329487 -1.98847120215e-05)
(0.00174671034238 0.00193348362216 -0.000152957031633)
(0.00114218867522 0.00193245214706 2.96771486399e-05)
(0.00140498915373 0.0020510055725 0.000100660042915)
(0.00139045262586 0.00200755012918 3.09734856656e-05)
(0.000616051313684 0.00194589659898 8.74832209012e-05)
(0.000897515237225 0.00207301465896 0.000181018069385)
(0.000898709374181 0.00203483551581 0.000155645797878)
(4.72506865743e-05 0.00192221724562 0.000102503113245)
(0.000318378988652 0.00205766400186 0.000215804782191)
(0.000333855451673 0.0020233029363 0.000213230645531)
(-0.000501234169087 0.00186818637269 7.69248942796e-05)
(-0.000266880485053 0.00201335799237 0.000205489909415)
(-0.00023991249507 0.00198120857708 0.000202496935058)
(-0.000974695092008 0.00178936308153 1.66500981777e-05)
(-0.000798857239092 0.00194673041179 0.000155513754103)
(-0.000763769688365 0.00191501646486 0.000130896353381)
(-0.00132854719305 0.00168956177207 -7.0836987742e-05)
(-0.00122967782717 0.00186130266959 7.34268630658e-05)
(-0.00118948075248 0.00182845269298 1.00102452731e-05)
(-0.00152641737673 0.00157161655261 -0.000178419644601)
(-0.00151994992336 0.00175910473298 -3.30905054033e-05)
(-0.00147883006897 0.00172320731208 -0.000150471201588)
(-0.00154368443377 0.00143913871308 -0.000297227729868)
(-0.00163920370144 0.00164024380633 -0.00015816117349)
(-0.00160453371177 0.00160023912526 -0.000334122690997)
(-0.00136936400969 0.00130101816521 -0.000410474041658)
(-0.00156506133753 0.0015071754386 -0.000292480867636)
(-0.00155054304998 0.0014627561898 -0.000523714631033)
(-0.00102036677143 0.00117311515296 -0.000488477079942)
(-0.00129256509787 0.0013707230128 -0.000413281311133)
(-0.0013185947659 0.00132223095252 -0.000687692920451)
(-0.000560873249682 0.00107081253367 -0.000474531319185)
(-0.000858936176503 0.00124803102413 -0.000479676373603)
(-0.000941045202782 0.00119683216155 -0.000777685283306)
(-0.000142460571849 0.000992977467475 -0.000298407161738)
(-0.000323534019877 0.00115237191106 -0.000408905208952)
(-0.000469872151143 0.00110278990149 -0.000709467107096)
(-1.20790051779e-05 0.00106660465606 -0.000136487473815)
(-0.000123260775473 0.001029990414 -0.000392155076466)
(0.000249511982952 0.00131088297256 -0.000309355838762)
(6.88150225455e-05 0.00131477241223 -0.000135340527934)
(0.000193441681856 0.00133045648236 -0.000413623516316)
(0.000816620518436 0.00143258517343 -0.000491642597021)
(0.000514855707958 0.00143382513596 -0.000428509063258)
(0.000681537937448 0.00143152582845 -0.000758671890345)
(0.00140972194858 0.00158424774373 -0.000475334872879)
(0.00120925442182 0.00156829075814 -0.000482266062707)
(0.00130197260537 0.00156387023916 -0.000797181580255)
(0.00183501599904 0.00175803422568 -0.000342176398103)
(0.00174954354661 0.00173233278981 -0.000363189946254)
(0.00177974167417 0.00173398972349 -0.00062921644197)
(0.00201375589904 0.00192252118523 -0.000167691504859)
(0.00205253018139 0.00189633451951 -0.000177422055281)
(0.00204189734979 0.00190874911896 -0.000368044959333)
(0.00193760040942 0.00205055277671 3.87941372635e-06)
(0.00207984365793 0.00202972492337 1.52912170961e-05)
(0.00205638356056 0.0020555521135 -8.74279840923e-05)
(0.00163816720223 0.00212993141384 0.000147878707927)
(0.00185823901315 0.00211407634811 0.000181290246044)
(0.00183963119913 0.00215503658902 0.000168501523257)
(0.00117195478453 0.00216188444061 0.00025200096366)
(0.00144023025342 0.00214998988642 0.000307501371207)
(0.00143465529938 0.00220424083847 0.000367229433662)
(0.00060502930179 0.00215476936842 0.000309339630674)
(0.000892786310857 0.00214496696822 0.000385737766684)
(0.000900976888202 0.00220929273111 0.000494974436529)
(3.5351953979e-06 0.00211894332381 0.000318791578361)
(0.000283583996709 0.00211267931685 0.000414801114176)
(0.000303332462926 0.00218228085389 0.00054647997102)
(-0.000571080228835 0.00206254477291 0.000284078769238)
(-0.000323712710941 0.00206381881731 0.000397042322686)
(-0.000295458472177 0.00213352104159 0.000524155688388)
(-0.00106612964908 0.00199024381238 0.000212290518991)
(-0.000872827964865 0.00200456730797 0.00033868017632)
(-0.000839349686459 0.00206965128493 0.000437213521531)
(-0.00143863533456 0.0019036097661 0.000111173345404)
(-0.00131877995508 0.00193625040288 0.000247848991153)
(-0.00128286352721 0.00199287633042 0.000297558858835)
(-0.0016537436439 0.00180199049036 -1.2832034292e-05)
(-0.0016243778157 0.0018571066076 0.000131593363811)
(-0.00158973809455 0.00190264347006 0.000117107249939)
(-0.00168274501066 0.00168435260328 -0.000153414311257)
(-0.00175889432942 0.00176385903844 -5.79499247285e-06)
(-0.00173236292435 0.00179678148058 -9.46131452862e-05)
(-0.00150816315451 0.00155486725801 -0.000295288137112)
(-0.00169507715593 0.00165372578549 -0.000159150938114)
(-0.00168986181665 0.00167485123617 -0.000321131583977)
(-0.00113932259109 0.00142559759765 -0.000404480604794)
(-0.00141893254659 0.00153294547919 -0.000306609071917)
(-0.00145524904456 0.00154433286187 -0.000531062515419)
(-0.000639551616691 0.00131113836408 -0.00041405026337)
(-0.000960608660853 0.00141440460696 -0.000401222164653)
(-0.00105342358938 0.00142054882397 -0.000666144139592)
(-0.000173666268558 0.00120823662918 -0.000246985521029)
(-0.000380881595307 0.00131124643681 -0.000348604234307)
(-0.000536295115043 0.00131974121532 -0.000624759519807)
(-2.97122176421e-05 0.00120261620861 -8.48334152096e-05)
(-0.000144615423017 0.00122750249225 -0.000309677597197)
(0.000304442308521 0.00141607850102 -0.00025449375243)
(9.83076696415e-05 0.0013378495442 -8.61018265762e-05)
(0.000227370347965 0.00142416967734 -0.000327518311512)
(0.00093169604493 0.00154736676281 -0.000419132528943)
(0.000597986357448 0.00146479610365 -0.000364840183184)
(0.000776796768864 0.00153537335717 -0.000658223380186)
(0.00156507989001 0.00169253310514 -0.000370121136081)
(0.00134088962707 0.00159112016919 -0.00039315113575)
(0.00145007220346 0.0016612818043 -0.000656211821682)
(0.00199551315481 0.00184487506907 -0.000198435603431)
(0.00189779839603 0.00173139656526 -0.000238645237376)
(0.00194600659029 0.0018103348785 -0.000429495534611)
(0.00214791269106 0.00197581026072 5.56066667429e-06)
(0.00218270656505 0.0018593711944 -2.31663949725e-05)
(0.00219044052257 0.00195218309569 -0.000115434674085)
(0.00202633190672 0.0020640632443 0.000192702049414)
(0.00216886662291 0.00194933471733 0.000184911075613)
(0.0021635866026 0.00205961489067 0.000201972512515)
(0.00167913513934 0.00210423284897 0.000340912909324)
(0.00190007204494 0.00199143886404 0.000353739030506)
(0.00189797722173 0.00211935250034 0.00046983571467)
(0.00117181621869 0.00210282156011 0.000441238174231)
(0.0014402188154 0.00198993138954 0.000473860163684)
(0.0014481253348 0.00213331727236 0.000667378789677)
(0.000575578772832 0.00207275515825 0.000491199250186)
(0.000863786196877 0.00195654482575 0.000541440470184)
(0.000880877790774 0.00211119463065 0.000784660853335)
(-4.48401504418e-05 0.00202776678967 0.000493051858501)
(0.000239157824271 0.00190951193041 0.000560907162056)
(0.000262098879775 0.00206907968231 0.000823587466153)
(-0.000632076760303 0.00197647207712 0.000451643729768)
(-0.000375018787552 0.00186101744144 0.00053676945555)
(-0.000349287625588 0.00201874074844 0.000790039041643)
(-0.00113781979482 0.00192172998047 0.000374238648483)
(-0.000928127297032 0.00181624085281 0.000475169266678)
(-0.000902151436828 0.00196610363443 0.000694070456587)
(-0.00152219724061 0.0018616990236 0.00026826900956)
(-0.00137977765857 0.00177361292247 0.000383433943742)
(-0.0013551465407 0.00191096731571 0.000547015814426)
(-0.00175143355952 0.0017919715859 0.00013863040563)
(-0.00169532774902 0.00172717993703 0.000267171156822)
(-0.00167447419608 0.00184955549937 0.000359163805326)
(-0.00179480038417 0.00170756961881 -1.15316193298e-05)
(-0.00184375360549 0.00167011647356 0.000128138098653)
(-0.00183238307461 0.00177664177207 0.000137110134148)
(-0.00162722600503 0.00160771665202 -0.000170471872919)
(-0.00179381037691 0.0015963515207 -3.25604032035e-05)
(-0.00180382645058 0.00168829920509 -0.000110199444345)
(-0.00124967112784 0.00149921451645 -0.000303350631775)
(-0.00152247896556 0.00150703944243 -0.000195788675544)
(-0.00157293779939 0.00158752370109 -0.000351648249747)
(-0.000721539335286 0.00139327743457 -0.00033577613559)
(-0.00105133605365 0.00141026325088 -0.000312074932889)
(-0.00115542693818 0.00148439435792 -0.000523989921084)
(-0.000214655573728 0.00128478891275 -0.000186452128487)
(-0.000440763134107 0.00131643511402 -0.000278817344816)
(-0.00060199785119 0.00139203584476 -0.000512071973986)
(-5.31226594758e-05 0.00120408635656 -3.37314808804e-05)
(-0.000168437454667 0.00129325737272 -0.000216125430187)
(0.000358885925446 0.0013648900074 -0.00019644825733)
(0.000127756058833 0.00121645761954 -3.98100179361e-05)
(0.000258534662595 0.00136671094172 -0.000237492635224)
(0.00103376840018 0.00148672557025 -0.000338858789991)
(0.000671182963095 0.00133265850823 -0.000298079802425)
(0.000859220829306 0.00147376761124 -0.000542743308847)
(0.00169193390669 0.00160716475064 -0.000261675237045)
(0.00144581898467 0.00143569172049 -0.00030289457168)
(0.00157075893427 0.00157901403561 -0.000502735390919)
(0.00211552769555 0.00172186323781 -6.33760289178e-05)
(0.00200645109469 0.00153897727559 -0.000122213502874)
(0.00207334854036 0.00169241042946 -0.000231172795585)
(0.00223471079548 0.00180806650363 0.000156184013966)
(0.00226637447585 0.00162224139572 0.000110213394867)
(0.00229380587003 0.00178986494423 0.000117948382503)
(0.00206891022498 0.00185143185967 0.000345948056705)
(0.00221161071857 0.00166727541893 0.000322088202972)
(0.00222527457273 0.00185130177173 0.000447861476783)
(0.00167970819462 0.00185169488517 0.000486686284866)
(0.00190071036711 0.0016694949057 0.000483349991515)
(0.00191530094803 0.00186922134102 0.000711147477016)
(0.00114169073774 0.0018185398315 0.000574062459637)
(0.0014076949442 0.00163596415289 0.000588508461338)
(0.0014287135318 0.00184875964044 0.000891986040121)
(0.00053045855204 0.00176869045855 0.000611148382055)
(0.000814572471244 0.00158042364461 0.0006383279598)
(0.000839543438656 0.00180194966423 0.000987354571965)
(-9.28580643575e-05 0.00171858594919 0.000604624759105)
(0.000189467220671 0.00152409064085 0.000645218554143)
(0.000213933367577 0.00174833870022 0.00100873898597)
(-0.000677701199396 0.00167683858405 0.00056029499246)
(-0.000416660797533 0.00147969777408 0.000616341635883)
(-0.000395589398841 0.0017005026713 0.00096616378042)
(-0.00118218881302 0.00164421595295 0.000484364561938)
(-0.000960959733635 0.00145121691889 0.000557193857866)
(-0.000944889673732 0.00166329891048 0.000869512445675)
(-0.00157053642459 0.00161525007007 0.000382336091004)
(-0.00140916269209 0.00143471896539 0.000472594811689)
(-0.00139807159741 0.00163400105776 0.000727242404086)
(-0.00181000768761 0.00158176623973 0.000256678849844)
(-0.0017292897946 0.0014206815836 0.000364684842821)
(-0.00172392464901 0.00160542398075 0.000545970400309)
(-0.00186740326115 0.00153583452902 0.00010710931478)
(-0.00188927682852 0.00139977495844 0.000232330439971)
(-0.00189412988997 0.00156960536821 0.000327737825772)
(-0.0017116458513 0.00147334576301 -5.78772058282e-05)
(-0.00185421576593 0.00136383268401 7.3010804764e-05)
(-0.00187967693093 0.00152005162774 7.67621158073e-05)
(-0.00133488328583 0.00139667289438 -0.000204512976658)
(-0.00159315674454 0.00131084342656 -9.63446987621e-05)
(-0.0016569245985 0.00145633890181 -0.000180565914747)
(-0.000791401113138 0.00131274261021 -0.000255116142116)
(-0.00111953237761 0.00124455724607 -0.000226769531765)
(-0.00123299682319 0.00138343056033 -0.000377775587556)
(-0.00025462668854 0.00121515527164 -0.000126096697209)
(-0.000491959123358 0.00117154518517 -0.000210543252242)
(-0.000655924025096 0.00130984160804 -0.000391883954625)
(-7.59802572941e-05 0.00107276325667 1.24039094777e-05)
(-0.000189578148497 0.00121792343773 -0.000123303252245)
(0.000404710036099 0.00116540190264 -0.000141441563031)
(0.000151999433486 0.000965179167934 -3.44705200301e-07)
(0.000283261928536 0.0011642464224 -0.000153430009426)
(0.00111171663853 0.00126318390795 -0.000262115584114)
(0.000725759585418 0.00105559975104 -0.000237625687299)
(0.000920500348198 0.00125371572368 -0.000429946066091)
(0.00178041826493 0.00134899927742 -0.000163432837508)
(0.00151676019536 0.00112632012836 -0.000223741515192)
(0.00165499788902 0.00132981987708 -0.000359328182063)
(0.00218968130687 0.00142063184762 5.1375920911e-05)
(0.0020717763648 0.00118891865366 -2.66153132407e-05)
(0.00215513127398 0.00140257984488 -5.92025739252e-05)
(0.00227534327201 0.00146247100858 0.000276117583873)
(0.00230533918974 0.00122828227843 0.000214034727667)
(0.00234982491999 0.00145534707796 0.000308298921435)
(0.00206993142804 0.0014665262694 0.000459490137782)
(0.00221488599148 0.00123529682494 0.000422224790329)
(0.0022438793094 0.0014751719036 0.000637392069514)
(0.0016468177512 0.0014353736915 0.000585172167986)
(0.00186957422731 0.00120864311719 0.000570356014927)
(0.00189689097502 0.00145880571503 0.000883966921465)
(0.0010887881597 0.00137993133516 0.000652773961501)
(0.00135262869494 0.0011560499437 0.00065554036482)
(0.00138284903959 0.00141299401226 0.00103794507396)
(0.000475650246625 0.00131835544331 0.000672398131888)
(0.000753470236243 0.00109078722796 0.00068276916054)
(0.000783000631552 0.00135004983074 0.00110277543912)
(-0.000136836408095 0.00126810205589 0.000656935430921)
(0.000139622854115 0.00103350611165 0.00067514845666)
(0.000163339285055 0.00129124698382 0.001103072163)
(-0.00070665059014 0.00123719744769 0.000613240501289)
(-0.00044732000112 0.000995821930342 0.000642981827509)
(-0.000431938345928 0.00124885289323 0.0010536909098)
(-0.00119980479008 0.00122486508998 0.000545424107617)
(-0.000973286294475 0.000980564368647 0.000591004418106)
(-0.000966937494092 0.00122667334134 0.000963807568048)
(-0.00158524827025 0.00122316281693 0.000454943563506)
(-0.0014110823889 0.000983308878258 0.0005200915178)
(-0.00141222225297 0.0012204235995 0.000836854339518)
(-0.00183104113615 0.00122147621648 0.000340336432948)
(-0.00173126002076 0.000993457189515 0.000426454704662)
(-0.00173915183373 0.0012205136904 0.000673018000022)
(-0.00190123602069 0.00121038294418 0.000198231929956)
(-0.0018999702458 0.00100090609318 0.000305563408943)
(-0.00191830172828 0.00121737553382 0.000469064464565)
(-0.00175922213647 0.00118400657073 3.45433118301e-05)
(-0.00187869566354 0.000997185812682 0.000152406944879)
(-0.00191687029787 0.00120320007959 0.000224633676131)
(-0.00138955803123 0.00114150712255 -0.000118601253869)
(-0.00163021874315 0.000978364606481 -1.78977892345e-05)
(-0.00170466755444 0.00117499858013 -3.71846295935e-05)
(-0.000841695457374 0.00108610588783 -0.000182196641891)
(-0.00116126492727 0.000944110853405 -0.000155895139273)
(-0.00128171201264 0.00113417988141 -0.000247415564105)
(-0.000287146863294 0.00101160896862 -7.20426455547e-05)
(-0.000527981937144 0.000898479762534 -0.00015270453175)
(-0.000693117849002 0.00108485435251 -0.000281482585844)
(-9.39895032548e-05 0.000827292187693 4.94381710774e-05)
(-0.000205430951241 0.00101172925088 -4.167543296e-05)
(0.000436290268566 0.000841612283589 -9.65288294686e-05)
(0.000167556110684 0.000614742343969 2.76874249791e-05)
(0.000298905889399 0.000839733443844 -8.58517029501e-05)
(0.00116052663976 0.000905443557601 -0.000199251618376)
(0.000757413668771 0.000667983153358 -0.000192421024848)
(0.000957481164393 0.000901274331592 -0.000336617837595)
(0.00182972373787 0.000952938834785 -8.69239909244e-05)
(0.0015523301011 0.000701916467707 -0.000165912810784)
(0.00170156600561 0.000944803228874 -0.00024479145663)
(0.00222080795328 0.000983620748684 0.000136043493515)
(0.0020970778346 0.000723705283708 3.95118520478e-05)
(0.00219368560016 0.000978390188331 7.41310852205e-05)
(0.00227761053287 0.000989035401555 0.000360141934123)
(0.00230813099948 0.000726456264099 0.000282474933305)
(0.00236497941136 0.000992883287244 0.000445025235151)
(0.0020408156717 0.000966251814318 0.000533090667474)
(0.0021912810118 0.00070677753958 0.000484387697837)
(0.00222907040725 0.000981845406385 0.000765315756115)
(0.00159311887098 0.000919093151699 0.000640724211761)
(0.00182230411104 0.000666020438135 0.000619335043918)
(0.00185423596802 0.00094502333183 0.000990320871028)
(0.001024431921 0.000857505694122 0.000685535563859)
(0.00129134617324 0.000611006584833 0.000685922265479)
(0.00132178757192 0.000889139635402 0.00111373149086)
(0.000418875151034 0.00079721174611 0.000685519485311)
(0.000693631489894 0.000552136157437 0.000692515057278)
(0.000720151173311 0.00082482500776 0.00114420884957)
(-0.000173972606715 0.000753002691024 0.000661194853247)
(9.58671999231e-05 0.000504096328843 0.000672186282939)
(0.000115213983292 0.000770357675226 0.00112225842375)
(-0.000720936256524 0.000731308795489 0.000620745744326)
(-0.000468677909237 0.000474940236044 0.000637757720487)
(-0.000458018208759 0.000735717665172 0.0010678461443)
(-0.00119635290066 0.000731180069228 0.000565671828289)
(-0.000973297312658 0.000466610389446 0.000593440287373)
(-0.000971897519664 0.000723798964401 0.000989371372159)
(-0.00157403857758 0.000745371965591 0.000491602658955)
(-0.00139701157875 0.000476832333312 0.000536476937101)
(-0.0014037785454 0.000730991774158 0.000884162940452)
(-0.00182241624516 0.000763855963151 0.000391681680656)
(-0.00171294602175 0.000498214268035 0.000457135831144)
(-0.00172748661679 0.000748531257482 0.000743621291335)
(-0.00190267907887 0.000777733580475 0.000259738423866)
(-0.00188586426755 0.000522411198053 0.000347603699215)
(-0.0019120362765 0.000767299804459 0.00055875842234)
(-0.0017734723915 0.000780623754801 9.99658438141e-05)
(-0.00187449906481 0.000542079332052 0.000201340177318)
(-0.00192127031078 0.000779629209031 0.000325900477049)
(-0.00141453568404 0.000769475818712 -5.51916746389e-05)
(-0.00163744399025 0.000551495208724 3.23930674375e-05)
(-0.00171990620248 0.000780721218498 6.79333541505e-05)
(-0.000869524268256 0.000744687363662 -0.000126403029132)