/*--------------------------------*- C++ -*----------------------------------*\
| =========                 |                                                 |
| \\      /  F ield         | OpenFOAM: The Open Source CFD Toolbox           |
|  \\    /   O peration     | Version:  3.0.1                                 |
|   \\  /    A nd           | Web:      www.OpenFOAM.org                      |
|    \\/     M anipulation  |                                                 |
\*---------------------------------------------------------------------------*/
FoamFile
{
    version     2.0;
    format      ascii;
    class       surfaceScalarField;
    location    "2.8";
    object      alphaPhi;
}
// * * * * * * * * * * * * * * * * * * * * * * * * * * * * * * * * * * * * * //

dimensions      [0 3 -1 0 0 0 0];

internalField   nonuniform List<scalar> 
22672
(
5.17971719618e-06
5.19684117932e-06
-1.03765633012e-05
1.19362078963e-05
3.91530060493e-06
-1.06719093442e-05
1.83735796813e-05
3.56759236479e-06
-1.00051172358e-05
2.29508879948e-05
4.16561879579e-06
-8.74321326548e-06
2.47718675774e-05
5.60706631829e-06
-7.42815645733e-06
2.36523995391e-05
7.49789170339e-06
-6.37841263982e-06
2.00491515098e-05
9.31062757979e-06
-5.70736295114e-06
1.44148689765e-05
1.09461033984e-05
-5.31167391312e-06
7.50077168198e-06
1.20999183866e-05
-5.18591113699e-06
-5.52078548829e-09
1.26851655119e-05
-5.17884795133e-06
-7.51270082688e-06
1.2685962837e-05
-5.17881812255e-06
-1.44291904971e-05
1.21024112661e-05
-5.18601535898e-06
-2.00667145845e-05
1.09499981214e-05
-5.31253412575e-06
-2.36727060471e-05
9.31540409225e-06
-5.70949392075e-06
-2.47936044337e-05
7.50267494756e-06
-6.38184235762e-06
-2.29711165085e-05
5.61095702471e-06
-7.43352818865e-06
-1.83899704252e-05
4.16856597322e-06
-8.74981610367e-06
-1.19477142425e-05
3.57061392946e-06
-1.00130293014e-05
-5.18477973993e-06
3.91988665379e-06
-1.06830184214e-05
5.20433297979e-06
-1.03891124538e-05
3.902441618e-06
1.19634480496e-05
-1.06692304401e-05
1.17141285524e-05
1.17294656202e-05
-1.56259195654e-05
1.95779993686e-05
1.25763677934e-05
-1.68729782222e-05
2.51222340968e-05
1.48723149811e-05
-1.62511997235e-05
2.73708248118e-05
1.84034953825e-05
-1.50451239694e-05
2.62233402943e-05
2.24932275818e-05
-1.38478379777e-05
2.21310077276e-05
2.63485468286e-05
-1.29453933424e-05
1.58458660442e-05
2.96363150825e-05
-1.2405218399e-05
8.21965070957e-06
3.19366419747e-05
-1.22105063636e-05
-4.42955239545e-09
3.30978571632e-05
-1.21888454759e-05
-8.22929308177e-06
3.30989910257e-05
-1.2188025884e-05
-1.58577967124e-05
3.19393183059e-05
-1.22084949049e-05
-2.21461594779e-05
2.96406584884e-05
-1.24024012595e-05
-2.62419117093e-05
2.63537582278e-05
-1.29426314312e-05
-2.73913968484e-05
2.24984705474e-05
-1.38462581217e-05
-2.5141678406e-05
1.84076792613e-05
-1.50465372596e-05
-1.95931485442e-05
1.48757512436e-05
-1.6255821994e-05
-1.17233459419e-05
1.25808669764e-05
-1.68803167385e-05
-3.90528293765e-06
1.17376920793e-05
-1.5635859947e-05
1.19783702665e-05
-1.06794399235e-05
3.55916676541e-06
1.84024158967e-05
-9.99817305488e-06
1.25714144016e-05
1.95873879884e-05
-1.68705162728e-05
2.18696892538e-05
2.18628381831e-05
-1.85850292244e-05
2.84354521423e-05
2.59168699623e-05
-1.76106057269e-05
3.11302566803e-05
3.13969856135e-05
-1.56883730136e-05
2.98375803759e-05
3.74520623939e-05
-1.36660367695e-05
2.51146209606e-05
4.30920291452e-05
-1.20206164094e-05
1.79195275871e-05
4.77847652136e-05
-1.09534576156e-05
9.27006072458e-06
5.10488372259e-05
-1.04631481735e-05
-1.24860957408e-09
5.26922835863e-05
-1.03231409764e-05
-9.27347860314e-06
5.26926364043e-05
-1.03215064916e-05
-1.79253348928e-05
5.10499919669e-05
-1.0458697766e-05
-2.51244692811e-05
4.77860761064e-05
-1.09465011446e-05
-2.98521119961e-05
4.30935143721e-05
-1.20121403279e-05
-3.11484467323e-05
3.74532996598e-05
-1.36585050664e-05
-2.84539266165e-05
3.13977653049e-05
-1.56844914e-05
-2.18849242973e-05
2.59178702854e-05
-1.76113942653e-05
-1.25808003757e-05
2.18664852246e-05
-1.85897475682e-05
-3.56239122418e-06
1.95967994719e-05
-1.68778128818e-05
1.84215713686e-05
-1.00055999677e-05
4.16006568035e-06
2.29733220694e-05
-8.73114511494e-06
1.48743766967e-05
2.51199757406e-05
-1.62470909795e-05
2.59352671363e-05
2.84125539511e-05
-1.76109017482e-05
3.3743265119e-05
3.37038579463e-05
-1.55954924071e-05
3.69059722486e-05
4.05231048027e-05
-1.22888082542e-05
3.5270347574e-05
4.78985499257e-05
-8.81078141806e-06
2.95664210815e-05
5.46852331262e-05
-5.88926484412e-06
2.09936942617e-05
6.02578092696e-05
-3.90076560692e-06
1.08173631349e-05
6.41171583296e-05
-2.89193284893e-06
8.75684167739e-10
6.60615763849e-05
-2.55308251087e-06
-1.08163306287e-05
6.60607055699e-05
-2.5507625702e-06
-2.09951062619e-05
6.41138090935e-05
-2.88505813741e-06
-2.95722225375e-05
6.02526460773e-05
-3.88939876076e-06
-3.52821925464e-05
5.46782035946e-05
-5.87504478101e-06
-3.69230409593e-05
4.7891302387e-05
-8.79697538253e-06
-3.37622190268e-05
4.0516174621e-05
-1.22793898208e-05
-2.59515643491e-05
3.36989783925e-05
-1.55917073882e-05
-1.48853405914e-05
2.84119937728e-05
-1.76121746405e-05
-4.16460872004e-06
2.51275879511e-05
-1.62515342795e-05
2.29933369087e-05
-8.73656117819e-06
5.60257868887e-06
2.47832757044e-05
-7.41261280449e-06
1.8407552551e-05
2.73567887349e-05
-1.50418412621e-05
3.14196884192e-05
3.109317129e-05
-1.56931963223e-05
4.05715472128e-05
3.68476055505e-05
-1.22958099516e-05
4.41858423927e-05
4.41120322639e-05
-7.20330192434e-06
4.20579850587e-05
5.18507980721e-05
-1.82420873293e-06
3.51171148047e-05
5.88725935165e-05
2.75339178198e-06
2.48288525371e-05
6.46132457774e-05
5.93289893765e-06
1.27560322161e-05
6.85728801538e-05
7.6168403509e-06
1.19032352527e-09
7.05623273059e-05
8.25437989616e-06
-1.27545730863e-05
7.05593415575e-05
8.2570660424e-06
-2.48297227504e-05
6.85641376789e-05
7.62485333949e-06
-3.51226902434e-05
6.45991105706e-05
5.94628270257e-06
-4.20691771191e-05
5.88547296312e-05
2.77015821499e-06
-4.42030473497e-05
5.18308445947e-05
-1.80615400732e-06
-4.05908005449e-05
4.4093978719e-05
-7.18961668975e-06
-3.14374733266e-05
3.68329982789e-05
-1.22878537659e-05
-1.84201041418e-05
3.10853599322e-05
-1.56907188688e-05
-5.60875088423e-06
2.73589817417e-05
-1.50431688881e-05
2.47998503783e-05
-7.41516810495e-06
7.4904059987e-06
2.36552434599e-05
-6.36239484432e-06
2.24923262194e-05
2.62033865977e-05
-1.38488247075e-05
3.74695644826e-05
2.97967776603e-05
-1.36808820603e-05
4.7943936664e-05
3.52080463187e-05
-8.83508328803e-06
5.19267714102e-05
4.19786216908e-05
-1.84912468865e-06
4.91929074154e-05
4.9109782049e-05
5.47501547074e-06
4.09063931822e-05
5.55022512222e-05
1.16571140417e-05
2.88217685306e-05
6.07689365686e-05
1.59289078065e-05
1.47724705934e-05
6.43937246829e-05
1.82286998516e-05
-1.13242068012e-09
6.619755036e-05
1.91383196361e-05
-1.47750971536e-05
6.61932667243e-05
1.91400706943e-05
-2.88256483307e-05
6.43804299798e-05
1.8234320748e-05
-4.09136686143e-05
6.07472460903e-05
1.59399796079e-05
-4.92051765122e-05
5.54739490148e-05
1.16720489059e-05
-5.19429673952e-05
4.90776915497e-05
5.49158625473e-06
-4.79632431775e-05
4.19465899687e-05
-1.83281466703e-06
-3.74871466e-05
3.51813910362e-05
-8.82410747941e-06
-2.25055652271e-05
2.97786840252e-05
-1.36756023052e-05
-7.49704344765e-06
2.61975041184e-05
-1.38470448009e-05
2.36647412732e-05
-6.36223316765e-06
9.30091950127e-06
2.00457630126e-05
-5.69156904111e-06
2.63414534046e-05
2.21152693166e-05
-1.29522723179e-05
4.3100974448e-05
2.50857981112e-05
-1.20489525315e-05
5.47245330181e-05
2.95224232674e-05
-5.93760974846e-06
5.89472647355e-05
3.50591919788e-05
2.69662218971e-06
5.5585159627e-05
4.0847804148e-05
1.16247704539e-05
4.60316533756e-05
4.59795115157e-05
1.90758991467e-05
3.22967718789e-05
5.02427532686e-05
2.42606923064e-05
1.64982842993e-05
5.31086333706e-05
2.70835337156e-05
-5.49609853611e-09
5.44960195155e-05
2.82055678618e-05
-1.65095628296e-05
5.44911256713e-05
2.82059601217e-05
-3.23086442445e-05
5.30936302192e-05
2.70857409759e-05
-4.60449663207e-05
5.02164445148e-05
2.426712119e-05
-5.56011119796e-05
4.59434129695e-05
1.90868569696e-05
-5.89655334237e-05
4.08051459775e-05
1.16368201433e-05
-5.47425296289e-05
3.5015407812e-05
2.70912765902e-06
-4.31177268102e-05
2.94836843359e-05
-5.92756899675e-06
-2.63534052895e-05
2.50575945148e-05
-1.20430579807e-05
-9.30749243137e-06
2.20999141247e-05
-1.2948870479e-05
2.00462102955e-05
-5.688896578e-06
1.09343957157e-05
1.44069734002e-05
-5.29547800168e-06
2.96241834505e-05
1.58410504267e-05
-1.24159163188e-05
4.77868899259e-05
1.79144420909e-05
-1.09910387235e-05
6.02923428845e-05
2.09842204911e-05
-3.96762403463e-06
6.46921010043e-05
2.48107143532e-05
5.84908551158e-06
6.08615320518e-05
2.88031314392e-05
1.58748890503e-05
5.02995993475e-05
3.2285199746e-05
2.42563189099e-05
3.52199061544e-05
3.52073048897e-05
3.01149149077e-05
1.79784342791e-05
3.71398309972e-05
3.32102620717e-05
-1.16704862395e-08
3.80669383213e-05
3.44190714632e-05
-1.80013234276e-05
3.80612064084e-05
3.44195953331e-05
-3.52424583082e-05
3.71219846131e-05
3.32125763598e-05
-5.03238480127e-05
3.51758948344e-05
3.01218536028e-05
-6.08865323049e-05
3.22437693706e-05
2.42621645872e-05
-6.47141878943e-05
2.87543768868e-05
1.58791443729e-05
-6.03107193199e-05
2.47589894621e-05
5.85288546632e-06
-4.78008060133e-05
2.09378227507e-05
-3.96343352715e-06
-2.9634116855e-05
1.7878283419e-05
-1.09878829241e-05
-1.09395428351e-05
1.58178827017e-05
-1.24125065688e-05
1.43980251032e-05
-5.29167811647e-06
1.20876587583e-05
7.48639169163e-06
-5.16723606694e-06
3.19224230814e-05
8.22580262895e-06
-1.22193691726e-05
5.10460466315e-05
9.29011410355e-06
-1.04996385746e-05
6.41462042721e-05
1.08449576477e-05
-2.96084246836e-06
6.86525041515e-05
1.27796389192e-05
7.52425072787e-06
6.44951225626e-05
1.47912972742e-05
1.81694836354e-05
5.31712719947e-05
1.65134347598e-05
2.70953078064e-05
3.71538211965e-05
1.79879165557e-05
3.32368887858e-05
1.89100583211e-05
1.89182845021e-05
3.64652175806e-05
-1.69754682728e-08
1.93615375723e-05
3.76324768595e-05
-1.89458773678e-05
1.93544101024e-05
3.76355336886e-05
-3.71912801181e-05
1.88971489631e-05
3.6470271476e-05
-5.32087418999e-05
1.79542003405e-05
3.32387330603e-05
-6.45290116657e-05
1.64704799199e-05
2.70936278257e-05
-6.86800835272e-05
1.47412746141e-05
1.81641192143e-05
-6.41638473255e-05
1.27269046551e-05
7.51684147949e-06
-5.10572527578e-05
1.07969351628e-05
-2.96583605524e-06
-3.19284484023e-05
9.25133185477e-06
-1.05016080097e-05
-1.20908940721e-05
8.19815233715e-06
-1.22181717474e-05
7.4704362523e-06
-5.16332939644e-06
1.26734460843e-05
-3.04258832815e-08
-5.15659022443e-06
3.30834540196e-05
7.36060283523e-09
-1.21917402491e-05
5.26867132236e-05
3.69010322261e-08
-1.03499150434e-05
6.6081659218e-05
5.48358293857e-08
-2.60520255225e-06
7.06309208788e-05
5.83961025872e-08
8.17221120582e-06
6.62893805103e-05
4.86538551506e-08
1.9083795669e-05
5.45535190203e-05
3.21120855864e-08
2.82173459272e-05
3.80817784763e-05
1.28976641278e-08
3.44465808518e-05
1.9356704651e-05
-7.43758698941e-10
3.76442316992e-05
-2.54216663364e-08
-1.33316663293e-08
3.87569576393e-05
-1.94074434639e-05
-1.9865688143e-08
3.87563753546e-05
-3.81311291179e-05
-2.09747531736e-08
3.76416691442e-05
-5.46002212424e-05
-1.72757769865e-08
3.44405726091e-05
-6.63308954008e-05
-6.6733435461e-09
2.82074782777e-05
-7.06616429081e-05
3.76591010967e-09
1.90684111908e-05
-6.60988521577e-05
1.18685612692e-08
8.15224929359e-06
-5.26939063244e-05
1.22635980912e-08
-2.6196122977e-06
-3.30857569871e-05
1.57830392419e-09
-1.0358560875e-05
-1.26741036745e-05
-1.93702267734e-08
-1.21939724132e-05
-4.95427198148e-08
-5.15426702617e-06
1.26746421382e-05
-7.55000476136e-06
-5.15515941543e-06
3.30833531222e-05
-8.21529394998e-06
-1.21859816962e-05
5.26828164913e-05
-9.22335076553e-06
-1.03393719125e-05
6.60729155047e-05
-1.07436451912e-05
-2.59115873989e-06
7.06160870263e-05
-1.26726991769e-05
8.1877092112e-06
6.62726849741e-05
-1.47033788265e-05
1.90952930879e-05
5.45392462586e-05
-1.64581967279e-05
2.82233459576e-05
3.80708104562e-05
-1.79691574808e-05
3.44505808068e-05
1.93472141609e-05
-1.89297319086e-05
3.76524133229e-05
-3.30049783899e-08
-1.9396804683e-05
3.87637360975e-05
-1.94120293593e-05
-1.94009790128e-05
3.87601287859e-05
-3.81308649675e-05
-1.89424255932e-05
3.76402304554e-05
-5.45935303208e-05
-1.79889957851e-05
3.44343857484e-05
-6.63186967737e-05
-1.64857384053e-05
2.82039490931e-05
-7.06482010647e-05
-1.47354766906e-05
1.90687810291e-05
-6.60870163239e-05
-1.27051581448e-05
8.15598694657e-06
-5.2686109924e-05
-1.07742061024e-05
-2.6143125324e-06
-3.30814799325e-05
-9.2488901716e-06
-1.03541449636e-05
-1.26728495107e-05
-8.23638365673e-06
-1.21916286521e-05
-7.56783746998e-06
-5.15455598049e-06
1.20906111286e-05
-1.44768680254e-05
-5.16369049338e-06
3.19214068624e-05
-1.58428542491e-05
-1.22034590989e-05
5.1035322613e-05
-1.78666562668e-05
-1.04702129391e-05
6.41172547269e-05
-2.09071669461e-05
-2.91868337581e-06
6.86062147908e-05
-2.47282671965e-05
7.5670096703e-06
6.44401190025e-05
-2.87357978069e-05
1.81982448923e-05
5.31219211122e-05
-3.22459621741e-05
2.71061928387e-05
3.71137191588e-05
-3.51972550261e-05
3.32360142549e-05
1.88793391084e-05
-3.71588885727e-05
3.64637326564e-05
-3.66513640284e-08
-3.81049950078e-05
3.76241530599e-05
-1.89517525731e-05
-3.81067466415e-05
3.76208422632e-05
-3.71819202887e-05
-3.71626937674e-05
3.64504791164e-05
-5.31836864994e-05
-3.52036696928e-05
3.32162157224e-05
-6.44905769347e-05
-3.22573998419e-05
2.70786418071e-05
-6.86390590091e-05
-2.87491590556e-05
1.81620795225e-05
-6.41292224634e-05
-2.47404719086e-05
7.52611680859e-06
-5.10336244139e-05
-2.09189376152e-05
-2.9509116504e-06
-3.19153192465e-05
-1.78776464309e-05
-1.04894042581e-05
-1.20863853959e-05
-1.58540167831e-05
-1.22115631034e-05
-1.44897725578e-05
-5.16448463159e-06
1.09370537361e-05
-2.01224802197e-05
-5.29166628857e-06
2.96206161458e-05
-2.21327635742e-05
-1.23935913346e-05
4.77662918769e-05
-2.50629110885e-05
-1.09499832826e-05
6.02447906188e-05
-2.9475661358e-05
-3.90929215288e-06
6.46168469564e-05
-3.50066031654e-05
5.90630629739e-06
6.077448431e-05
-4.08023480954e-05
1.5909261555e-05
5.02188158594e-05
-4.59534726266e-05
2.42630528031e-05
3.51515300027e-05
-5.02387677837e-05
3.01088438813e-05
1.79277461506e-05
-5.31252508173e-05
3.31900036631e-05
-3.81726380293e-08
-5.45230858161e-05
3.43842100972e-05
-1.80028888127e-05
-5.45225814365e-05
3.43804021087e-05
-3.5221968034e-05
-5.31216391117e-05
3.31780352392e-05
-5.02828693563e-05
-5.02332099149e-05
3.00905461335e-05
-6.08261732194e-05
-4.5947147885e-05
2.4232699952e-05
-6.4648758431e-05
-4.07947969599e-05
1.586865559e-05
-6.02544210479e-05
-3.49969235357e-05
5.86205031231e-06
-4.77620051695e-05
-2.94674569196e-05
-3.9435887235e-06
-2.96119568537e-05
-2.50579661195e-05
-1.09701055348e-05
-1.09314978146e-05
-2.213245867e-05
-1.24021644475e-05
-2.01284217133e-05
-5.29301824979e-06
9.30189820355e-06
-2.37349067441e-05
-5.68953458016e-06
2.63329377781e-05
-2.6235080522e-05
-1.2929015363e-05
4.30718176377e-05
-2.97966327544e-05
-1.2005238084e-05
5.46618092146e-05
-3.51896165617e-05
-5.87669661968e-06
5.88524767528e-05
-4.19521662789e-05
2.7557004893e-06
5.54755487107e-05
-4.90831229152e-05
1.16576620106e-05
4.5930807715e-05
-5.54841021165e-05
1.90756392423e-05
3.22148430442e-05
-6.07647496159e-05
2.42407949651e-05
1.64387640539e-05
-6.4400859552e-05
2.70519799597e-05
-3.67694116553e-08
-6.62092592613e-05
2.81612753205e-05
-1.65113800873e-05
-6.62057181013e-05
2.81577988071e-05
-3.22840881698e-05
-6.43905435309e-05
2.70416605192e-05
-4.59929962804e-05
-6.07484751591e-05
2.42236341087e-05
-5.55252464652e-05
-5.54633088731e-05
1.90482336727e-05
-5.88822330767e-05
-4.90576742159e-05
1.16197248224e-05
-5.46701065258e-05
-4.19241330721e-05
2.71579533692e-06
-4.30664423202e-05
-3.51648093356e-05
-5.906759497e-06
-2.6323794274e-05
-2.97784966389e-05
-1.20221319573e-05
-9.29599263364e-06
-2.62251737244e-05
-1.29354114443e-05
-2.37344062383e-05
-5.68990103067e-06
7.48911989136e-06
-2.48605986635e-05
-6.36348476202e-06
2.24783000206e-05
-2.73954947395e-05
-1.38289925561e-05
3.74324647807e-05
-3.11083663108e-05
-1.36428111302e-05
4.78739561158e-05
-3.68491929062e-05
-8.78193804846e-06
5.18220985968e-05
-4.4105399147e-05
-1.79546285678e-06
4.9072266477e-05
-5.18360112396e-05
5.50372507932e-06
4.0791968072e-05
-5.8856705475e-05
1.16528395696e-05
2.87281096686e-05
-6.46001105332e-05
1.58995218941e-05
1.47067338218e-05
-6.85620518581e-05
1.81824792189e-05
-3.45471835824e-08
-7.05493928775e-05
1.90815510873e-05
-1.47746697144e-05
-7.0544741593e-05
1.90788231072e-05
-2.87922056192e-05
-6.85479844478e-05
1.81748606707e-05
-4.08487322861e-05
-6.45779779244e-05
1.58861726296e-05
-4.91160049651e-05
-5.88271929549e-05
1.16309124382e-05
-5.18476308626e-05
-5.18005851845e-05
5.47498965141e-06
-4.78809116809e-05
-4.40674841639e-05
-1.82348597281e-06
-3.74281019293e-05
-3.68158576228e-05
-8.80138532077e-06
-2.24707566957e-05
-3.10836283117e-05
-1.36526709131e-05
-7.48399415774e-06
-2.73803733127e-05
-1.38314072e-05
-2.48562679939e-05
-6.36228162833e-06
5.59616523968e-06
-2.30388797393e-05
-7.41769239878e-06
1.83865445897e-05
-2.51585880408e-05
-1.50273047206e-05
3.13762990717e-05
-2.84349801221e-05
-1.56636559842e-05
4.04982601826e-05
-3.37169059361e-05
-1.22546890611e-05
4.40825176887e-05
-4.05278048027e-05
-7.16186247083e-06
4.19376783098e-05
-4.78923047329e-05
-1.79950025042e-06
3.50016725116e-05
-5.46688985906e-05
2.74914799206e-06
2.47332027005e-05
-6.02353111128e-05
5.90356936437e-06
1.26898501096e-05
-6.40882015873e-05
7.5697333385e-06
-3.11889833203e-08
-6.60265719591e-05
8.19808290163e-06
-1.27508935918e-05
-6.60216897186e-05
8.19669122681e-06
-2.47902374257e-05
-6.40738749663e-05
7.56524815972e-06
-3.50511843903e-05
-6.02126482099e-05
5.89531950739e-06
-4.1975157229e-05
-5.4638979202e-05
2.73600229871e-06
-4.41042656656e-05
-4.7856784547e-05
-1.81478892043e-06
-4.05055248535e-05
-4.04908902792e-05
-7.17470862579e-06
-3.13749972893e-05
-3.36851222706e-05
-1.22617414649e-05
-1.83818737247e-05
-2.84112047408e-05
-1.56655351642e-05
-5.59285751931e-06
-2.51442411411e-05
-1.50254913894e-05
-2.30342247692e-05
-7.4148234493e-06
4.14966285525e-06
-1.84523397558e-05
-8.73625147371e-06
1.48475900633e-05
-1.96200041892e-05
-1.62361605212e-05
2.58883183271e-05
-2.18862650112e-05
-1.75897408556e-05
3.36724946152e-05
-2.5935136724e-05
-1.55665758492e-05
3.68120531666e-05
-3.14095626621e-05
-1.22580326718e-05
3.51633604744e-05
-3.74548566804e-05
-8.78885599123e-06
2.94630244626e-05
-4.3083789784e-05
-5.88539027565e-06
2.09088862562e-05
-4.77664127156e-05
-3.9140727475e-06
1.07591688415e-05
-5.10226545239e-05
-2.91585434714e-06
-2.83183122774e-08
-5.26597356842e-05
-2.57910568812e-06
-1.08141695575e-05
-5.26559075253e-05
-2.57988153666e-06
-2.09591687377e-05
-5.1011048387e-05
-2.91802588533e-06
-2.95057373952e-05
-4.77482428327e-05
-3.91766698985e-06
-3.51949006016e-05
-4.30595952967e-05
-5.89052179268e-06
-3.68306452892e-05
-3.74268023061e-05
-8.79360556827e-06
-3.36804378427e-05
-3.13816739766e-05
-1.22597532151e-05
-2.58890057339e-05
-2.59113548558e-05
-1.55652146766e-05
-1.48453836159e-05
-2.1869059307e-05
-1.75861809763e-05
-4.14771692609e-06
-1.96104432711e-05
-1.62315566228e-05
-1.84494561731e-05
-8.7328348882e-06
3.54582347893e-06
-1.19963058443e-05
-1.00020068187e-05
1.2541259042e-05
-1.17533138167e-05
-1.68622065992e-05
2.18224762646e-05
-1.25963869592e-05
-1.85707291627e-05
2.83705675563e-05
-1.48908718103e-05
-1.75926877227e-05
3.10495747518e-05
-1.84198045553e-05
-1.56690766717e-05
2.9748392505e-05
-2.25035848801e-05
-1.36502028041e-05
2.50287521322e-05
-2.63512675104e-05
-1.2012913381e-05
1.7847812589e-05
-2.96314445673e-05
-1.09545586757e-05
9.21996366821e-06
-3.19249560045e-05
-1.04694636032e-05
-2.66208504108e-08
-3.30815894767e-05
-1.03316202983e-05
-9.27107215411e-06
-3.30788731064e-05
-1.03324742909e-05
-1.78934975743e-05
-3.19175048515e-05
-1.0471136075e-05
-2.5066014775e-05
-2.96196904199e-05
-1.09562642185e-05
-2.97750556586e-05
-2.63362171274e-05
-1.20139027424e-05
-3.10653281356e-05
-2.24869923697e-05
-1.36497085316e-05
-2.83771427911e-05
-1.84036805131e-05
-1.56660949243e-05
-2.18231365227e-05
-1.4877933871e-05
-1.75878234598e-05
-1.25394400784e-05
-1.25878795081e-05
-1.85650873526e-05
-3.54395536046e-06
-1.1749554811e-05
-1.68568593602e-05
-1.1995359227e-05
-9.99817393899e-06
3.88887656719e-06
-5.21225669315e-06
-1.06728981868e-05
1.16855054698e-05
-3.92837012642e-06
-1.56216860939e-05
1.95353644819e-05
-3.58058168315e-06
-1.68657855144e-05
2.50672376676e-05
-4.17929707483e-06
-1.62432748909e-05
2.73054409018e-05
-5.62108379101e-06
-1.50370194732e-05
2.61523574931e-05
-7.50978329075e-06
-1.38408410092e-05
2.20623423196e-05
-9.31946896124e-06
-1.29419176411e-05
1.57878488517e-05
-1.09510619935e-05
-1.24060751631e-05
8.17804870899e-06
-1.21012553683e-05
-1.22141350524e-05
-2.60009421789e-08
-1.26835354759e-05
-1.2193838116e-05
-8.22767656727e-06
-1.26824976173e-05
-1.21947702501e-05
-1.5830954797e-05
-1.20980086504e-05
-1.22162568208e-05
-2.20958806522e-05
-1.09462883744e-05
-1.24083694591e-05
-2.61750428595e-05
-9.31383004955e-06
-1.29432566624e-05
-2.73172184685e-05
-7.50420022264e-06
-1.38404852416e-05
-2.50705677925e-05
-5.61600081021e-06
-1.50345343238e-05
-1.95336491662e-05
-4.17604177573e-06
-1.62389516735e-05
-1.16819388455e-05
-3.57922554059e-06
-1.68607761055e-05
-3.88583964264e-06
-3.92869968908e-06
-1.56170108973e-05
-5.21209403861e-06
-1.06691587996e-05
5.1697816642e-06
-1.03820745868e-05
1.19170400408e-05
-1.06756120216e-05
1.83459867933e-05
-1.00097359082e-05
2.29161932721e-05
-8.74940012739e-06
2.47308281171e-05
-7.43570870423e-06
2.36069483569e-05
-6.38596827286e-06
2.00028632156e-05
-5.71549564924e-06
1.43730493085e-05
-5.32130035374e-06
7.46824908232e-06
-5.19649297679e-06
-2.47904911071e-08
-5.19058414776e-06
-7.5147916162e-06
-5.19237927789e-06
-1.44113596459e-05
-5.20151282715e-06
-2.00296352451e-05
-5.32806214835e-06
-2.36210125663e-05
-5.72232171482e-06
-2.47339919275e-05
-6.39128258645e-06
-2.29106561029e-05
-7.4393875765e-06
-1.83366530223e-05
-8.75033953053e-06
-1.19078868396e-05
-1.00080867226e-05
-5.163888402e-06
-1.06728430249e-05
-1.03760761535e-05
7.70830055933e-06
7.72446728677e-06
-2.58096613855e-05
1.54041373594e-05
8.81478520169e-06
-2.71826137828e-05
2.19747690087e-05
1.00661642642e-05
-2.66418414565e-05
2.63231104396e-05
1.19581263798e-05
-2.50496783594e-05
2.77543123728e-05
1.42724336849e-05
-2.31319475477e-05
2.61747563864e-05
1.66965571412e-05
-2.14953138781e-05
2.19564072794e-05
1.89110437172e-05
-2.03998112261e-05
1.5685949486e-05
2.07955047447e-05
-1.98367542172e-05
8.13116269357e-06
2.21221628795e-05
-1.97530996722e-05
-7.0095312091e-09
2.27989631658e-05
-1.98397330842e-05
-8.14595684684e-06
2.27989233307e-05
-1.98387916434e-05
-1.57027896676e-05
2.21217507355e-05
-1.97510127301e-05
-2.19756961556e-05
2.07949049912e-05
-1.98345586318e-05
-2.61961901079e-05
1.89098449599e-05
-2.03988566485e-05
-2.77761713707e-05
1.66944188425e-05
-2.14961735577e-05
-2.63420945519e-05
1.42690166521e-05
-2.31366619114e-05
-2.19886277008e-05
1.19542035899e-05
-2.50577371697e-05
-1.54120505961e-05
1.00634805193e-05
-2.66529396838e-05
-7.71071494948e-06
8.81527954036e-06
-2.71994005447e-05
7.72912448193e-06
-2.58290112021e-05
8.80764952674e-06
1.54241606034e-05
-2.71766283574e-05
1.69302771196e-05
1.69322355044e-05
-3.18657994045e-05
2.34713592854e-05
1.90999755825e-05
-3.24478078231e-05
2.77031519718e-05
2.24089348373e-05
-3.09337193478e-05
2.90319172973e-05
2.6494682408e-05
-2.85960023512e-05
2.73190283135e-05
3.08084157325e-05
-2.62464984558e-05
2.28624278286e-05
3.48101712205e-05
-2.43877861255e-05
1.63271757924e-05
3.81475614179e-05
-2.32217161743e-05
8.47183036136e-06
4.04892395326e-05
-2.27225623929e-05
2.70982448806e-09
4.16831660971e-05
-2.26038008128e-05
-8.46724326556e-06
4.16825022696e-05
-2.26017977226e-05
-1.63247621811e-05
4.04876913756e-05
-2.2717060858e-05
-2.28636020819e-05
3.81448669217e-05
-2.32139704462e-05
-2.73240586154e-05
3.48066495717e-05
-2.43787302564e-05
-2.90399211167e-05
3.08032506363e-05
-2.62391265264e-05
-2.77118866106e-05
2.64880521404e-05
-2.85934871547e-05
-2.34784690494e-05
2.24020097938e-05
-3.09369239429e-05
-1.69342442948e-05
1.90950560164e-05
-3.24561963529e-05
-8.80821635494e-06
1.69322036463e-05
-3.18787163198e-05
1.54326414059e-05
-2.71913354932e-05
1.0067023441e-05
2.19882558284e-05
-2.66289902319e-05
1.91108471812e-05
2.34621395762e-05
-3.244411812e-05
2.62120816636e-05
2.61871515138e-05
-3.27733028935e-05
3.07066975961e-05
3.04410448304e-05
-3.01371733572e-05
3.20217139523e-05
3.57204908506e-05
-2.62290407394e-05
3.00191023497e-05
4.13192366384e-05
-2.21741798672e-05
2.50476149929e-05
4.6520119457e-05
-1.87586839986e-05
1.78434058294e-05
5.08077106692e-05
-1.64098616168e-05
9.24637525214e-06
5.37999598742e-05
-1.51767377053e-05
9.15243272674e-09
5.53208278193e-05
-1.47240466362e-05
-9.22900880757e-06
5.53197629379e-05
-1.47205679442e-05
-1.78287778859e-05
5.37959592118e-05
-1.5167392303e-05
-2.50374351414e-05
5.08016625037e-05
-1.63948989364e-05
-3.00146758298e-05
4.65118112359e-05
-1.87402518238e-05
-3.20223709474e-05
4.13093428663e-05
-2.2156565629e-05
-3.07104020697e-05
3.57091373583e-05
-2.62175666128e-05
-2.62162214742e-05
3.04300245742e-05
-3.01334426009e-05
-1.91132513721e-05
2.61789626928e-05
-3.27765750963e-05
-1.00670205909e-05
2.34600326148e-05
-3.24518034237e-05
2.19979093321e-05
-2.6637660708e-05
1.19648115261e-05
2.63231095298e-05
-2.50307100467e-05
2.24288488508e-05
2.76806054861e-05
-3.09292766832e-05
3.04773953695e-05
3.066704531e-05
-3.01390822625e-05
3.54576064327e-05
3.54038097655e-05
-2.55381257726e-05
3.67763932614e-05
4.1302829821e-05
-1.9189889087e-05
3.43049550082e-05
4.7565574962e-05
-1.25856847449e-05
2.84973568311e-05
5.33416688647e-05
-6.90371435819e-06
2.02224037593e-05
5.8057086598e-05
-2.87524111298e-06
1.04501932908e-05
6.13106050388e-05
-6.31012589184e-07
1.27735755613e-08
6.29612349604e-05
2.44173184625e-07
-1.04254783767e-05
6.29586184268e-05
2.48474222093e-07
-2.02005737473e-05
6.13032827107e-05
-6.17081557593e-07
-2.84809089676e-05
5.80446239383e-05
-2.85243947637e-06
-3.42951822433e-05
5.3326012453e-05
-6.87508431082e-06
-3.67737414685e-05
4.75483242539e-05
-1.25576365942e-05
-3.54592126479e-05
4.12842869422e-05
-1.91687010944e-05
-3.04808879638e-05
3.53862734527e-05
-2.55263717226e-05
-2.24314686104e-05
3.06535873664e-05
-3.01359078961e-05
-1.19654754382e-05
2.7674376284e-05
-3.09318466661e-05
2.63311641105e-05
-2.50351406798e-05
1.42823481809e-05
2.77419163534e-05
-2.31135233657e-05
2.65187693634e-05
2.89993872766e-05
-2.85969290101e-05
3.57624786629e-05
3.19715694842e-05
-2.62410059618e-05
4.13651519244e-05
3.67088025093e-05
-1.92035537658e-05
4.26937160808e-05
4.261142244e-05
-9.84056308762e-06
3.96070568832e-05
4.88339957867e-05
-6.60422195543e-09
3.27472424395e-05
5.46189751042e-05
8.33534888635e-06
2.31281211947e-05
5.92984433285e-05
1.43099640336e-05
1.1916277033e-05
6.25244755453e-05
1.76151238447e-05
1.30798438152e-08
6.4162352878e-05
1.89561740778e-05
-1.1891073757e-05
6.4158807776e-05
1.89614910998e-05
-2.31056712428e-05
6.25126294495e-05
1.76299064259e-05
-3.27296972042e-05
5.92796755808e-05
1.43353022313e-05
-3.95952066376e-05
5.45938804543e-05
8.36699148351e-06
-4.2690608544e-05
4.88044730137e-05
3.30883258583e-08
-4.13667181191e-05
4.25832773541e-05
-9.81306897107e-06
-3.57662430034e-05
3.66827988157e-05
-1.91845371616e-05
-2.65225631442e-05
3.19504502143e-05
-2.6231530759e-05
-1.42841843024e-05
2.89870522874e-05
-2.85938045307e-05
2.77450114806e-05
-2.31131163403e-05
1.67051116051e-05
2.61561622438e-05
-2.14819845304e-05
3.08301513127e-05
2.72848375222e-05
-2.62587987769e-05
4.13581328949e-05
2.99692787822e-05
-2.22066424879e-05
4.76253591954e-05
3.42381495931e-05
-1.26314576561e-05
4.89193207792e-05
3.95269351658e-05
-5.9542463631e-08
4.52380383377e-05
4.51506976381e-05
1.28389053739e-05
3.72405287868e-05
5.03634322741e-05
2.39096610761e-05
2.62173847266e-05
5.45867989903e-05
3.16642157129e-05
1.34844689924e-05
5.74969779337e-05
3.59889193563e-05
1.01283981064e-08
5.89694121839e-05
3.7806138727e-05
-1.34651106179e-05
5.89639984895e-05
3.78098238257e-05
-2.62000414645e-05
5.74819220851e-05
3.60003889235e-05
-3.72271882212e-05
5.45620886225e-05
3.1684738344e-05
-4.52293420316e-05
5.03306922713e-05
2.3937654869e-05
-4.8915254787e-05
4.51116980841e-05
1.286931911e-05
-4.76275598479e-05
3.94859969834e-05
-2.3263699182e-08
-4.13628124717e-05
3.42010627439e-05
-1.26078657977e-05
-3.08345497026e-05
2.9939197953e-05
-2.21923083898e-05
-1.67077064609e-05
2.72642264671e-05
-2.62511627213e-05
2.61517391161e-05
-2.14762346281e-05
1.89174179285e-05
2.19407186166e-05
-2.03933463251e-05
3.48260515185e-05
2.28388165186e-05
-2.44148236382e-05
4.65511758394e-05
2.50139646261e-05
-1.88181881788e-05
5.33960625164e-05
2.84507875386e-05
-6.99601657905e-06
5.46994056447e-05
3.26888570923e-05
8.2309255941e-06
5.04484841516e-05
3.71769061499e-05
2.38488606724e-05
4.14161588811e-05
4.13582786796e-05
3.71140139548e-05
2.90997804709e-05
4.47870718636e-05
4.63767444731e-05
1.49459685297e-05
4.71495156017e-05
5.15850285355e-05
4.70566308421e-09
4.83279643149e-05
5.37880702329e-05
-1.49368824108e-05
4.83219886873e-05
5.37895909002e-05
-2.90919668275e-05
4.71319183853e-05
5.15907057273e-05
-4.14107255726e-05
4.47578372275e-05
4.63906675273e-05
-5.04463486887e-05
4.13190417245e-05
3.71340291947e-05
-5.46990056544e-05
3.71304835763e-05
2.38713825315e-05
-5.33986467631e-05
3.26391973504e-05
8.25459378459e-06
-4.65550972815e-05
2.84045587721e-05
-6.974633206e-06
-3.48303836473e-05
2.49749267152e-05
-1.8804090255e-05
-1.89198824612e-05
2.28101138149e-05
-2.44049285489e-05
2.19268839974e-05
-2.03841502523e-05
2.07998555038e-05
1.56803235182e-05
-1.98349843363e-05
3.81581863816e-05
1.63234357981e-05
-2.32584528938e-05
5.08305798529e-05
1.78376762506e-05