/*--------------------------------*- C++ -*----------------------------------*\
| =========                 |                                                 |
| \\      /  F ield         | OpenFOAM: The Open Source CFD Toolbox           |
|  \\    /   O peration     | Version:  3.0.1                                 |
|   \\  /    A nd           | Web:      www.OpenFOAM.org                      |
|    \\/     M anipulation  |                                                 |
\*---------------------------------------------------------------------------*/
FoamFile
{
    version     2.0;
    format      ascii;
    class       volScalarField;
    location    "2.8";
    object      k;
}
// * * * * * * * * * * * * * * * * * * * * * * * * * * * * * * * * * * * * * //

dimensions      [0 2 -2 0 0 0 0];

internalField   nonuniform List<scalar> 
7968
(
0.00155964771406
0.00171460643944
0.00182878518334
0.00189204081943
0.00192074222994
0.00192857216404
0.00192549419894
0.00191747533334
0.00190892109165
0.0019024789002
0.00190247984583
0.00190892270523
0.00191748535188
0.00192552036784
0.00192861622646
0.00192080337532
0.00189210752064
0.00182884869695
0.00171466962912
0.00155968039892
0.00171458285138
0.00236659159126
0.00278450838222
0.00301404594614
0.00312347803881
0.00315950427245
0.00315642514832
0.00313760319106
0.00311928653282
0.00310880863285
0.00310878436148
0.00311922587263
0.00313752497937
0.00315635436172
0.00315947322386
0.0031235144374
0.00301413779776
0.00278462441546
0.00236671342439
0.00171464271427
0.00182872345817
0.00278443972536
0.00339457767051
0.00373649648955
0.00390708476499
0.0039702658504
0.00397388731269
0.00395310786175
0.00393163616462
0.00391963970403
0.00391958973814
0.00393150419408
0.00395291706801
0.00397367641997
0.003970097418
0.00390701123231
0.00373651851804
0.00339466007794
0.00278454920565
0.00182878986982
0.00189191457855
0.00301386998519
0.00373641086455
0.00414326016139
0.0043448283409
0.00441549834267
0.00441477918166
0.00438622143448
0.0043589761088
0.00434476974858
0.00434470028217
0.00435877763741
0.00438591514481
0.00441441798455
0.00441516406687
0.00434460467226
0.0041431608277
0.00373640666873
0.0030139264443
0.00189197749217
0.00192054211635
0.0031232300091
0.00390699883025
0.00434488897537
0.00455141708467
0.00461225277616
0.0046301941076
0.00462817850474
0.00461440931326
0.00460411791401
0.00460406825246
0.00461426939491
0.00462796295041
0.00462992076541
0.0046117978764
0.00455104683785
0.00434464542082
0.00390687410344
0.0031231978911
0.00192058282779
0.00192831810576
0.00315928844319
0.0039703590506
0.00441591287492
0.00461272832923
0.00471964621472
0.00476417525421
0.00476436047929
0.00474848402813
0.0047360760263
0.00473603370885
0.00474835902484
0.00476415778592
0.00476391793968
0.00471933078765
0.00461226411167
0.00441554335499
0.00397011643613
0.00315915964347
0.00192832231611
0.00192520490247
0.00315632088339
0.00397430995322
0.00441577371778
0.0046307394963
0.00476446274735
0.00480972284684
0.00480252056099
0.00477894539161
0.00476185454558
0.00476181856508
0.00477883956214
0.00480234404281
0.00480949026432
0.00476419504831
0.00463043068371
0.00441537536031
0.00397400833386
0.00315612321766
0.00192517143006
0.00191715465435
0.00313760110522
0.00395381799178
0.004387738774
0.00462902159193
0.00476489016035
0.0048026760746
0.00478437742041
0.00475052543291
0.00472719859714
0.00472716413522
0.00475043398516
0.00478423563521
0.0048025018839
0.0047646937391
0.00462879712331
0.00438744811097
0.00395355363023
0.00313738930288
0.00191709302543
0.00190856029546
0.00311928525444
0.00393240439387
0.00436065608025
0.00461542846766
0.00474917007628
0.0047791468431
0.00475050007584
0.00470664641385
0.00467687158663
0.00467684115985
0.00470658986827
0.00475044339439
0.0047790869964
0.00474910197774
0.00461534611157
0.00436059156776
0.0039322708821
0.00311912179271
0.00190848551206
0.00190208962543
0.00310872529513
0.00392024889598
0.00434617719602
0.00460513303012
0.00473684813549
0.00476215509474
0.00472723939977
0.0046768808595
0.004642000467
0.0046420193527
0.00467693542491
0.00472732648132
0.00476225359274
0.00473695017815
0.00460523345704
0.00434637834361
0.00392030519704
0.00310865977695
0.00190202333947
0.00190215625788
0.00310866867887
0.00392006044984
0.00434589719155
0.00460501014986
0.0047367828853
0.00476214998435
0.00472729072126
0.00467696462594
0.00464213459638
0.00464220956499
0.00467715526524
0.00472753978649
0.00476242024958
0.00473706625397
0.00460530424552
0.00434637188704
0.0039203162456
0.00310871528395
0.00190211521131
0.001908685337
0.00311914153092
0.00393190762238
0.00435985613687
0.00461512330229
0.00474904615836
0.00477920420353
0.00475073358928
0.00470702315975
0.00467739754692
0.00467748004292
0.00470724785849
0.00475104887104
0.00477957456673
0.00474945116198
0.00461556274947
0.00436058564983
0.00393231411238
0.00311927312783
0.00190866350435
0.00191731270229
0.00313746155513
0.00395320540196
0.00438671801323
0.00462868703063
0.0047648316808
0.00480288992656
0.00478484371698
0.00475122948533
0.00472812137101
0.00472819737805
0.00475143524926
0.00478514992203
0.00480327987818
0.00476527712327
0.00462917651017
0.00438751422199
0.00395365333594
0.00313761816089
0.00191729699165
0.00192539587746
0.00315628944195
0.00397380266501
0.004414849576
0.00463046795112
0.00476454080587
0.00481013088221
0.00480322923081
0.00477991367391
0.00476304381012
0.00476310734414
0.00478008496635
0.0048034947317
0.00481048246439
0.00476495758557
0.00463093735809
0.00441553226385
0.00397416648141
0.00315640032979
0.00192536922554
0.00192853633809
0.00315943366718
0.00397011874756
0.00441529406018
0.00461210253135
0.00471980202191
0.00476474247551
0.00476526801749
0.0047496766685
0.00473748018153
0.00473753254325
0.00474981789496
0.00476548761924
0.00476503892365
0.00472018894802
0.00461276225959
0.00441572584996
0.00397030520927
0.00315945460543
0.00192849502801
0.00192077159151
0.00312355297291
0.0039070480558
0.00434463243448
0.00455110845879
0.00461232231256
0.00463082349616
0.00462918722301
0.00461571294524
0.00460560702188
0.00460565107671
0.00461583325215
0.00462937270623
0.00463107412791
0.00461275294319
0.00455143506421
0.00434478217489
0.00390705674492
0.00312348778254
0.00192072031135
0.00189210700958
0.00301428178735
0.00373666925925
0.00414329930259
0.00434477665367
0.00441564514501
0.0044153943804
0.00438734718757
0.00436046940366
0.00434641804195
0.00434646807171
0.00436060385922
0.0043875478367
0.00441563415706
0.00441585930644
0.00434487961029
0.00414328593611
0.00373658068615
0.00301417621425
0.0018920591328
0.00182885941592
0.00278484174938
0.00339492536017
0.00373671551134
0.00390721988023
0.00397046325662
0.00397431674085
0.00395382949802
0.00393258126198
0.00392071498529
0.00392077190647
0.00393272083142
0.00395401294047
0.00397449903698
0.00397059354034
0.00390725490668
0.00373666274067
0.00339482250149
0.00278474264549
0.00182881967914
0.00171466586381
0.00236689358041
0.00278481511808
0.00301429966914
0.00312367449455
0.00315970043538
0.00315671167739
0.00313803085748
0.00311983912775
0.003109452904
0.00310950954731
0.00311998009393
0.00313821173076
0.00315688289779
0.00315981968177
0.00312371587254
0.00301426564572
0.00278473884531
0.00236682147921
0.00171463655574
0.00155966885647
0.00171468788533
0.00182888278205
0.00189213295509
0.00192081960516
0.00192862986437
0.00192554925177
0.00191754665028
0.00190901621441
0.00190260597499
0.0019026422376
0.00190909407929
0.0019176370714
0.0019256280606
0.00192868018522
0.00192083783049
0.00189212129495
0.00182885621627
0.00171466677451
0.00155965547029
0.00169382415148
0.00225035838454
0.00263759270303
0.00286741485653
0.00299139925423
0.00304740597404
0.00306312629812
0.00305865784903
0.00304855077987
0.00304129984887
0.0030412875516
0.0030485208024
0.003058622742
0.00306310030433
0.00304740175493
0.00299142495877
0.00286745966562
0.00263764299593
0.00225041423428
0.00169385915247
0.0022502783352
0.00435109586128
0.00540436948248
0.00600611594402
0.00633094365655
0.00648047502435
0.00652638771318
0.00652045637654
0.00649961619549
0.00648468293642
0.00648463820866
0.00649950082409
0.00652030165445
0.00652623720815
0.00648038407244
0.00633095198324
0.00600620803527
0.00540449435403
0.0043512042253
0.00225031305835
0.00263745137567
0.00540420919714
0.00679573058469
0.0076154280197
0.00807903314514
0.00830993150511
0.00839752967648
0.0084094448641
0.00839459737833
0.00838118224587
0.00838111360818
0.00839440844675
0.00840916932482
0.00839722189392
0.00830967320707
0.00807888741576
0.00761539836617
0.00679577748089
0.00540428369241
0.00263747309152
0.00286718971682
0.00600575942392
0.00761524954381
0.00858096151669
0.00913849890433
0.00942354497474
0.00953786003836
0.00955924157624
0.00954716279957
0.00953554103171
0.00953546522496
0.00954691284358
0.00955885581372
0.00953739292149
0.00942310253266
0.00913816041224
0.00858075103211
0.00761514760669
0.00600572927486
0.00286718512039
0.00299110377504
0.00633048664866
0.00807881225459
0.00913850575508
0.009753364717
0.0100679712677
0.0101998644873
0.0102205522117
0.0102040456623
0.0101882522553
0.0101881563442
0.010203762993
0.0102201038433
0.0101993138383
0.0100674074824
0.009752856713
0.00913810270035
0.00807852866545
0.00633030808755
0.00299105039347
0.00304709246885
0.00648010802659
0.00830991487949
0.00942388704322
0.0100684009895
0.0103946140507
0.0105091558227
0.0105159730326
0.0104883080769
0.0104661082483
0.0104660227314
0.0104880478032
0.0105155363401
0.010508594404
0.0103940015387
0.0100677874317
0.00942333425858
0.00830947213152
0.00647978686497
0.00304697866741
0.00306285079368
0.00652624947689
0.00839790740111
0.0095387930197
0.0102010212371
0.0105098637862
0.0106042822165
0.010591290814
0.0105483784494
0.0105180331571
0.0105179628244
0.0105481671164
0.0105909293983
0.0106037893452
0.0105093044799
0.0102004320293
0.009538208725
0.00839740084004
0.00652584946227
0.0030626881763
0.00305842960383
0.00652052450881
0.00841015188792
0.0095606333853
0.0102223237054
0.010517197044
0.0105916123501
0.0105583055837
0.0105005592563
0.0104622876275
0.0104622157296
0.0105003659486
0.010558003427
0.0105912564756
0.0105168155617
0.0102219172254
0.00956019412332
0.0084097250123
0.00652015057096
0.00305825047513
0.00304832826225
0.00649973071368
0.00839538567216
0.00954870628179
0.0102060963521
0.0104897409547
0.0105486073195
0.0105003441868
0.0104304925667
0.0103861613217
0.0103860924451
0.0104303549577
0.010500207197
0.0105484983266
0.01048966093
0.010206008275
0.00954853984357
0.00839516618372
0.006499484561
0.0030481711985
0.00304104931456
0.00648471386508
0.00838181170783
0.00953662042933
0.0101902310514
0.0104676090718
0.0105183130149
0.0104620607251
0.0103860469232
0.0103385430907
0.010338557661
0.0103861185051
0.0104622099374
0.0105185378264
0.0104679112386
0.0101905301534
0.00953671185835
0.00838187123835
0.00648466464112
0.00304094942704
0.00304104943823
0.00648462527324
0.00838162054235
0.0095364388009
0.0101899870038
0.0104674591651
0.0105183048096
0.0104621623106
0.0103861956427
0.0103387688222
0.0103388823969
0.0103865276031
0.0104626421753
0.0105189009298
0.0104681677981
0.0101906935402
0.00953684683322
0.00838197680973
0.00648479074193
0.00304102013626
0.00304833835231
0.00649952782447
0.00839488509105
0.00954803017368
0.0102054591888
0.0104894288365
0.0105487371606
0.0105008430198
0.0104312479562
0.0103871763779
0.010387324352
0.0104316875692
0.0105015045502
0.0105495978903
0.0104904495472
0.0102065053511
0.00954887590564
0.00839548479504
0.0064998596264
0.00304836112028
0.00305849091917
0.00652036985484
0.00840957729675
0.00955980322438
0.0102215838053
0.0105169763262
0.0105920706482
0.010559322428
0.0105020592561
0.01046420941
0.0104643647813
0.0105025080202
0.0105600219186
0.0105930347445
0.0105181409673
0.0102227788775
0.00956078216524
0.00841026999531
0.00652076758201
0.00305852949415
0.00306300869903
0.00652633292276
0.00839753393432
0.0095380957455
0.0102004693139
0.0105099330915
0.0106051678769
0.0105928873908
0.0105505255326
0.0105206270466
0.0105207743019
0.0105509447593
0.0105935577164
0.0106060896831
0.0105110528868
0.010201600772
0.00953901939906
0.00839815781435
0.00652668116558
0.00306302382219
0.00304737215414
0.00648057452338
0.00830997466034
0.00942361943477
0.0100682460507
0.0103950363229
0.0105104218262
0.0105180265922
0.0104909875544
0.0104692366161
0.0104693678711
0.0104913592212
0.0105186194797
0.0105112233928
0.0103959641893
0.0100691078104
0.00942428958619
0.00831039805668
0.00648078853458
0.0030473446515
0.0029914851057
0.0063313570125
0.00807935781348
0.00913873310798
0.00975359707712
0.0100686623134
0.0102013132195
0.0102227686772
0.0102068721739
0.0101914582251
0.0101915711465
0.0102071936551
0.010223272714
0.0102019604726
0.010069341828
0.009754177091
0.00913912370288
0.00807956690926
0.00633142981808
0.00299142212908
0.00286760439336
0.00600691997793
0.00761619511657
0.0085816299026
0.00913907612908
0.00942437220284
0.00953923672969
0.00956121742508
0.00954960783127
0.00953811149393
0.00953821751463
0.0095499109674
0.0095616694876
0.00953977389171
0.00942488640927
0.00913946102422
0.00858185305088
0.00761628081471
0.00600691553427
0.00286753236295
0.00263783029558
0.00540547103906
0.00679690062718
0.00761640179604
0.00807989290338
0.00831089115285
0.00839881141705
0.00841113247117
0.00839662637288
0.00838344045438
0.00838355926876
0.00839694253733
0.00841158028188
0.00839930903186
0.00831134542344
0.00808022433867
0.00761658821766
0.00679696402084
0.00540545729734
0.00263776617599
0.00225054826736
0.00435218847939
0.00540549498097
0.00600714612436
0.00633188584907
0.00648144377116
0.00652753255529
0.00652185543564
0.00650124628593
0.00648649664514
0.00648661260556
0.00650155272464
0.00652228560064
0.00652800745323
0.00648188205459
0.0063322231188
0.00600735153078
0.00540557906622
0.0043521892769
0.00225049865519
0.00169386577943
0.00225068925248
0.00263798717066
0.00286778213245
0.00299172305808
0.00304771096829
0.00306346911322
0.00305907955266
0.00304905435996
0.00304187535321
0.0030419260543
0.00304918026012
0.00305924179495
0.00306362902077
0.00304783834587
0.00299180121515
0.0028678097896
0.00263798237534
0.00225067512675
0.00169384567079
0.0017922405371
0.00257560415788
0.00313058444006
0.0034721627434
0.00366751116107
0.00376605380473
0.00380448921853
0.00381089500958
0.00380572359611
0.00380064519201
0.00380062662342
0.00380567962536
0.00381084238832
0.00380444523171
0.0037660388925
0.00366754000304
0.00347222274102
0.0031306562431
0.00257568127066
0.00179228152279
0.00257548762153
0.00522091475539
0.00657713469912
0.00738179475041
0.00784174822036
0.00807662121798
0.00817171999669
0.00819127761777
0.00818184491631
0.00817089956531
0.00817085532894
0.00818173576285
0.00819113660312
0.00817159085978
0.00807657026949
0.00784182746659
0.00738198090915
0.00657736135858
0.00522111192497
0.00257553768179
0.00313038398609
0.00657688358734
0.00833359477125
0.00940444687427
0.0100441568329
0.0103932589393
0.0105542716686
0.0106078221176
0.0106136472913
0.010607663801
0.0106076006805
0.0106134822856
0.0106075829696
0.0105539967827
0.0103930387336
0.0100440610197
0.00940447543758
0.00833370432657
0.00657702011661
0.0031304082454
0.00347185952498
0.00738128507377
0.00940419664142
0.0106591963735
0.011427035698
0.0118597363565
0.0120688629896
0.0121480190538
0.0121693319447
0.0121682335417
0.0121681641715
0.0121691585919
0.012147743436
0.012068453134
0.0118593476776
0.0114267372053
0.0106590149395
0.00940411703328
0.00738127750151
0.00347183674092
0.00366714234202
0.00784111432019
0.0100438110274
0.0114269600983
0.0122843058634
0.0127773271607
0.0130157683427
0.0131046382075
0.0131220937861
0.013117856655
0.0131177748989
0.0131218560386
0.0131042603396
0.0130153021814
0.0127769021851
0.0122838530454
0.0114265673997
0.0100435144845
0.0078409156353
0.00366704885816
0.00376569364137
0.00807610711592
0.0103930826821
0.0118598746779
0.0127774781057
0.0132945955029
0.0135451997503
0.013635938261
0.0136467198528
0.0136365899026
0.0136365062362
0.0136464665214
0.0136355292704
0.013544686543
0.0132940592593
0.0127769870354
0.0118593233834
0.0103926008871
0.00807572966799
0.00376552037079
0.0038042230405
0.00817150799365
0.0105544610882
0.0120694389477
0.0130165116845
0.0135456991275
0.013801622917
0.0138871054599
0.0138861287511
0.0138674341911
0.0138673541505
0.0138858893419
0.013886725351
0.0138011290965
0.0135451542397
0.0130159528389
0.0120688418352
0.0105539112741
0.00817104620986
0.00380399510067
0.00381073055982
0.00819131747567
0.0106082602292
0.0121486050568
0.0131057705355
0.0136368163322
0.0138874463358
0.0139590606469
0.0139425757752
0.0139140716404
0.0139139949354
0.0139423602824
0.0139587374634
0.0138870446547
0.0136363956221
0.0131053556519
0.0121481745174
0.0106078135521
0.00819091491171
0.00381050024954
0.00380557915356
0.00818190898758
0.0106141103091
0.0121699737117
0.0131233790469
0.0136476900514
0.0138863569847
0.0139423879806
0.0139121677387
0.013876186208
0.0138761368365
0.0139120346922
0.013942184492
0.0138861462344
0.0136475276222
0.0131232443756
0.0121697805936
0.0106139043821
0.0081816952809
0.00380540226768
0.00380044535926
0.00817080907852
0.0106079908568
0.0121690424469
0.0131191313038
0.0136375493176
0.0138675240465
0.013913702736
0.0138760067457
0.0138363581498
0.013836353875
0.0138760240309
0.0139137331871
0.0138676027122
0.0136377335337
0.013119365302
0.0121692168153
0.0106081210934
0.00817086733339
0.00380036289332
0.00380039753784
0.00817064287385
0.0106077504691
0.0121688151948
0.0131189105924
0.0136374255141
0.0138675316432
0.0139138280731
0.0138762355019
0.013836658281
0.0138367424978
0.0138764557603
0.0139141427554
0.0138679456576
0.0136379759302
0.0131195168786
0.0121693283379
0.0106082165844
0.0081709828163
0.00380041895942
0.00380547037113
0.00818150705948
0.0106135145767
0.0121695213757
0.0131228311283
0.0136474187505
0.0138864846084
0.0139428728758
0.0139129523944
0.0138772075551
0.0138773450017
0.013913315373
0.0139434015517
0.0138871646658
0.0136482574803
0.013123713756
0.0121701740592
0.0106142128039
0.00818205295865
0.00380556617375
0.00381064738392
0.00819090354092
0.0106075446816
0.0121480217407
0.0131050994619
0.0136365698815
0.0138878246121
0.0139600350551
0.0139439958997
0.0139158482552
0.0139159974922
0.0139444123056
0.0139606696182
0.0138886490878
0.0136375686308
0.0131061364156
0.0121488141077
0.0106083456882
0.00819152586573
0.00381076409086
0.00380426320939
0.00817135360604
0.0105539064977
0.0120686898082
0.0130159804099
0.0135456691513
0.0138023229893
0.013888529101
0.0138880967594
0.0138697929281
0.0138699396882
0.013888516164
0.0138891781597
0.0138031679338
0.0135466723178
0.0130169985116
0.0120696135684
0.0105546603243
0.00817190830124
0.00380434492984
0.00376593003488
0.00807645743366
0.0103930287945
0.0118595624217
0.012777496743
0.0132949393544
0.0135462211062
0.0136376825426
0.0136490507423
0.0136393445812
0.0136394862691
0.0136494566028
0.0136383083392
0.0135470092878
0.0132957939407
0.0127782377596
0.0118602651639
0.0103935732896
0.00807683290254
0.00376594539805
0.00366757013348
0.00784203525705
0.0100443628624
0.011427181921
0.0122845490956
0.0127780149324
0.0130170105094
0.0131065247344
0.0131245234211
0.0131206856517
0.0131208218466
0.0131249068858
0.0131071048851
0.0130177081721
0.0127786807839
0.0122851555027
0.0114276453854
0.0100446800925
0.00784222233849
0.00366752964206
0.00347240424138
0.00738266794364
0.00940529490807
0.010659963877
0.0114276673486
0.0118605739828
0.0120701774826
0.012149813558
0.012171532722
0.0121708622888
0.0121710045785
0.0121719154938
0.0121503746128
0.0120708448523
0.0118612051824
0.0114281649279
0.0106603028435
0.00940549470787
0.00738275691139
0.00347234613596
0.00313094314302
0.00657851468879
0.00833507046141
0.0094056593672
0.010045201991
0.0103943737538
0.0105557016889
0.0106096670622
0.0106158547894
0.0106101707646
0.0106103372264
0.0106162961166
0.0106102913869
0.0105563989037
0.0103950280404
0.0100457174082
0.00940600973393
0.00833527062391
0.00657859757298
0.003130895928
0.00257592232165
0.00522245725278
0.00657869090481
0.00738320040753
0.00784301860519
0.00807791024464
0.00817323077005
0.00819311296201
0.00818396890336
0.00817325630064
0.00817342515981
0.00818441651243
0.0081937478881
0.00817394629747
0.00807860005242
0.0078435906734
0.00738361016047
0.00657893804248
0.00522256669641
0.00257588969049
0.0017922903837
0.00257612859385
0.00313120895394
0.00347274207753
0.00366802140962
0.00376653868642
0.00380503892233
0.00381156776762
0.00380651228941
0.00380152544875
0.00380159226059
0.00380668211078
0.00381179712021
0.00380528031997
0.00376675174661
0.00366817564586
0.00347283156128
0.00313125035843
0.00257614122022
0.00179226942825
0.00185493028463
0.00277142730814
0.00343362524592
0.00385207482985
0.00410023014324
0.00423331698942
0.00429335818419
0.00431328573303
0.00431657362721
0.00431586071368
0.00431583501561
0.00431651323641
0.00431321125702
0.00429328998878
0.00423328573456
0.00410026285285
0.00385215966177
0.00343373702978
0.00277154812064
0.00185497797436
0.00277128807312
0.00575028146372
0.00731763378785
0.00827237797213
0.00883664023059
0.00914090115253
0.00927973042987
0.0093257362183
0.00933112549809
0.00932695470951
0.00932690208742
0.00933099914803
0.00932557228945
0.00927957179532
0.00914082920193
0.00883673926812
0.00827263321609
0.00731796047995
0.00575058622897
0.00277137451679
0.00343338268809
0.00731732014386
0.00933912411669
0.0106010996093
0.0113796615093
0.0118256876535
0.0120505242865
0.0121430170218
0.0121685882286
0.0121707160822
0.0121706511886
0.0121684214946
0.012142777449
0.0120502460341
0.0118254621438
0.0113795858936
0.0106011722955
0.00933929503456
0.00731752555422
0.0034334311354
0.00385171862282
0.00827178581415
0.0106008134867
0.0120767954628
0.013008969041
0.01356110681
0.0138543416399
0.0139883185255
0.0140296173302
0.0140352857983
0.0140352168593
0.0140294213324
0.0139880073851
0.0138539282237
0.0135607043532
0.0130086756976
0.0120766270112
0.0106007495915
0.00827179323305
0.00385169507157
0.00409983909126
0.00883595780475
0.0113792680321
0.0130088451707
0.0140554346846
0.0146949399225
0.0150426386764
0.0151985697322
0.0152435067106
0.0152467712347
0.0152466968781
0.0152432737049
0.0151981884628
0.0150421570895
0.0146944381581
0.0140549604938
0.0130084376808
0.0113789447395
0.00883571723486
0.00409972055376
0.00423298536175
0.00914042184882
0.0118254741762
0.0135611363293
0.0146950586238
0.0153931133926
0.0157780758175
0.0159452054433
0.0159841328699
0.0159798740265
0.0159797859227
0.0159838585918
0.0159447576551
0.0157775089999
0.0153925011265
0.0146944643305
0.0135605371903
0.0118249333579
0.00913996209054
0.00423276708795
0.00429318874356
0.0092796711438
0.0120506902829
0.013854747414
0.0150430945183
0.0157784169351
0.0161812582115
0.0163437600579
0.0163671660465
0.0163513079273
0.0163512155706
0.0163668820718
0.0163432989479
0.0161806594191
0.0157777640282
0.0150424595106
0.0138541007649
0.0120500897211
0.00927913400365
0.00429291271969
0.00431326869942
0.00932600174368
0.0121434477402
0.0139889134043
0.0151993159659
0.0159458469121
0.0163439852304
0.0164881248746
0.0164911396416
0.0164628178239
0.0164627358745
0.0164908818911
0.0164876978148
0.0163434440647
0.015945283299
0.0151988046135
0.0139884387142
0.0121429884608
0.00932557744719
0.00431300752471
0.00431656917544
0.00933136478548
0.0121689704137
0.0140302050492
0.0152442834892
0.0159847240379
0.0163670920312
0.0164906846917
0.016476675446
0.0164394473683
0.0164393898581
0.0164764835468
0.0164903437737
0.0163666892746
0.0159843761993
0.0152440291907
0.0140300189462
0.0121688120004
0.00933121518125
0.00431639337264
0.00431573949205
0.00932688103978
0.0121707993513
0.0140356833486
0.0152473863675
0.0159802505108
0.0163508230892
0.016461946784
0.0164390394473
0.0163976342167
0.0163976059347
0.0164389637384
0.0164617873709
0.0163506467491
0.0159801941764
0.0152474602582
0.0140358703024
0.0121710423487
0.00932710059932
0.00431569422907
0.00431561678472
0.00932654365997
0.0121704009695
0.0140353220817
0.0152471038319
0.0159800757569
0.0163507612497
0.016461985732
0.016439173059
0.0163978305646
0.0163978853219
0.0164392816099
0.0164620883624
0.0163508844154
0.0159803375813
0.0152475131778
0.0140358726347
0.0121710325609
0.0093271224527
0.00431570377262
0.00431625425928
0.00933049212445
0.0121679306471
0.01402924716
0.0152435145284
0.015984276685
0.0163670121942
0.0164909272804
0.0164771723699
0.0164401538423
0.0164402717886
0.0164774477324
0.016491278182
0.0163674342159
0.0159848321094
0.0152442031637
0.0140300599179
0.0121688223841
0.00933131536232
0.00431643178629
0.00431288902393
0.00932490950818
0.0121420923344
0.0139876089004
0.0151982678768
0.0159452886881
0.0163440415542
0.0164887182905
0.0164921223621
0.0164641147996
0.0164642556585
0.0164924891974
0.0164892318102
0.0163446670938
0.015946039341
0.0151991243755
0.0139885545617
0.0121430688806
0.00932579816368
0.00431308589659
0.00429290237922
0.00927875632399
0.0120494187752
0.0138533288141
0.0150420471281
0.0157779211686
0.0161815074069
0.0163446993908
0.0163685840187
0.0163530470097
0.0163531943446
0.0163689898865
0.0163452911068
0.0161822230801
0.0157787378999
0.0150429249223
0.013854285969
0.0120502968104
0.00927952694927
0.00429304636816
0.00423294105229
0.00914008170292
0.0118247380954
0.0135601372096
0.0146943008666
0.0153928262588
0.0157784724005
0.0159463038771
0.0159857561826
0.0159818432025
0.0159819948694
0.0159861853724
0.0159469334223
0.0157792054099
0.0153935986448
0.0146950534525
0.0135608583593
0.0118253596177
0.00914059516161
0.0042329862347
0.00410007190529
0.00883635439392
0.011379259049
0.0130084710839
0.0140550040045
0.0146948670033
0.0150430954321
0.0151996373092
0.0152450624494
0.0152486513661
0.0152488098554
0.0152455075614
0.0152002796783
0.0150438139522
0.0146955565601
0.0140555901466
0.0130089147486
0.0113795988058
0.00883659638369
0.00410003074863
0.00385216171479
0.00827284207193
0.010601500012
0.0120770885612
0.0130090401552
0.0135612791974
0.0138549287303
0.0139894329462
0.0140311459712
0.0140371332756
0.0140373062099
0.014031612178
0.0139900916524
0.013855652851
0.0135619377072
0.0130095261526
0.0120774191499
0.0106017096978
0.00827294576792
0.00385208965544
0.00343392050211
0.007318813635
0.00934035856044
0.0106019849796
0.0113802953373
0.011826312702
0.0120514102154
0.0121443190857
0.0121702560171
0.0121726809925
0.012172888837
0.0121707943585
0.0121450590896
0.0120522035805
0.0118270396204
0.0113808546644
0.0106023695568
0.00934058822004
0.00731891519402
0.00343386559781
0.0027717565236
0.00575186310221
0.00731913898421
0.00827363712371
0.00883767518474
0.00914190468104
0.00928097593696
0.00932736703661
0.00933308515226
0.00932916851513
0.00932937961161
0.00933363231794
0.00932812761208
0.00928181659302
0.00914271068878
0.00883833828179
0.00827412287797
0.00731944845477
0.00575201535506
0.00277172262797
0.00185493902253
0.00277198937028
0.0034342640387
0.00385262622728
0.00410066949625
0.00423370133295
0.00429381013176
0.00431388345726
0.00431729620438
0.00431667158842
0.00431674651219
0.00431748386601
0.00431413549514
0.00429407624617
0.00423394143334
0.00410084408151
0.0038527317552
0.00343431910614
0.00277200959723
0.00185491393168
0.00190407149629
0.0029276137019
0.00367898085978
0.00416222767683
0.00445573465786
0.00461976129095
0.00470185398077
0.00473932080164
0.00475665748573
0.00476424655847
0.00476421265357
0.00475657643862
0.00473921859314
0.00470175550616
0.00461970617342
0.00445576157092
0.00416233027854
0.00367913208813
0.00292777290778
0.00190412453471
0.00292749424699
0.00618140338649
0.00792998167719
0.00901331988787
0.00966544412335
0.0100272792468
0.0102038776237
0.0102759188391
0.0102992921885
0.0103048500786
0.010304781155
0.0102991286313
0.0102757026648
0.0102036532313
0.0100271463702
0.00966551634575
0.00901358635366
0.00793035801011
0.00618177957693
0.00292762106972
0.0036787453611
0.0079296474283
0.0101883680271
0.0116181566677
0.0125134894769
0.0130387871448
0.0133178113484
0.0134444630142
0.0134875652119
0.0134966459503
0.0134965623154
0.0134873607379
0.0134441648842
0.0133174499312
0.0130384607863
0.0125133396719
0.0116181945614
0.0101885409423
0.00792987724477
0.00367882392888
0.00416187371962
0.00901273579597
0.0116178955646
0.0132871547156
0.0143609272948
0.0150193080398
0.015386699171
0.0155594619239
0.0156143230867
0.0156221378197
0.0156220458839
0.0156140583218
0.0155590417905
0.015386146716
0.0150187166866
0.0143605054192
0.0132869032877
0.011617775721
0.00901271107537
0.00416184958358
0.00445539541836
0.00966485321841
0.0125131775249
0.0143608177874
0.0155780034641
0.0163512069531
0.0167903901133
0.0169881769772
0.0170387827975
0.017037089093
0.0170369921169
0.0170384718378
0.0169876530715
0.0167896958567
0.016350448376
0.015577336485
0.0143602699607
0.0125127442529
0.00966452772392
0.0044552500583
0.00461954259558
0.0100270080484
0.0130387145028
0.0150193314923
0.0163513154469
0.0172056590677
0.0176814753193
0.017874102711
0.0179024404689
0.0178833345003
0.0178832239991
0.0179020952615
0.0178734928074
0.0176806417533
0.0172047295119
0.016350441681
0.0150185231885
0.0130380248
0.0100264196036
0.0046192750917
0.00470184745602
0.0102041345151
0.0133181378004
0.0153870328251
0.0167908081073
0.0176818074763
0.0181514070227
0.0183113288881
0.0183035955413
0.0182626848598
0.0182625887966
0.0183032844608
0.0183107269871
0.0181505385925
0.0176808236346
0.0167898695105
0.0153861775188
0.0133174010604
0.0102034667449
0.00470150856195
0.00473948862701
0.0102765326252
0.0134450187362
0.0155600840357
0.0169889313836
0.0178748113542
0.0183111583739
0.018426791146
0.0183823696496
0.0183233565179
0.0183232857425
0.0183821046813
0.0184262460623
0.0183104179838
0.0178739901914
0.0169881277364
0.0155594027991
0.0134444534714
0.0102760165861
0.00473915941352
0.00475680708018
0.0102997719916
0.0134879151156
0.0156148249069
0.0170394240826
0.017902948163
0.0183027518739
0.018381344763
0.0183137910231
0.0182448333509