/*--------------------------------*- C++ -*----------------------------------*\
| =========                 |                                                 |
| \\      /  F ield         | OpenFOAM: The Open Source CFD Toolbox           |
|  \\    /   O peration     | Version:  3.0.1                                 |
|   \\  /    A nd           | Web:      www.OpenFOAM.org                      |
|    \\/     M anipulation  |                                                 |
\*---------------------------------------------------------------------------*/
FoamFile
{
    version     2.0;
    format      ascii;
    class       volScalarField;
    location    "8";
    object      epsilon;
}
// * * * * * * * * * * * * * * * * * * * * * * * * * * * * * * * * * * * * * //

dimensions      [0 2 -3 0 0 0 0];

internalField   nonuniform List<scalar> 
7968
(
5.96730361563e-05
7.57436618883e-05
8.99872387143e-05
9.95463021626e-05
0.000105207695646
0.000108149370482
0.000109196132243
0.000109245123938
0.000108965311108
0.000108494637014
0.000108208791508
0.000108314983878
0.000108341606263
0.000108018590891
0.000106685415172
0.000103591020063
9.79117488858e-05
8.87316054881e-05
7.51473081635e-05
5.95225374258e-05
7.56966244924e-05
0.000151327316333
0.000214521938189
0.00025923141243
0.000288415956534
0.00030497300704
0.000312485231379
0.000314024378387
0.000312488162317
0.000310069974942
0.000308054943269
0.00030659340793
0.000304564860417
0.000300087262306
0.000290793624224
0.000274111252953
0.000246959659406
0.000206011568113
0.000147271612071
7.52797931398e-05
8.98096647141e-05
0.00021466885602
0.000320265679009
0.000396208530397
0.000446884323361
0.000476897138534
0.000491392157849
0.000495349937866
0.00049341691126
0.000489136163564
0.000484535916925
0.000479887517138
0.000473850358701
0.000463700999337
0.000445776947274
0.000415976021294
0.000369646434966
0.000301707642966
0.000205730366105
8.90926365391e-05
9.9449367739e-05
0.000259825645013
0.000396929035654
0.000496308234053
0.000563089900519
0.000602881641529
0.000622217133448
0.000627574339295
0.000625090485329
0.000619576974197
0.000611898562965
0.000603161069032
0.00059343649945
0.000578780419347
0.000554515928269
0.000515347264061
0.000455354213794
0.000368183137097
0.000245909223404
9.82970577211e-05
0.000105409844174
0.000289817154234
0.000449188078778
0.000565032705115
0.000642595127797
0.000688577414099
0.000713106434427
0.000722486504794
0.000720338040601
0.000712249712045
0.000701761456725
0.000689851636023
0.000675150695489
0.000653951524721
0.000624026438913
0.000579134030167
0.000510623987089
0.000410917739526
0.000271479095498
0.000103612985212
0.000108578531986
0.000307699237851
0.000481566036891
0.000607923576569
0.000692014138393
0.000745315741588
0.000774121710387
0.000782074247533
0.000776979688963
0.00076582655435
0.000752978587285
0.000739593745843
0.000723899037207
0.00070136458771
0.000666427591261
0.000614920193506
0.000541824586644
0.000435044988183
0.00028560776263
0.000106246498061
0.000109840029385
0.000316772746237
0.00049898476551
0.00063122211609
0.000720178840977
0.000778742393321
0.000806334946575
0.000811022330315
0.000802310698888
0.000788216973732
0.000773637959524
0.000759815350871
0.00074466680743
0.00072302408717
0.000688226781787
0.000633613664913
0.000555822780682
0.000445865357724
0.00029159784914
0.000107307540952
0.000109896878295
0.000319963547731
0.000506197944587
0.000641078524367
0.000734970096501
0.00079300465132
0.000817773491433
0.000818803478369
0.000806694591982
0.000790216725378
0.000774597409978
0.000761051336691
0.000747190435515
0.000727366805267
0.000694325107082
0.000640480323622
0.000559342368154
0.000448313727556
0.000292620529069
0.000107689601577
0.0001095622473
0.000320056675116
0.000507640991628
0.000643193035372
0.000739111123863
0.000795437428731
0.000817376451233
0.000815370897519
0.000800735325383
0.00078267058677
0.000766612385809
0.000753693964919
0.000741197694598
0.000723187799684
0.000692084406342
0.000639902699449
0.000559307834519
0.00044671313523
0.000291299507674
0.000107521480605
0.000109183370728
0.000319177994969
0.000506667371339
0.000641816947899
0.000737693753855
0.000792366313736
0.000812362135197
0.000808585843126
0.00079264030111
0.000773876186668
0.000757770612694
0.000745441844677
0.000733942166477
0.00071714687783
0.000687405091509
0.000636617313614
0.000557157870243
0.000444222083778
0.000289600741862
0.000107128231793
0.000109049964622
0.000318573143042
0.000505114088975
0.00063910871774
0.000733713601146
0.000787401407184
0.000806760431588
0.000802728739005
0.000786840824538
0.000768296132912
0.000752438520305
0.000740369067023
0.000729160605946
0.000712699941713
0.000683428727043
0.000633315363536
0.00055470857927
0.0004424276213
0.000288599358162
0.000106809086136
0.000109342873516
0.000318292336441
0.000503076877448
0.000635314144653
0.000727565760904
0.000781001598671
0.000801023312466
0.000798176751571
0.000783604844708
0.000766129475234
0.00075083799619
0.00073867554035
0.00072698938807
0.00070997278282
0.000680294992144
0.000630137782263
0.000552048367912
0.000441354275443
0.000288445604076
0.000106829118325
0.000109648997802
0.000317104132098
0.000498912923144
0.000628676684971
0.000716981233745
0.000770405967781
0.000791970978024
0.000791392342173
0.000779069340977
0.000763292640314
0.000748814722249
0.000736499109374
0.000723989388526
0.000705904568162
0.000675326619917
0.000624830013087
0.000547451090469
0.000439432412542
0.000288050731295
0.000106830595154
0.000109511655207
0.0003129688696
0.000489564019205
0.000615427871547
0.000697690492317
0.000750374011404
0.000773647786035
0.000775880276503
0.000766427445488
0.000752838685517
0.000739510509187
0.00072726914765
0.000714013750563
0.000694886306213
0.000663539277574
0.000613237999347
0.00053863163996
0.000433869225078
0.000285430685092
0.000106237716006
0.000108160094614
0.00030328969784
0.0004709829856
0.000590447063886
0.000667728298636
0.000714688506006
0.000738554024739
0.000743411303118
0.000737019705519
0.000725996323133
0.000714272325353
0.000702621643981
0.000689186232889
0.000669707339972
0.000638637097607
0.00059033267213
0.000521540379102
0.000420884279555
0.000278189499127
0.000104643292245
0.000104938378798
0.000285332917246
0.000438759795929
0.000548045610672
0.000619161349556
0.000659410822727
0.000679526250848
0.000685728254416
0.000682024984154
0.000673730111142
0.00066409976241
0.000653798056695
0.00064127483624
0.00062296185361
0.00059460581401
0.000553181163287
0.000489671379555
0.000396134198126
0.000263486267478
0.000101809068895
9.90087528289e-05
0.00025595021781
0.000388127539629
0.000482131008299
0.000543634590571
0.000578733368268
0.000594352147919
0.000597266991381
0.000594133305187
0.000588325347576
0.000581192241439
0.000573199529257
0.000563870543209
0.000550555170129
0.000528433574585
0.000492391004295
0.000436670959738
0.000354776999762
0.000238421146837
9.65708331756e-05
8.94781437627e-05
0.000211995754913
0.000314289533889
0.00038667290318
0.000433885689138
0.000460834543454
0.000472901858552
0.000475235194018
0.00047243915656
0.000467896788114
0.000463411443673
0.000459077238257
0.000453462300401
0.000444007378385
0.000427299458049
0.000399403302752
0.000355849792978
0.000291533531503
0.000199797641405
8.76821098352e-05
7.55161578475e-05
0.000150066247205
0.000211755051279
0.000254914526823
0.000282732459338
0.000298111053146
0.000304697625977
0.00030569544403
0.000303933945824
0.000301493588681
0.000299456790792
0.000297862542964
0.000295681147672
0.000291123908583
0.000281969145464
0.000265748962092
0.000239479057669
0.000200148833342
0.000143664748943
7.43862586316e-05
5.96113848035e-05
7.55950458497e-05
8.97404805365e-05
9.92213523339e-05
0.00010473333492
0.000107606155746
0.000108665884618
0.00010888294718
0.000108694047514
0.000108290336114
0.000107946196634
0.000107795136916
0.000107609615756
0.000106916320123
0.000105282619812
0.000101994515076
9.64182023291e-05
8.74332982458e-05
7.420163049e-05
5.91823861115e-05
7.46359348261e-05
0.000142373604167
0.000202061186798
0.000246409055949
0.000276904871833
0.000295880186893
0.000305950905876
0.000309597773017
0.00030932452395
0.000307468962658
0.000305291135665
0.000303007909076
0.00029964319519
0.000293243146344
0.000281835936388
0.000263335026088
0.000235258631807
0.000194866336975
0.000139465227144
7.41646059082e-05
0.00014243255615
0.000186398790519
0.000241627505152
0.000286081362747
0.000318006873111
0.000338538063073
0.000349861914329
0.000354479403349
0.000354841250288
0.000352942046161
0.000349973536129
0.000346145074733
0.000340743982618
0.000332309969754
0.000318974761129
0.000298696504102
0.000269429344086
0.000229578912305
0.000179671335175
0.000139277749334
0.000202209536977
0.000241936085527
0.000307176339817
0.000361836002636
0.000401998564957
0.000428223821447
0.000442794101062
0.000448655706374
0.000448788585732
0.00044562492048
0.000440701009323
0.00043440552685
0.000426060383642
0.00041407182471
0.000396241242786
0.000370221419892
0.000333883017638
0.000286046910956
0.00022892755576
0.000194515401149
0.000246916904192
0.000287007340987
0.000362591763105
0.000426908275404
0.00047453953904
0.00050573482359
0.000523003618387
0.000529702532476
0.00052939997984
0.000524801731431
0.000517692222588
0.000508749528557
0.000497506527675
0.000482312854358
0.000460572737947
0.000429616872122
0.000387088612584
0.000331930313721
0.00026735829313
0.000234211570231
0.000278137954328
0.000319916996445
0.000404042922955
0.000476003857758
0.000529325172414
0.000564237477625
0.000583806374726
0.000591092424414
0.000589657459829
0.000583110414719
0.000573926928084
0.00056295686627
0.000549488725111
0.000531498612129
0.000506565359266
0.000472069283546
0.000425138717552
0.000364566736105
0.000294153027299
0.000260700823181
0.000298181473477
0.000341800124607
0.000432092332924
0.000509385484517
0.000566593129543
0.000604487536249
0.000624847024971
0.00063088202779
0.000627276123174
0.000618485770586
0.00060752192302
0.000595380325074
0.000581141365184
0.000562311987537
0.000535758181695
0.000498679085383
0.000449040958183
0.00038512833419
0.000310896232562
0.000276717719868
0.000309603873206
0.000354783706397
0.000448963831664
0.000529493092049
0.000589245576581
0.000628295714818
0.000647541843317
0.000651218819504
0.000644961431418
0.00063396050457
0.000621646257477
0.000609090671649
0.00059516110631
0.000576914263414
0.000550635570912
0.000512927674747
0.000461705227327
0.000396157537198
0.000319912633179
0.000284935437392
0.000314952144335
0.000361305986602
0.000457519062057
0.000539581115342
0.000600642123271
0.000639033564422
0.000656227948888
0.000657229080091
0.000648426022096
0.000635584207581
0.000622418432194
0.000609998812987
0.000596978414557
0.000580048450837
0.000555058597369
0.000518144559483
0.000466729937889
0.000400634598316
0.000323657229068
0.000287634451901
0.000316517488545
0.000363720087434
0.000460644507347
0.000543042120164
0.000604117668813
0.000641180134105
0.000656290379283
0.000655018846744
0.000644281474588
0.000630211634434
0.000616665357669
0.000604655881489
0.00059265055638
0.000577102892062
0.000553597523094
0.000517977636868
0.000467352538021
0.000401358739285
0.000324422100355
0.00028760660255
0.000316310732575
0.000363913979684
0.000460652042784
0.000542652475023
0.000602983406776
0.000638779093273
0.000652412555664
0.00064976407413
0.000638005379806
0.000623407514464
0.000609844792533
0.000598263375849
0.000587011416678
0.000572444838702
0.000550052913065
0.000515555854189
0.000465890298664
0.00040048499006
0.000323923352215
0.00028666410947
0.000315734038125
0.00036296929164
0.000458854506046
0.00053988151291
0.000599260254279
0.000634265726651
0.000647349625417
0.00064442781606
0.000632644874452
0.000618195184177
0.000604870329816
0.000593566831535
0.000582619436249
0.000568426904344
0.000546527945991
0.000512665603415
0.00046373745377
0.000399052393712
0.000323076051126
0.0002858171503
0.00031483951344
0.000360937699792
0.000455379909142
0.00053497777904
0.000593263538803
0.000627998194941
0.000641456487513
0.000639314887263
0.000628424732102
0.000614719595962
0.000601832546171
0.000590629905485
0.000579539501669
0.000565136570101
0.000543133546285
0.000509422507161
0.000460978550594
0.000397087412681
0.000321904141591
0.000285214711597
0.000312240190569
0.000356846308053
0.000449183117303
0.000526904404997
0.000583609947448
0.000618283823117
0.000632745065128
0.000632175192884
0.00062290174972
0.00061043915469
0.000598205853401
0.000587061962512
0.000575586340719
0.000560633417726
0.000538195446071
0.000504421144074
0.000456467463281
0.000393629526756
0.000319550361341
0.000283907986555
0.000306086340765
0.000348990164993
0.000438270588775
0.00051335365826
0.000567677625784
0.000601948297134
0.000617534643549
0.000618923001811
0.000611730078701
0.000600918643387
0.000589625688946
0.00057870281284
0.000566904262774
0.000551436267171
0.000528665672008
0.000495096383619
0.000448175649523
0.000386914969386
0.000314462523186
0.000280079584284
0.000294245026911
0.000335253696436
0.000420116787409
0.000491429217048
0.000542783227611
0.000575387953747
0.000591543836556
0.000594767920393
0.000589793799944
0.00058091885479
0.000570918303131
0.000560595936899
0.000548887075707
0.000533381472
0.00051089775664
0.000478357048205
0.000433473191538
0.000374541542905
0.000304638415968
0.000271510931237
0.0002743407058
0.000313416244457
0.000392156576316
0.000458233261829
0.000505845466718
0.000535675653418
0.000551126714199
0.00055550935822
0.000552518092757
0.000545682993285
0.000537324995851
0.000528139937951
0.000517249209169
0.000502604043739
0.000481522104022
0.000451394143964
0.000409419691024
0.000353917223124
0.000287852577848
0.000255643103543
0.000243881196919
0.000281436983292
0.000352256705991
0.000411406355011
0.000454061518517
0.00048085806787
0.000494594424232
0.000498879797097
0.000497225640214
0.000492305192663
0.000485850750782
0.000478389265553
0.000469238822375
0.000456668337739
0.000438284099203
0.000411325033555
0.000373267685925
0.000322631253567
0.000261908824156
0.000230018232925
0.000200386876357
0.000238015191285
0.000299593810342
0.000350301428888
0.000386686741386
0.000409602812727
0.000421536804758
0.000425569448001
0.000424697077414
0.000421307336159
0.00041682854864
0.000411557946093
0.000404723024763
0.000394727856388
0.00037943721835
0.000356467126256
0.000323550454192
0.000279181341861
0.000225024735979
0.000191804168879
0.000141816167945
0.000184371240789
0.000237291268823
0.000279236264845
0.000308775715537
0.000327236296706
0.000336938782017
0.000340458368933
0.000340258604128
0.000338264894971
0.000335567796539
0.000332314348467
0.000327747953963
0.000320462325569
0.000308617196748
0.000290174864998
0.000263028370792
0.000225404519342
0.000177477607242
0.00013808177557
7.44877421587e-05
0.000141589479469
0.00019994598418
0.000242700279089
0.000271598132311
0.000289154573939
0.000298113801992
0.000300935064941
0.000300332724144
0.000298446517325
0.0002963586212
0.00029418978137
0.00029106694166
0.000285323672159
0.000274790327768
0.00025741742174
0.000230795766423
0.0001920682733
0.000138189991133
7.34537953628e-05
8.92582467155e-05
0.000206774126497
0.000314633757296
0.000397343766351
0.000455721501689
0.000492812557346
0.000512749204655
0.000520189445337
0.000519676678388
0.000514925900865
0.000508221902613
0.00050009979959
0.000489426797574
0.000473659336791
0.00044952926752
0.000413389750323
0.000361440123826
0.000289824045506
0.000195230653258
8.76620045035e-05
0.000207014619406
0.000253739354349
0.000327089478513
0.000389079053144
0.000434959232881
0.000465035656247
0.000481660470782
0.000488068669358
0.00048759964642
0.000483062888508
0.000476237000536
0.00046763398834
0.00045654536512
0.000441287899967
0.000419606143785
0.000389126962373
0.000347838238829
0.000294868375892
0.000233015513692
0.000194852010814
0.000315225275707
0.000327828075854
0.000400361268457
0.000466043927282
0.000516219953598
0.000549720849991
0.000568333832828
0.000575222240577
0.000573858569892
0.000567376790391
0.000557882869211
0.000546139190032
0.000531538396169
0.000512446221472
0.000486654526375
0.000451924122456
0.000406784212223
0.00035174096185
0.00029312042422
0.000288645773736
0.000398869707844
0.00039105698015
0.000467398910907
0.000538979891656
0.000594322830713
0.000631313301569
0.000651484101888
0.000658306849179
0.000655319492926
0.000646255658114
0.000633732536902
0.000618827237925
0.000600981929396
0.00057842486351
0.000549034044816
0.000510294969326
0.00046089338775
0.000402038961165
0.000342320944197
0.000357640815096
0.000458956269233
0.000438739191627
0.000519580007539
0.000596441718893
0.000655836898582
0.000695121221239
0.000715692422578
0.000720573617598
0.000714452974223
0.000701986988547
0.000686434740362
0.00066916577043
0.000649516693335
0.000625396730768
0.0005940036305
0.000552731678167
0.000500514752507
0.000438717165825
0.000377269314969
0.000404287937874
0.000498531156469
0.000471182863035
0.000555742705759
0.000636330255992
0.000698095920002
0.00073813750913
0.00075672932079
0.000757657268154
0.000746991321231
0.00073052754348
0.000712159323197
0.000693481933756
0.000673610630155
0.00064995545431
0.0006190863942
0.000577755897421
0.000524480456368
0.000461350291773
0.000398892348749
0.000432427213623
0.000521642214214
0.000490705548823
0.000577674393473
0.000660222804531
0.000722845945371
0.000761358996761
0.00077597562387
0.000771495970585
0.000755573267898
0.000735080197807
0.000714438039045
0.000695325179384
0.000676582762598
0.000655023975396
0.000626606463259
0.000587390668038
0.000535244744568
0.000472265019649
0.000409846190884
0.000446550887525
0.000532831121483
0.00050049615136
0.000588537339381
0.000671480802907
0.000733280015003
0.000768850450769
0.000778610555379
0.000768605078061
0.00074781588104
0.000723972903895
0.000701836433772
0.000683027491162
0.000666110600727
0.000647379777828
0.000622231338936
0.000586204402361
0.000536519953835
0.000474996379157
0.000413473026377
0.000451327654057
0.00053647329357
0.00050382147899
0.000591828693378
0.00067419427292
0.000734038977472
0.000766317264848
0.000771771583627
0.000757371551474
0.000733025476246
0.000706986412836
0.000684145944624
0.000665976155702
0.000650808537104
0.000634632334989
0.000612485982485
0.000579542852839
0.000532628659175
0.00047331153137
0.000413024286729
0.000451033390176
0.000536095414161
0.000503364520158
0.000590499539706
0.000671553028088
0.000729400733093
0.000759103288496
0.000761719778858
0.000744756949894
0.000718576635909
0.000691605945423
0.00066869630604
0.000651156762758
0.000637174482352
0.000622647165472
0.000602507708904
0.000571789610037
0.000527121308012
0.000469816621715
0.000410950103872
0.000448833261053
0.000533731569699
0.000500687353976
0.000586365011414
0.000665793508389
0.00072208987119
0.000750450861954
0.000752079730241
0.000734587289374
0.000708311851166
0.000681549277624
0.000659006223449
0.000641885822591
0.000628350281472
0.000614377018943
0.000595006213997
0.000565348950523
0.000522022614351
0.000466187667602
0.000408602869942
0.000446481165222
0.000529554090372
0.000495962712758
0.000579718411007
0.000657341219482
0.000712644532598
0.000740941455518
0.000743389543301
0.000727269682272
0.000702452204435
0.000676854191983
0.000654986221256
0.000638033074114
0.000624255278441
0.000609849138325
0.000590122177718
0.000560433474555
0.000517551143206
0.000462597428731
0.000406074451957
0.000444207153512
0.000521870122507
0.000487997766883
0.000569367236846
0.000644926411829
0.000699468904942
0.000728587134703
0.000733287225977
0.000720116485154
0.000698066912995
0.000674463615216
0.000653589817415
0.000636684853032
0.000622202854037
0.000606687144961
0.000585827969648
0.000555343830037
0.000512294262924
0.00045783476993
0.00040225901361
0.000440536525906
0.000507627770099
0.00047457324578
0.000553040797784
0.000626210494744
0.000679541704002
0.000709604910329
0.000717313930768
0.000708131734727
0.000689835501275
0.000668971211604
0.000649526475934
0.000632819571705
0.00061755861078
0.000600736816049
0.000578495884933
0.000546962218012
0.000503659980714
0.000449687438252
0.000395141910508
0.000432641953682
0.000483013660657
0.000452948048136
0.000527931226078
0.000598021156313
0.000649428653625
0.000679902248324
0.000690421594829
0.000685454442139
0.000671361532186
0.000653779118057
0.000636309672558
0.000620268069256
0.000604665246985
0.000586915211728
0.000563649558862
0.000531486014312
0.000488439418803
0.000435557305466
0.00038213697676
0.000416890569101
0.00044394529262
0.000420379752928
0.00049141147258
0.000557638073508
0.000606599408164
0.000636313903938
0.000648648964471
0.000647260491303
0.000637172118033
0.000623074207707
0.000608092759646
0.000593423115826
0.000578312153907
0.000560548907569
0.000537239183931
0.000505526453326
0.000463707907575
0.000412605925468
0.000360481312874
0.000389220661444
0.000386477170768
0.000374728298586
0.000441871002316
0.000503631687965
0.000549429512933
0.000577701621268
0.000590455510126
0.000591540083998
0.000584785837279
0.000574051894522
0.000561918130146
0.00054935905589
0.000535758068998
0.000519196478854
0.000497108640264
0.000467191995984
0.000427622101044
0.000378767120762
0.000327720064106
0.000345359985497
0.000307080426329
0.000315406539356
0.000380098390732
0.000437553286735
0.000479837080846
0.000506209266
0.000518809809773
0.000521096750802
0.000516763626499
0.000509012884948
0.000499855686763
0.000489948975515
0.000478730808381
0.000464458309227
0.000444839493775
0.000417500316504
0.000380578353001
0.00033385242391
0.000282467099256
0.000280882480569
0.000203543562905
0.000246217430081
0.000313570971549
0.000369314973072
0.000409271867603
0.000434085914293
0.000446364079505
0.000449533845984
0.000447043262104
0.000441697342207
0.000435201649827
0.000428004320057
0.00041935786302
0.000407555900434
0.000390358504633
0.000365291364467
0.000330070877029
0.000283288880777
0.000226889786616
0.00019169747523
8.8752651355e-05
0.000203034000096
0.000305710546351
0.000382644145618
0.000435350674946
0.000467359511789
0.00048316512004
0.000487646117907
0.000485402360933
0.00048002792016
0.000473633492889
0.000466675691054
0.000457986989988
0.000445156300957
0.000424948249093
0.000393690879341
0.000347376010835
0.000281614347939
0.000191997834981
8.64065250159e-05
0.000104908029283
0.000283226227382
0.00044875025184
0.000577020514769
0.000668398576212
0.000726575238113
0.000757294857701
0.000767561453856
0.000764442506239
0.000753739569081
0.00073909398235
0.000721638518802
0.000700079218522
0.000671070406845
0.000630003481901
0.000571884076193
0.000491913587804
0.000385695475191
0.00024982924386
9.97553090919e-05
0.000283907978317
0.000344949647841
0.000447746349681
0.00053618594835
0.000602561381499
0.000646464714437
0.00067063132653
0.000679319106354
0.000677174833047
0.000668197897734
0.00065502954333
0.000638649048806
0.000618351002391
0.000592021044646
0.000556886508619
0.00051013221313
0.000449783720956
0.00037584289816
0.000293528767194
0.000249112676935
0.000450311512631
0.000449122501665
0.000543941361082
0.000632763078788
0.000702085673551
0.000749087430953
0.000775272160918
0.000784347929302
0.000780926117406
0.000769342008419
0.000752638467561
0.00073213355736
0.000707289226491
0.000676059332675
0.000635825599478
0.000584210883679
0.000520172468324
0.000445861324938
0.000371758058215
0.000382556743797
0.000580429259573
0.000539553580934
0.000634746114182
0.000728429247558
0.000802686378273
0.000853121110856
0.000880500241403
0.000888157209486
0.000881209497986
0.000865182962233
0.000843893793318
0.000819138420536
0.000790316966235
0.000755139727466
0.000711020746709
0.000655281091085
0.000586996935037
0.000509515637824
0.000436808834445
0.000481532291419
0.000674862130458
0.000608564837956
0.000706600473416
0.000805184159733
0.00088344133907
0.000935806331444
0.000960918179584
0.000962654120793
0.000948596272019
0.000925927814663
0.000899431473921
0.000871398929469
0.000841000796919
0.000805369203971
0.000760984145146
0.000704259321127
0.000634397925785
0.000555026443478
0.00048239425054
0.000547660210144
0.000737274905192
0.000655754877242
0.00075671892153
0.000858751899233
0.000939294285682
0.000989388706394
0.00100707094042
0.000998530665763
0.000974239973294
0.000943334269149
0.000911673852965
0.000881887207429
0.00085279250118
0.000820441926652
0.000779982944086
0.00072702253331
0.000659193851931
0.000580493990726
0.000508727671061
0.000585434976617
0.000773332081525
0.000683890688923
0.000786739021998
0.00089027061873
0.000970001132546
0.00101348029743
0.00101993057799
0.000998288738649
0.000962276731056
0.000922982178176
0.000887176307414
0.000857462018526
0.00083207325165
0.000805840937616
0.000772424105593
0.000726192242169
0.000664227792786
0.000588793772082
0.000519270845521
0.000601374218538
0.000789961018083
0.000697313477107
0.000800645533794
0.000903734714453
0.000979534575527
0.00101434773798
0.00100854484813
0.000973882851736
0.000927203568474
0.000881102598027
0.000842710449163
0.000814262718485
0.000793429050529
0.000774032969312
0.000748533750128
0.000710205757359
0.000655376262652
0.000585453651372
0.000519141844417
0.000603066274131
0.0007940971846
0.000700726526995
0.00080322164808
0.000904170057742
0.00097501162539
0.00100177645673
0.000985764771201
0.000941112997691
0.000886930661656
0.000836582307332
0.000797064806823
0.000770081177301
0.000752869832366
0.000738861579693
0.000719869745202
0.000688488024305
0.00064029036746
0.000576028433075
0.000513520379057
0.000597635522195
0.000791359848088
0.000698126788154
0.000798825050879
0.000896934321459
0.000963500267257
0.000984564874297
0.000962169925895
0.000911913530471
0.000854035749251
0.0008020106229
0.000762472399702
0.000736626827306
0.000721461034572
0.000710437796218
0.000695313606721
0.000668482659854
0.000625095923964
0.000565426619607
0.000506495000445
0.000590392679676
0.000784994233088
0.000691925493045
0.000790225274968
0.00088557434752
0.000949364774333
0.000967863212265
0.000943472801251
0.000892135043496
0.000834091661101
0.000782485507132
0.000743589359553
0.000718344350459
0.000703681964342
0.000693286631951
0.000679241265445
0.000654172435883
0.00061323191095
0.000556497504102
0.000500356282187
0.000584227181571
0.000775475172862
0.00068254961193
0.000778037990519
0.000870908976506
0.000933567579301
0.000952655909163
0.000930493418951
0.000882212079348
0.000827002993283
0.000777412694668
0.000739509863744
0.000714278422908
0.000698798234274
0.000687068816649
0.000671720642307
0.000645919304394
0.000605183636614
0.000549677068076
0.000495351123792
0.000579437467534
0.000760513817032
0.000668472052085
0.000760755585006
0.000851014011582
0.000913713584422
0.000935999066007
0.000919732558894
0.000878172901392
0.000828441587566
0.00078223823141
0.000745623792168
0.000719902687223
0.000702519992564
0.000687938133227
0.000669515050318
0.000641137028599
0.000598899772909
0.000543249929373
0.0004899269423
0.000573883336511
0.000735661512399
0.000646695563788
0.000735378637474
0.000822529182341
0.000885148454593
0.000912059735753
0.000904114423622
0.000871987565109
0.000830005403638
0.000788700256699
0.000753963698468
0.000727640919048
0.000707716856803
0.000689418355622
0.000666987167073
0.000635131974964
0.000590470920278
0.000533929422527
0.000481152454504
0.000563436151319
0.000695292939005
0.000613565207647
0.000698417884663
0.000781998990026
0.00084322004357
0.000874300930732
0.000874961847064
0.000853121878464
0.000820136965977
0.000785042289433
0.000753318529472
0.000727098735556
0.000705040182046
0.000683292767968
0.000657101755219
0.000621971170055
0.000574918932693
0.000517655107661
0.000465298746102
0.000542657555107
0.00063351783629
0.000565558890422
0.000646802847748
0.000726438886742
0.000785185029168
0.000818291837654
0.000825739360298
0.000813048333626
0.000788841782205
0.00076055333349
0.000732989380923
0.000708283848373
0.000685556393338
0.000661843044301
0.000633304045632
0.000596044326787
0.000547756476365
0.000490949549522
0.000438598211944
0.000505542130069
0.000544961158914
0.000500225632264
0.000579151330802
0.000654878683455
0.000710967161132
0.000743846449315
0.000755229016957
0.000749252383273
0.000732384415789
0.00071055768208
0.000687799473914
0.000665957896845
0.00064444283378
0.000620907804405
0.000592095442727
0.000554628368813
0.000507191993273
0.000451376159957
0.000397993141188
0.000446089507202
0.000425125675983
0.000417501637154
0.000497584933549
0.000570643432759
0.000624308470538
0.000656428171137
0.000669219165521
0.000667121002941
0.000655594242459
0.000639324295201
0.000621434311585
0.000603385379151
0.000584631903526
0.000563243954668
0.000536295273825
0.000500844245649
0.000455067072832
0.000399577330293
0.000342284982206
0.000358577150384
0.000271321291194
0.000323570917791
0.000413659009413
0.000488978396625
0.000542647118317
0.00057476551977
0.000588570932594
0.000588840462673
0.000580689701689
0.000568377308171
0.00055466300789
0.000540561668376
0.000525357171786
0.000506962838813
0.000482412594808
0.000448593544288
0.000402854158132
0.000343964083751
0.000275238940346
0.000238086230489
0.000103011999517
0.000270265882002
0.000421746662215
0.00053545421795
0.000612729480882
0.000658070724651
0.000677936372896
0.000679891296202
0.000671305649994
0.000657989684769
0.000643464049156
0.000628735281037
0.00061243914084
0.000591283855704
0.000560770576158
0.000515739937044
0.000450797778154
0.000360315964007
0.000238751685627
9.71301674001e-05
0.000127839222905
0.000395316940836
0.000640002592787
0.00083054271889
0.000968173237901
0.00105718712476
0.00110494839573
0.00112113255464
0.00111576759734
0.00109719482267
0.00107087129242
0.00103882704023
0.000999665914436
0.000948944938945
0.000880475206223
0.000787970642957
0.000666200694139
0.000511088588684
0.000319680553432
0.000113560435637
0.000396887931276
0.000479394247272
0.000625203703173
0.00075317099736
0.000851632103785
0.000918917524853
0.000957815302335
0.000973528311339
0.000972135721918
0.00095899336233