/*--------------------------------*- C++ -*----------------------------------*\
| =========                 |                                                 |
| \\      /  F ield         | OpenFOAM: The Open Source CFD Toolbox           |
|  \\    /   O peration     | Version:  3.0.1                                 |
|   \\  /    A nd           | Web:      www.OpenFOAM.org                      |
|    \\/     M anipulation  |                                                 |
\*---------------------------------------------------------------------------*/
FoamFile
{
    version     2.0;
    format      ascii;
    class       volScalarField;
    location    "8";
    object      p;
}
// * * * * * * * * * * * * * * * * * * * * * * * * * * * * * * * * * * * * * //

dimensions      [1 -1 -2 0 0 0 0];

internalField   nonuniform List<scalar> 
7968
(
4702.04901701
4702.05832183
4702.069761
4702.08514386
4702.10355718
4702.12563411
4702.15126597
4702.17974671
4702.21065672
4702.24286467
4702.27544231
4702.30760186
4702.33857132
4702.36781751
4702.39470861
4702.41859615
4702.43851647
4702.45349567
4702.46365395
4702.46735851
4702.05563248
4702.06860605
4702.08194834
4702.09884447
4702.11802663
4702.13988258
4702.16500425
4702.19320509
4702.22380532
4702.25576927
4702.28817394
4702.32019112
4702.35112008
4702.38039335
4702.40737966
4702.43114147
4702.45058722
4702.46415819
4702.47248264
4702.47318027
4702.06395754
4702.07931996
4702.09425023
4702.11209963
4702.13098686
4702.15205018
4702.17601006
4702.20298887
4702.23251766
4702.26370633
4702.29568883
4702.32763092
4702.35882267
4702.3885658
4702.41603048
4702.44008032
4702.45933269
4702.47198283
4702.47909314
4702.47838609
4702.07580822
4702.09284332
4702.10888401
4702.12701866
4702.14526242
4702.16509034
4702.18757299
4702.21310528
4702.24137257
4702.27154302
4702.30288547
4702.33454675
4702.36586347
4702.39595595
4702.42391465
4702.44842002
4702.46784343
4702.48015165
4702.4865177
4702.48484998
4702.09042212
4702.10792786
4702.12406412
4702.14166393
4702.15888799
4702.17731855
4702.19828354
4702.22228057
4702.24917352
4702.27827963
4702.30886759
4702.34011366
4702.37128814
4702.40152981
4702.42983374
4702.45478377
4702.47461784
4702.48725791
4702.49379797
4702.49202099
4702.10799999
4702.12555138
4702.1410479
4702.15754645
4702.17343202
4702.19030846
4702.20958899
4702.23200624
4702.25750212
4702.28546586
4702.31518947
4702.3458734
4702.37678495
4702.40704474
4702.43562146
4702.46105793
4702.48143721
4702.49479259
4702.5019951
4702.5006654
4702.1287269
4702.14600759
4702.16050083
4702.17565563
4702.19012371
4702.2053623
4702.22299991
4702.24395356
4702.26814625
4702.29497652
4702.3237645
4702.35374099
4702.38420111
4702.41427211
4702.44296324
4702.46874502
4702.48971138
4702.50390016
4702.51199376
4702.51127597
4702.15213463
4702.16918315
4702.18260319
4702.19640866
4702.20948906
4702.22322872
4702.23943462
4702.259115
4702.28214794
4702.30790191
4702.33569769
4702.36480197
4702.3946252
4702.42429906
4702.4528666
4702.47881264
4702.50017558
4702.51512633
4702.52405864
4702.52371342
4702.17742407
4702.19450752
4702.20701388
4702.21967134
4702.23150484
4702.24394311
4702.25890156
4702.27745737
4702.29957304
4702.32443924
4702.35118569
4702.37917154
4702.40810996
4702.43727666
4702.46557267
4702.49148567
4702.51307919
4702.52854156
4702.53808053
4702.53804181
4702.20427741
4702.22119486
4702.23304995
4702.24488607
4702.25570423
4702.2670759
4702.28097644
4702.2985266
4702.31980532
4702.34372225
4702.36944952
4702.39645113
4702.42447434
4702.45296413
4702.48084007
4702.50650007
4702.52803849
4702.54364052
4702.55357899
4702.55377055
4702.23171741
4702.24841583
4702.25992197
4702.27126087
4702.28141144
4702.29202477
4702.30508802
4702.32173404
4702.34205285
4702.3650021
4702.38981441
4702.41599876
4702.44326061
4702.471061
4702.49833762
4702.52350767
4702.54470548
4702.5601342
4702.57009071
4702.57046196
4702.25926551
4702.27545874
4702.28691584
4702.29810406
4702.30794793
4702.3181348
4702.33061246
4702.34649489
4702.36580338
4702.38784238
4702.41188552
4702.43739042
4702.46404202
4702.49116524
4702.51765584
4702.54210182
4702.56268248
4702.57763287
4702.58719531
4702.58770387
4702.28514027
4702.30158181
4702.3133826
4702.32474018
4702.33463604
4702.34471912
4702.35688711
4702.37223348
4702.39075126
4702.4119773
4702.43536774
4702.46033355
4702.48639333
4702.51268097
4702.53827063
4702.56181223
4702.58154311
4702.59571875
4702.60464096
4702.60521571
4702.30990661
4702.32644031
4702.33875366
4702.35055511
4702.36071861
4702.37100323
4702.38316005
4702.39825135
4702.416372
4702.43708536
4702.45989925
4702.48426974
4702.50955644
4702.53495825
4702.55956394
4702.58205936
4702.6007862
4702.61393874
4702.62207066
4702.62265669
4702.33284662
4702.3494069
4702.3622218
4702.37458305
4702.38519948
4702.395917
4702.40840288
4702.42357027
4702.44158396
4702.46202635
4702.48440368
4702.50814503
4702.53263592
4702.55710895
4702.58064827
4702.60199679
4702.61963108
4702.63172305
4702.63899153
4702.63954459
4702.35328993
4702.36954934
4702.38259707
4702.39542152
4702.40656359
4702.41787003
4702.43090323
4702.4464613
4702.46465379
4702.48505745
4702.5071554
4702.53037448
4702.5541111
4702.57764827
4702.60008281
4702.62036098
4702.6369129
4702.64804514
4702.65459738
4702.65488533
4702.37022834
4702.38571396
4702.39841048
4702.41131309
4702.42287539
4702.43483112
4702.44856292
4702.4647418
4702.48332854
4702.50392593
4702.52593111
4702.54877447
4702.57190274
4702.5946131
4702.61612189
4702.63537572
4702.65106497
4702.66153951
4702.66770905
4702.66814443
4702.38271313
4702.39639747
4702.40783434
4702.42017655
4702.4319821
4702.44466852
4702.45931175
4702.47634304
4702.49565415
4702.51667192
4702.53876671
4702.56137576
4702.58394354
4702.60594184
4702.6266207
4702.64507064
4702.66022313
4702.67059479
4702.67703556
4702.67809195
4702.39087057
4702.40230299
4702.41204457
4702.42333353
4702.4351939
4702.44840024
4702.46392607
4702.48189437
4702.50197783
4702.52347182
4702.54574281
4702.56825815
4702.59047974
4702.61194133
4702.63199749
4702.64994681
4702.66499197
4702.67575095
4702.68282176
4702.68465997
4702.39306829
4702.40064539
4702.40850393
4702.41841206
4702.42975447
4702.44339803
4702.45946346
4702.47792652
4702.49837705
4702.52020207
4702.54277592
4702.56558208
4702.58811381
4702.60986537
4702.62985342
4702.64801215
4702.66330032
4702.67496367
4702.6830282
4702.68676812
4206.62770196
4206.63527065
4206.64542424
4206.66044824
4206.67990788
4206.7036498
4206.73113406
4206.76187121
4206.79457523
4206.82817204
4206.86170969
4206.89437631
4206.92544367
4206.95448139
4206.98125374
4207.00511191
4207.02555077
4207.04193407
4207.05404625
4207.05977011
4206.63221482
4206.64311699
4206.6536108
4206.67005716
4206.69173916
4206.71794602
4206.74765436
4206.78006399
4206.81390938
4206.8479578
4206.88128802
4206.91314768
4206.94293672
4206.97029964
4206.99504379
4207.01674771
4207.03520092
4207.05003425
4207.06158022
4207.06461632
4206.63884597
4206.65042541
4206.65965618
4206.67634981
4206.69909913
4206.72652013
4206.7572268
4206.79025419
4206.82436551
4206.85829568
4206.8911519
4206.9222341
4206.95101729
4206.97726179
4207.0007389
4207.02115556
4207.0385198
4207.05297631
4207.06572973
4207.06876662
4206.64973164
4206.66299655
4206.67257154
4206.69032422
4206.71438497
4206.74283109
4206.77407961
4206.80713788
4206.8410739
4206.87443074
4206.90650208
4206.93662388
4206.96418432
4206.98947408
4207.01171192
4207.03074426
4207.04668211
4207.06010204
4207.07269788
4207.07484035
4206.66458936
4206.68013164
4206.69078316
4206.70983898
4206.73526306
4206.76469171
4206.79644024
4206.82945014
4206.8627012
4206.89519041
4206.92626923
4206.95538786
4206.98204919
4207.00592328
4207.02657662
4207.04408214
4207.05841324
4207.07046014
4207.08208708
4207.08264787
4206.6832872
4206.70131209
4206.71311232
4206.73317541
4206.75960523
4206.78967289
4206.8214385
4206.85410428
4206.8866262
4206.91813858
4206.94814434
4206.97618672
4207.00176344
4207.02442362
4207.04389145
4207.05980251
4207.07267636
4207.0834692
4207.0938642
4207.09252695
4206.70538671
4206.72563963
4206.73839344
4206.75900321
4206.78593836
4206.81606666
4206.84750661
4206.87957849
4206.91122971
4206.94165629
4206.97054366
4206.99753103
4207.0220833
4207.04369973
4207.06211003
4207.07698963
4207.08858922
4207.09840977
4207.10763243
4207.10444402
4206.73040232
4206.75243214
4206.76579723
4206.78642478
4206.8134333
4206.843293
4206.87416484
4206.90547981
4206.93605966
4206.96521723
4206.99293864
4207.01895704
4207.04263806
4207.06337846
4207.08094397
4207.09502617
4207.1060007
4207.11488265
4207.12315305
4207.11853055
4206.75756367
4206.78062403
4206.7942198
4206.81422969
4206.84123393
4206.87055203
4206.90062655
4206.93091086
4206.95991946
4206.98752706
4207.01403527
4207.03928869
4207.06257779
4207.08274084
4207.09975601
4207.11335395
4207.12385904
4207.13217284
4207.13981579
4207.13421513
4206.78549064
4206.80910277
4206.82272594
4206.84264269
4206.86865002
4206.89713113
4206.92625054
4206.9553812
4206.98292335
4207.00924509
4207.03458982
4207.05891488
4207.08168475
4207.10150226
4207.11813965
4207.13144807
4207.14170875
4207.14986247
4207.15691057
4207.1509294
4206.81345808
4206.8369993
4206.85030251
4206.86965653
4206.89487345
4206.92246914
4206.95061698
4206.97870552
4207.00516804
4207.03042168
4207.05477269
4207.07824033
4207.10032167
4207.11965665
4207.13592808
4207.14900085
4207.15911053
4207.16717126
4207.17403994
4207.16820807
4206.84051182
4206.86361223
4206.87631109
4206.89490901
4206.91932646
4206.94600963
4206.97322918
4207.00046057
4207.02630573
4207.05079496
4207.0743836
4207.09712827
4207.11840629
4207.13704555
4207.15293131
4207.16578521
4207.1757928
4207.18374074
4207.19088091
4207.18564442
4206.86712627
4206.88854952
4206.90032837
4206.91820861
4206.94150009
4206.96717373
4206.99346393
4207.01989538
4207.04542528
4207.06956218
4207.09259375
4207.11459739
4207.13496621
4207.15313372
4207.16875383
4207.18151728
4207.19156866
4207.19961666
4207.2072133
4207.20302901
4206.89197255
4206.91141887
4206.92205244
4206.93892324
4206.96099709
4206.98553737
4207.01087091
4207.03646433
4207.06145032
4207.08528044
4207.1079767
4207.12947726
4207.14945597
4207.16743467
4207.1830372
4207.19596196
4207.20621908
4207.21471976
4207.22285372
4207.2201249
4206.91489737
4206.93205828
4206.94134257
4206.95690235
4206.9774537
4207.00076554
4207.02511354
4207.04991889
4207.07439074
4207.09794572
4207.12043221
4207.14173652
4207.16161101
4207.17965904
4207.19553974
4207.20890804
4207.21969144
4207.22882026
4207.23765919
4207.236613
4206.93537361
4206.95006803
4206.95792168
4206.97192668
4206.99072424
4207.01245661
4207.03573771
4207.05977045
4207.08386015
4207.10730191
4207.12980131
4207.15117518
4207.17119243
4207.1895523
4207.20600658
4207.21997487
4207.23173079
4207.24162537
4207.25125004
4207.25204357
4206.95293787
4206.96532392
4206.97188402
4206.98423309
4207.00115588
4207.02123861
4207.04325413
4207.06651538
4207.09042743
4207.11387385
4207.13653936
4207.15816859
4207.1784271
4207.19704458
4207.214333
4207.22937424
4207.24215511
4207.25291044
4207.26315498
4207.26542188
4206.96703329
4206.97757954
4206.98353644
4206.9945938
4207.00988204
4207.02849785
4207.04944153
4207.07205826
4207.09554824
4207.11898012
4207.14184869
4207.1638251
4207.18460735
4207.20397161
4207.22175996
4207.23757383
4207.25122068
4207.2626047
4207.2728704
4207.2759656
4206.97744477
4206.98707501
4206.99400451
4207.00467103
4207.01873829
4207.0359214
4207.05560049
4207.07729666
4207.1002469
4207.12354669
4207.14658551
4207.16896333
4207.19032862
4207.21040571
4207.22895836
4207.24553421
4207.25980399
4207.27129793
4207.28044497
4207.28337439
4206.98212374
4206.98838896
4206.99493095
4207.00433743
4207.01638059
4207.03130767
4207.0489158
4207.06895311
4207.09093916
4207.11397439
4207.13737539
4207.16064384
4207.18330051
4207.20486514
4207.2253705
4207.24374021
4207.2595183
4207.27207036
4207.28126165
4207.28526797
3711.2012663
3711.20858795
3711.21840198
3711.23357592
3711.25403233
3711.27948943
3711.309245
3711.34244692
3711.37776414
3711.4138195
3711.44952322
3711.48399819
3711.51656604
3711.54683351
3711.57458329
3711.59946079
3711.62107764
3711.63895071
3711.65257231
3711.65929845
3711.2049825
3711.21956824
3711.23186456
3711.24946591
3711.27339943
3711.30247105
3711.33535616
3711.37076265
3711.40736565
3711.44393549
3711.47943964
3711.51303049
3711.54410036
3711.57223933
3711.59723357
3711.61892287
3711.63734487
3711.65249393
3711.66339697
3711.66420016
3711.21072452
3711.22839028
3711.23953892
3711.25611107
3711.2805278
3711.31094776
3711.34535301
3711.38209672
3711.41954888
3711.45630102
3711.49137083
3711.52401722
3711.5537357
3711.58021724
3711.60350448
3711.62371171
3711.64127745
3711.65672105
3711.66864772
3711.66775419
3711.22124309
3711.24175233
3711.2521739
3711.26815949
3711.29310841
3711.32452079
3711.35975466
3711.39694969
3711.43424758
3711.47051897
3711.5048204
3711.53650173
3711.56519034
3711.59008117
3711.61186324
3711.63068158
3711.64744995
3711.66317307
3711.67589485
3711.67339864
3711.23658694
3711.26079001
3711.27169576
3711.28819947
3711.3141905
3711.34658802
3711.28776546
3711.31325847
3711.40434162
3711.44583202
3711.48508443
3711.52152785
3711.62222968
3711.67751457
3711.62707353
3711.64397529
3711.65920932
3711.67412365
3711.6863081
3711.68123189
3711.25649422
3711.28439664
3711.29653507
3711.31392372
3711.34083775
3711.0966604
3710.79920824
3710.97746232
3711.23828219
3711.29821051
3711.35576647
3711.41048977
3711.70192416
3712.0075704
3711.85612947
3711.66171392
3711.67518561
3711.68869133
3711.69949591
3711.69156041
3711.28039249
3711.31134255
3711.32492273
3711.34299541
3711.26904604
3710.54276148
3710.25989106
3710.75797787
3711.19219211
3711.25078168
3711.30695419
3711.36035826
3711.8289997
3712.47313076
3712.37993128
3711.75883586
3711.69370789
3711.70567047
3711.71482751
3711.7043743
3711.30750278
3711.34057391
3711.35545935
3711.37381991
3711.15182914
3710.19470142
3710.07882717
3710.76496188
3711.28874482
3711.32994523
3711.36875264
3711.4049222
3711.95876259
3712.77936006
3712.81561415
3711.92458351
3711.71312375
3711.72408223
3711.73173226
3711.71944261
3711.33666281
3711.3710118
3711.38676302
3711.40560188
3711.12536385
3710.14022207
3710.07999538
3710.82887926
3711.37912865
3711.40813995
3711.43478883
3711.45892954
3712.03567381
3712.90711046
3712.97053058
3712.01512238
3711.73282187
3711.7431099
3711.74946576
3711.73616767
3711.36659977
3711.40149427
3711.41740899
3711.43553851
3711.14892952
3710.14306871
3710.08008588
3710.84183577
3711.40121932
3711.42892142
3711.45434208
3711.47746103
3712.06452803
3712.95264335
3713.01633136
3712.0406268
3711.75200042
3711.76166915
3711.76744519
3711.75378317
3711.39636428
3711.43108327
3711.44662142
3711.46407955
3711.1705642
3710.14383945
3710.07803686
3710.85270965
3711.42129089
3711.44789296
3711.47230512
3711.49455477
3712.09205684
3712.99693226
3713.06093093
3712.06499929
3711.77022394
3711.77959234
3711.78522006
3711.77178595
3711.4252024
3711.45903123
3711.47366643
3711.49027073
3711.18960712
3710.14194699
3710.07332662
3710.86106596
3711.4390129
3711.46481301
3711.48850064
3711.51006798
3712.11811475
3713.03979992
3713.10412936
3712.08801376
3711.78723974
3711.79662743
3711.80247322
3711.7898262
3711.45273916
3711.48484454
3711.49806744
3711.51344946
3711.29382938
3710.30400689
3710.22758301
3710.99247539
3711.54884992
3711.5633671
3711.57589439
3711.5863226
3712.16551384
3713.0347582
3713.0404068
3712.03961268
3711.80284582
3711.81252535
3711.81900853
3711.80770655
3711.47850452
3711.50816845
3711.51966184
3711.53372141
3711.48057262
3710.80507665
3710.65087389
3711.26947273
3711.72739481
3711.72623199
3711.72311372
3711.71793029
3712.18089218
3712.83053531
3712.64188562
3711.8968877
3711.81701277
3711.82713812
3711.83469354
3711.8253313
3711.50228253
3711.52881455
3711.53848201
3711.55107936
3711.57158958
3711.37465152
3711.21601265
3711.53097908
3711.81084074
3711.8104768
3711.80825832
3711.80404243
3712.06837823
3712.32779126
3712.07108209
3711.81866699
3711.8298069
3711.84066359
3711.84936391
3711.84252196
3711.52372137
3711.54664263
3711.55471272
3711.56586925
3711.58468987
3711.60869149
3711.55323905
3711.61896689
3711.72480024
3711.74451853
3711.76256177
3711.77872113
3711.86637154
3711.89676482
3711.81561232
3711.82918446
3711.84136584
3711.85309017
3711.86280909
3711.85873476
3711.54245377
3711.56178775
3711.56891447
3711.57913938
3711.59635312
3711.61863359
3711.6437755
3711.670194
3711.69659518
3711.72212561
3711.74626137
3711.76872112
3711.78937816
3711.80821904
3711.8243919
3711.83915476
3711.85236203
3711.86457821
3711.87473373
3711.87313448
3711.55809154
3711.57439626
3711.5817504
3711.59214492
3711.6083879
3711.62915608
3711.6528425
3711.67816656
3711.70399562
3711.72928023
3711.75350933
3711.77628673
3711.79741513
3711.81675573
3711.83414807
3711.84964831
3711.86330188
3711.87523274
3711.88479449
3711.88480326
3711.57013194
3711.58321097
3711.59137841
3711.60250726
3711.61800245
3711.63715535
3711.65904324
3711.68281604
3711.70750071
3711.73232911
3711.75665628
3711.78001201
3711.80206158
3711.82253136
3711.84117342
3711.8576869
3711.87185855
3711.8834485
3711.89203428
3711.8931943
3711.57601392
3711.5821258
3711.5880073
3711.59702821
3711.60933359
3711.62508488
3711.64403735
3711.66571997
3711.68938609
3711.71405156
3711.73891724
3711.76344712
3711.7871939
3711.809836
3711.83106266
3711.85032738
3711.8670575
3711.88065006
3711.89078693
3711.89544965
3215.76343147
3215.76972559
3215.77982248
3215.79601949
3215.81874751
3215.84739832
3215.88100553
3215.91826175
3215.95764641
3215.99749306
3216.03655025
3216.07379159
3216.108513
3216.14040062
3216.16933748
3216.1952369
3216.21800633
3216.23740039
3216.25260766
3216.26119006
3215.76540634
3215.78119662
3215.79486684
3215.81375156
3215.84020377
3215.87281726
3215.91001722
3215.95010443
3215.99131299
3216.03202592
3216.0710505
3216.10744532
3216.14058636
3216.17012649
3216.19604734
3216.21843898
3216.23748395
3216.25339438
3216.26425762
3216.26530345
3215.77070313
3215.79094258
3215.80513562
3215.82330964
3215.85015583
3215.88371208
3215.9218318
3215.96259151
3216.00415236
3216.04484786
3216.08350509
3216.11924178
3216.15148251
3216.17991621
3216.2045636
3216.22571257
3216.24384566
3216.25953958
3216.26988246
3216.26835979
3215.78162247
3215.80507873
3215.81901272
3215.83615711
3215.8627441
3215.72678186
3215.51214169
3215.62611994
3215.79698097
3215.86157247
3215.92398404
3215.98342769
3216.19010867
3216.43218068
3216.33858875
3216.23199358
3216.24986813
3216.2662656
3216.27726345
3216.27377605
3215.79869456
3215.82602475
3215.84055093
3215.85742276
3215.48167923
3214.65566086
3214.42697551
3214.95413154
3215.38603593
3215.48515064
3215.58207716
3215.67613774
3216.1627275
3216.92977693
3217.0810017
3216.5500084
3216.2617616
3216.27796372
3216.28857816
3216.28209226
3215.82129012
3215.85252493
3215.86791947
3215.70310706
3214.33674302
3213.44930329
3213.82094376
3214.68356992
3215.2268231
3215.31329327
3215.39764947
3215.47931677
3216.0940113
3217.25134198
3218.04494702
3217.5466059
3216.41696892
3216.29366961
3216.30328088
3216.29352445
3215.84841789
3215.88306785
3215.899246
3215.2267799
3213.26084635
3213.05141585
3213.68480052
3214.58472106
3215.14730205
3215.21113553
3215.27305342
3215.33253073
3215.99012374
3217.29692184
3218.48055105
3218.65990685
3216.88545283
3216.31202975
3216.32054064
3216.3079283
3215.87889222
3215.91621327
3215.93297096
3214.82365437
3212.89362246
3213.0639114
3213.70626705
3214.62632289
3215.19236251
3215.23052038
3215.2672096
3215.30188503
3215.97417554
3217.35854875
3218.64777284
3219.22949991
3217.3766825
3216.3318185
3216.33939766
3216.32472111
3215.91133177
3215.95040869
3215.96746192
3214.72204351
3212.851913
3213.1001901
3213.75151564
3214.68571499
3215.25472662
3215.27881674
3215.30206058
3215.32361823
3216.00329598
3217.42306433
3218.75302178
3219.4189954
3217.56828259
3216.35199541
3216.35887071
3216.34302152
3215.94443002
3215.98426335
3216.00123459
3214.73033487
3212.82392098
3213.07621033
3213.73758356
3214.6869011
3215.26497173
3215.28762069
3215.30961624
3215.33027383
3216.02251879
3217.47123824
3218.82824196
3219.50526619
3217.61364461
3216.37176681
3216.37818612
3216.36194474
3215.97697553
3216.01667722
3216.033225
3214.73674313
3212.79392778
3213.05025258
3213.72177523
3214.68677704
3215.27440422
3215.29599095
3215.31698294
3215.33670317
3216.04144983
3217.51897345
3218.90291416
3219.59082756
3217.65814867
3216.3907342
3216.39701132
3216.38097314
3216.00818853
3216.04680856
3216.06259179
3214.74043642
3212.76118744
3213.02163175
3213.70349357
3214.68481353
3215.28258752
3215.30357342
3215.32382486
3215.34268066
3216.05983743
3217.56601828
3218.97680209
3219.67543402
3217.70155665
3216.4086607
3216.41496849
3216.39976057
3216.03753408
3216.0741445
3216.08888602
3214.93964367
3212.92177322
3213.14047308
3213.83571262
3214.83049117
3215.42848509
3215.43733293
3215.44517179
3215.45144607
3216.16365248
3217.664473
3219.05381491
3219.65154472
3217.57838725
3216.4253624
3216.43194743
3216.41822319
3216.06465367
3216.09844172
3216.11199556
3215.50502538
3213.57089883
3213.48063441
3214.19111502
3215.18643064
3215.76690477
3215.75397752
3215.73968938
3215.72360773
3216.39845225
3217.81598237
3219.07670281
3219.17657972
3217.09499989
3216.44081729
3216.44796285
3216.43643703
3216.08940982
3216.11972119
3216.13199319
3216.00823767
3214.78691079
3214.14346909
3214.66481576
3215.63400771
3216.17683405
3216.14661128
3216.11491578
3216.08139753
3216.68746483
3217.93360976
3218.717622
3217.98411104
3216.60392483
3216.45507238
3216.46302545
3216.4543376
3216.11168891
3216.13812776
3216.14909925
3216.1598131
3215.85460809
3215.28412052
3215.37959236
3216.09819693
3216.52192141
3216.48509992
3216.44676424
3216.40658263
3216.84359464
3217.59448618
3217.58050996
3216.8265304
3216.45532318
3216.46824853
3216.47701024
3216.47151721
3216.13137323
3216.15386709
3216.16386207
3216.1743876
3216.19220717
3216.06822654
3215.96467732
3216.2415972
3216.4394954
3216.44186122
3216.44270545
3216.44168307
3216.60998517
3216.80443416
3216.61145722
3216.45355359
3216.46767843
3216.4805367
3216.48970213
3216.48721256
3216.14835327
3216.1672494
3216.17695058
3216.18808116
3216.20573405
3216.22841358
3216.25438014
3216.28214935
3216.31038418
3216.33796317
3216.364113
3216.38851697
3216.41095907
3216.43136185
3216.44964328
3216.46576503
3216.47988883
3216.49212372
3216.5008373
3216.50043706
3216.16187618
3216.17600471
3216.18485494
3216.19648583
3216.21348932
3216.23492152
3216.25963336
3216.28639736
3216.31392194
3216.34116497
3216.36742955
3216.39227212
3216.41542752
3216.43672556
3216.45600859
3216.47309236
3216.48780569
3216.49997113
3216.50869379
3216.51017979
3216.1697551
3216.17491431
3216.18048756
3216.18961696
3216.2029461
3216.22042788
3216.24168927
3216.26595654
3216.29214858
3216.31917806
3216.34616267
3216.37247461
3216.39770736
3216.42159081
3216.44384638
3216.46410096
3216.48185657
3216.49655337
3216.50772038
3216.51347471
2720.3162306
2720.32178059
2720.33326762
2720.35134414
2720.37736403
2720.41025631
2720.44886966
2720.49144103
2720.53645856
2720.58147456
2720.62520645
2720.66640948
2720.70431028
2720.73860719
2720.76932438
2720.79655501
2720.82050175
2720.84130648
2720.85745494
2720.86846636
2720.31644867
2720.32820747
2720.34196294
2720.36160787
2720.39069552
2720.4272744
2720.46949211
2720.51521199
2720.56219544
2720.60833851
2720.65226913
2720.69289769
2720.7295778
2720.76193828
2720.79011409
2720.81444884
2720.83528422
2720.85329918
2720.865718
2720.87115713
2720.32254461
2720.33712467
2720.35219348
2720.37179118
2720.40138581
2720.27197674
2720.06537509
2720.18151576
2720.35524271
2720.42572952
2720.49388312
2720.55873605
2720.76709345
2721.00960552
2720.92300312
2720.82239735
2720.84220235
2720.85935083
2720.87040722
2720.87418375
2720.33487442
2720.35122251
2720.36670316
2720.37515046
2719.7061275
2718.98267692
2718.89688298
2719.37550595
2719.78357552
2719.89693309
2720.00818085
2720.11637207
2720.58255386
2721.31610237
2721.66985179
2721.36194499
2720.85645236
2720.86598379
2720.87723762
2720.87957053
2720.35476184
2720.37391562
2720.39021239
2719.66317861
2718.12146664
2717.77311181
2718.22007094
2718.91639464
2719.38803876
2719.48906359
2719.58813761
2719.68437433
2720.25583836
2721.36456245
2722.39898426
2722.58306583
2721.43564192
2720.87863397
2720.88941784
2720.88860809
2720.38108162
2720.40359557
2720.23547951
2718.22952079
2717.17171517
2717.37599965
2717.80363266
2718.50307146
2718.98040492
2719.0597573
2719.13746013
2719.21264053
2719.82921832
2721.12566667
2722.47107466
2723.44878112
2722.79019314
2721.03744944
2720.90596417
2720.90141039
2720.41248881
2720.43801393
2719.75911013
2717.2172456
2716.95781247
2717.13963965
2717.54097345
2718.22449414
2718.68778928
2718.74171746
2718.7947411
2718.8458512
2719.47557405
2720.88879521
2722.46066831
2723.71597347
2723.94325964
2721.51004669
2720.92556529
2720.91773737
2720.44746541
2720.47560048
2719.36331472
2716.96732532
2716.93072438
2717.09696062
2717.48333674
2718.15150687
2718.59664535
2718.62518897
2718.65432304
2718.68278636
2719.31076569
2720.78321451
2722.48189226
2723.88769641
2724.42056393
2721.99839393
2720.94673494
2720.93659884
2720.48432291
2720.51432487
2719.26924386
2716.9541972
2716.94759651
2717.10953229
2717.49258911
2718.15896517
2718.59898662
2718.6143556
2718.63198581
2718.6499037
2719.28180343
2720.7885489
2722.54300753
2724.00360324
2724.59119095
2722.18771276
2720.96805886
2720.95683825
2720.52188141
2720.55254825
2719.28226697
2716.92434587
2716.91840317
2717.08068892
2717.46694035
2718.14124423
2718.58719252
2718.60092584
2718.61765124
2718.63496251
2719.27864147
2720.81753117
2722.61040782
2724.10005568
2724.69281791
2722.23392401
2720.98807066
2720.97728918
2720.55818014
2720.58884849
2719.29326574
2716.8925229
2716.88718166
2717.0500951
2717.43996911
2718.12420936
2718.5773111
2718.59016875
2718.60595417
2718.62222838
2719.27715824
2720.8474156
2722.67830867
2724.19672695
2724.79418167
2722.27950487
2721.00871909
2720.99749241
2720.592766
2720.62238082
2719.3013347
2716.85786724
2716.85310739
2717.01700714
2717.4112176
2718.10731981
2718.56916081
2718.58184051
2718.59675067
2718.61159763
2719.27717848
2720.87803732
2722.74654463
2724.29344445
2724.89515704
2722.3241732
2721.02787805
2721.01705503
2720.62487875
2720.65254177
2719.50755398
2716.97548521
2716.96044557
2717.1338272
2717.53939342
2718.25678098
2718.72638088
2718.72864588
2718.73207387
2718.73483638
2719.4046172
2721.01565601
2722.87128367
2724.38100332
2724.90645511
2722.19957632
2721.04642799
2721.03625853
2720.65410234
2720.67918082
2720.08006475
2717.46741466
2717.29635801
2717.49953927
2717.93422897
2718.68929895
2719.17047059
2719.15439555
2719.13808958
2719.12037064
2719.77896736
2721.34390212
2723.06599559
2724.39174857
2724.53678042
2721.71478797
2721.06377312
2721.0552916
2720.6803564
2720.70243499
2720.58327262
2718.67741757
2717.79989599
2718.0535494
2718.53596374
2719.32714594
2719.81093902
2719.77856406
2719.74535428
2719.71052544
2720.33590278
2721.77298364
2723.23381351
2724.23124288
2723.31800348
2721.22955532
2721.08006965
2721.07429105
2720.70371545
2720.72278486
2720.73482793
2720.16008597
2718.87335153
2718.73082747
2719.25780514
2720.05302537
2720.51228256
2720.46896267
2720.42457356
2720.37856633
2720.93218688
2722.14567411
2723.23876795
2723.27013587
2721.7677488
2721.08600385
2721.09532436
2721.09293757
2720.72420007
2720.74041118
2720.75146558
2720.75429737
2720.19568903
2719.86752789
2720.10199546
2720.71025272
2721.08679029
2721.04165436
2720.99518625
2720.94701076
2721.35889714
2722.08865504
2722.3055009
2721.7698805
2721.09566684
2721.09976862
2721.10951452
2721.1104506
2720.74210494
2720.75598716
2720.76618585
2720.77766846
2720.79725521
2720.67186721
2720.56642167
2720.8486546
2721.05191342
2721.05680968
2721.06014671
2721.06156547
2721.23548768
2721.43624967
2721.24249901
2721.08402924
2721.09958648
2721.11329587
2721.12277866
2721.12580376
2720.75613614
2720.76646741
2720.77485204
2720.78645375
2720.80513812
2720.82922602
2720.85722384
2720.88757723
2720.91853929
2720.948831
2720.97770115
2721.00477915
2721.02990819
2721.05297219
2721.07391816
2721.09258693
2721.10880112
2721.12250124
2721.13258174
2721.1370995
2720.76617768
2720.77016052
2720.77626946
2720.78603461
2720.80087053
2720.82054683
2720.84466032
2720.87214804
2720.90160297
2720.93171697
2720.96148479
2720.99020021
2721.01744615
2721.04302755
2721.06676553
2721.0883731
2721.10732913
2721.12309738
2721.13496285
2721.14211658
2224.86123572
2224.86489021
2224.87878143
2224.89886275
2224.92916069
2224.96723745
2225.01200641
2225.06050591
2225.11312581
2225.16450131
2225.21444141
2225.2610919
2225.30348494
2225.34112643
2225.37426584
2225.40334562
2225.42892037
2225.45150452
2225.46870348
2225.48299062
2224.8586357
2224.85975608
2224.87211242
2224.89175609
2224.92300963
2224.96312037
2224.92059622
2224.95969763
2225.06323724
2225.12162539
2225.17780221
2225.23026172
2225.3419943
2225.40980296
2225.37680064
2225.4053471
2225.43019165
2225.45204392
2225.46825863
2225.483283
2224.86623792
2224.86586296
2224.88002761
2224.90096585
2224.54504132
2224.01340001
2223.94732174
2224.19113398
2224.47198107
2224.5840949
2224.69392339
2224.80053644
2225.1340735
2225.61038624
2225.93385164
2225.70500293
2225.43653387
2225.45643912
2225.47048785
2225.48624455
2224.88056505
2224.8790169
2224.8948373
2224.20054152
2223.14250338
2222.72547829
2223.02704605
2223.54429257
2223.9209924
2224.0292153
2224.13532897
2224.23812814
2224.70990908
2225.61638726
2226.48819522
2226.61963731
2225.99014597
2225.46302995
2225.47605026
2225.49114725
2224.90416724
2224.90254978
2224.50353148
2222.73476376
2222.07614984
2222.13632031
2222.37498865
2222.8638034
2223.23432336
2223.32359262
2223.41073558
2223.4944685
2224.01005993
2225.11830081
2226.35471786
2227.35139344
2227.25034908
2225.79598168