/*--------------------------------*- C++ -*----------------------------------*\
| =========                 |                                                 |
| \\      /  F ield         | OpenFOAM: The Open Source CFD Toolbox           |
|  \\    /   O peration     | Version:  3.0.1                                 |
|   \\  /    A nd           | Web:      www.OpenFOAM.org                      |
|    \\/     M anipulation  |                                                 |
\*---------------------------------------------------------------------------*/
FoamFile
{
    version     2.0;
    format      ascii;
    class       volScalarField;
    location    "0.1";
    object      alpha.water;
}
// * * * * * * * * * * * * * * * * * * * * * * * * * * * * * * * * * * * * * //

dimensions      [0 0 0 0 0 0 0];

internalField   nonuniform List<scalar> 
15984
(
1.000000022
1.00000005402
1.00000003975
1.00000002504
0.999999996726
1.00000000811
1.00000001956
1.00000001721
1.00000001937
1.00000000983
1.00000001055
1.00000000874
1.0000000143
1.00000001466
1.00000001213
1.00000000516
1.00000000479
1.00000000672
1.0000000036
1.00000000107
1.00000000238
1.00000000089
1.00000000031
1
1
1.00000000003
0.999999999911
0.999999999846
0.999999999896
0.999999999493
0.999999999381
0.999999999468
0.99999999955
0.999999999565
0.99999999965
0.99999999979
0.999999999926
0.999999999973
0.999999999987
0.999999999992
1.00000001049
1.00000004641
1.00000001931
1.00000003529
1.00000000208
1.00000000611
1.00000000207
1.00000001795
1.00000001408
1.00000001153
1.00000000455
1.00000000911
1.00000000649
1.00000000842
1.00000000904
0.999999997723
0.999999998779
0.999999999653
0.999999998938
0.9999999987
0.999999999434
0.999999999475
0.999999999905
0.999999999998
0.999999999941
0.999999999927
0.999999999965
0.999999999903
0.999999999729
0.999999999534
0.999999999553
0.999999999602
0.999999999709
0.999999999758
0.999999999801
0.999999999997
0.999999999948
0.999999999945
1
1
1.00000000999
1.00000001647
1.00000008885
1.00000001662
1.00000001093
0.999999999466
0.999999999918
1.00000000283
1.00000000425
1.00000000216
1.00000000093
1.00000000259
1.00000000365
1.00000000177
1.0000000068
1.00000000985
1.00000000376
0.999999999507
0.999999998889
0.99999999879
0.999999999399
0.999999999268
0.9999999998
0.999999999861
0.999999999932
0.99999999994
0.99999999991
0.999999999621
0.999999999665
0.999999999766
0.999999999929
0.999999999702
0.999999999861
1
1
1
1
1
1
1
1.00000000402
1.00000006011
1.00000004414
1.00000005755
1.00000000552
0.999999983011
0.99999998951
0.999999993478
0.999999998283
0.999999999625
1.00000000024
1.00000000058
1.00000000066
1.00000000055
1.00000000173
1.00000000547
1.00000000459
1.00000000227
0.999999999329
0.999999999324
0.999999999436
1.00000000001
1
0.999999999735
0.9999999996
0.999999999707
0.999999999815
0.999999999748
0.999999999764
0.999999999782
0.999999999977
1
1
1
1
1
1.00000000002
1.00000000001
1
1
1.00000000473
1.00000001808
1.00000002868
1.00000000535
0.999999971329
0.999999981785
0.99999998561
0.999999997946
0.999999994808
0.999999997952
1.00000000013
1.00000000012
1.00000000011
1.00000000016
1.00000000017
1.00000000151
1.00000000269
1.00000000083
0.999999998922
0.999999998427
1
1
1
0.999999999856
0.999999999619
0.999999999622
0.999999999982
0.99999999999
0.999999999984
0.999999999998
0.999999999992
1
1
1
1
1.00000000006
1.00000000004
1.00000000001
1
1
1.00000000186
1.00000001317
0.999999984873
0.999999966842
0.999999987515
0.999999975183
0.999999985448
0.999999989093
0.999999992503
0.999999997445
1.00000000004
1.00000000008
1.00000000003
1.00000000006
1.00000000005
1.00000000019
1.00000000082
1.00000000024
0.999999998969
0.999999998988
0.999999998936
1
1
1
0.999999999917
0.999999999723
0.999999999834
1
1
1
1
1
1
1.00000000001
1.00000000006
1.00000000007
1.00000000003
1.00000000001
1.00000000001
1
1.00000000074
1.00000000182
0.999999985712
0.999999998971
0.999999999453
0.999999999893
0.99999997991
0.999999980418
0.999999988579
0.999999998296
0.999999999695
1.00000000003
1.00000000016
1.00000000002
1.00000000002
1.00000000008
1.00000000019
0.999999999881
0.99999999926
0.999999998844
0.999999999169
0.999999999971
1.00000000001
1
1.00000000001
0.999999999984
0.9999999999
0.999999999968
1
1
1
1
1.00000000004
1.00000000004
1.00000000002
1.00000000001
1.00000000001
1
1
1
1.00000000048
0.999999997412
0.999999993232
0.999999998234
0.999999999814
0.999999998853
1
0.999999975733
0.999999974824
1.00000000037
1.00000000007
1.00000000016
1.00000000013
1.00000000021
1.00000000003
1.00000000002
1.0000000001
0.999999999754
0.999999999233
0.999999999134
0.999999999305
0.999999999352
1
1
1
1.00000000002
1
1.00000000014
1.00000000007
0.999999999999
0.999999999916
0.999999999929
0.999999999934
0.999999999991
0.99999999999
1
1
1
1
1
0.999999994498
0.999999988866
0.999999990035
1.00000000035
0.999999999089
0.999999999647
1.00000000014
1
0.99999998115
1.00000000077
1.00000000017
1.00000000015
1.00000000013
1.00000000025
1.00000000003
1
1.00000000005
0.999999999773
0.999999999155
0.999999998549
0.999999999139
0.999999999516
0.999999999652
0.999999999996
0.999999999994
0.999999999996
1.00000000001
1
1.00000000002
0.999999999946
0.999999999807
0.999999999832
0.999999999806
0.999999999876
0.999999999878
0.999999999968
1
1
0.999999999962
0.999999999965
0.999999983496
0.999999979294
0.999999986494
1.00000000122
0.999999999719
1.00000000015
1.00000000025
0.999999999654
0.99999999207
0.999999999136
1.00000000013
1.00000000012
1.00000000006
1.00000000013
1
1.00000000004
0.999999999987
0.99999999941
0.999999999036
0.999999998565
0.999999998775
0.999999999455
0.999999999438
0.999999999984
0.999999999999
0.999999999982
0.999999999975
0.999999999983
0.999999999972
0.999999999889
0.999999999795
0.99999999979
0.999999999765
0.999999999765
0.999999999821
0.999999999796
0.999999999824
0.999999999913
0.999999999901
0.999999999896
0.99999998472
0.999999976109
0.99999999546
1.00000000161
1.00000000024
1.00000000015
1.00000000077
0.999999998026
0.999999994719
0.999999997777
0.999999999963
1.00000000013
1.00000000004
1.00000000016
1
1.00000000006
0.999999999988
0.999999999326
0.999999998935
0.999999998484
0.999999998791
0.99999999947
0.999999999588
0.99999999999
0.999999999991
0.999999999991
0.999999999983
1.00000000001
0.999999999917
0.999999999915
0.999999999833
0.999999999822
0.999999999782
0.99999999979
0.999999999779
0.999999999807
0.999999999848
0.999999999904
0.999999999882
0.999999999882
0.999999983166
0.999999983073
1.00000000107
1.00000000545
0.999999999668
0.999999999862
1.00000000027
0.9999999996
0.999999994711
0.999999999101
1.00000000001
1.00000000007
1.00000000009
1.00000000007
1.00000000005
1
1.00000000002
0.999999999453
0.99999999877
0.999999998431
0.999999999186
0.999999999609
0.999999999837
1.00000000013
1
1
1.00000000003
1.00000000003
1.00000000002
0.999999999938
0.999999999898
0.999999999865
0.999999999848
0.999999999855
0.999999999811
0.99999999981
0.999999999993
1
0.999999999936
0.99999999994
0.99999998601
0.999999990341
1.00000000232
1.00000000079
1.00000000014
1.00000000001
1
0.999999998394
0.999999990228
0.999999999718
0.999999999763
1.00000000005
1.00000000005
1.00000000004
1.00000000001
1.00000000003
1.00000000005
0.999999999418
0.999999998612
0.999999998879
0.999999999484
0.999999999723
1.00000000028
1
1
1
1.00000000005
0.999999999969
0.99999999994
0.999999999986
0.999999999929
0.999999999952
1
0.999999999992
0.999999999948
0.999999999934
1
1.00000000001
1.00000000001
1
0.999999993302
1.00000000145
1.0000000018
1.00000000105
0.999999999407
1
1
1
0.999999989313
0.999999999998
0.999999999964
1.00000000001
1.00000000003
1.00000000002
1.00000000004
1.00000000004
0.999999999897
0.999999999286
0.999999998703
0.999999999232
0.999999999628
0.999999999972
1.00000000017
1
1
1.00000000003
0.999999999941
0.999999999914
0.999999999991
0.999999999889
0.999999999918
1.00000000001
1.00000000001
1.00000000005
1.00000000007
1.00000000005
1.00000000003
1.00000000003
1.00000000002
0.999999999998
1.00000000122
1.00000000431
0.99999998358
0.999999987282
0.999999996137
0.999999996015
0.999999993882
0.99999997559
0.999999998786
0.999999997797
0.999999999917
1.00000000005
1.00000000002
1.00000000008
1.00000000002
1.00000000043
1.00000000049
0.99999999987
0.999999998871
0.99999999946
0.999999999554
1.00000000017
1.00000000028
1
0.999999999887
0.999999999775
0.99999999982
0.999999999982
0.999999999981
0.999999999952
1.00000000001
1.00000000001
1.00000000001
1.00000000002
1.00000000009
1.00000000009
1.00000000008
1.00000000005
1.00000000002
1
1.00000000098
1.00000001425
1.0000000502
1.000000005
0.999999979906
0.999999989873
0.999999989956
0.999999976246
0.999999994315
0.999999996018
0.999999999781
1.00000000015
1.00000000015
1.00000000013
1.00000000047
1.00000000201
1.00000000189
1.00000000043
0.999999998686
0.999999999059
0.999999999981
1.0000000001
1.00000000014
0.999999999696
0.999999999706
0.999999999791
0.999999999952
0.999999999981
1
1
1.00000000002
1.00000000002
1.00000000002
1
1.00000000003
1.0000000001
1.00000000006
1.00000000003
1.00000000001
1
1.00000000187
1.00000003128
1.00000002441
1.00000002203
0.999999984516
0.99999998795
0.999999994281
0.999999995541
1.00000000007
0.999999998504
1.00000000019
1.00000000031
1.00000000046
1.00000000071
1.00000000265
1.00000000462
1.00000000363
1.00000000036
0.999999998421
0.999999999234
0.999999999936
1.00000000001
0.99999999997
0.999999999666
0.99999999967
0.999999999849
0.999999999981
1
1
1
1.00000000001
1.00000000002
1.00000000001
1.00000000001
1
1.00000000002
1.00000000003
1.00000000001
1.00000000001
1
1.00000000305
1.00000001334
1.0000000352
1.00000001053
0.999999988371
0.999999984392
0.999999978867
0.999999999613
0.999999988738
0.999999997038
1.00000000064
1.00000000076
1.00000000157
1.00000000242
1.00000000533
1.00000000706
1.00000000184
0.999999998953
0.999999999524
0.999999999285
0.999999999646
1
0.999999999976
0.999999999727
0.99999999972
0.999999999932
0.99999999997
0.99999999998
0.999999999982
0.999999999994
1.00000000001
1
1
1
1
1
1
1.00000000001
1
1
1.00000000319
1.00000002416
1.00000002077
1.00000002524
1.0000000025
0.999999991566
0.999999994024
0.999999999976
1.00000000507
1.00000000433
1.00000000147
1.0000000032
1.00000000327
1.0000000052
1.00000000691
1.00000000108
0.999999997883
0.999999998888
0.999999999613
0.999999999785
0.99999999954
0.999999999419
0.999999999635
0.999999999971
0.999999999977
1
0.999999999996
0.999999999947
0.999999999976
0.999999999853
0.99999999974
0.999999999595
0.999999999703
0.999999999828
0.999999999879
0.999999999995
0.999999999991
0.999999999928
0.999999999997
0.999999999988
1.00000001081
1.00000002658
1.00000002442
1.00000001933
1.00000000009
1.00000001158
1.00000000484
1.00000000291
1.00000001274
1.00000000522
1.00000000368
1.00000000295
1.00000000643
1.0000000067
1.00000000759
1.00000000311
1.00000000336
1.00000000378
1.00000000344
1.00000000159
1.00000000197
1.00000000042
0.999999999997
1
1
1
1
0.999999999929
0.999999999829
0.999999999856
0.99999999959
0.999999999527
0.999999999532
0.999999999728
0.999999999798
0.999999999833
0.999999999936
0.999999999959
0.999999999979
0.999999999975
1.00000000765
1.00000001668
1.00000001174
1.0000000076
1.00000000237
1.00000000339
1.00000001004
1.00000002461
1.00000001875
1.00000001315
1.00000000891
1.00000001235
1.00000004416
1.00000002705
1.00000000885
1.00000001281
1.0000000143
1.00000000865
1.00000000406
1.00000000428
1.00000000165
1.00000000095
1.00000000022
1.00000000013
1.00000000019
1.00000000024
1
1.00000000001
0.999999999983
0.999999999879
0.999999999617
0.999999999645
0.999999999722
0.999999999617
0.999999999423
0.99999999951
0.999999999691
0.999999999976
1
0.999999997993
1.00000001511
1.00000000449
1.00000000482
1.00000000111
1.00000000199
1.00000000136
1.00000000402
1.00000000535
1.00000000609
1.00000000257
1.00000000178
1.00000000468
1.00000000664
1.00000000665
1.00000000751
1.00000000791
1.00000000526
1.00000000199
1.00000000053
0.999999999978
0.999999999946
1.00000000006
1.00000000005
1.00000000007
0.999999999919
0.99999999964
0.999999999655
0.999999999568
0.999999999696
0.999999999513
0.999999999514
0.999999999543
0.999999999512
0.999999999887
0.999999999893
0.999999999927
0.999999999824
0.99999999992
1
1
1.00000000422
1.00000000822
1.00000000268
1.00000000426
1.0000000075
1.00000000443
1.00000000222
1.00000000155
1.00000000165
1.00000000105
1.00000000214
1.00000000187
1.00000000288
1.00000000335
1.00000000376
1.00000000628
1.0000000053
1.00000000085
0.999999999801
0.999999999863
0.999999999958
0.99999999999
0.999999999814
0.999999999918
0.999999999944
0.99999999994
0.999999999631
0.999999999484
0.999999999377
0.999999999377
0.999999999413
0.999999999933
1
1
1
1
1
1
1
1
1.0000000056
1.00000000342
1.00000000419
1.0000000087
1.00000000435
1.00000000419
1.00000000368
1.00000000368
1.00000000182
1.00000000077
0.999999999964
1.00000000098
1.00000000094
1.00000000088
1.00000000174
1.00000000244
1.00000000489
1.00000000254
0.999999999681
0.999999998837
0.999999999321
0.999999999432
0.99999999949
0.999999999663
0.999999999678
0.999999999601
0.999999999596
0.999999999668
0.999999999773
0.999999999724
1
1
1
1
1
1.00000000005
1.00000000022
1.00000000018
1.00000000002
1
1.00000000246
1.00000000646
1.00000000476
1.00000000431
1.00000000089
0.999999993261
0.999999999271
1.00000000598
1.00000000449
1.00000000094
0.999999998734
0.999999999641
1.00000000035
1.00000000005
1.00000000039
1.00000000093
1.00000000135
1.00000000156
0.999999999902
0.999999999259
0.99999999985
0.999999999896
0.999999999808
0.999999999732
0.999999999636
0.999999999837
0.999999999659
0.999999999667
0.999999999888
0.99999999993
1
1
1.00000000001
1
1.00000000012
1.00000000013
1.00000000009
1.00000000017
1.00000000008
1.00000000001
1.00000000202
1.00000000368
1.00000000148
1.00000000097
1.00000000011
1.0000000002
1.00000000124
1.00000000029
1.00000000521
1.00000000118
0.999999999041
1.00000000005
0.999999999939
1.00000000007
1.00000000006
1.00000000027
1.00000000036
0.999999999931
0.99999999873
0.999999998988
0.999999999522
0.999999999948
1
0.999999999949
0.999999999874
0.999999999881
0.999999999918
0.999999999864
0.999999999965
0.999999999996
1.00000000001
1.00000000001
1.00000000001
1.0000000001
1.00000000015
1.00000000008
1.00000000003
1.00000000003
1.00000000001
1.00000000001
1.00000000089
1.00000000255
1.00000000103
1.00000000007
1
1.00000000001
1.00000000014
1.00000000094
1.00000000304
1.00000000211
0.999999999596
1.00000000009
0.999999999962
1.00000000003
0.999999999982
1.00000000005
1.00000000011
0.999999999509
0.999999998661
0.999999998856
0.999999998934
1
1
1.00000000001
0.999999999957
1.00000000001
0.999999999918
1
0.999999999991
1.00000000001
1
1.00000000005
1.00000000006
1.00000000004
1.00000000002
1
0.999999999996
1.00000000003
1.00000000002
1.00000000001
1.00000000033
1.00000000098
1.0000000013
1.00000000006
1
1
1.00000000023
1.00000000014
1.00000000095
1.00000000197
0.999999999878
0.999999999919
0.999999999848
0.999999999978
1.00000000003
1.00000000004
1.00000000002
1.00000000007
0.999999999225
0.999999998305
0.99999999926
0.999999999043
1.00000000003
1
1.00000000004
0.999999999992
1.00000000015
1.00000000009
1
0.999999999994
0.999999999907
0.999999999948
1
1
1
1
1.00000000001
1.00000000002
1.00000000001
1
0.999999999954
0.999999996821
1.00000000141
1.00000000153
1
1.00000000002
1.00000000014
1.00000000044
1.0000000002
1.00000000115
1.00000000041
0.99999999993
0.999999999833
0.999999999967
1.00000000003
0.999999999939
1
0.999999999058
0.999999998885
0.999999998578
0.999999999079
0.999999999415
0.99999999929
1.00000000001
0.999999999998
1.00000000001
1
1.00000000005
0.999999999935
0.999999999945
0.999999999839
0.999999999871
0.999999999958
1
1
1
1
1.00000000001
1.00000000001
1.00000000001
0.999999995923
0.999999997815
1.00000000071
1.00000000129
1
1
1.00000000043
1.00000000029
1.00000000063
1.00000000038
0.99999999985
0.999999999614
0.999999999865
0.99999999999
1.00000000001
0.999999999616
0.999999999719
0.999999998814
0.999999998871
0.99999999898
0.999999998862
0.999999999353
0.999999999321
0.999999999902
0.999999999971
1
1.00000000003
0.999999999995
0.999999999973
0.999999999912
0.999999999889
0.999999999849
0.99999999986
0.999999999923
1
1
1
1
0.999999999994
1
0.999999996718
1.00000000084
1.00000000264
1.00000000436
1
1
1.00000000079
1.00000000103
1.00000000065
1.00000000062
0.999999999474
0.999999999837
0.999999999962
0.999999999988
1.00000000001
0.999999999384
0.999999999649
0.99999999859
0.999999998508
0.999999999156
0.999999999151
0.999999999512
0.999999999611
0.999999999839
0.999999999994
1.00000000002
1.00000000005
1.00000000002
1.00000000002
0.999999999944
0.999999999909
0.999999999865
0.99999999987
0.999999999948
0.999999999844
0.999999999944
1
0.999999999972
0.999999999923
0.999999999999
0.999999996753
1.0000000009
1.00000000496
1.00000000314
1.00000000007
1.00000000002
1.00000000063
1.00000000064
1.00000000063
1.00000000108
1.0000000001
0.999999999995
0.999999999866
1
1.00000000001
0.999999999574
0.999999999583
0.999999998704
0.999999998666
0.99999999879
0.999999999427
0.999999999757
0.999999999596
1.00000000003
1.00000000001
1.00000000004
1.00000000005
1.00000000008
0.999999999968
0.999999999913
0.999999999906
0.999999999903
0.999999999938
1
1
1
1
1.00000000001
1.00000000001
1.00000000001
0.999999993072
1.00000000111
1.00000000183
1.00000000442
1.00000000003
1
1.0000000004
1.00000000042
1.00000000086
1.00000000155
0.999999999644
0.999999999736
0.999999999843
0.999999999942
1.00000000005
0.999999999953
0.999999999593
0.999999999545
0.999999998946
0.999999998574
0.99999999899
0.999999999458
0.999999999979
1.00000000002
1.00000000001
1.00000000007
1.00000000012
1.00000000001
0.99999999994
0.999999999999
0.999999999942
0.99999999997
0.999999999986
1
1
1
1.00000000001
1.00000000002
1.00000000003
1
0.999999999294
1.00000000188
1.00000000437
1.00000000054
1.00000000001
1.00000000001
1.00000000027
1.00000000077
1.00000000212
1.00000000112
0.999999999638
0.999999999961
0.999999999988
1.00000000002
1
1.00000000007
0.99999999925
0.999999998909
0.999999999003
0.999999998414
0.999999999377
0.999999999517
1.00000000007
1.00000000001
1.00000000009
1.00000000001
0.999999999974
0.99999999989
0.999999999977
0.999999999902
1.00000000001
1.00000000001
1.00000000003
1.00000000006
1.00000000004
1.00000000003
1.00000000002
1.00000000005
1.00000000006
0.999999999972
1.00000000039
1.00000000362
1.00000000311
1.00000000093
1.00000000001
1.00000000012
1.00000000084
1.00000000212
1.00000000429
1.00000000062
0.999999999131
0.999999999914
1.00000000011
1.00000000002
1.00000000013
1.00000000031
0.999999999784
0.999999999401
0.99999999865
0.999999998638
0.999999999619
1.00000000024
1
0.999999999992
0.99999999983
0.999999999737
0.999999999928
0.99999999997
0.999999999963
0.99999999999
1.00000000001
1.00000000002
1.00000000002
1.00000000009
1.0000000001
1.00000000008
1.00000000005
1.00000000004
1.00000000006
1.00000000001
1.00000000202
1.000000002
1.00000000528
1.0000000031
1.00000000062
1.00000000101
1.00000000284
1.00000000293
1.00000000597
0.999999999661
0.999999998187
0.999999999901
1.00000000005
1.00000000022
1.00000000039
1.00000000106
1.00000000151
0.999999999825
0.99999999865
0.999999998981
0.999999999753
1.00000000009
1.00000000002
0.999999999931
0.999999999724
0.99999999983
0.999999999931
1
1
1.00000000001
1.00000000002
1.00000000002
1.00000000001
1.00000000004
1.00000000013
1.00000000009
1.00000000008
1.00000000011
1.00000000001
1
1.00000000188
1.00000000307
1.00000000393
1.00000000681
1.00000000326
1.00000000393
1.0000000002
1.00000000762
1.00000000409
0.999999999526
0.999999999993
1.00000000053
1.00000000048
1.00000000072
1.00000000198
1.00000000333
1.00000000347
1.00000000122
1.00000000014
0.999999999614
0.999999999818
1.00000000003
0.99999999998
0.99999999958
0.999999999684
0.999999999905
0.999999999983
0.999999999987
1.00000000002
1.00000000002
1.00000000003
1.00000000002
1.00000000001
1.00000000001
1.00000000004
1.00000000006
1.00000000016
1.00000000014
1.00000000001
1
1.00000000183
1.00000000206
1.00000000584
1.00000000358
1.00000000661
1.00000000512
1.00000000898
1.00000000462
0.999999997829
0.999999997781
0.999999999156
1.00000000049
1.00000000131
1.00000000294
1.00000000487
1.00000000523
1.00000000453
1.00000000245
0.999999999914
0.999999999331
0.999999999282
0.99999999914
0.999999999093
0.999999999416
0.999999999898
0.99999999989
0.999999999852
0.999999999999
1
1.00000000002
1.00000000001
0.99999999997
0.999999999995
1
1
1
1
1
1.00000000001
1.00000000001
1.00000000645
1.0000000013
1.00000000054
1.00000000367
1.00000000222
1.00000000517
1.00000000516
1.00000000504
1.00000000338
1.00000000223
1.00000000083
1.00000000236
1.00000000521
1.00000000701
1.00000000719
1.00000000667
1.00000000379
1.00000000108
0.999999999821
0.999999999806
0.999999998974
0.999999999364
1
1.00000000002
1.00000000004
1.00000000004
0.999999999727
0.999999999727
0.999999999831
0.999999999538
0.999999999677
0.999999999909
0.999999999916
1
0.999999999925
0.999999999785
0.999999999955
0.999999999934
1
1
1.00000000506
1.00000000794
1.00000000836
1.00000000617
1.00000000395
1.00000000506
1.00000001537
1.00000003057
1.00000001747
1.00000000973
1.00000000679
1.00000000974
1.00000000936
1.00000001161
1.00000001083
1.00000001075
1.00000000975
1.00000000809
1.0000000051
1.00000000481
1.00000000149
1.00000000033
0.999999999984
1.00000000011
1.00000000011
1.00000000007
1.00000000018
1.00000000009
1.00000000003
0.999999999994
0.999999999519
0.999999999523
0.999999999652
0.999999999599
0.999999999639
0.999999999675
0.9999999997
0.99999999998
1
0.99999999788
1.00000003511
1.00000000553
1.00000000358
1.00000000134
1.0000000002
1.00000000063
1.00000000228
1.00000000437
1.00000001078
1.00000001373
1.00000002322
1.00000003774
1.00000004042
1.00000003568
1.0000000537
1.00000004566
1.00000002464
1.00000000957
1.00000000652
1.00000000234
1.0000000014
0.999999999713
0.999999998266
0.999999996638
0.999999996616
0.999999998024
0.999999998022
0.99999999778
0.999999997317
0.999999996789
0.999999996626
0.999999996694
0.999999996706
0.999999997056
0.999999997518
0.999999997606
0.999999997328
0.999999998093
0.999999999994
0.999999996393
1.00000001261
1.00000001934
1.00000000395
1.00000000195
1.00000000005
1.00000000015
1.00000000103
1.00000000499
1.00000000511
1.00000000813
1.00000001095
1.00000001527
1.00000001756
1.00000001888
1.00000002186
1.00000001672
1.00000000781
1.00000000332
1.00000000152
1.00000000086
1.00000000057
1.00000000031
1.00000000035
1.00000000032
1.00000000027
1.00000000014
0.999999999996
0.999999999944
0.999999999897
0.999999999903
0.999999999966
0.999999999972
0.99999999998
0.999999999984
0.999999999971
0.999999999979
1
1
1
0.99999999923
1.00000000973
1.00000000765
1.00000000681
1.0000000016
1.00000000018
1.00000000024
0.999999998684
0.999999999016
1.00000000098
1.00000000275
1.00000000275
1.00000000476
1.00000000573
1.00000000604
1.00000001054
1.00000001309
1.00000000918
1.00000000132
1.00000000018
1.00000000001
0.99999999998
0.999999999942
1.00000000001
1.00000000002
1
0.999999999965
0.9999999997
0.999999999965
0.99999999981
0.999999999965
1
1
1
0.999999999961
0.999999999725
0.999999999526
0.999999999268
0.999999999246
1.00000000001
1.00000000003
1.00000000328
1.00000000997
0.99999998974
0.999999988361
0.999999983872
0.999999997398
1.00000000117
1.00000000116
0.999999999116
0.999999999392
1.00000000077
1.000000001
1.00000000166
1.00000000233
1.0000000027
1.00000000811
1.00000000866
1.00000000309
0.999999999182
0.999999999731
0.999999999962
1
0.99999999994
1.00000000001
0.999999999995
0.99999999991
0.999999999547
0.999999999716
0.999999999982
0.999999999999
1
1
1
1.00000000001
1.00000000009
0.999999999908
1.00000000001
0.999999999906
1.00000000002
1.00000000089
1.00000000266
1.00000000236
1.00000000125
0.999971559083
0.999942996063
0.999942990248
0.999971541705
1.0000000014
1.00000000171
1.00000000118
1.00000000033
1.00000000057
1.00000000048
1.00000000078
1.00000000116
1.00000000195
1.00000000522
1.00000000261
0.999999999781
0.999999999201
0.999999999572
0.999999999808
0.999999999674
0.999999999881
0.99999999987
0.999999999829
0.999999999544
0.999999999547
0.999999999768
0.999999999951
1
1.00000000001
1.00000000001
1.00000000007
1.00000000004
1.00000000005
1.00000000005
1.00000000004
1.00000000007
1
1.00000000059
1.00000000082
0.999955067888
0.999775392579
0.999640344319
0.999640352357
0.999775365022
0.99995505295
1.00000000201
1.00000000132
1.00000000094
1.00000000071
1.00000000051
1.00000000043
1.00000000042
1.00000000063
1.00000000143
1.00000000159
0.999999998929
0.999999998799
0.999999999894
0.999999999921
1.00000000003
0.999999999886
0.999999999892
0.999999999929
0.999999999877
0.999999999848
0.999999999997
0.999999999985
1.00000000002
1.00000000002
1.00000000007
1.00000000013
1.00000000005
1.00000000004
1.00000000003
1.00000000003
1.00000000012
0.999999999996
1.00000000007
1.00000000081
0.999836574755
0.999409226649
0.999144478331
0.99914451392
0.999409228894
0.999836564542
1.00000000094
1.00000000143
1.00000000104
1.00000000089
1.00000000081
1.00000000048
1.00000000045
1.00000000027
1.00000000054
1.00000000031
1.00000000028
0.999999998864
0.99999999963
1.00000000004
1.00000000002
1.00000000002
0.999999999971
0.999999999982
0.999999999979
0.999999999982
1
1
1.00000000005
1.00000000005
1.00000000004
1.00000000002
1.00000000002
1.00000000002
1.00000000003
1.00000000008
1.00000000014
0.999999999943
1.00000000008
0.999999996342
0.999730157104
0.999126937416
0.99879221838
0.998792278142
0.999126979891
0.999730140427
1.00000000047
1.00000000125
1.00000000079
1.00000000089
1.00000000099
1.00000000068
1.00000000036
1.00000000032
1.00000000027
1.0000000007
1.00000000078
0.999999998977
0.999999998865
0.99999999997
1
1.00000000005
1
1.00000000015
1.00000000025
0.999999999989
0.999999999949
0.999999999957
0.999999999996
1
1
1.00000000001
1.00000000001
1.00000000001
1.00000000002
1.00000000015
1.00000000007
0.999999999989
0.999999998753
0.99999999443
0.99969718775
0.999042858715
0.998689642376
0.998689700849
0.999042933305
0.999697170681
1.00000000026
1.00000000097
1.0000000007
1.00000000036
1.00000000097
1.00000000089
1.00000000042
1.0000000004
1.00000000043
1.00000000059
1.00000000052
0.999999999535
0.999999998807
0.999999999289
1
1
1.00000000002
1
1.0000000001
1.00000000003
0.999999999946
0.999999999986
0.999999999898
0.999999999952
1
1
1
1.00000000001
1.00000000002
1.00000000004
1.00000000003
1
0.999999999487
0.999999995907
0.999697117252
0.999042571711
0.998689219722
0.998689297856
0.999042642505
0.999697086547
0.999999999153
1.00000000032
1.00000000079
1.00000000025
1.00000000018
1.00000000112
1.00000000039
1.00000000058
1.00000000045
1.00000000067
1.00000000007
1.00000000009
0.999999999512
0.999999998743
0.999999999877
1.00000000002
1.00000000001
1.00000000003
1.00000000001
1.00000000007
0.999999999986
0.99999999993
0.999999999888
0.999999999905
0.999999999939
1
1
1
1.00000000001
1.00000000002
1.00000000001
1
1.00000000003
0.999999996604
0.999697099149
0.999042533902
0.998689192469
0.998689254298
0.999042603473
0.99969707201
0.999999999094
1.00000000032
1.00000000069
1.00000000022
1.00000000004
1.000000001
1.00000000034
1.00000000067
1.00000000033
1.00000000075
0.99999999956
1.0000000002
0.999999999522
0.999999998846
0.99999999986
1.00000000002
1.00000000003
1.00000000004
1.00000000006
1.0000000001
1.00000000003
0.99999999991
0.999999999895
0.999999999949
0.999999999955
0.999999999979
1
1
1
1.00000000001
1.00000000001
1
0.999999998476
0.999999997317
0.999697150625
0.99904275454
0.998689512104
0.998689583338
0.999042816776
0.999697128991
1.00000000003
1.00000000081
1.00000000059
1.00000000025
1.00000000067
1.00000000078
1.00000000027
1.00000000041
1.00000000049
1.00000000072
0.999999999858
0.999999999935
0.999999999434
0.999999999541
0.999999999997
1.00000000002
1.00000000006
1.00000000007
1.00000000011
1.00000000008
0.99999999998
0.99999999997
0.999999999965
0.99999999999
1
1
1
1
1.00000000002
1.00000000002
1.00000000001
1
0.999999995091
0.9999999848
0.999730117789
0.999126812809
0.998792056009
0.998792112995
0.999126842557
0.999730092023
0.999999999642
1.00000000103
1.00000000062
1.00000000057
1.00000000075
1.00000000047
1.00000000027
1.00000000032
1.00000000033
0.999999999964
0.999999999991
0.999999999675
0.999999999395
0.999999999932
1
1.00000000001
1.00000000006
1.00000000017
1.00000000019
0.999999999924
1
1
1
1.00000000001
1.00000000001
1.00000000001
1.00000000001
1.00000000001
1.00000000002
1.00000000006
1.00000000002
1
1.0000000001
0.999999999719
0.999836552771
0.999409165806
0.999144386646
0.9991444192
0.999409153541
0.999836534966
0.999999999944
1.00000000124
1.00000000071
1.00000000057
1.00000000055
1.00000000033
1.00000000028
1.00000000029
1.00000000068
0.999999999537
0.999999999571
0.999999999197
0.999999999672
1
1
1.00000000009
1.00000000004
1.00000000019
0.99999999995
0.999999999977
0.99999999998
1
1.00000000001
1.00000000002
1.00000000003
1.00000000003
1.00000000002
1.00000000002
1.00000000002
1.00000000006
1.00000000003
0.999999999972
1.00000000011
0.999999983797
0.999955051992
0.999775381571
0.99964034197
0.999640348347
0.999775348988
0.999955046103
1.00000000144
1.00000000104
1.00000000026
1.00000000045
1.00000000034
1.00000000024
1.00000000038
1.00000000084
1.00000000121
1.00000000001
0.999999998685
0.999999999654
0.999999999807
0.999999999969
1
0.999999999994
0.999999999852
0.999999999926
0.999999999874
0.999999999957
0.999999999988
0.999999999986
1.00000000002
1.00000000002
1.00000000006
1.00000000008
1.00000000008
1.00000000004
1.00000000002
1.00000000004
1.00000000008
1.00000000001
0.999999999317
1.00000000073
0.999999987872
0.999971545636
0.999942992642
0.999942986273
0.999971527556
1.00000000214
1.00000000206
1.00000000025
1.00000000007
1.00000000044
1.00000000035
1.0000000005
1.00000000134
1.0000000023
1.00000000373
1.00000000093
0.99999999901
0.999999999611
1.00000000005
1.00000000001
0.99999999997
0.999999999866
0.999999999861
0.999999999867
0.999999999921