/*--------------------------------*- C++ -*----------------------------------*\
| =========                 |                                                 |
| \\      /  F ield         | OpenFOAM: The Open Source CFD Toolbox           |
|  \\    /   O peration     | Version:  3.0.1                                 |
|   \\  /    A nd           | Web:      www.OpenFOAM.org                      |
|    \\/     M anipulation  |                                                 |
\*---------------------------------------------------------------------------*/
FoamFile
{
    version     2.0;
    format      ascii;
    class       volScalarField;
    location    "0.1";
    object      p_rgh;
}
// * * * * * * * * * * * * * * * * * * * * * * * * * * * * * * * * * * * * * //

dimensions      [1 -1 -2 0 0 0 0];

internalField   nonuniform List<scalar> 
15984
(
4902.53300382
4902.92181478
4903.54671118
4904.1355273
4904.34575124
4903.93752399
4902.84891113
4901.37689114
4899.64259771
4897.93629426
4896.4219716
4895.16628891
4894.17324302
4893.41386293
4892.84604261
4892.42723561
4892.11973534
4891.89399613
4891.72842062
4891.60729387
4891.5192309
4891.45583605
4891.41076176
4891.37912051
4891.35717064
4891.34209742
4891.33182602
4891.32485199
4891.32009759
4891.31680077
4891.31443699
4891.3126716
4891.31129742
4891.31018336
4891.30927578
4891.30862028
4891.30824872
4891.30829416
4891.30999459
4891.30793517
4902.65145848
4903.07120966
4903.7414193
4904.38389001
4904.63653955
4904.22773865
4903.09529568
4901.55355496
4899.76086253
4898.01011638
4896.46362118
4895.18864492
4894.18438926
4893.4188579
4892.84768669
4892.42726602
4892.11901064
4891.8928287
4891.72689493
4891.60545771
4891.51717773
4891.45367573
4891.4085791
4891.37696443
4891.35506166
4891.3400393
4891.32981408
4891.32287813
4891.31815391
4891.31488196
4891.31254135
4891.31080067
4891.30945223
4891.30836367
4891.3074822
4891.30685861
4891.30652218
4891.30657055
4891.30835732
4891.30665913
4902.87834609
4903.3503465
4904.11016269
4904.85498968
4905.19447778
4904.7828284
4903.57413463
4901.88392903
4899.98642528
4898.15077934
4896.54498045
4895.23310593
4894.20772939
4893.43054871
4892.85288756
4892.42947941
4892.11978355
4891.89281283
4891.72623485
4891.60420972
4891.51550753
4891.45178876
4891.40663878
4891.37506587
4891.35324513
4891.33831243
4891.32816853
4891.3213
4891.3166301
4891.31340408
4891.311108
4891.30941253
4891.30810867
4891.30705958
4891.30620774
4891.30560152
4891.30524864
4891.30522168
4891.30706869
4891.30545794
4903.19420553
4903.73557291
4904.62665108
4905.52793142
4905.99461357
4905.57621916
4904.24252977
4902.36186293
4900.30164604
4898.34608141
4896.65817763
4895.29590499
4894.24178273
4893.44776137
4892.86226704
4892.4345942
4892.122511
4891.89421779
4891.72660012
4891.60368613
4891.51435914
4891.45032338
4891.40509325
4891.37357881
4891.35187523
4891.33707072
4891.32704318
4891.32027157
4891.31567989
4891.31251963
4891.3102862
4891.3086553
4891.30741559
4891.3064254
4891.3056228
4891.30505242
4891.30469605
4891.30457326
4891.30632591
4891.30437527
4903.57105373
4904.20457211
4905.25749672
4906.36200459
4906.99781593
4906.57132911
4905.07286626
4902.94758837
4900.68494069
4898.58548941
4896.79242279
4895.37001896
4894.28196483
4893.46892959
4892.872567
4892.43999776
4892.12583335
4891.89600197
4891.72713496
4891.60315778
4891.51307078
4891.44863764
4891.40330399
4891.37185894
4891.35029865
4891.33565183
4891.32576839
4891.31911808
4891.31462628
4891.3115516
4891.30939911
4891.30785014
4891.30669139
4891.30577576
4891.30503499
4891.30450572
4891.30414145
4891.30391456
4891.30553351
4891.3032672
4903.97697571
4904.71421696
4905.95767104
4907.30790635
4908.13084827
4907.70330123
4905.99279298
4903.60102638
4901.10931241
4898.84773199
4896.93183405
4895.44737786
4894.32381831
4893.49127368
4892.88404693
4892.44530894
4892.12889957
4891.89773029
4891.72761791
4891.60250912
4891.5115827
4891.44669211
4891.4012246
4891.36984482
4891.34843698
4891.33396105
4891.32423508
4891.31771885
4891.31333898
4891.31036125
4891.3082995
4891.30684053
4891.30576948
4891.30493369
4891.30425764
4891.30376792
4891.30339267
4891.30307157
4891.30457268
4891.30209422
4904.37343042
4905.21904602
4906.66972559
4908.29138804
4909.32282536
4908.89181646
4906.95066141
4904.26990431
4901.53556455
4899.10650325
4897.06102653
4895.52069146
4894.36328163
4893.51215846
4892.89522502
4892.45009984
4892.13154935
4891.89925519
4891.72803233
4891.60182512
4891.51005963
4891.44469398
4891.39907505
4891.36774915
4891.34648771
4891.3321798
4891.32261011
4891.31622824
4891.31196205
4891.3090839
4891.30711587
4891.30574911
4891.30476747
4891.30401241
4891.30340129
4891.30295044
4891.30256669
4891.30216868
4891.30356797
4891.30096203
4904.71927484
4905.66732957
4907.32014689
4909.20833831
4910.44086177
4910.00785522
4907.8450713
4904.88176518
4901.91684869
4899.32839445
4897.18276708
4895.58405321
4894.39660254
4893.52948637
4892.90429956
4892.45427725
4892.13343349
4891.90040906
4891.72828152
4891.6011788
4891.5086766
4891.44288082
4891.39711817
4891.36583512
4891.3447026
4891.33054462
4891.32111529
4891.31485476
4891.31069207
4891.30790526
4891.30602288
4891.30473988
4891.30383905
4891.30315762
4891.30260472
4891.30218807
4891.30179858
4891.30134194
4891.3026597
4891.29997953
4904.97524557
4906.00525192
4907.82272325
4909.92855557
4911.32119048
4910.89001649
4908.54619204
4905.35449349
4902.20462768
4899.49158422
4897.27406518
4895.63056414
4894.420523
4893.54164987
4892.91051854
4892.45716758
4892.1347144
4891.90103612
4891.72829077
4891.60055204
4891.50753668
4891.44142443
4891.3955589
4891.36431493
4891.34328657
4891.32924783
4891.31992933
4891.31376443
4891.30968361
4891.30696933
4891.30515497
4891.30393829
4891.30310108
4891.30247657
4891.30196836
4891.30157661
4891.30118253
4891.30068328
4891.30194638
4891.2992244
4905.1097715
4906.18554278
4908.09643263
4910.32581926
4911.80682652
4911.37812521
4908.93322367
4905.61191222
4902.35889474
4899.57719333
4897.32181643
4895.65412206
4894.43241548
4893.54745559
4892.91323367
4892.45839539
4892.13498118
4891.90097241
4891.72796568
4891.59994617
4891.50668589
4891.4404344
4891.3945399
4891.3633415
4891.34238975
4891.32843111
4891.31918415
4891.31307976
4891.30905026
4891.30638148
4891.30461009
4891.30343555
4891.30263861
4891.30204941
4891.30156802
4891.30119092
4891.30079726
4891.30028407
4891.30149771
4891.29875352
4905.10536648
4906.18070824
4908.0923176
4910.32258478
4911.80471766
4911.37628441
4908.93084905
4905.60941684
4902.35628231
4899.57477231
4897.31929216
4895.65242389
4894.43096562
4893.54633507
4892.91218192
4892.45748171
4892.13402923
4891.90012442
4891.72723262
4891.59931362
4891.50613698
4891.43996045
4891.39413586
4891.36299847
4891.34209584
4891.32817427
4891.31895442
4891.31287005
4891.30885614
4891.30620078
4891.30444231
4891.30328079
4891.30249573
4891.30191466
4891.30143578
4891.30105506
4891.30065462
4891.30013087
4891.30133994
4891.29859465
4904.9624273
4905.99170032
4907.81048855
4909.91908397
4911.31436378
4910.8837593
4908.53955186
4905.34682829
4902.1967195
4899.48429675
4897.26740718
4895.62504441
4894.41617717
4893.53829199
4892.90736446
4892.45424749
4892.13186765
4891.89851537
4891.7261135
4891.59866731
4891.50589656
4891.44001072
4891.3943551
4891.36329367
4891.34241121
4891.32848206
4891.3192434
4891.31313724
4891.30910204
4891.30642699
4891.30465071
4891.30347277
4891.3026712
4891.30207178
4891.30157332
4891.30117599
4891.30077076
4891.30025672
4891.30148514
4891.29875855
4904.69902991
4905.64678526
4907.3003184
4909.19184005
4910.42800782
4909.99618008
4907.8330151
4904.86880297
4901.90374739
4899.31642286
4897.17319027
4895.57538587
4894.38956652
4893.52406745
4892.89915791
4892.44919639
4892.12861221
4891.89620804
4891.72464862
4891.59802571
4891.50595678
4891.44055224
4891.39514995
4891.36417376
4891.34328286
4891.3293044
4891.32000474
4891.31383862
4891.30974864
4891.30702421
4891.30520283
4891.3039826
4891.30313955
4891.30249836
4891.3019611
4891.30153593
4891.30112852
4891.30064419
4891.30191775
4891.29922833
4904.34730933
4905.19161838
4906.64264002
4908.26754982
4909.30237601
4908.87314199
4906.93247943
4904.25118977
4901.5173115
4899.08997089
4897.04970819
4895.50911348
4894.35376521
4893.50482148
4892.88823927
4892.44285023
4892.1246583
4891.89337758
4891.72293217
4891.59742238
4891.50628379
4891.44150021
4891.39640372
4891.36551092
4891.34458343
4891.33051995
4891.32112461
4891.31486796
4891.3106967
4891.30789963
4891.3060124
4891.30473043
4891.3038271
4891.30312652
4891.30253631
4891.30207612
4891.30167152
4891.3012385
4891.30258399
4891.29995566
4903.94682243
4904.68163482
4905.92401688
4907.27680133
4908.10204017
4907.67662032
4905.96743715
4903.57622392
4901.08559107
4898.82583409
4896.91337864
4895.43286341
4894.31204378
4893.4823106
4892.87553713
4892.4357855
4892.12027839
4891.89020677
4891.72107732
4891.59687216
4891.50679955
4891.44270363
4891.39792921
4891.36710705
4891.34611894
4891.3319449
4891.32243102
4891.31606427
4891.31179521
4891.30891171
4891.30694666
4891.30559217
4891.30461845
4891.30384902
4891.303199
4891.30270175
4891.30230679
4891.30194721
4891.30338987
4891.30086032
4903.53852948
4904.16835261
4905.21800338
4906.32468726
4906.96033009
4906.53594159
4905.03957083
4902.91629614
4900.65573992
4898.55925773
4896.77093093
4895.3532226
4894.26813388
4893.45854242
4892.86206133
4892.42847057
4892.11549686
4891.88689686
4891.71918135
4891.59633362
4891.50735709
4891.44394366
4891.39947561
4891.36870629
4891.34764254
4891.33334647
4891.3237053
4891.31722186
4891.31285028
4891.30987709
4891.3078323
4891.30640452
4891.30536026
4891.30452198
4891.30381322
4891.30328213
4891.30290354
4891.30263661
4891.30419731
4891.30183104
4903.16040488
4903.69685488
4904.58159969
4905.4803373
4905.94778722
4905.53090531
4904.20019507
4902.32371495
4900.26685962
4898.31501674
4896.6347225
4895.27746438
4894.2264473
4893.43573524
4892.84891944
4892.42169848
4892.11102281
4891.88376727
4891.71736462
4891.59578282
4891.50780234
4891.44500093
4891.40079806
4891.37006346
4891.34892025
4891.33450537
4891.32474277
4891.31814928
4891.31368202
4891.31062641
4891.3085099
4891.30701786
4891.30591315
4891.30501648
4891.30426048
4891.30370516
4891.30334804
4891.30318254
4891.30486757
4891.30276185
4902.84389192
4903.30971661
4904.05950391
4904.79911638
4905.13928208
4904.72780407
4903.52295517
4901.83891953
4899.94699785
4898.12187323
4896.51994055
4895.21340387
4894.19152223
4893.41641086
4892.83909178
4892.41536033
4892.10789648
4891.88150138
4891.71600381
4891.59543212
4891.50826458
4891.44595678
4891.4019621
4891.3712473
4891.35003196
4891.3355142
4891.32564772
4891.31896056
4891.31441235
4891.31128774
4891.30911214
4891.3075682
4891.30641556
4891.3054729
4891.30468088
4891.30410842
4891.30376973
4891.3036941
4891.30548178
4891.3036674
4902.61566908
4903.02823687
4903.68804944
4904.32131232
4904.57139287
4904.16377113
4903.03612927
4901.50142317
4899.71635587
4897.9760155
4896.4365358
4895.16783628
4894.16735255
4893.40369024
4892.83289084
4892.41255256
4892.10563841
4891.8806257
4891.71606816
4891.59622936
4891.50961221
4891.44763133
4891.4037662
4891.37305099
4891.35177234
4891.33717086
4891.32722068
4891.3204574
4891.31584236
4891.31265924
4891.31043115
4891.30883736
4891.30763483
4891.30664285
4891.305812
4891.30521867
4891.30488952
4891.30487822
4891.30669428
4891.30475446
4902.4943726
4902.87536736
4903.4902063
4904.06713171
4904.27341184
4903.86660856
4902.78433032
4901.31715268
4899.59350798
4897.89850281
4896.3932157
4895.14485414
4894.15621487
4893.39879027
4892.83131779
4892.41258615
4892.10610514
4891.88163225
4891.71750978
4891.59804222
4891.51170453
4891.44988425
4891.40607499
4891.37534627
4891.35401984
4891.33935931
4891.32935074
4891.322535
4891.3178756
4891.31465644
4891.31239808
4891.31077613
4891.30954574
4891.30852859
4891.30767755
4891.30705759
4891.30668595
4891.30663882
4891.30833363
4891.30582203
4902.31074636
4902.70847972
4903.34810303
4903.96185611
4904.19957019
4903.80273913
4902.71829638
4901.22161597
4899.49587613
4897.80491025
4896.3108389
4895.07685568
4894.10395204
4893.36144316
4892.80703895
4892.39865
4892.09891195
4891.87890444
4891.71766538
4891.59978685
4891.51411131
4891.45245619
4891.40864096
4891.37789603
4891.35656763
4891.34191287
4891.33191758
4891.32512543
4891.32049202
4891.31727506
4891.31495447
4891.31319969
4891.31181399
4891.31067259
4891.30972596
4891.30902753
4891.30861794
4891.30865203
4891.31069215
4891.30852587
4902.4290052
4902.85604852
4903.55053479
4904.2245922
4904.51088249
4904.11296212
4902.97593923
4901.40693646
4899.61679866
4897.878239
4896.35033738
4895.0974699
4894.11372575
4893.36515987
4892.80741633
4892.39724243
4892.09670774
4891.87616473
4891.71447432
4891.5962175
4891.51029382
4891.44852108
4891.40468205
4891.37396343
4891.3526809
4891.33807487
4891.32812392
4891.32136813
4891.31676405
4891.31357192
4891.31127616
4891.30954621
4891.30818615
4891.3070718
4891.30615453
4891.30550064
4891.30512269
4891.30513521
4891.30743465
4891.30640419
4902.65941539
4903.14272098
4903.93672449
4904.72868022
4905.11428584
4904.71300989
4903.47740622
4901.75673742
4899.85654337
4898.02257747
4896.43224765
4895.141736
4894.13658727
4893.37618949
4892.81221022
4892.39823413
4892.09629297
4891.87479324
4891.71226145
4891.59329538
4891.50690993
4891.4449334
4891.40106934
4891.3704198
4891.34924095
4891.33474084
4891.32488246
4891.31820165
4891.31365554
4891.31051047
4891.30826044
4891.30658192
4891.30527569
4891.30421473
4891.30335066
4891.30275522
4891.30241308
4891.30234512
4891.30483853
4891.30459884
4902.98154025
4903.54196093
4904.48050692
4905.45645557
4905.98764083
4905.58007185
4904.19872519
4902.26571152
4900.18037689
4898.22101623
4896.54635958
4895.20439286
4894.17021967
4893.39303788
4892.82040371
4892.40284141
4892.09886456
4891.87606851
4891.71236049
4891.59236684
4891.50529608
4891.44300351
4891.39908796
4891.36852655
4891.34748764
4891.33313174
4891.32340049
4891.31682261
4891.31235695
4891.30927694
4891.30708911
4891.30547604
4891.30423573
4891.30323513
4891.30242163
4891.30186505
4891.30152014
4891.30130642
4891.30373649
4891.3032154
4903.36806716
4904.02841036
4905.15075155
4906.37127486
4907.09832911
4906.68508068
4905.10018165
4902.89100915
4900.58096272
4898.46724829
4896.68146002
4895.27823822
4894.20993744
4893.41411954
4892.83130206
4892.40834032
4892.10210461
4891.87797687
4891.71295563
4891.5917165
4891.50377663
4891.44106367
4891.39706321
4891.36660017
4891.34572942
4891.3315496
4891.32197436
4891.31552482
4891.31116222
4891.30816814
4891.30606091
4891.30453054
4891.30337176
4891.3024453
4891.30169275
4891.30117726
4891.30082156
4891.30046368
4891.30276795
4891.30188871
4903.78577912
4904.56106627
4905.90361531
4907.4267363
4908.40344961
4907.98696111
4906.1378522
4903.59794259
4901.02783541
4898.7377847
4896.8224974
4895.35546586
4894.25128217
4893.43598152
4892.84277773
4892.4140656
4892.10528205
4891.87985716
4891.71353565
4891.5909773
4891.50205992
4891.43884428
4891.39472232
4891.36435374
4891.34366289
4891.32967521
4891.32027297
4891.31396792
4891.30972423
4891.30683205
4891.30482055
4891.30338608
4891.30232113
4891.30148039
4891.3007981
4891.30032845
4891.29996402
4891.29948821
4891.30167114
4891.30056037
4904.19541856
4905.09335729
4906.68024804
4908.54851319
4909.803342
4909.38414563
4907.23566048
4904.33132378
4901.48101712
4899.01068043
4896.95297389
4895.42870206
4894.29031666
4893.4563343
4892.85296367
4892.41883794
4892.10792166
4891.88153749
4891.71406096
4891.59027659
4891.5003829
4891.43662763
4891.39235112
4891.36205846
4891.34153873
4891.32773923
4891.31850817
4891.3123483
4891.30822598
4891.3054394
4891.30352669
4891.30218965
4891.30121915
4891.30046433
4891.29985153
4891.29942537
4891.29905391
4891.2984887
4891.30057673
4891.29931821
4904.5543141
4905.57100062
4907.40453322
4909.62608211
4911.15141724
4910.73550221
4908.2852705
4905.01596797
4901.89099735
4899.24863121
4897.06950566
4895.49163005
4894.32329146
4893.47337225
4892.8616444
4892.42393614
4892.10993727
4891.88285904
4891.71446286
4891.58966169
4891.49892413
4891.43466723
4891.39023138
4891.35999376
4891.33962141
4891.32598782
4891.31690954
4891.31087996
4891.30686797
4891.30417826
4891.30235625
4891.30110788
4891.30022284
4891.29954517
4891.29899438
4891.29860567
4891.29822981
4891.29760112
4891.29961963
4891.2982635
4904.82093497
4905.9343547
4907.97568063
4910.49210426
4912.23914881
4911.83111599
4909.12568793
4905.55451351
4902.20394914
4899.41985943
4897.16161731
4895.53788752
4894.3470329
4893.48536246
4892.86754087
4892.4265532
4892.1112165
4891.8836321
4891.71459301
4891.58910659
4891.49775882
4891.43312927
4891.38856934
4891.35837554
4891.33811891
4891.32461559
4891.31565675
4891.3097296
4891.3058046
4891.3031917
4891.30144163
4891.30026328
4891.29944533
4891.2988279
4891.2983247
4891.29796363
4891.29758512
4891.29691471
4891.29888605
4891.29746656
4904.96134188
4906.12950877
4908.2907239
4910.97658598
4912.85242876
4912.44849007
4909.59939456
4905.85006638
4902.37275151
4899.51045188
4897.2095017
4895.5615828
4894.35887557
4893.49106251
4892.87009694
4892.42711204
4892.11120981
4891.88357379
4891.71433362
4891.58854479
4891.49691164
4891.43210578
4891.38750246
4891.3573542
4891.33717971
4891.32376226
4891.31487973
4891.30901673
4891.30514603
4891.3025809
4891.30087585
4891.29974128
4891.29896495
4891.29838406
4891.29790877
4891.29756223
4891.29718154
4891.29648829
4891.2984289
4891.29697818
4904.95717486
4906.1250225
4908.28674585
4910.97346978
4912.8501333
4912.44648012
4909.59676176
4905.84730686
4902.36999564
4899.50812149
4897.20775934
4895.55981636
4894.35741164
4893.48991217
4892.86903381
4892.42597358
4892.11018258
4891.88273426
4891.71364599
4891.58795146
4891.49638803
4891.43164637
4891.38710583
4891.35701532
4891.33688896
4891.32350827
4891.31465289
4891.30881008
4891.30495518
4891.30240365
4891.30071171
4891.2995904
4891.29882628
4891.29825422
4891.29778261
4891.29743557
4891.29705208
4891.29635333
4891.29828885
4891.29682335
4904.80823648
4905.92116629
4907.96374373
4910.48255006
4912.23165843
4911.82376438
4909.11771195
4905.54606688
4902.19577644
4899.41241201
4897.15544996
4895.5325198
4894.34268341
4893.48184238
4892.86435998
4892.42327898
4892.10826508
4891.88115354
4891.71251765
4891.587316
4891.49618808
4891.43175692
4891.38739077
4891.357373
4891.33726067
4891.32386695
4891.31498861
4891.309121
4891.30524235
4891.30266921
4891.30095772
4891.29981821
4891.29903567
4891.29844367
4891.29795214
4891.29758832
4891.29720081
4891.2965135
4891.29846485
4891.29701082
4904.53433361
4905.55040093
4907.38500844
4909.6095364
4911.13761273
4910.7221529
4908.2715639
4905.00194114
4901.87779387
4899.23653978
4897.05913456
4895.48297114
4894.31625311
4893.46752652
4892.85641488
4892.41889404
4892.10521449
4891.87881708
4891.71101217
4891.58668052
4891.49631835
4891.43241271
4891.38831205
4891.35837174
4891.33823807
4891.32478361
4891.31583556
4891.30990141
4891.30596292
4891.30333618
4891.30157569
4891.3003901
4891.29956219
4891.29892501
4891.29839251
4891.29799947
4891.29761014
4891.2969549
4891.29894539
4891.2975256
4904.1695985
4905.06644287
4906.65362562
4908.5245767
4909.78203992
4909.36394767
4907.21570713
4904.31163304
4901.46251815
4898.99403267
4896.93933658
4895.41710285
4894.28079559
4893.44836269
4892.84576597
4892.41248122
4892.1011536
4891.87588542
4891.70923296
4891.58609388
4891.49676108
4891.43353209
4891.38974813
4891.35987598
4891.33968557
4891.32612887
4891.31707234
4891.31103821
4891.30701123
4891.30430576
4891.3024741
4891.30122163
4891.30032862
4891.29962773
4891.29903909
4891.29860874
4891.29822243
4891.29762331
4891.29967903
4891.29831913
4903.75598125
4904.52917287
4905.87050118
4907.39549697
4908.37392634
4907.95903879
4906.11114806
4903.57248656
4901.00421984
4898.71672426
4896.80488902
4895.34121118
4894.23957442
4893.42610392
4892.83337165
4892.40442935
4892.09676352
4891.87263548
4891.70731867
4891.58559685
4891.49744925
4891.43496547
4891.39150382
4891.36167701
4891.34139814
4891.32770886
4891.31851779
4891.3123619
4891.30822817
4891.30542905
4891.30351318
4891.30218252
4891.30121388
4891.3004392
4891.29978652
4891.29931569
4891.29893899
4891.29842343
4891.30057449
4891.29931399
4903.3358963
4903.99304658
4905.11201423
4906.33458656
4907.06030688
4906.64875792
4905.06608131
4902.85958495
4900.5524141
4898.44206042
4896.66090876
4895.26185773
4894.19639106
4893.40277806
4892.82047098
4892.39689687
4892.09211412
4891.86931672
4891.70540617
4891.585186
4891.49824598
4891.43648718
4891.39331708
4891.36350703
4891.34311846
4891.32928158
4891.31994492
4891.31365928
4891.30941306
4891.30651612
4891.3045135
4891.30310335
4891.3020585
4891.30120881
4891.30049186
4891.29998195
4891.299621
4891.29921835
4891.30150017
4891.30040842
4902.94822419
4903.50439256
4904.43676162
4905.40999721
4905.94099527
4905.5349998
4904.15664348
4902.22801484
4900.14685882
4898.19179171
4896.52369204
4895.18640144
4894.15518214
4893.38053505
4892.80808813
4892.38983902
4892.08749797
4891.86613145
4891.70361679
4891.58482824
4891.49900196
4891.43788355
4891.39495454
4891.36513853
4891.34463519
4891.33065351
4891.32117701
4891.31476775
4891.31041518
4891.30742657
4891.30534365
4891.30386108
4891.30274759
4891.30182891
4891.30105306
4891.30050782
4891.30016419
4891.29989922
4891.3023466
4891.30152127
4902.62559186
4903.10330105
4903.88826603
4904.67479901
4905.05917496
4904.65898198
4903.42724126
4901.71252777
4899.81837714
4897.99325801
4896.40786864
4895.12236296
4894.11945414
4893.36184033
4892.79809879
4892.38487265
4892.0835649
4891.86356032
4891.70240243
4891.58484768
4891.49994
4891.43933661
4891.39659356
4891.36676246
4891.34615701
4891.33205053
4891.32245486
4891.31594089
4891.31149853
4891.30843329
4891.30628406
4891.30474274
4891.30357426
4891.30259845
4891.30177335
4891.30119476
4891.30085827
4891.30073217
4891.30331143
4891.30270135
4902.39319652
4902.81406643
4903.4989588
4904.16368827
4904.44706083
4904.05034904
4902.918129
4901.35578224
4899.57331067
4897.84480992
4896.32354669
4895.07703924
4894.09681353
4893.35014815
4892.79278468
4892.3828279
4892.08331335
4891.86413168
4891.70380582
4891.5871011
4891.50282889
4891.44257796
4891.39995632
4891.37010361
4891.3494155
4891.33521151
4891.32552281
4891.31892733
4891.31441631
4891.31129375
4891.30909674
4891.30751389
4891.30630628
4891.30528807
4891.30442279
4891.30380161
4891.3034389
4891.30338608
4891.30579278
4891.30435761
4902.27176387
4902.66261154
4903.29508555
4903.89473544
4904.12963945
4903.73352781
4902.65449979
4901.16445541
4899.44917304
4897.76827117
4896.2829772
4895.05606311
4894.08733456
4893.34666559
4892.79256001
4892.38418295
4892.08539088
4891.86667086
4891.70679891
4891.59052938
4891.50658206
4891.44651237
4891.40395185
4891.37408595
4891.35335014
4891.33908848
4891.32934406
4891.32269891
4891.31814645
4891.31499095
4891.31276624
4891.31115794
4891.30992509
4891.30888226
4891.30799365
4891.30733343
4891.30692414
4891.30684199
4891.30889465
4891.30622813
4901.86215224
4902.28050876
4902.95746338
4903.62339447
4903.90864345
4903.53627556
4902.44837765
4900.92525467
4899.20531562
4897.5439959
4896.08996966
4894.89884257
4893.96567974
4893.25659595
4892.72874494
4892.34111794
4892.05671677
4891.84810343
4891.69556551
4891.5841905
4891.50327977
4891.44507123
4891.40374407
4891.37476452
4891.35465757
4891.34082352
4891.3313679
4891.32493132
4891.32053669
4891.3174811
4891.3152505
4891.31352093
4891.31212041
4891.31094024
4891.30994061
4891.30918178
4891.30873712
4891.30874879
4891.31167672
4891.30893111
4901.9852608
4902.42974372
4903.17406697
4903.91469295
4904.26511744
4903.89037569
4902.73450675
4901.12913
4899.33341677
4897.61889158
4896.1298981
4894.91965195
4893.9757098
4893.26066243
4892.72928288
4892.34027246
4892.05518354
4891.8459906
4891.6929398
4891.58114182
4891.49997194
4891.44166768
4891.4003469
4891.37141875
4891.35137266
4891.33759356
4891.32818566
4891.32178712
4891.31742207
4891.31439104
4891.31218262
4891.31047462
4891.30909566
4891.30793517
4891.30695373
4891.30622179
4891.30578641
4891.30571412
4891.30897154
4891.30717221
4902.22438857
4902.73247103
4903.596545
4904.48436801
4904.96027362
4904.582782
4903.28774325
4901.52653094
4899.58820536
4897.7685914
4896.21267729
4894.96319646
4893.9985215
4893.27195265
4892.73384126
4892.34249897
4892.05607432
4891.84570316
4891.6915624
4891.5788516
4891.49713663
4891.43863558
4891.39732307
4891.36849181
4891.34856578
4891.3349007
4891.32558708
4891.31925984
4891.31494333
4891.31194576
4891.3097722
4891.30810939
4891.30677878
4891.30566516
4891.30472922
4891.30405458
4891.30367759
4891.30346825
4891.30685284
4891.30576546
4902.55899044
4903.1596892
4904.18986786
4905.31519181
4905.98512399
4905.60079476
4904.11411321
4902.07765216
4899.94344748
4897.97972732
4896.32904502
4895.02592743
4894.03143209
4893.29029821
4892.74345721
4892.34771469
4892.05892352
4891.84721081
4891.69164925
4891.57765805
4891.49516935
4891.43639224
4891.39510643
4891.3664334
4891.34669776
4891.33321153
4891.32404707
4891.31783489
4891.31360345
4891.31066982
4891.30856054
4891.30697246
4891.30571919
4891.30467965
4891.30381299
4891.30320576
4891.30287391
4891.30247475
4891.3057002
4891.30427594
4902.96641575
4903.68080037
4904.92818021
4906.34695423
4907.26975878
4906.88336708
4905.12985113
4902.77053507
4900.37740753
4898.23799264
4896.46723314
4895.09981616
4894.07003694
4893.31029028
4892.75454269
4892.35408859
4892.06264158
4891.8494115
4891.69221258
4891.57659714
4891.49306814
4891.43387851
4891.39258758
4891.36409604
4891.34459195
4891.33132626
4891.32234838
4891.31628404
4891.31216751
4891.30932748
4891.30730849
4891.30581674
4891.30466032
4891.30371143
4891.30292387
4891.30238037
4891.30206547
4891.30149188
4891.30451559
4891.30265508
4903.40888906
4904.25702334
4905.72509258
4907.40943575
4908.58986795
4908.19510182
4906.17629514
4903.52380991
4900.86545341
4898.52538257
4896.61296141
4895.17742645
4894.11039952
4893.33087894
4892.76462958
4892.35905468
4892.06686135
4891.85184057
4891.69302018
4891.57563352
4891.49085071
4891.43109528
4891.38973546
4891.3614162
4891.34215818
4891.32913327
4891.32036242
4891.3144662
4891.31048537
4891.30776014
4891.30585035
4891.30446972
4891.30342292
4891.30257536
4891.3018733
4891.30139048
4891.30107987
4891.30036786
4891.3032211
4891.30102623
4903.84559116
4904.84116834
4906.50014939
4908.43864294
4909.93287692
4909.53236023
4907.18436651
4904.25379074
4901.36931896
4898.8169538
4896.75044941
4895.25119682
4894.14863312
4893.35046122
4892.77418935
4892.3630929
4892.07094807
4891.85433549
4891.69395128
4891.57490489
4891.48881527
4891.42839053
4891.38688826
4891.3587062
4891.33968009
4891.32689083
4891.31832609
4891.3126007
4891.30876128
4891.30615888
4891.30436471
4891.30309882
4891.30216351
4891.30141808
4891.30080076
4891.30037464
4891.30006627
4891.29925327
4891.3019715
4891.29953014
4904.23087275
4905.37674978
4907.2674622
4909.58159401
4911.46472246
4911.07071519
4908.29597881
4904.97946478
4901.83610371
4899.08063951
4896.86635477
4895.31423061
4894.18140131
4893.36705711
4892.7820354
4892.36567357
4892.073106
4891.85668208
4891.69479483
4891.57440139
4891.48715728
4891.42606942
4891.38438282
4891.35629327
4891.33746183
4891.3248784
4891.31649678
4891.31092501
4891.30721524
4891.30472706
4891.30304046
4891.30188031
4891.30104695
4891.30039365
4891.29985165
4891.29947464
4891.29916986
4891.29828826
4891.30090601
4891.29829363
4904.51887749
4905.79375656
4907.95746451
4910.70184041
4912.95982139
4912.59318273
4909.370735
4905.63322914
4902.20159132
4899.2769509
4896.95471287
4895.36038967
4894.20519404
4893.37889033
4892.78747611
4892.36761199
4892.07345803
4891.85871255
4891.69530913
4891.57400031
4891.4859191
4891.42430755
4891.38245703
4891.35442664
4891.33574155
4891.32331604
4891.31507631
4891.30962484
4891.30601703
4891.30361944
4891.30201815
4891.30094182
4891.30018897
4891.29960777
4891.29912346
4891.29878334
4891.29848281
4891.29755851
4891.30010866
4891.29738635
4904.67132282
4906.02088499
4908.36703905
4911.39261509
4913.88128666
4913.52340896
4910.04942738
4906.01876087
4902.40198457
4899.38039949
4897.00222916
4895.38415495
4894.21704985
4893.38456327
4892.78984668
4892.36815477
4892.07229326
4891.85929402
4891.69530323
4891.57356984
4891.485073
4891.42318624
4891.38125703
4891.3532748
4891.33468598
4891.3223609
4891.31420942
4891.30883224
4891.30528718
4891.3029453
4891.3013969
4891.30037209
4891.29966852
4891.2991306
4891.29867947
4891.29835952
4891.29806188
4891.29711658
4891.29962973
4891.29685006
4904.66713553
4906.0166078
4908.36289092
4911.38894779
4913.87856393
4913.52160751
4910.04560391
4906.01531628
4902.39901408
4899.37801895
4897.00024364
4895.38241639
4894.21559637
4893.38327828
4892.78878753
4892.36712225
4892.07111398
4891.85856559
4891.69471669
4891.57305996
4891.48460691
4891.42276078
4891.38088246
4891.35295487
4891.33441413
4891.32212681
4891.31400366
4891.30864774
4891.30511961
4891.30279239
4891.30125821
4891.30024751
4891.29955652
4891.29902737
4891.29857947
4891.29825729
4891.29795535
4891.29700322
4891.29950745
4891.29670839
4904.50647327
4905.78066759
4907.94503721
4910.69063555
4912.94891703
4912.5815589
4909.35930965
4905.62291079
4902.19284466
4899.26956993
4896.94861508
4895.35519449
4894.20087263
4893.37513412
4892.78428721
4892.36450485
4892.06993462
4891.85663875
4891.69349245
4891.57241797
4891.48447779
4891.42299683
4891.38130666
4891.35344282
4891.33490189
4891.32258874
4891.31443279
4891.3090443
4891.30548615
4891.30313166
4891.30157202
4891.30053668
4891.29982027
4891.29926411
4891.29878979
4891.29844658
4891.29813929
4891.29720053
4891.29972655
4891.29696381
4904.21154274
4905.3561838
4907.24720097
4909.56238601
4911.44628188
4911.05162355
4908.27749389
4904.96272084
4901.82200872
4899.06870067
4896.8562077
4895.30581271
4894.17442283
4893.36092294
4892.77670566
4892.36038816
4892.0681114
4891.85338029
4891.69175024