/*--------------------------------*- C++ -*----------------------------------*\
| =========                 |                                                 |
| \\      /  F ield         | OpenFOAM: The Open Source CFD Toolbox           |
|  \\    /   O peration     | Version:  3.0.1                                 |
|   \\  /    A nd           | Web:      www.OpenFOAM.org                      |
|    \\/     M anipulation  |                                                 |
\*---------------------------------------------------------------------------*/
FoamFile
{
    version     2.0;
    format      ascii;
    class       surfaceScalarField;
    location    "0.1";
    object      phi;
}
// * * * * * * * * * * * * * * * * * * * * * * * * * * * * * * * * * * * * * //

dimensions      [0 3 -1 0 0 0 0];

internalField   nonuniform List<scalar> 
45932
(
2.97166387527e-08
-2.692594415e-08
-1.76456128899e-09
1.06855516159e-07
2.85940918306e-08
-1.03773277938e-07
1.40343135117e-07
1.96654480508e-07
-2.26660087047e-07
1.16668504342e-07
3.66195491327e-07
-3.37299610339e-07
9.11163777805e-08
4.46083899224e-07
-4.13964159496e-07
6.87028691806e-08
4.46408736992e-07
-4.1689484164e-07
4.39314905608e-08
3.78336109859e-07
-3.4692982046e-07
6.62173838409e-08
1.93043393302e-07
-2.10097611863e-07
1.35703550967e-07
1.5573891646e-08
-8.17746348209e-08
1.9064582904e-07
-8.21546321545e-08
2.86118955481e-08
2.10260528848e-07
-1.27788376148e-07
1.08209045366e-07
2.01411520832e-07
-1.46307532923e-07
1.54467428373e-07
1.77079878029e-07
-1.53142980922e-07
1.76580024455e-07
1.47489367059e-07
-1.55364025823e-07
1.84194008098e-07
1.1886373202e-07
-1.5607793278e-07
1.84241787576e-07
9.3809435609e-08
-1.56027596781e-07
1.8092323261e-07
7.32050657619e-08
-1.55964948466e-07
1.76611364741e-07
5.68121857397e-08
-1.55931897382e-07
1.72442590228e-07
4.39997481748e-08
-1.55947496853e-07
1.68868193921e-07
3.41101591304e-08
-1.55997604454e-07
1.65952551579e-07
2.65576822897e-08
-1.56067363033e-07
1.63641523714e-07
2.08416784399e-08
-1.5613418627e-07
1.61838697713e-07
1.65650305701e-08
-1.56184449412e-07
1.60428086094e-07
1.34264909233e-08
-1.56214068501e-07
1.59308912125e-07
1.1207572001e-08
-1.56223224105e-07
1.58397509898e-07
9.75554275688e-09
-1.56214126446e-07
1.57628173431e-07
8.96318261679e-09
-1.56189330078e-07
1.56954624667e-07
8.76075622021e-09
-1.56149713777e-07
1.56336765321e-07
9.11621785106e-09
-1.56093619407e-07
1.55732659351e-07
1.00374646307e-08
-1.56015055309e-07
1.5509513527e-07
1.15728872794e-08
-1.55911518186e-07
1.54381127416e-07
1.38326630742e-08
-1.55784894271e-07
1.53531362519e-07
1.69695620139e-08
-1.55611483576e-07
1.52480414608e-07
2.12032628125e-08
-1.55354028062e-07
1.51124920514e-07
2.68042896518e-08
-1.54951330369e-07
1.49353434394e-07
3.40773552156e-08
-1.5429017898e-07
1.47018915586e-07
4.25461057896e-08
-1.52766169194e-07
1.44298182064e-07
5.12156704089e-08
-1.50088456333e-07
1.41418930606e-07
5.46291358125e-08
-1.44952005166e-07
1.41538135801e-07
-1.32584476085e-07
1.87213070595e-07
4.60863961953e-08
3.94899793114e-08
-1.11144034131e-07
1.3395125431e-07
1.86762879816e-07
-2.43567597287e-07
1.67829477448e-07
5.3751460396e-07
-3.70597770272e-07
1.34921433191e-07
8.90252270983e-07
-4.85195483371e-07
9.66059463423e-08
1.0581853373e-06
-5.66500880036e-07
6.52047975054e-08
1.05702463717e-06
-5.71435585576e-07
3.29555519992e-08
9.1404583262e-07
-4.96171742941e-07
5.57536226487e-08
5.37944449042e-07
-3.61866215053e-07
1.3762139039e-07
1.66829613639e-07
-2.29366007819e-07
2.0266498869e-07
-3.46166291754e-08
-1.10896177997e-07
2.25050774107e-07
-1.27790848905e-07
-2.22353839876e-08
2.14934723816e-07
-1.66097894128e-07
2.9222292104e-08
1.87946177503e-07
-1.79164121095e-07
5.2082292419e-08
1.55621862031e-07
-1.82314589705e-07
5.84868459008e-08
1.24791057316e-07
-1.82410351938e-07
5.6692992983e-08
9.79891618147e-08
-1.81163688514e-07
5.17859332934e-08
7.61186877266e-08
-1.80142886409e-07
4.6103050068e-08
5.88320035516e-08
-1.79344327357e-07
4.08287404438e-08
4.53806514562e-08
-1.78789569207e-07
3.64097771239e-08
3.50293371422e-08
-1.78456979923e-07
3.28798968294e-08
2.71326310211e-08
-1.78279677429e-07
3.01307757271e-08
2.1148173129e-08
-1.78187690555e-07
2.80236629193e-08
1.66462842558e-08
-1.78124524742e-07
2.6404456572e-08
1.33033233254e-08
-1.78064035408e-07
2.51443090412e-08
1.08862420158e-08
-1.77997767888e-07
2.41426705267e-08
9.2335473336e-09
-1.77925522021e-07
2.33229676098e-08
8.23532736838e-09
-1.77850637701e-07
2.26306227988e-08
7.82552401557e-09
-1.77776235743e-07
2.20202115899e-08
7.98289476567e-09
-1.77703353085e-07
2.14468837148e-08
8.73824704407e-09
-1.77631177036e-07
2.08625298832e-08
1.01595685503e-08
-1.77548467745e-07
2.02212388768e-08
1.24057709216e-08
-1.77441462256e-07
1.94171608613e-08
1.56700980881e-08
-1.77281432218e-07
1.84118880271e-08
2.02190468028e-08
-1.77020270419e-07
1.71221845261e-08
2.63106357188e-08
-1.76508873983e-07
1.54692571607e-08
3.41524544149e-08
-1.75479704312e-07
1.33495831711e-08
4.33414362849e-08
-1.73083099055e-07
1.11287190014e-08
5.26562866606e-08
-1.68995117058e-07
9.59181677902e-09
5.77118855654e-08
-1.62022561408e-07
1.20145067663e-08
-1.49880717648e-07
7.50075541435e-08
8.95954799143e-08
1.42207423887e-07
-1.90469818312e-07
2.34367167275e-07
3.70874620137e-07
-3.25777240329e-07
2.71410626966e-07
9.22789099557e-07
-4.17477518964e-07
1.87345955008e-07
1.46717855473e-06
-4.86269110131e-07
1.01655331504e-07
1.70913957781e-06
-5.57466835821e-07
3.05320501238e-08
1.69786895557e-06
-5.61474265641e-07
-4.5408424627e-08
1.49136658431e-06
-4.93526442675e-07
-1.94080845561e-08
9.26310710712e-07
-4.07855471971e-07
8.7259130351e-08
3.66188719512e-07
-3.01614007024e-07
1.79115201959e-07
5.4271018666e-08
-1.78573998183e-07
2.16114589466e-07
-8.2764476705e-08
-8.16028749924e-08
2.12896277411e-07
-1.36424233235e-07
-2.70157279051e-08
1.88485594871e-07
-1.53336171125e-07
-2.29739716384e-09
1.5685476016e-07
-1.5754255142e-07
6.08646521586e-09
1.26132038697e-07
-1.55971734813e-07
3.81653825566e-09
9.90176167914e-08
-1.54226940928e-07
2.34890306227e-11
7.68696490314e-08
-1.52802590222e-07
-5.13952047083e-09
5.93571095541e-08
-1.51785995019e-07
-9.91544929056e-09
4.57194679573e-08
-1.51175359546e-07
-1.385751158e-08
3.52375093825e-08
-1.50833596069e-07
-1.70693620151e-08
2.7255861775e-08
-1.50663878728e-07
-1.96108271687e-08
2.12204089235e-08
-1.50575567189e-07
-2.1591052738e-08
1.66874160302e-08
-1.50512001916e-07
-2.31183061852e-08
1.33223148975e-08
-1.50444381821e-07
-2.43048936031e-08
1.08849284795e-08
-1.50364337613e-07
-2.52465916352e-08
9.20694720069e-09
-1.50273436172e-07
-2.60163978611e-08
8.17095646112e-09
-1.50177943782e-07
-2.6666305775e-08
7.70063485702e-09
-1.50082836022e-07
-2.72395022076e-08
7.75903499109e-09
-1.49988989172e-07
-2.77782953486e-08
8.34903041533e-09
-1.49892787068e-07
-2.83265380848e-08
9.51202061731e-09
-1.49777956779e-07
-2.89277525385e-08
1.13512202818e-08
-1.49632778867e-07
-2.96409534545e-08
1.40071189449e-08
-1.49415366153e-07
-3.05155940689e-08
1.76789717691e-08
-1.49062886871e-07
-3.16242792767e-08
2.26202998128e-08
-1.48410954715e-07
-3.30359130208e-08
2.91526403162e-08
-1.47208912866e-07
-3.48012497596e-08
3.73900691284e-08
-1.44728618325e-07
-3.65911504204e-08
4.68263799064e-08
-1.40840018511e-07
-3.759142454e-08
5.42833439479e-08
-1.34498070334e-07
-3.49819289593e-08
-1.22179498756e-07
2.65815359374e-08
1.62171018413e-07
2.21148523476e-07
-2.38601307662e-07
3.38409000221e-07
5.46470796009e-07
-3.47920302817e-07
3.85509000112e-07
1.23478227006e-06
-3.53484193431e-07
2.34515499788e-07
1.93274968506e-06
-3.07450705072e-07
9.93575753405e-08
2.21667962833e-06
-3.64345380891e-07
-3.5941896559e-08
2.20362010922e-06
-3.62052278026e-07
-1.92984153226e-07
1.9756364335e-06
-3.19009613528e-07
-1.60848891955e-07
1.24131561054e-06
-3.39971581729e-07
4.70610036044e-09
5.2259226916e-07
-3.16781184893e-07
1.41361348762e-07
1.30010563285e-07
-2.09592448343e-07
2.01355037155e-07
-3.81724081573e-08
-1.0376458535e-07
2.08320995579e-07
-1.03353598381e-07
-4.03913831853e-08
1.8735301881e-07
-1.23940386346e-07
-9.2147220764e-09
1.57213558865e-07
-1.27887086633e-07
-2.5419231169e-10
1.26584075174e-07
-1.27036328671e-07
1.22874744017e-09
9.94231796449e-08
-1.24735388355e-07
-2.49659574529e-09
7.71532779867e-08
-1.22438497784e-07
-8.05379567996e-09
5.95160850274e-08
-1.21098252991e-07
-1.29267848253e-08
4.58047552174e-08
-1.20435021776e-07
-1.69107424672e-08
3.52753511909e-08
-1.20059128315e-07
-2.01710358404e-08
2.72721498326e-08
-1.19872932493e-07
-2.2762384638e-08
2.12302344246e-08
-1.19782859482e-07
-2.47641722599e-08
1.66995568663e-08
-1.19713276808e-07
-2.6306768664e-08
1.33384350028e-08
-1.19634604733e-07
-2.74994009318e-08
1.09042862215e-08
-1.19540744949e-07
-2.84404633735e-08
9.22756993955e-09
-1.19433702905e-07
-2.92056731725e-08
8.1910511731e-09
-1.19320847711e-07
-2.98504085125e-08
7.7192623559e-09
-1.19207726959e-07
-3.04198727669e-08
7.77613586079e-09
-1.19094606724e-07
-3.09568555134e-08
8.3654728758e-09
-1.18975778634e-07
-3.15045344998e-08
9.53510505187e-09
-1.18834601777e-07
-3.21072594376e-08
1.13843228803e-08
-1.18652583862e-07
-3.28224974769e-08
1.40636066446e-08
-1.18385907768e-07
-3.37023838091e-08
1.77903726412e-08
-1.1796715155e-07
-3.48175570644e-08
2.286401734e-08
-1.17242700407e-07
-3.62385790816e-08
2.96571231462e-08
-1.1598427966e-07
-3.80158727099e-08
3.8355472201e-08
-1.13647132442e-07
-3.97790926015e-08
4.82487483228e-08
-1.10195322452e-07
-4.05380038186e-08
5.59922801511e-08
-1.04858324336e-07
-3.73837654743e-08
-9.49285493131e-08
2.8740733426e-08
2.41139300086e-07
2.6859130525e-07
-2.85257820325e-07
5.12427233534e-07
6.34492126171e-07
-3.54478678068e-07
5.54474512458e-07
1.39613791702e-06
-1.97045711301e-07
3.14291678333e-07
2.17091090935e-06
9.44255221041e-09
9.63811317566e-08
2.45321281876e-06
-1.07909098242e-08
-1.47434099163e-07
2.46212307011e-06
-6.63449305982e-09
-3.43775327219e-07
2.1852207064e-06
-5.03634627199e-09
-3.16776559784e-07
1.40284288639e-06
-1.80873744744e-07
-1.01034464425e-07
6.24699189456e-07
-3.11912815429e-07
9.52816875147e-08
1.74159324811e-07
-2.3695814001e-07
1.83283358665e-07
-4.43273666466e-09
-1.20445466988e-07
2.02708215777e-07
-7.48906284771e-08
-4.79854207026e-08
1.8638653483e-07
-9.73817231629e-08
-1.09046133898e-08
1.57559727587e-07
-1.01385790383e-07
1.62978651752e-09
1.27231712133e-07
-9.99455770351e-08
2.77252401678e-09
9.99522433422e-08
-9.79454469295e-08
3.0630574358e-10
7.74582172527e-08
-9.57143494415e-08
-4.20761674765e-09
5.96948529094e-08
-9.41710202008e-08
-9.05041183173e-09
4.59123093012e-08
-9.33652361866e-08
-1.31716710197e-08
3.53293904774e-08
-9.29547124404e-08
-1.64461655777e-08
2.72989361564e-08
-9.27636590781e-08
-1.90514079491e-08
2.1250295719e-08
-9.26822328143e-08
-2.10640214366e-08
1.67198625718e-08
-9.26242341857e-08
-2.25967939188e-08
1.33626721595e-08
-9.25515777686e-08
-2.37764868298e-08
1.0931770434e-08
-9.24581353585e-08
-2.47027670154e-08
9.25640987745e-09
-9.23489640479e-08
-2.54520825718e-08
8.21988079046e-09
-9.22323360834e-08
-2.60818543689e-08
7.7481102739e-09
-9.21138185985e-08
-2.66387371963e-08
7.80669293285e-09
-9.19932004283e-08
-2.7165647634e-08
8.40130691489e-09
-9.18640132664e-08
-2.77046344626e-08
9.58312551002e-09
-9.17109717982e-08
-2.82997845129e-08
1.14547392531e-08
-9.15110189278e-08
-2.90063175798e-08
1.41766464344e-08
-9.12224275128e-08
-2.9879071249e-08
1.79843555943e-08
-9.07804467033e-08
-3.0989500779e-08
2.32085394842e-08
-9.00503615508e-08
-3.24132255096e-08
3.02666802321e-08
-8.88356486075e-08
-3.42049226911e-08
3.93560944031e-08
-8.67515511585e-08
-3.59842666232e-08
4.96171500729e-08
-8.37830026478e-08
-3.66734173245e-08
5.74770576258e-08
-7.93997196502e-08
-3.33190061708e-08
-7.14827212955e-08
3.40306307124e-08
3.3282696918e-07
2.73735706617e-07
-3.33761485409e-07
6.91603513765e-07
6.19893376391e-07
-3.38417223016e-07
7.33621646235e-07
1.34231985929e-06
1.87676402196e-08
4.00266848136e-07
2.05750210022e-06
4.54110135904e-07
9.85152919483e-08
2.27706893409e-06
4.84969517641e-07
-1.95041277623e-07
2.28119968479e-06
4.81604904462e-07
-5.16651011644e-07
2.06224973066e-06
4.52314577579e-07
-5.00054385575e-07
1.35052348578e-06
4.35821894839e-08
-2.16007351852e-07
6.25050044478e-07
-2.77812220744e-07
4.10079297419e-08
1.81559287917e-07
-2.60212497174e-07
1.62917274706e-07
1.51742714826e-08
-1.39720724302e-07
1.96356719143e-07
-5.12220508899e-08
-5.69256299204e-08
1.85304059011e-07
-7.30143851702e-08
-1.38510318517e-08
1.57997167401e-07
-7.65756589815e-08
1.84773305138e-09
1.27872303965e-07
-7.48758201898e-08
4.59172150842e-09
1.00584365083e-07
-7.29633447028e-08
2.10498001109e-09
7.78450281466e-08
-7.09641845725e-08
-2.00686994467e-09
5.98928140383e-08
-6.95025410022e-08
-6.61384635129e-09
4.60184704777e-08
-6.86463683774e-08
-1.07323169221e-08
3.53809197918e-08
-6.82338991753e-08
-1.40071240395e-08
2.732098374e-08
-6.80651197668e-08
-1.66094114279e-08
2.12659711675e-08
-6.80069392473e-08
-1.86310329472e-08
1.67381362049e-08
-6.79696852916e-08
-2.01642807701e-08
1.33854137255e-08
-6.79149028988e-08
-2.13343628214e-08
1.09584404959e-08
-6.78356072666e-08
-2.22465086287e-08
9.28513743709e-09
-6.77380080602e-08
-2.29802943574e-08
8.24923996056e-09
-6.76307024411e-08
-2.359558089e-08
7.77818162353e-09
-6.75191228932e-08
-2.41402523927e-08
7.83950301192e-09
-6.74032097947e-08
-2.46570226527e-08
8.44061904023e-09
-6.72761454037e-08
-2.51873099122e-08
9.63555331708e-09
-6.71228664221e-08
-2.57774475048e-08
1.15306041029e-08
-6.69196973427e-08
-2.64795720964e-08
1.42945398806e-08
-6.66294329477e-08
-2.7350659104e-08
1.81781208377e-08
-6.6195204006e-08
-2.84639403055e-08
2.35333000401e-08
-6.550298464e-08
-2.98992773738e-08
3.08074998265e-08
-6.43956831973e-08
-3.17123271275e-08
4.01813818122e-08
-6.26188925136e-08
-3.35058179302e-08
5.06830885124e-08
-6.01512082972e-08
-3.41335449248e-08
5.86243911616e-08
-5.66795363153e-08
-3.06619777743e-08
-4.99744905813e-08
3.7115567012e-08
4.24939816584e-07
2.34229073246e-07
-3.80348564682e-07
8.58712484021e-07
5.10853563869e-07
-3.18125380355e-07
8.95793068423e-07
1.0771454271e-06
2.35446885992e-07
4.74542986343e-07
1.62420811361e-06
8.61418110851e-07
9.90188380616e-08
1.75172953395e-06
9.06689717294e-07
-2.78894994358e-07
1.75793646523e-06
9.06913400603e-07
-6.98430979881e-07
1.62603738553e-06
8.62633109461e-07
-6.85785442013e-07
1.08118264907e-06
2.64479947644e-07
-3.26613144292e-07
5.14676561921e-07
-2.41730332907e-07
-1.13952703101e-08
1.61759991017e-07
-2.90596107969e-07
1.42463803217e-07
2.22216543857e-08
-1.58637645028e-07
1.90164648953e-07
-3.26340139896e-08
-6.5833746593e-08
1.84308314698e-07
-5.0454402252e-08
-1.71104731523e-08
1.58471893356e-07
-5.30034135759e-08
1.66248167501e-09
1.28463153376e-07
-5.13932332232e-08
6.0668182649e-09
1.01164100193e-07
-4.9707001717e-08
3.82778306036e-09
7.82318164099e-08
-4.79771570173e-08
-6.64823700687e-11
6.00917143258e-08
-4.67087438897e-08
-4.56092067019e-09
4.61170685283e-08
-4.60018842101e-08
-8.56080635943e-09
3.54264809381e-08
-4.55752780149e-08
-1.18914540148e-08
2.73376182775e-08
-4.54165523179e-08
-1.45291395429e-08
2.1276533451e-08
-4.53798157127e-08
-1.65757429512e-08
1.67530557666e-08
-4.53612786441e-08
-1.81219419926e-08
1.34061219055e-08
-4.53244879228e-08
-1.92936206211e-08
1.09835621505e-08
-4.52621574367e-08
-2.02016821042e-08
9.31267975137e-09
-4.51808908959e-08
-2.09287684445e-08
8.27791444948e-09
-4.50886141149e-08
-2.15371168065e-08
7.80809808103e-09
-4.49902818135e-08
-2.20756484913e-08
7.87227233329e-09
-4.48857081048e-08
-2.25874408306e-08
8.48027265214e-09
-4.47688091689e-08
-2.31137386003e-08
9.68792533308e-09
-4.46268517616e-08
-2.36981511104e-08
1.16062615724e-08
-4.44372934037e-08
-2.43940018576e-08
1.44098254172e-08
-4.41673431493e-08
-2.52594252079e-08
1.83602552447e-08
-4.37672446194e-08
-2.6373530779e-08
2.3825785676e-08
-4.31493584345e-08
-2.78158894233e-08
3.12685592579e-08
-4.21957118191e-08
-2.96409098077e-08
4.08396498359e-08
-4.07503849131e-08
-3.14388728662e-08
5.14970337251e-08
-3.87786704742e-08
-3.2029958641e-08
5.94456922631e-08
-3.61175813475e-08
-2.85110944538e-08
-2.99698661567e-08
3.94404868954e-08
4.98115953525e-07
1.66423911767e-07
-4.24439781964e-07
9.87699118576e-07
3.49928379091e-07
-3.21361389424e-07
1.01572376689e-06
7.04724700029e-07
3.51889296182e-07
5.28974575405e-07
1.04336148403e-06
1.07370504805e-06
9.99368222032e-08
1.07629887777e-06
1.10883460275e-06
-3.38078080856e-07
1.08568271046e-06
1.1144735511e-06
-8.19766014336e-07
1.03931182896e-06
1.07427572837e-06
-8.22288303179e-07
7.05160352826e-07
3.86063050118e-07
-4.24234229978e-07
3.50140234669e-07
-2.26137205453e-07
-4.76813070908e-08
1.12380779957e-07
-3.21854148591e-07
1.26789434529e-07
2.25993899591e-08
-1.72178911909e-07
1.85073246697e-07
-1.64664663326e-08
-7.37597666154e-08
1.83591447242e-07
-2.86374922764e-08
-2.06279335476e-08
1.58920136558e-07
-3.0161433913e-08
1.27118361106e-09
1.28977841419e-07
-2.87957969072e-08
6.89251818398e-09
1.01678976084e-07
-2.73862563829e-08
4.75458386016e-09
7.85747589108e-08
-2.62444659847e-08
1.34876337843e-09
6.02743135235e-08
-2.52860263228e-08
-3.0366576378e-09
4.62007690822e-08
-2.47446191219e-08
-7.07725814731e-09
3.54598665223e-08
-2.44759050274e-08
-1.02817567225e-08
2.73471666773e-08
-2.42994334644e-08
-1.29729257029e-08
2.12819501967e-08
-2.42714491894e-08
-1.50520610328e-08
1.67631360357e-08
-2.42635591809e-08
-1.6615413061e-08
1.34223834092e-08
-2.42407095762e-08
-1.77928342534e-08
1.10045164074e-08
-2.41943829213e-08
-1.87004568832e-08
9.33642095106e-09
-2.41306604979e-08
-1.94245024467e-08
8.3032735114e-09
-2.40560566402e-08
-2.00291254582e-08
7.83520967973e-09
-2.39746266247e-08
-2.05642196152e-08
7.9027851569e-09
-2.38861667343e-08
-2.10729436785e-08
8.51785786201e-09
-2.3785556433e-08
-2.15968144558e-08
9.73774726284e-09
-2.36619067316e-08
-2.2179403256e-08
1.16767749145e-08
-2.34959514566e-08
-2.28736983619e-08
1.45156020453e-08
-2.32611231526e-08
-2.37388622497e-08
1.85216756422e-08
-2.29186253753e-08
-2.48498562981e-08
2.40749902653e-08
-2.24028962368e-08
-2.62965153999e-08
3.16424157417e-08
-2.16346310182e-08
-2.81266666869e-08
4.13438153753e-08
-2.05315954809e-08
-2.9919453057e-08
5.20930802107e-08
-1.90460727417e-08
-3.04818843982e-08
5.99968822196e-08
-1.70805304184e-08
-2.69413154539e-08
-1.10379464035e-08
4.10643998264e-08
5.44173310591e-07
8.91987633036e-08
-4.60443310963e-07
1.06780804813e-06
1.78738588907e-07
-3.44658164912e-07
1.08574134882e-06
3.39841615169e-07
3.54389863208e-07
5.60160491551e-07
4.97314003563e-07
1.07690715424e-06
1.0198828463e-07
4.93216830529e-07
1.04427366019e-06
-3.61012048819e-07
4.97345583492e-07
1.0541869021e-06
-8.89801630292e-07
4.92781156713e-07
1.08024735917e-06
-9.04149056479e-07
3.3727969023e-07
3.89429201573e-07
-4.77439536946e-07
1.78147340498e-07
-2.47159980857e-07
-7.64105095711e-08
5.94638512703e-08
-3.42442748984e-07
1.16025767421e-07
1.94504099788e-08
-1.8632487332e-07
1.81598269107e-07
-1.27134015571e-09
-7.99001997476e-08
1.83160986794e-07
-7.10841349051e-09
-2.32980421685e-08
1.59295996932e-07
-7.68962143746e-09
8.70462152441e-10
1.2939302476e-07
-6.77431407059e-09
7.43824586434e-09
1.02032212005e-07
-5.88176205381e-09
5.6300061023e-09
7.88369420639e-08
-5.30635281266e-09
2.22855568697e-09
6.04140825578e-08
-4.75920242469e-09
-2.02273715364e-09
4.62731605231e-08
-4.43153144909e-09
-6.0676002927e-09
3.54828084618e-08
-4.27761428513e-09
-9.33142523868e-09
2.73484852331e-08
-4.20848014265e-09
-1.19246732964e-08
2.12835454141e-08
-4.16161743624e-09
-1.40532393469e-08
1.67693322319e-08
-4.15302545615e-09
-1.56323129695e-08
1.34343644067e-08
-4.13876620836e-09
-1.68163243376e-08
1.1020921939e-08
-4.10556410396e-09
-1.77255417142e-08
9.35561296517e-09
-4.05863170602e-09
-1.84488190397e-08
8.32428582163e-09
-4.00236758652e-09
-1.90519451858e-08
7.85816236911e-09
-3.9395766821e-09
-1.95855425095e-08
7.92909842562e-09
-3.86997757461e-09
-2.00930186094e-08
8.55042515548e-09
-3.78943420182e-09
-2.06160380932e-08
9.78110904561e-09
-3.68921301541e-09
-2.11980450811e-08
1.17380148889e-08
-3.55457931941e-09
-2.18916838641e-08
1.46056435173e-08
-3.36580179438e-09
-2.27568138542e-08
1.86561572874e-08
-3.09497328251e-09
-2.38693518446e-08
2.42736351241e-08
-2.70203463742e-09
-2.53150809501e-08
3.19259957782e-08
-2.14125045624e-09
-2.71438921157e-08
4.17066621336e-08
-1.38835015562e-09
-2.89231588956e-08
5.2502746107e-08
-3.83663740272e-10
-2.94584936506e-08
6.03438717456e-08
9.74869555283e-10
-2.58969644015e-08
7.21421310426e-09
4.20911715871e-08
5.64958020332e-07
1.17775374069e-08
-4.80597102496e-07
1.1051482125e-06
8.95360318562e-09
-3.623359236e-07
1.11660162739e-06
1.13320467018e-08
3.2434697139e-07
5.76962717155e-07
1.00524235491e-08
1.03149619256e-06
1.03070444995e-07
1.00872629044e-08
9.59081748529e-07
-3.64922148237e-07
8.85018517396e-09
9.58435522876e-07
-9.20130834433e-07
9.22979582423e-09
1.04306259488e-06
-9.40873108987e-07
1.07302195695e-08
3.54267190852e-07
-5.00809007241e-07
1.2290700656e-08
-2.6656333281e-07
-9.46634712111e-08
1.22063643497e-08
-3.53026006561e-07
1.10319622424e-07
1.33186139904e-08
-1.95727270916e-07
1.79793307807e-07
1.37592180322e-08
-8.35384968681e-08
1.82977250145e-07
1.42810117586e-08
-2.47288205237e-08
1.5954670645e-07
1.46129438897e-08
6.29228203929e-10
1.29654527936e-07
1.48995100456e-08
7.7850122695e-09
1.02212824389e-07
1.50928521065e-08
6.24321422077e-09
7.89885910272e-08
1.51994997274e-08
2.68874370838e-09
6.04928040924e-08
1.53114623764e-08
-1.49552363797e-09
4.6314851194e-08
1.53769528e-08
-5.52735543053e-09
3.55041084029e-08
1.54029251124e-08
-8.79390724873e-09
2.73506354637e-08
1.5415300661e-08
-1.14383823004e-08
2.12784078311e-08
1.54250969275e-08
-1.3522486669e-08
1.67729241683e-08
1.54331920783e-08
-1.51161594127e-08
1.34429178776e-08
1.54466242939e-08
-1.63040901746e-08
1.10330967869e-08
1.547046603e-08
-1.721579434e-08
9.3702056821e-09
1.55025104467e-08
-1.79399331213e-08
8.34061754255e-09
1.55410985327e-08
-1.85432405765e-08
7.87634247202e-09
1.55850071726e-08
-1.90768734174e-08
7.95023553932e-09
1.5634771448e-08
-1.95845945264e-08
8.57666299673e-09
1.56934969473e-08
-2.01080562034e-08
9.81589577772e-09
1.5767531025e-08
-2.06907562986e-08
1.17866231042e-08
1.58665745838e-08
-2.13853764351e-08
1.46759122987e-08
1.60026334623e-08
-2.22516454504e-08
1.87591192699e-08
1.61918112069e-08
-2.33652040256e-08
2.44179018822e-08
1.64478259548e-08
-2.48053879993e-08
3.21173433679e-08
1.67833463658e-08
-2.66221775081e-08
4.19271994656e-08
1.71737443631e-08
-2.83711776739e-08
5.27168913725e-08
1.76756885704e-08
-2.88490203867e-08
6.05200288351e-08
1.84153225318e-08
-2.52440030347e-08
2.50332348354e-08
4.27004895949e-08
5.65414337192e-07
-6.47674228877e-08
-4.81721922875e-07
1.10526782042e-06
-1.5988174603e-07
-3.62862429284e-07
1.11591380359e-06
-3.16218245139e-07
3.24043262338e-07
5.72723388929e-07
-4.74531117782e-07
1.03199521053e-06
1.03005270528e-07
-4.83865409672e-07
9.653343139e-07
-3.60974999213e-07
-4.90106220055e-07
9.6458849338e-07
-9.19192141253e-07
-4.70867972766e-07
1.04244542121e-06
-9.40554039097e-07
-3.14766128328e-07
3.53797012557e-07
-5.00071938042e-07
-1.54378952302e-07
-2.66138373709e-07
-9.4118815406e-08
-3.44922408606e-08
-3.533611885e-07
1.10449869435e-07
7.7057913013e-09
-1.95813351136e-07
1.79930927167e-07
2.85671499731e-08
-8.33107666592e-08
1.83061491459e-07
3.55781606164e-08
-2.45722387468e-08
1.59617419492e-07
3.68333651116e-08
7.35422034911e-10
1.29702061078e-07
3.64911447981e-08
7.8996792017e-09
1.02240793686e-07
3.59311149907e-08
6.40552993664e-09
7.9017121259e-08
3.5605051148e-08
2.79127501714e-09
6.05072259406e-08
3.52966044684e-08
-1.39585008769e-09
4.63223013796e-08
3.51079388529e-08
-5.4440490941e-09
3.5506517454e-08
3.50101887001e-08
-8.71673570336e-09
2.73551550381e-08
3.49639771587e-08
-1.13659339857e-08
2.12788831836e-08
3.49458817355e-08
-1.34523739029e-08
1.67763329197e-08
3.49497338705e-08
-1.50487776412e-08
1.3448855397e-08
3.4961473822e-08
-1.62352196676e-08
1.10411703563e-08
3.49753806228e-08
-1.71459983212e-08
9.37995666981e-09
3.4992130844e-08
-1.78694805691e-08
8.35176629346e-09
3.50125856813e-08
-1.84723123646e-08
7.88906048983e-09
3.50370211809e-08
-1.90057528014e-08
7.96536149657e-09
3.5066019683e-08
-1.95135329697e-08
8.59574855434e-09
3.51014172119e-08
-2.00371097163e-08
9.84132346617e-09
3.51467345707e-08
-2.06196774889e-08
1.18213940437e-08
3.52065146882e-08
-2.13136058159e-08
1.47231158222e-08
3.52844411136e-08
-2.21775168846e-08
1.88229372759e-08
3.53842569649e-08
-2.32875126459e-08
2.45006234815e-08
3.54976396794e-08
-2.47242510877e-08
3.22153438599e-08
3.56004153397e-08
-2.65299174375e-08
4.20251773095e-08
3.56181682253e-08
-2.82534635552e-08
5.27820682534e-08
3.56064914488e-08
-2.86876449455e-08
6.05164475921e-08
3.57365731376e-08
-2.50560167923e-08
4.28431570518e-08
4.2706029647e-08
5.4238394548e-07
-1.43204806628e-07
-4.56831027148e-07
1.06981792959e-06
-3.41018115332e-07
-3.3823381081e-07
1.08714193065e-06
-6.82776352031e-07
3.56279250718e-07
5.61968132194e-07
-1.02316545397e-06
1.07805215193e-06
1.01387097006e-07
-1.05518240445e-06
1.03377199194e-06
-3.64324652208e-07
-1.06554996515e-06
1.04316190438e-06
-8.89659813774e-07
-1.01915639595e-06
1.07808825609e-06
-9.02998415428e-07
-6.82973999839e-07
3.88649620694e-07
-4.75659383636e-07
-3.23976701735e-07
-2.50098301607e-07
-7.60516562329e-08
-8.69576172816e-08
-3.413835569e-07
1.16234014381e-07
4.98358025449e-09
-1.86546774417e-07
1.81843670626e-07
4.36058841013e-08
-7.97431803654e-08
1.83380021999e-07
5.68508787466e-08
-2.29822230064e-08
1.59507725991e-07
5.9055948147e-08
1.15811100592e-09
1.29534633237e-07
5.82379722375e-08
7.80966479128e-09
1.02133666336e-07
5.70903428826e-08
6.03307127838e-09
7.89281854036e-08
5.62870311428e-08
2.50198670172e-09
6.04583007246e-08
5.55712125097e-08
-1.72411722106e-09
4.62947789024e-08
5.51532388553e-08
-5.78098888942e-09
3.54952539536e-08
5.4940553214e-08
-9.05779917216e-09
2.73507758601e-08
5.48430444166e-08
-1.17042297985e-08
2.12816816464e-08
5.47990498422e-08
-1.3791966064e-08
1.67793209885e-08
5.47989538454e-08
-1.53809061035e-08
1.3452464624e-08
5.48073231847e-08
-1.65657394737e-08
1.10455362851e-08
5.48107165145e-08
-1.74760886356e-08
9.38530210442e-09
5.48124488463e-08
-1.82003179202e-08
8.3581762651e-09
5.4815478335e-08
-1.88042687042e-08
7.89667557217e-09
5.48212749877e-08
-1.93389741915e-08
7.97460576255e-09
5.48304896015e-08
-1.98483609599e-08
8.60733732914e-09
5.48436699538e-08
-2.03738700609e-08
9.8562585955e-09
5.48618506034e-08
-2.09590530293e-08
1.18407015005e-08
5.48847030973e-08
-2.16563320394e-08
1.47477686906e-08
5.49077914299e-08
-2.25244794303e-08
1.88516396438e-08
5.49223622121e-08
-2.36372616302e-08
2.45252576844e-08
5.48963048492e-08
-2.50690456778e-08
3.2219068031e-08
5.47658501395e-08
-2.6857364994e-08
4.19868258895e-08
5.43968318872e-08
-2.85456087433e-08
5.26728763119e-08
5.38449412494e-08
-2.89244283151e-08
6.03479024676e-08
5.33159734761e-08
-2.52547906706e-08
6.07491528473e-08
4.24414290944e-08
5.00265614186e-07
-2.12885537912e-07
-4.23741790153e-07
9.87780451989e-07
-4.96518317912e-07
-3.2421104134e-07
1.01583764395e-06
-1.05706341067e-06
3.53256330335e-07
5.29202764461e-07
-1.60422861613e-06
1.07232847394e-06
9.95659478398e-08
-1.7310198179e-06
1.10814732199e-06
-3.38305196239e-07
-1.73712330723e-06
1.11241326402e-06
-8.18167544364e-07
-1.60524973496e-06
1.07116408595e-06
-8.19365069386e-07
-1.05864062242e-06
3.84261066435e-07
-4.2184691435e-07
-4.83821732248e-07
-2.30156462477e-07
-4.77612613202e-08
-1.34511914665e-07
-3.21074454657e-07
1.27330308872e-07
3.87241173818e-09
-1.71223449213e-07
1.855138599e-07
5.93649478689e-08
-7.31868691158e-08
1.8395977349e-07
7.80840261673e-08
-1.99157497019e-08
1.59260891806e-07
8.14424727859e-08
1.8046863041e-09
1.29194113197e-07
8.03037322592e-08
7.58917449321e-09
1.01878593719e-07
7.88263922363e-08
5.38042616049e-09
7.87269552668e-08
7.74979289976e-08
1.92570433447e-09
6.03495239702e-08
7.64455053772e-08
-2.41466586449e-09
4.6235482207e-08
7.58480668272e-08
-6.48152073464e-09
3.54688593951e-08
7.55406005102e-08
-9.76259811638e-09
2.73440685628e-08
7.53809208814e-08
-1.23841015398e-08
2.12865344218e-08
7.53352274379e-08
-1.44866402759e-08
1.67814004827e-08
7.5330312988e-08
-1.60593709255e-08
1.34533844554e-08
7.53291911994e-08
-1.72392084026e-08
1.10460419315e-08
7.53197922635e-08
-1.8148010038e-08
9.38618115122e-09
7.53061848098e-08
-1.88729895903e-08
8.35981759741e-09
7.52925009713e-08
-1.94784330697e-08
7.89922497138e-09
7.52809091714e-08
-2.00148942159e-08
7.97813488787e-09
7.52719174556e-08
-2.05261893455e-08
8.61191831008e-09
7.5265032612e-08
-2.10540713447e-08
9.86172241396e-09
7.52589085802e-08
-2.16419778163e-08
1.18460108452e-08
7.52491690376e-08
-2.23425590413e-08
1.47496458806e-08
7.52237622915e-08
-2.32137474054e-08
1.88414876549e-08
7.51622882775e-08
-2.43271001522e-08
2.44870579847e-08
7.50057678966e-08
-2.57518132965e-08
3.21227585751e-08
7.46486797531e-08
-2.75166465075e-08
4.180256496e-08
7.38772884054e-08
-2.9159434982e-08
5.2372971905e-08
7.27385047498e-08
-2.94638797048e-08
5.998756555e-08
7.14419777852e-08
-2.57409447045e-08
7.88956761171e-08
4.18405774757e-08
4.26843400713e-07
-2.54244074912e-07
-3.79144562837e-07
8.597413779e-07
-6.04158018033e-07
-3.17881184011e-07
8.96248170177e-07
-1.32392086993e-06
2.37386000579e-07
4.74636660351e-07
-2.03953173748e-06
8.62216759149e-07
9.87227455039e-08
-2.25642709101e-06
9.05221124568e-07
-2.78544999913e-07
-2.25961451743e-06
9.04083269597e-07
-6.96783624477e-07
-2.04003920178e-06
8.59210169699e-07
-6.83523536443e-07
-1.32730512988e-06
2.63101632463e-07
-3.25141159353e-07
-5.9228530125e-07
-2.42664471194e-07
-1.14487179113e-08
-1.52953442318e-07
-2.90251324093e-07
1.43482888263e-07
7.48350431309e-09
-1.56154622787e-07
1.90755776536e-07
7.74106535081e-08
-6.47707722694e-08
1.8485849312e-07
9.96267448552e-08
-1.59716589622e-08
1.58924011366e-07
1.04108215035e-07