/*--------------------------------*- C++ -*----------------------------------*\
| =========                 |                                                 |
| \\      /  F ield         | OpenFOAM: The Open Source CFD Toolbox           |
|  \\    /   O peration     | Version:  3.0.1                                 |
|   \\  /    A nd           | Web:      www.OpenFOAM.org                      |
|    \\/     M anipulation  |                                                 |
\*---------------------------------------------------------------------------*/
FoamFile
{
    version     2.0;
    format      ascii;
    class       volVectorField;
    location    "9.9";
    object      ddt0(U);
}
// * * * * * * * * * * * * * * * * * * * * * * * * * * * * * * * * * * * * * //

dimensions      [0 1 -2 0 0 0 0];

internalField   nonuniform List<vector> 
7968
(
(1.77651138514e-05 -1.16329122587e-07 -1.22419543204e-05)
(6.9216563819e-05 6.318754491e-06 -3.26135272122e-05)
(0.000121920266995 8.96447815348e-06 -4.26066239459e-05)
(0.000179923059855 1.0816015389e-05 -4.6205955609e-05)
(0.000240731535346 1.22346749884e-05 -4.66828670788e-05)
(0.000309328334767 1.33787906381e-05 -4.64381544181e-05)
(0.00037149249913 1.67667418314e-05 -4.43732835116e-05)
(0.000437250564981 1.74246068536e-05 -4.32280579908e-05)
(0.000494837734501 2.13791057316e-05 -3.65217851535e-05)
(0.00054225548958 2.45181013806e-05 -3.15102697766e-05)
(0.000573050626809 2.70319683655e-05 -2.58601460534e-05)
(0.000589036052629 2.91474587382e-05 -1.99937075428e-05)
(0.000582784802935 2.95513448675e-05 -1.01617028624e-05)
(0.000550309183959 3.01385624705e-05 -2.92105769727e-06)
(0.000498580240477 2.97751646182e-05 5.02848011294e-06)
(0.000425718451333 3.01829106382e-05 1.41429466691e-05)
(0.000337065602361 2.85374042518e-05 2.08195436607e-05)
(0.000239497865887 2.51090490824e-05 2.68138338389e-05)
(0.000134097819204 1.8267595822e-05 3.31808740141e-05)
(4.51610699964e-05 6.79166707542e-06 4.5341163731e-05)
(2.63485283318e-05 9.94342133545e-06 -2.61979295913e-05)
(8.86495947841e-05 2.33566211489e-05 -4.58674949532e-05)
(0.000126307013037 2.34406540201e-05 -3.48493000142e-05)
(0.000167669594136 2.0128662666e-05 -2.51138178847e-05)
(0.000210924473433 1.49883180795e-05 -2.0965281461e-05)
(0.000266533961028 1.02995093579e-05 -2.01195291775e-05)
(0.000330851675792 9.74604655534e-06 -2.11764464594e-05)
(0.000403845705878 1.11205243016e-05 -2.36445408329e-05)
(0.000477327818597 1.88403235913e-05 -2.34755698431e-05)
(0.000543664486647 2.69930108503e-05 -2.01972440806e-05)
(0.000594867270937 3.50622027217e-05 -1.38847754135e-05)
(0.000627203876978 4.30365894093e-05 -4.47780900112e-06)
(0.000632298767829 4.94653519799e-05 5.74527661929e-06)
(0.00060515204517 5.71549237857e-05 1.714311197e-05)
(0.000550264593795 6.47154912247e-05 2.67036273463e-05)
(0.000467037898835 7.33238704105e-05 3.45264773789e-05)
(0.000361008617718 7.73200632913e-05 3.65736182182e-05)
(0.000244401424765 7.51056535462e-05 3.29142450262e-05)
(0.000122889458786 6.32776925065e-05 2.33685017316e-05)
(3.77754483495e-05 3.82726570533e-05 2.45880221987e-05)
(3.0127109355e-05 1.00392310112e-05 -3.18320750494e-05)
(9.27200812436e-05 5.84323492496e-06 -3.26764793246e-05)
(0.000114858125887 -1.01142187524e-05 -6.10996781453e-06)
(0.00014458901328 -2.79616937843e-05 6.67952653387e-06)
(0.00018137667158 -4.48659097526e-05 7.80219256258e-06)
(0.000235120725384 -5.49906045292e-05 2.72478136148e-06)
(0.00030332719014 -5.70641591092e-05 -3.77024097026e-06)
(0.00038340445648 -5.33983421926e-05 -9.81840425112e-06)
(0.000467178234317 -4.32350545208e-05 -1.19311195058e-05)
(0.000544876899598 -2.9088005064e-05 -1.00084479322e-05)
(0.000607086963785 -1.46952143415e-05 -3.15952541119e-06)
(0.000648765550559 -3.64305057138e-07 8.32007653028e-06)
(0.00066118999768 1.34224519857e-05 2.10387189156e-05)
(0.000638922779433 2.84032778676e-05 3.64897103246e-05)
(0.000584487474035 4.43344992858e-05 5.03012922845e-05)
(0.000497427547424 6.20317037967e-05 6.17158789729e-05)
(0.000383633823764 7.64742705624e-05 6.5583262286e-05)
(0.000255545497691 8.5769164381e-05 5.82958242361e-05)
(0.000119574984484 8.59009954218e-05 3.39398910662e-05)
(3.30225544797e-05 7.14158244542e-05 1.40314187442e-05)
(3.11504884226e-05 1.23633419918e-05 -3.36861885619e-05)
(8.91436908883e-05 -1.28745395974e-05 -2.27145344374e-05)
(9.83602161513e-05 -4.02636898342e-05 5.8396792718e-06)
(0.000121184181835 -6.53029809833e-05 1.20706485821e-05)
(0.000155176426819 -8.63393661278e-05 4.97830967209e-06)
(0.000211295329494 -9.87122669301e-05 -6.81467801431e-06)
(0.000285632102547 -0.000100577661717 -1.78420896169e-05)
(0.000373431968921 -9.45208475748e-05 -2.56870543095e-05)
(0.000466209812375 -8.07525387427e-05 -2.64339107141e-05)
(0.00055185439871 -6.27797171168e-05 -2.48642936909e-05)
(0.00062017770264 -4.3875540825e-05 -1.62395978016e-05)
(0.000667348569747 -2.48359224504e-05 -1.7888513139e-06)
(0.00068468013789 -6.36351842759e-06 1.38775620238e-05)
(0.000666376936271 1.32747951871e-05 3.32543096019e-05)
(0.0006133610701 3.45271755926e-05 5.15817138449e-05)
(0.000524309868825 5.87247785295e-05 6.82835325685e-05)
(0.000404075268383 7.94512292314e-05 7.83511472127e-05)
(0.000267197224918 9.60319875619e-05 7.39140809807e-05)
(0.000118089007055 0.000107059466067 4.38479790487e-05)
(2.87289944171e-05 0.000106818501108 9.44700340259e-06)
(3.10075574767e-05 1.64706833995e-05 -3.51120745979e-05)
(8.15783493674e-05 -2.77264665854e-05 -1.8961363447e-05)
(8.17216548124e-05 -6.17510608993e-05 4.95667592838e-06)
(0.000100025201616 -8.96970711466e-05 2.73499905313e-06)
(0.000134945587409 -0.000110112559499 -1.23074514514e-05)
(0.000196612682863 -0.000119841110566 -3.05233139695e-05)
(0.00027864901245 -0.000118096009665 -4.47482330161e-05)
(0.000374423082509 -0.000107882678085 -5.32340015812e-05)
(0.000473203865784 -9.00009759691e-05 -5.41442402203e-05)
(0.000563456651139 -6.93287594207e-05 -4.88867461312e-05)
(0.000636203233767 -4.76087062721e-05 -3.77392040133e-05)
(0.000685978280501 -2.63436746112e-05 -2.15297944316e-05)
(0.000705605203346 -6.44934021022e-06 -2.63068622192e-06)
(0.000690085945324 1.42203587195e-05 2.00091940406e-05)
(0.000638612968768 3.70809945527e-05 4.19521266179e-05)
(0.000548389268776 6.53898799798e-05 6.30143233939e-05)
(0.000422884473308 8.59178381022e-05 7.95156262224e-05)
(0.000279146558929 0.000107254957859 8.09656896449e-05)
(0.000119559163977 0.000125293482836 5.04496376798e-05)
(2.58314983685e-05 0.000141496430566 7.61338214542e-06)
(3.15318089645e-05 2.72954151278e-05 -3.655570753e-05)
(7.41222673517e-05 -2.81661489226e-05 -2.1247120827e-05)
(6.87160469691e-05 -6.39183847589e-05 -3.88277224993e-06)
(8.4618368311e-05 -8.94261356404e-05 -1.30238250817e-05)
(0.000122425801415 -0.000105578864994 -3.43845785964e-05)
(0.000191199338503 -0.000108228785703 -5.66042631462e-05)
(0.000280401909338 -0.000101175768324 -7.181089784e-05)
(0.000383876437691 -8.61303717852e-05 -7.93125908924e-05)
(0.000487802188579 -6.46103697021e-05 -7.76238919533e-05)
(0.000580592087327 -4.08967195367e-05 -6.89046783139e-05)
(0.000654134134272 -1.8084029297e-05 -5.52532693964e-05)
(0.000703723212345 2.46827372818e-06 -3.77014768163e-05)
(0.000723656599904 2.0924097203e-05 -1.76414763218e-05)
(0.000709698381751 3.92714917745e-05 6.25272418995e-06)
(0.000661838029344 5.84580027875e-05 2.95994313698e-05)
(0.000567341456049 8.13299086862e-05 4.79459756958e-05)
(0.00043501631512 0.000103961116969 7.5347476574e-05)
(0.000287341825772 0.000127393731742 8.18383411482e-05)
(0.000122143964097 0.000149871367321 5.44291540707e-05)
(2.44633795386e-05 0.000175429636056 6.94888633599e-06)
(3.12202802378e-05 4.59904548247e-05 -3.82964869639e-05)
(6.98416403701e-05 -1.11008429061e-05 -2.7186044619e-05)
(6.24138285047e-05 -4.372058466e-05 -1.55582799277e-05)
(7.75439636011e-05 -6.32169871835e-05 -2.9285184094e-05)
(0.00012027713463 -7.1316389692e-05 -5.24741993362e-05)
(0.00019640609473 -6.84255676069e-05 -7.72160699442e-05)
(0.000291275595373 -5.61715952721e-05 -9.16735169385e-05)
(0.000400476040015 -3.72020246303e-05 -9.66497356054e-05)
(0.000507353395692 -1.3016378964e-05 -9.13486387904e-05)
(0.000600210827125 1.20651650007e-05 -7.94985795497e-05)
(0.000671967528782 3.46139299038e-05 -6.41440930298e-05)
(0.000719289990398 5.3411096581e-05 -4.63256082382e-05)
(0.000737846146907 6.91759108321e-05 -2.67150311174e-05)
(0.000723113048108 8.37176811018e-05 -3.0772473534e-06)
(0.00067206768025 9.79827310096e-05 2.16885572002e-05)
(0.000581581811461 0.000112454222591 4.85623627568e-05)
(0.000449514655223 0.000135280827329 7.17121313136e-05)
(0.000294370378485 0.000157886020033 8.09019413134e-05)
(0.00012270541235 0.00017998546664 5.52116396552e-05)
(2.17602361694e-05 0.000204483782729 6.63535930175e-06)
(3.14387495949e-05 7.12182279812e-05 -3.96101838325e-05)
(6.87893565991e-05 2.10563533214e-05 -3.45485947941e-05)
(6.25806931854e-05 -4.57277290616e-06 -2.74284946053e-05)
(8.03907772169e-05 -1.63373515795e-05 -4.41846899703e-05)
(0.000126501879687 -1.62224838378e-05 -7.03201571044e-05)
(0.000207488023017 -8.0271954795e-06 -9.22003391939e-05)
(0.000308329535814 8.36146821872e-06 -0.000103928924756)
(0.000422195317266 3.01819315305e-05 -0.000105436909183)
(0.000530511455584 5.57239187848e-05 -9.56571568165e-05)
(0.000621722660849 8.03214751149e-05 -7.98334359753e-05)
(0.000689711625469 0.000101286887925 -6.30656849906e-05)
(0.000732922882288 0.000118095944162 -4.6411190394e-05)
(0.000748723256679 0.000131287970956 -2.86153665573e-05)
(0.000732379821649 0.000141943866318 -6.64030759551e-06)
(0.000679953738856 0.000152191078301 1.7223969736e-05)
(0.000589914085616 0.000164112664736 4.52562936248e-05)
(0.000457977733536 0.000178385401527 6.975257023e-05)
(0.000298492737777 0.000195954085296 8.30547053011e-05)
(0.00012216542764 0.000215146249213 5.54429342466e-05)
(1.91897851285e-05 0.000237094641459 7.51772773264e-06)
(3.17090891135e-05 9.96948255638e-05 -3.98658280833e-05)
(7.03249081642e-05 6.47139579203e-05 -4.09624794995e-05)
(6.74362675748e-05 4.89629064009e-05 -3.69837281617e-05)
(8.84868301403e-05 4.48042547014e-05 -5.43795298496e-05)
(0.000138609696139 5.0236383738e-05 -8.05858604513e-05)
(0.000224447723015 6.35122827125e-05 -9.9870534643e-05)
(0.000329209849813 8.19490487447e-05 -0.00010836975942)
(0.000446146134404 0.000104081393463 -0.00010590067847)
(0.000553505589308 0.000127469714318 -8.84854611353e-05)
(0.00064264667473 0.000150784199251 -6.89873087776e-05)
(0.000705390875548 0.00017057292987 -5.39363904735e-05)
(0.00074360867408 0.000184993599538 -3.965465959e-05)
(0.000756708773911 0.000195533923295 -2.41623022362e-05)
(0.000737864174007 0.00020387176393 -4.60971391779e-06)
(0.000683977195839 0.00021108567463 1.73393029232e-05)
(0.00059352006255 0.000218917679305 4.43892383094e-05)
(0.00046043876159 0.000227696318593 6.8165436873e-05)
(0.00029994276661 0.000237782145632 7.58593359022e-05)
(0.000122141602936 0.000253475148242 5.64362488854e-05)
(1.69948101429e-05 0.000266420014494 9.41758993885e-06)
(3.20593820462e-05 0.000128237761832 -3.93328282703e-05)
(7.32641340995e-05 0.000113781291224 -4.50641498254e-05)
(7.48334256617e-05 0.000109736887141 -4.25299886663e-05)
(9.99303982346e-05 0.000112923900883 -5.89783131437e-05)
(0.000153894530884 0.000122633808183 -8.45445634874e-05)
(0.000243195008012 0.000137811426327 -0.000101309458352)
(0.00035014306316 0.000155734358064 -0.00010701723737)
(0.000468260615316 0.000175674935049 -0.00010099029261)
(0.00057329251623 0.000195708264535 -7.48559940247e-05)
(0.000660266838866 0.000215536724436 -6.22858426158e-05)
(0.000717944340067 0.000231413017107 -4.44593678531e-05)
(0.000752667564517 0.000243807684295 -3.01566803378e-05)
(0.000759934419871 0.000254301987384 -2.05341915452e-05)
(0.000741598344841 0.000261413212905 6.66797621149e-07)
(0.000685892016949 0.00026714958342 2.13383668628e-05)
(0.000594536199162 0.000272000512617 4.7230280582e-05)
(0.000460000005001 0.000276781614785 7.0649441333e-05)
(0.000301100653391 0.000281200248273 7.92972154561e-05)
(0.000123444988349 0.000287894353497 6.35433324852e-05)
(1.47877363877e-05 0.000289782341798 1.26680905773e-05)
(3.26666264351e-05 0.000154338110876 -3.78220285009e-05)
(7.73405949531e-05 0.000162031272198 -4.57863921937e-05)
(8.35709683708e-05 0.0001697215768 -4.35081535052e-05)
(0.000112528867433 0.000180168072926 -5.91203128362e-05)
(0.000169386021931 0.000192898304629 -8.30521450943e-05)
(0.000260661436489 0.000208159708629 -9.78932226512e-05)
(0.000368095896521 0.000223985949981 -0.000101995606116)
(0.000485717807526 0.000240160345569 -9.465250936e-05)
(0.000589779299924 0.000256650479545 -6.92029562289e-05)
(0.000673807513065 0.000269480043722 -5.46138712251e-05)
(0.000728775241243 0.000281846162079 -3.63740025909e-05)
(0.000760971506309 0.0002927581951 -2.21769507117e-05)
(0.000765709663426 0.000302182164495 -1.31481767015e-05)
(0.000745271613407 0.000310010157947 7.99875756844e-06)
(0.000687750261101 0.000315287545919 2.83778999037e-05)
(0.000595079867287 0.000317808572981 5.34668916607e-05)
(0.000459788937763 0.00031941111116 7.6476105235e-05)
(0.000300310674675 0.000319272602104 8.43569624171e-05)
(0.000123766588058 0.000315529628456 6.29384463764e-05)
(1.49466825636e-05 0.000306435154815 1.62824823732e-05)
(3.33270785363e-05 0.00017607203975 -3.5826349762e-05)
(8.20829389139e-05 0.000203579278577 -4.33569091069e-05)
(9.31536947352e-05 0.000221969388731 -4.03065727415e-05)
(0.000125693622063 0.000238359326404 -5.51427573414e-05)
(0.000184274200921 0.000254153748949 -7.65449649275e-05)
(0.000275847928228 0.000269144641813 -9.02774287577e-05)
(0.000382069369287 0.00028246533887 -9.40202154402e-05)
(0.000497869206603 0.000294432930415 -8.76353794232e-05)
(0.000600603505358 0.000305972974998 -6.61730204433e-05)
(0.000683096335776 0.000313405999083 -4.8227692303e-05)
(0.000737224540785 0.000321599533171 -3.16478956431e-05)
(0.000768287644784 0.000330387463936 -1.745417809e-05)
(0.000770513303055 0.000337962835223 -7.98666177556e-06)
(0.000748402582977 0.000346208105006 1.65879565434e-05)
(0.000689471525197 0.000350847437919 3.75686737992e-05)
(0.00059518278414 0.00035128979797 6.25997413841e-05)
(0.000459574138536 0.000349959282229 8.50478729837e-05)
(0.000299873840716 0.000346302367709 9.19497771637e-05)
(0.000124546219533 0.000335249386061 7.01365466069e-05)
(1.59336075521e-05 0.000315753582384 2.10919620448e-05)
(3.38784278913e-05 0.000190976602833 -3.30563973788e-05)
(8.73999396741e-05 0.000233024695711 -3.83148695282e-05)
(0.000103590580623 0.000259976885401 -3.28823726241e-05)
(0.000140003780221 0.000281576504998 -4.51770249171e-05)
(0.000199776448626 0.000300308833953 -6.46449733952e-05)
(0.000289579589115 0.000315951917063 -7.81734201334e-05)
(0.000392924240265 0.00032741210899 -8.23727873441e-05)
(0.000505031094894 0.00033605277953 -7.78040403774e-05)
(0.000606616265789 0.000341342553266 -6.30126523794e-05)
(0.000687558840834 0.000346309126473 -4.38747534286e-05)
(0.000742871661885 0.000350157756537 -2.81789936574e-05)
(0.000773963358259 0.000356094768611 -1.27901522912e-05)
(0.000778733105838 0.000363240561415 6.22597430917e-06)
(0.000750537677278 0.000367934775094 2.72515179708e-05)
(0.00069083784884 0.000370280107796 4.94103853796e-05)
(0.000594787598984 0.000367869448089 7.41973357035e-05)
(0.000460099778684 0.000362704120299 9.56037058716e-05)
(0.000300094127231 0.00035406750228 0.000100525735988)
(0.000125108804032 0.000339061136538 8.06934729204e-05)
(1.77404802047e-05 0.00031326062801 2.70460429943e-05)
(3.43736607586e-05 0.00019596582793 -2.93669242909e-05)
(9.4128355609e-05 0.000245282633663 -3.19591890536e-05)
(0.000116445544442 0.000277889517135 -2.29582314501e-05)
(0.00015656020557 0.000304220486968 -3.14264124761e-05)
(0.000216555746128 0.000326480087481 -4.72328794763e-05)
(0.00030398490158 0.000342796561887 -6.12275955012e-05)
(0.000403026637183 0.000353346487018 -6.60555374895e-05)
(0.00051028954668 0.000360014477221 -6.32968258291e-05)
(0.000608886958512 0.00036223954834 -5.15241270832e-05)
(0.000689141535451 0.000362932219661 -3.53116902855e-05)
(0.000745839088693 0.000364589198368 -1.79146229217e-05)
(0.000776861672445 0.00036775342983 1.17375791667e-07)
(0.000779598217156 0.000368783451075 1.90229308689e-05)
(0.000751223784101 0.000371151765994 4.05869301508e-05)
(0.000689123038001 0.000369705982624 6.34818487571e-05)
(0.000591337568599 0.000363532854356 8.75153711107e-05)
(0.000456431797854 0.000354482121468 0.000107120485141)
(0.000299162783616 0.000341310935132 0.000112491977753)
(0.000127624970781 0.000324397798812 8.92006919937e-05)
(2.0519433698e-05 0.00029709626224 3.319046302e-05)
(3.5373557903e-05 0.000188671538152 -2.54125661858e-05)
(0.000102622972772 0.000237814631194 -2.61266183079e-05)
(0.000132479189625 0.000272617555513 -1.27397409081e-05)
(0.000177292125871 0.000301912736427 -1.6579913033e-05)
(0.000236963691329 0.000326969072522 -2.9332456707e-05)
(0.000320115110809 0.000344286943642 -4.09208561705e-05)
(0.000414310779793 0.000354332416614 -4.54750991669e-05)
(0.000515802479679 0.000359524637152 -4.4327626187e-05)
(0.000610611332012 0.000359337438294 -3.52465096281e-05)
(0.000689110273495 0.000356988850573 -2.11978233021e-05)
(0.00074546410582 0.000354948148566 -4.49581367129e-06)
(0.000775962503655 0.000353980412931 1.40309570098e-05)
(0.000777941026388 0.000352599519409 3.42593063635e-05)
(0.000747961575911 0.000350781856195 5.59229642456e-05)
(0.000683844864195 0.000345472641993 7.86555405667e-05)
(0.000584941318923 0.000336107135428 0.000100946658738)
(0.00045098951476 0.000323976580012 0.000117494456805)
(0.00029648195204 0.000310315580291 0.000122047032318)
(0.000129196695132 0.000293745889406 9.57264436428e-05)
(2.3903381865e-05 0.000268064645489 3.95499312808e-05)
(3.59759003386e-05 0.000168237439818 -2.19686451024e-05)
(0.000112928297672 0.000209361864896 -2.24563372796e-05)
(0.000151896700761 0.000242421276886 -4.40878598926e-06)
(0.000202122499471 0.000271828138454 -2.12960388312e-06)
(0.000262005490352 0.000297431268638 -9.10903043158e-06)
(0.00034043846434 0.000315836393568 -1.72043475094e-05)
(0.000429253251312 0.000325163079616 -2.04690557249e-05)
(0.000523825934303 0.000329337298695 -1.97625930462e-05)
(0.00061347217929 0.000327365829673 -1.25710725814e-05)
(0.000688713426882 0.000322632694776 -4.62421143235e-07)
(0.000743113719776 0.000317745983397 1.50281487766e-05)
(0.000771789316133 0.00031341155496 3.3022581508e-05)
(0.000772102805605 0.00030860818925 5.2919068015e-05)
(0.000739857417675 0.000304352991045 7.28222178039e-05)
(0.000673757430156 0.000295105258493 9.43006596329e-05)
(0.000573870514634 0.000283157040844 0.000112374926102)
(0.000442655073217 0.000270625873326 0.000126486943519)
(0.000292785926751 0.000258105446771 0.000127382606741)
(0.000129272380445 0.000245934862335 9.99044054917e-05)
(2.5961220258e-05 0.000228477243381 4.87227660094e-05)
(3.70578981607e-05 0.00013648697668 -1.92638844381e-05)
(0.000122122018321 0.000162991951156 -2.30647800585e-05)
(0.000171752937634 0.00019038176111 -1.87818056117e-06)
(0.000228204763078 0.0002159907094 7.36806765116e-06)
(0.00028928474419 0.000238890224906 7.09482858539e-06)
(0.000364032789836 0.000255249534688 4.00885220887e-06)
(0.00044698690232 0.000262586243895 2.81770935534e-06)
(0.000534694508266 0.000264851145225 3.70764023495e-06)
(0.000618429279592 0.000261087969978 9.70781817689e-06)
(0.00068923178714 0.000254594549112 2.0019734842e-05)
(0.000740293042442 0.000247957201411 3.38208188191e-05)
(0.000766003238198 0.000241753206535 5.03121059893e-05)
(0.000764778423417 0.000235294218955 6.82999403703e-05)
(0.000729008814946 0.000228089496918 8.39397744735e-05)
(0.000660121751191 0.000219529420799 0.000103354333514)
(0.000561781969801 0.000208702353409 0.000119292150664)
(0.000433865567902 0.000198277135845 0.000128763887764)
(0.000289753570793 0.000191152456081 0.000126784612162)
(0.000133457320423 0.000185471172616 9.97396089725e-05)
(3.13787082612e-05 0.000183202936589 5.53660351935e-05)
(3.734475102e-05 9.82166705747e-05 -1.71062541974e-05)
(0.000126845292172 0.000108546844567 -2.86282123843e-05)
(0.000188555401736 0.000126443620664 -8.89113071194e-06)
(0.000252384888807 0.000144530211456 5.2535433216e-06)
(0.000316888789072 0.000161236784838 1.16496875862e-05)
(0.000390556117413 0.000172206195052 1.36201870581e-05)
(0.00046874990799 0.000175542007044 1.54797472531e-05)
(0.000549857517895 0.000175456542456 1.67787564157e-05)
(0.000626882691051 0.000170270750705 2.17651802297e-05)
(0.000691489185361 0.000163090685534 3.08052267679e-05)
(0.000737137539708 0.000156111730121 4.29748430111e-05)
(0.00075808086635 0.000150019142389 5.74789893174e-05)
(0.000751786730355 0.000144368576859 7.32348910506e-05)
(0.000714199207805 0.000136583480027 8.81072860612e-05)
(0.00064540819657 0.00013152933507 0.000103115631982)
(0.000547989070202 0.000124479220816 0.00011496335669)
(0.000425946810999 0.000119093515648 0.000120888584534)
(0.000288336954277 0.000117747253911 0.000117036854668)
(0.00014118802103 0.0001217913092 9.50417354197e-05)
(3.83145582014e-05 0.000132153132685 6.31907015858e-05)
(3.54955919946e-05 5.53078341034e-05 -1.24285014011e-05)
(0.000123592439793 4.9866288631e-05 -3.67299779233e-05)
(0.000197499133876 5.40137834018e-05 -2.88311905777e-05)
(0.000271450108839 5.91663440258e-05 -1.78204723599e-05)
(0.00034206691287 6.51938034019e-05 -9.77411691842e-06)
(0.000418264094976 6.95401236933e-05 -4.13807633659e-06)
(0.00049367826688 6.83178631592e-05 1.03520041384e-06)
(0.000569204451419 6.64210064058e-05 3.39602521693e-06)
(0.000638271361824 6.09822987679e-05 8.6481826808e-06)
(0.000693906807577 5.52419280714e-05 1.7116825453e-05)
(0.000731297302685 5.00225541053e-05 2.76695994617e-05)
(0.000745512290983 4.5480548067e-05 3.97689193545e-05)
(0.000733506900392 4.19029049779e-05 5.30939659626e-05)
(0.000693748933898 3.76269360496e-05 6.58591727732e-05)
(0.000626109775369 3.52139981901e-05 7.81519765113e-05)
(0.000532176807463 3.37064820498e-05 8.79905582712e-05)
(0.000416448904559 3.51686714781e-05 9.33974863794e-05)
(0.000288534347499 4.25556692484e-05 9.34246904993e-05)
(0.00015127750127 5.67849187727e-05 8.42689319705e-05)
(4.54292377659e-05 8.09840788499e-05 7.33127047999e-05)
(2.72816741852e-05 2.11850336781e-05 -1.95011049506e-06)
(0.00010356928539 1.7819323963e-05 -2.10773058279e-05)
(0.000188590243034 1.74355304743e-05 -2.94024322451e-05)
(0.000275927382744 1.68235846032e-05 -3.05881015684e-05)
(0.000360881779517 1.6376824243e-05 -2.89205274792e-05)
(0.000446808415816 1.6602413069e-05 -2.6596193148e-05)
(0.000518748802586 1.10834729907e-05 -2.06974194944e-05)
(0.000589439571199 1.03930223602e-05 -1.78536253185e-05)
(0.000646940985011 6.39744338504e-06 -1.28963595433e-05)
(0.000687737627843 1.95307994189e-06 -7.87069623932e-06)
(0.000710934252892 -1.31415559722e-06 -1.75546975897e-06)
(0.000713754252016 -3.34277106248e-06 5.47112938999e-06)
(0.000694614716458 -4.41324973316e-06 1.39098351812e-05)
(0.000652332014038 -4.82244142429e-06 2.37273511094e-05)
(0.000588897347123 -3.96807558542e-06 3.72034061242e-05)
(0.000504974615432 -2.09901623154e-06 4.86444240346e-05)
(0.000402934178972 1.6424882163e-06 5.94096417485e-05)
(0.000290164930008 7.80537195133e-06 6.89630677918e-05)
(0.000168715234607 1.65115125301e-05 7.78112562534e-05)
(5.78110298953e-05 3.20196033636e-05 8.56752150416e-05)
(2.80059275773e-05 1.49051012594e-05 -8.00576650753e-05)
(7.60673453073e-05 1.45760490866e-05 -0.000103124685631)
(0.000110528488462 6.44901790064e-06 -0.000105910719267)
(0.000147330651705 -2.81064416841e-06 -0.000104924152431)
(0.000193982575026 -9.91463811385e-06 -0.000106302209481)
(0.00025536479256 -1.23601463823e-05 -0.000110300429855)
(0.000326107351614 -1.09440251023e-05 -0.000113059087488)
(0.000406423416809 -7.57979536774e-06 -0.000112321825394)
(0.000483671627861 -3.52732318631e-06 -0.000103606687312)
(0.000550474130053 1.76198768707e-06 -9.10025351238e-05)
(0.000601670479231 6.38262711832e-06 -7.32819253045e-05)
(0.000638412491691 1.0915236577e-05 -5.00964219503e-05)
(0.000645642756208 9.71623732835e-06 -2.58718272234e-05)
(0.000618919406818 1.37043388987e-05 2.71233946668e-06)
(0.000567932041735 1.74218293091e-05 2.98431914009e-05)
(0.000487996060758 2.28615599259e-05 5.44727292095e-05)
(0.000382597314379 2.91788400325e-05 7.2727942096e-05)
(0.000261302317241 3.33776060253e-05 8.31431552687e-05)
(0.000134952325818 2.97003054458e-05 8.85518063718e-05)
(3.68046855859e-05 1.08313404668e-05 0.000100226565016)
(4.2491610142e-05 2.03640921905e-05 -9.2690577843e-05)
(6.88326426979e-05 -8.92513936886e-06 -5.58056840133e-05)
(8.55476893928e-05 -3.36768548157e-05 -2.87611873938e-05)
(0.000116591367171 -5.20896994029e-05 -1.98229286102e-05)
(0.000160469177006 -6.52961678081e-05 -2.35056312389e-05)
(0.00022052805341 -7.27831561486e-05 -3.20076855214e-05)
(0.000294263630508 -7.37072873082e-05 -4.2268786971e-05)
(0.000377260077658 -6.869181554e-05 -5.02142750262e-05)
(0.000462261056548 -6.12337910471e-05 -5.05302970668e-05)
(0.000540887350776 -5.10415967131e-05 -4.11328095742e-05)
(0.000605595876447 -4.08612903532e-05 -2.25573420329e-05)
(0.00065015274014 -3.01513386096e-05 3.93755234111e-06)
(0.000667765568301 -2.49080421642e-05 3.46787339761e-05)
(0.000653414066819 -1.34547457707e-05 6.83394140161e-05)
(0.000607210017377 -1.78433809954e-06 0.00010105539573)
(0.000530743897948 1.22704455667e-05 0.000127493037485)
(0.000427887777094 2.78100545385e-05 0.000143370158963)
(0.000305359876871 4.19127625367e-05 0.00014355616183)
(0.000169380945202 4.83393512289e-05 0.000121226843337)
(4.68820733648e-05 3.92587288015e-05 7.74427508923e-05)
(4.00090608208e-05 -3.45470961303e-06 -8.93256684087e-05)
(5.28010988848e-05 -4.75189778378e-05 -2.54491425544e-05)
(6.53546219193e-05 -7.46563349524e-05 3.27893834494e-06)
(9.63354112987e-05 -9.48605220709e-05 3.52313374313e-06)
(0.000141926875086 -0.000109639265203 -9.8406586591e-06)
(0.000204121597917 -0.0001178085234 -2.84788902447e-05)
(0.000280218814433 -0.000119395921212 -4.58599472432e-05)
(0.000365609554316 -0.000115407547613 -5.70374016616e-05)
(0.000452736220786 -0.000106006327771 -5.84435864745e-05)
(0.000534061807081 -9.51437460065e-05 -4.88012026596e-05)
(0.00060231497974 -8.26020970908e-05 -2.80947962049e-05)
(0.00064971964429 -6.9090343131e-05 2.31401329571e-06)
(0.000671284879907 -5.59329009599e-05 3.86680272512e-05)
(0.000662358852645 -4.01328321569e-05 7.87017621828e-05)
(0.000621524122911 -2.23020813007e-05 0.000118394461361)
(0.000550519432141 -1.98063471619e-06 0.0001529631954)
(0.000451511295556 1.91721166902e-05 0.000175760183792)
(0.000331402468285 3.88750740595e-05 0.000180458628676)
(0.000192452915191 5.3652540747e-05 0.00014951041731)
(5.60010584047e-05 6.36267711596e-05 7.27333846554e-05)
(3.19807118784e-05 -2.71746251965e-05 -8.6340560281e-05)
(3.60441028211e-05 -7.32281794181e-05 -1.67087897897e-05)
(4.63975641878e-05 -9.7469471469e-05 2.65429556109e-06)
(7.89890024599e-05 -0.000114031340705 -8.48250452216e-06)
(0.000127865863099 -0.000125556789865 -3.3888287523e-05)
(0.000193507413828 -0.000131970206474 -6.26119699016e-05)
(0.000272854012153 -0.000132539881707 -8.62096424629e-05)
(0.000361654623331 -0.000127752818587 -9.95486044787e-05)
(0.000450523406575 -0.00011845378245 -0.00010120688817)
(0.000532657987782 -0.000106016547084 -8.97047223941e-05)
(0.000602755896242 -9.16737753565e-05 -6.56992334845e-05)
(0.000651337424876 -7.61419876075e-05 -3.10176356996e-05)
(0.000674674434926 -5.95025617723e-05 1.06515889618e-05)
(0.000668970419115 -4.12106019048e-05 5.69580628599e-05)
(0.000632089052957 -2.12059373854e-05 0.00010435442389)
(0.000565515956403 6.14540906513e-07 0.000148530900923)
(0.0004701929422 2.36385841096e-05 0.000181346920315)
(0.000350812497127 4.51907519736e-05 0.000193644265427)
(0.000208735818629 6.38835481165e-05 0.000165746960887)
(6.37128584701e-05 8.44979336254e-05 7.40557741455e-05)
(2.45014081369e-05 -4.03950480185e-05 -8.98501154884e-05)
(2.24113982181e-05 -8.47844835892e-05 -2.31081319692e-05)
(3.04545191764e-05 -0.0001039434263 -1.43881997049e-05)
(6.4599883633e-05 -0.000114874464094 -3.76365150798e-05)
(0.000116502835499 -0.000121653145118 -7.44744944766e-05)
(0.000186097761267 -0.000124756399239 -0.000111903546107)
(0.000269366362259 -0.000123253146318 -0.00014012237804)
(0.000360943429218 -0.000116906895766 -0.000154555774394)
(0.000452829070929 -0.000107249554625 -0.000153885403368)
(0.00053758443812 -9.33417882502e-05 -0.000138882764695)
(0.000608343540658 -7.7880880365e-05 -0.000111311086074)
(0.000658137932202 -6.15184250748e-05 -7.32857434093e-05)
(0.000682851554314 -4.35916512121e-05 -2.75429127876e-05)
(0.000678313143726 -2.46939052845e-05 2.4404742234e-05)
(0.000643579440799 -4.92926719987e-06 7.76133241649e-05)
(0.000580305423002 1.36351295755e-05 0.00012998827913)
(0.000487041856568 3.81603686623e-05 0.000173233325066)
(0.000367072779063 5.92833321739e-05 0.000193949488996)
(0.000220679348826 7.96894980797e-05 0.000172245513428)
(6.97569932829e-05 0.000107148148113 7.51888471931e-05)
(2.07976806033e-05 -3.6006119556e-05 -9.92712402733e-05)
(1.42146411431e-05 -7.74812801739e-05 -3.94797902565e-05)
(1.99040802867e-05 -9.13747969753e-05 -4.03214985658e-05)
(5.47654045663e-05 -9.68001693987e-05 -7.33106283272e-05)
(0.000108940770646 -9.79640791951e-05 -0.000118492167644)
(0.000181678523115 -9.81123713985e-05 -0.00016120697618)
(0.000269248141335 -9.3762108403e-05 -0.000191198149816)
(0.000364667815494 -8.54178103976e-05 -0.000204445207361)
(0.000459937744204 -7.36639379597e-05 -0.000200308895867)
(0.000547154207826 -5.89723868435e-05 -0.000181217094036)
(0.00061911969071 -4.28482361702e-05 -0.000150179028529)
(0.000669753460091 -2.60927926334e-05 -0.000109684174878)
(0.000695179951274 -8.75247659972e-06 -6.17239456689e-05)
(0.000691245548199 9.20755351839e-06 -6.93834061412e-06)
(0.000654769576659 2.85551351213e-05 4.92210839503e-05)
(0.000595148254924 4.78586859176e-05 0.00010499346467)