/*--------------------------------*- C++ -*----------------------------------*\
| =========                 |                                                 |
| \\      /  F ield         | OpenFOAM: The Open Source CFD Toolbox           |
|  \\    /   O peration     | Version:  3.0.1                                 |
|   \\  /    A nd           | Web:      www.OpenFOAM.org                      |
|    \\/     M anipulation  |                                                 |
\*---------------------------------------------------------------------------*/
FoamFile
{
    version     2.0;
    format      ascii;
    class       volScalarField;
    location    "9.9";
    object      epsilon;
}
// * * * * * * * * * * * * * * * * * * * * * * * * * * * * * * * * * * * * * //

dimensions      [0 2 -3 0 0 0 0];

internalField   nonuniform List<scalar> 
7968
(
3.31863512924e-05
4.37342294502e-05
5.33849656085e-05
5.99680103951e-05
6.38109075009e-05
6.58732709713e-05
6.66198989241e-05
6.65842603803e-05
6.62950367286e-05
6.58090451759e-05
6.53578207583e-05
6.51070735807e-05
6.49049183489e-05
6.4485695162e-05
6.34534589634e-05
6.13092871027e-05
5.75385437356e-05
5.15805742389e-05
4.28749768025e-05
3.30339483013e-05
4.36385133503e-05
9.39982635289e-05
0.000137154679374
0.000168402669043
0.000189345252976
0.000201393091111
0.000206854311561
0.000207734757744
0.000206016722113
0.000203292939813
0.000200553693265
0.000198060700747
0.000195267714025
0.000191010821852
0.000183732590444
0.000171806527866
0.000153336706731
0.000126363282914
8.84710724808e-05
4.31030100169e-05
5.31053972911e-05
0.000137275846591
0.00020994497997
0.000263445458719
0.000300038692386
0.000322174208465
0.000332923040463
0.000335474942255
0.000333034896119
0.000328231045702
0.000322728226316
0.000317000101639
0.000310374311374
0.000301223172053
0.000287154535625
0.00026555794046
0.000233604596957
0.000188369179523
0.000126035960258
5.20704724732e-05
5.97106530068e-05
0.000168821637304
0.00026392296344
0.000334588434747
0.000383307868974
0.000412918977105
0.000427214298584
0.000430378799532
0.000426670257819
0.000419961477555
0.000411446516769
0.000402216467297
0.000392278525497
0.000379368634525
0.000360373117369
0.000331872595523
0.000290229487442
0.000231811897495
0.000152043168473
5.80572061693e-05
6.38968200672e-05
0.000190297275433
0.000301715646659
0.000384798136223
0.000441798153692
0.000475964713004
0.000493183570006
0.000498256417537
0.000493813943404
0.000484312183071
0.000472861047741
0.000460649937813
0.000447054717255
0.000429693200453
0.000406313008917
0.000373780390871
0.000326297599758
0.00025944996937
0.000168456863502
6.14341000392e-05
6.61945929113e-05
0.000203442689997
0.000325795985137
0.000416984260059
0.000478866713209
0.000517315379929
0.000536868482426
0.000539757908213
0.00053188525592
0.000518941548324
0.000504834389448
0.000490971472764
0.000476538613978
0.000458537159929
0.00043283767605
0.000395645972211
0.000345364211786
0.000274185266836
0.000177136770857
6.29335402265e-05
6.71709008993e-05
0.000210315609998
0.000339100038269
0.000434781251285
0.000499201519
0.000540961935778
0.000558575307594
0.000557693629977
0.000545742823328
0.000529409647086
0.000513161860733
0.000498537893229
0.000484545171963
0.000467668254977
0.000442963331775
0.000405461010652
0.000352050987228
0.000279477958594
0.00018008623695
6.35362518654e-05
6.72660108466e-05
0.000212789187403
0.000344649366118
0.000442154825034
0.000509225766168
0.000549783256402
0.000564142248621
0.000559196207699
0.000543417392204
0.000524250523666
0.000506529271685
0.000491815648384
0.000478914639901
0.000463908282327
0.000441344742812
0.000405587967116
0.000351920681238
0.000278861983598
0.000179590842753
6.37035763551e-05
6.69876775441e-05
0.000212765219335
0.000345468615852
0.00044306734331
0.000510757235369
0.000549251363433
0.000560484396641
0.000552169449421
0.000533508632114
0.000512409967373
0.000493883255713
0.000479456579889
0.000467734977234
0.000454543695053
0.000434141287366
0.000400574469789
0.000348625422473
0.000275554695383
0.000177544539183
6.34734661129e-05
6.66633026127e-05
0.000211768830239
0.000343995913494
0.0004407208365
0.000507685800454
0.000544322300888
0.00055338737695
0.000543034648367
0.00052282044033
0.000500797538125
0.000482007700706
0.000467947572837
0.000457113954975
0.000445167548211
0.000426286228622
0.000394429210723
0.00034418322877
0.000271878042252
0.000175377563554
6.30900825346e-05
6.65108294975e-05
0.000210692918761
0.000341615210319
0.000436968074404
0.000502439474692
0.000537941398318
0.000546198213811
0.000535399157641
0.000515072080857
0.000493162159128
0.000474577070117
0.00046076463419
0.000450254548158
0.000438739044467
0.000420464888619
0.000389471720429
0.000340348650461
0.00026915512786
0.000173886829719
6.27612673069e-05
6.66746397291e-05
0.000209652397963
0.00033856936469
0.000432204862653
0.000495598967963
0.000530772673833
0.000539598674624
0.000529897223199
0.000510804614201
0.000489954914088
0.000472022814336
0.000458360381274
0.000447541195857
0.000435588926692
0.000416991107473
0.000385999451809
0.000337374138274
0.000267395682641
0.000173247323337
6.26626412444e-05
6.68372111355e-05
0.00020788945939
0.000333849335394
0.000425201536062
0.000485670734192
0.000520946818506
0.000531358981579
0.000523976549303
0.000507212885676
0.000488184511609
0.000471289250795
0.000457809289877
0.000446405883266
0.00043349898058
0.000413985356683
0.000382473929409
0.000334058968607
0.000265762461143
0.000172832622522
6.26466783214e-05
6.66159979096e-05
0.000204073104378
0.000325457066355
0.000413430804793
0.00047012428388
0.000504754970904
0.000517107085702
0.000512754164186
0.000499098599656
0.000482529883609
0.000467081815911
0.000454006393067
0.000442081324427
0.000428170487158
0.000407686376329
0.000375755752011
0.000328049368286
0.000262311036233
0.0001713200855
6.22722855998e-05
6.55490749793e-05
0.000196525472822
0.000310806763437
0.000393598909274
0.000447310251603
0.000477898316766
0.000491406072511
0.000490084123068
0.000479864508469
0.000466222164487
0.00045271100594
0.000440507086311
0.000428539066485
0.00041412537639
0.000393306773493
0.000361953897618
0.000317172039324
0.000254581049961
0.000167097617151
6.12347770066e-05
6.32323579495e-05
0.000183532549491
0.000287172763198
0.000362142283616
0.000411221514471
0.000438155888223
0.000449350032497
0.00045006444334
0.000443027799244
0.000432512169413
0.000421407960407
0.000410728704356
0.000399589033318
0.000385784018688
0.000366099184616
0.000338024283955
0.00029773551672
0.000239654426305
0.000158228074945
5.95236131162e-05
5.91349306966e-05
0.000163118864531
0.000251674436025
0.000315477698399
0.000357458130241
0.00038088876189
0.000389989709712
0.000389342411523
0.000383774973562
0.000376168101537
0.000367796445783
0.000359376187408
0.000350273166912
0.000339416300405
0.000323910983208
0.000300372768712
0.000265186922408
0.000214426459674
0.000142947892663
5.63005529888e-05
5.27129057031e-05
0.00013338141648
0.00020148917519
0.00025016511892
0.000282009653148
0.000299791674688
0.000306855495843
0.000306645554576
0.000302392667042
0.000296662932222
0.000290961879116
0.000285638354507
0.000279976058286
0.000272407997848
0.000260840704754
0.000242775466713
0.000215421187741
0.000175662587287
0.000119255363399
5.07172200418e-05
4.34683433526e-05
9.22242177824e-05
0.000133176332777
0.000162071434902
0.000180716543953
0.000190768630762
0.000194505367719
0.000194149419511
0.000191644870512
0.000188533124142
0.000185674083503
0.00018321732019
0.000180662371257
0.000176948898514
0.000170700100945
0.000160318873871
0.000143926875647
0.000119591732307
8.47170875956e-05
4.23263430151e-05
3.31563523821e-05
4.36081175922e-05
5.30712516377e-05
5.94657693939e-05
6.31136553498e-05
6.49313867939e-05
6.55470599071e-05
6.54926888983e-05
6.51996505375e-05
6.47279937549e-05
6.42597936411e-05
6.38768395109e-05
6.34934375942e-05
6.28718346832e-05
6.17250194174e-05
5.95874827855e-05
5.60386467705e-05
5.04028376924e-05
4.20918088298e-05
3.28090944386e-05
4.29598971158e-05
8.76164005111e-05
0.000128443987173
0.000159609028584
0.000181504875414
0.00019534311647
0.000202678549172
0.000205136806395
0.000204352239541
0.000202059796797
0.000199233352846
0.000196175198173
0.000192437730604
0.000186870048927
0.000178105583874
0.000164837950421
0.000145576553204
0.000118780916775
8.30958596662e-05
4.22390776623e-05
8.76843898012e-05
0.000117581433661
0.000155393052711
0.00018653368329
0.000209396325858
0.000224363914392
0.000232664763153
0.000235865632005
0.000235619234357
0.000233377226672
0.000230096111662
0.00022608349998
0.000220965314151
0.000213875581329
0.000203598139775
0.000188841258787
0.000168405574269
0.000141513848854
0.000108866923516
8.29542003381e-05
0.000128554375498
0.000155668899213
0.000200637605051
0.000239176434521
0.000268138720631
0.000287407903684
0.0002981721576
0.00030226032475
0.00030172142027
0.000298361363309
0.000293435519866
0.000287420662803
0.00027995971311
0.000270083405659
0.000256354044844
0.00023725116125
0.000211527979991
0.000178735131994
0.000140764079881
0.000118446086817
0.000159969942985
0.000187300484373
0.000239753561478
0.000285413140164
0.000319957393199
0.000342913751609
0.000355541854256
0.000359958756055
0.000358697506514
0.000353886153739
0.00034704386583
0.0003388979258
0.000329191384467
0.000316905980319
0.000300305268573
0.000277594829448
0.000247360508897
0.000209262861578
0.000165944039261
0.000144317591957
0.000182436189333
0.000210919803516
0.000269675371659
0.000321046636961
0.000359795060471
0.000385293971691
0.000399139043224
0.000403414396822
0.000400710666652
0.000393881403816
0.000385048636022
0.000375148193406
0.000363813868381
0.00034968590719
0.000330941533459
0.000305820753313
0.00027257565356
0.000230739605399
0.000183386827287
0.000161500501492
0.00019716599095
0.000226951975485
0.000290340349872
0.000345693847721
0.000387139676895
0.000414315831885
0.000428126820075
0.000430671585896
0.000425505707367
0.000416244814189
0.000405522065552
0.000394456782476
0.000382568002538
0.00036813761439
0.000348790178583
0.000322311875369
0.000287455737893
0.000243586324414
0.000193841794127
0.000171498839412
0.000205686439521
0.000236605607842
0.000302938661667
0.00036062398689
0.000403494288195
0.000431021597484
0.000443219371068
0.000443045014018
0.000434928723081
0.000423183212935
0.000410858434228
0.00039919104457
0.000387569745381
0.000373939826189
0.000355433728544
0.000329334078466
0.000294014020301
0.000249470708172
0.000198784150622
0.000176023298482
0.000209645630533
0.000241415357747
0.000309255539415
0.000367914425128
0.000411310516755
0.000437756970808
0.000447591491846
0.000444453794736
0.000433504526043
0.000419617574399
0.000406130074183
0.000394311014963
0.000383412067076
0.000371110734574
0.000354160578399
0.000329438276444
0.000294907784732
0.000250601712094
0.000199979215612
0.000176708700261
0.000210672948248
0.000242979509861
0.000311256696194
0.000369913920051
0.000412949313568
0.000437871249841
0.000445422707825
0.000439777925235
0.000426638393154
0.00041124903673
0.000397091854721
0.000385398688214
0.00037529840144
0.000364297192312
0.000348927920322
0.000325812446516
0.000292637754299
0.000249206611888
0.000199155026983
0.000175573920695
0.000210151947136
0.000242639474987
0.000310625998762
0.000368705775288
0.00041092894778
0.000434513918857
0.000440452644191
0.000433233322603
0.000418849713044
0.000402712889629
0.000388327658149
0.00037686420638
0.000367369825126
0.00035727275186
0.00034303979969
0.000321193493467
0.000289274935588
0.00024689299682
0.000197637659646
0.000173968522248
0.000209058132527
0.000241207048942
0.000308382386464
0.000365567481217
0.000406872578856
0.000429662360872
0.000434963122672
0.000427310990689
0.000412719832966
0.000396572968005
0.000382314008256
0.000371059028974
0.000361839792541
0.000352097436692
0.000338360142561
0.000317185856879
0.000286099477497
0.000244611632155
0.000196164237571
0.00017264427754
0.000207473019977
0.000238820803267
0.000304742660483
0.000360807898595
0.000401167065408
0.000423755370479
0.000429414930993
0.00042245629594
0.000408643179952
0.000393154404828
0.000379314675207
0.000368207341528
0.000358915065055
0.00034898516604
0.00033511891896
0.000314019972394
0.000283310242724
0.000242493619856
0.000194803474541
0.000171682028377
0.000204636893581
0.000234905387965
0.000299061401536
0.000353672818792
0.000392884504837
0.000415624487661
0.000422401061832
0.000417059498974
0.000404868319185
0.000390637793872
0.000377513345484
0.000366570084834
0.000356994559547
0.000346508215999
0.000332082743005
0.000310669556893
0.000280080680928
0.000239880222954
0.000193030124602
0.000170621855202
0.000199395500598
0.000228374650539
0.00029002973666
0.00034258863443
0.000380225715961
0.000402953133165
0.000411134882559
0.000407956210456
0.000397995245015
0.000385539309537
0.000373474862636
0.000362857778847
0.000353011344013
0.000341902227889
0.000326844990093
0.000305128094588
0.000274813873667
0.000235502216461
0.000189802739424
0.000168266469003
0.000190324171012
0.000217870320288
0.000276027315583
0.000325674562443
0.0003614062777
0.000383148307776
0.00039236148182
0.00039136702473
0.000383891433087
0.000373573110316
0.000362942859109
0.000352988515034
0.000343173857734
0.000331763438542
0.000316453946564
0.000294941402068
0.00026557672771
0.000227762065382
0.000183752187966
0.000163121860086
0.000175923796723
0.000202017124775
0.000255487999073
0.000301114507919
0.000334148177434
0.000354281230551
0.000363461919304
0.000364092806129
0.000358928499517
0.000350869210287
0.00034199565982
0.000333159445623
0.000323944417193
0.000312932514623
0.000298196646763
0.000277879383691
0.000250391779046
0.000214873079877
0.000173383701494
0.000153487591089
0.000154671008689
0.000179616712664
0.000227233217642
0.000267654834681
0.000297012846452
0.000315131262044
0.000323559199122
0.000324716077805
0.000321254191006
0.000315293322202
0.000308358824275
0.000301100314408
0.000293183881102
0.000283516265279
0.000270460992362
0.00025233678116
0.000227544565509
0.000195283249554
0.000157305628219
0.00013770625057
0.000125125533497
0.000150028167965
0.000191039168571
0.000225308111562
0.000250065220543
0.000265441782987
0.000272844855819
0.000274299596485
0.000271957274478
0.000267661536606
0.000262626939861
0.000257274625312
0.000251248928739
0.000243555950943
0.000232801921347
0.000217494781818
0.000196228869766
0.000168164538141
0.000134489726969
0.000114114099313
8.62701418294e-05
0.000114325078566
0.000149309440484
0.000177396366829
0.000197266805804
0.000209499772762
0.000215476091243
0.000216894149571
0.000215469216535
0.000212649689862
0.000209337681084
0.000205795945744
0.000201670239551
0.000196093447897
0.000187890888442
0.000175783352131
0.000158460370574
0.000134883768693
0.000105272973284
8.10520105633e-05
4.27887213541e-05
8.60819066241e-05
0.0001247425372
0.000153477045412
0.000172950815809
0.00018457616912
0.000190074408525
0.000191165990734
0.000189553867786
0.000186917655445
0.000184110735328
0.000181332062319
0.000178174172787
0.000173677046463
0.000166492395703
0.000155256050254
0.000138465129363
0.000114374966026
8.11714526615e-05
4.15768689162e-05
5.35263140085e-05
0.000133801346907
0.000209331874009
0.000268799249914
0.00031196517135
0.000340172278659
0.000355711629094
0.000361515457449
0.000360697360444
0.000355993976313
0.000349254302008
0.000341149382511
0.000331095764126
0.000317567115936
0.000298386848069
0.000271177423969
0.000233685422242
0.000183931808624
0.000120615725908
5.12284008959e-05
0.000134035227235
0.000166097458915
0.000217062941276
0.000261356465969
0.000295231786721
0.000318270642789
0.000331561313663
0.000337018865117
0.0003368595903
0.000333113466265
0.000327194604133
0.000319655135913
0.000310135616666
0.000297533530082
0.000280375148145
0.000257120304142
0.000226643927495
0.000188815115956
0.000146125043438
0.000120273968971
0.000209752530351
0.000217639814727
0.000268607742387
0.000316349915216
0.000354165055217
0.000380391724876
0.000395596018257
0.000401632276779
0.00040089061276
0.000395732603191
0.000387887962726
0.000378114367813
0.000366108744021
0.000350700231235
0.000330346860573
0.00030353590215
0.000269451840533
0.000228930749496
0.000186946479709
0.000182697767651
0.000269789579503
0.000262805733487
0.000317315888946
0.000370324296103
0.0004127628325
0.000442036241609
0.000458432158888
0.000464056248647
0.000461612258042
0.000454040783258
0.000443599465453
0.0004313533689
0.000417016080969
0.000399155255297
0.000376204525944
0.000346308924717
0.000308669105585
0.000264607743664
0.000220777629248
0.000229438820772
0.00031412069132
0.000297931116964
0.000356596805345
0.00041439785817
0.000460406378606
0.000491371416094
0.000507546989053
0.000510811934592
0.000504890531736
0.000493745697449
0.000480305334318
0.000465962351421
0.000450354172491
0.000431755043685
0.00040781679267
0.000376314952484
0.000336648085307
0.000290183280709
0.000244576237081
0.000260868941198
0.00034414787657
0.000322668856866
0.000384911319155
0.000446176644836
0.000494139069002
0.000525249077886
0.000538842296766
0.000537547191086
0.000526519924033
0.000510926986253
0.00049438126111
0.000478548597433
0.000462893852237
0.000445225381903
0.000422551073167
0.000391943979721
0.000352059872669
0.000304857139926
0.000258482439086
0.00027891203266
0.000362150231114
0.00033813534805
0.000402891948118
0.000466071914474
0.000514511489629
0.000543736853511
0.000552786709125
0.000545406093648
0.000528441590331
0.000508219173481
0.000488912043666
0.000472310778593
0.000457648086463
0.000442222813812
0.000422428509328
0.000394608163237
0.000356684707838
0.000310245558411
0.000264241413696
0.000286520741023
0.000370996614428
0.000346222174094
0.000412360992893
0.000476059873704
0.000523635213568
0.000549692878055
0.000553387979673
0.000539810335068
0.000517293754036
0.000493095510349
0.000471737592149
0.000454962103215
0.000441766906442
0.000429055682891
0.000412669446542
0.000388413644513
0.000353522313723
0.000309275126589
0.000264409662417
0.000287175859706
0.000373679321745
0.00034907098669
0.000415643877831
0.000478931275911
0.00052488599539
0.000547594623099
0.000546586935074
0.000528012771351
0.000501313330723
0.000474342543222
0.000451750442698
0.000435110967521
0.000423223105123
0.000412795477846
0.000399347646821
0.000378316844341
0.000346506793324
0.000304806540107
0.00026160105178
0.000284230533288
0.000372725331057
0.000348545066415
0.000414844201738
0.000477267869004
0.000521593949708
0.000541791020961
0.000537675549232
0.000516037991876
0.000486937360359
0.000458504227584
0.000435376275254
0.000418950867907
0.000407888519292
0.00039884353722
0.000387252310381
0.000368417690895
0.000338939890908
0.000299427975044
0.000257967789025
0.000280253951947
0.000369652753086
0.000345792552041
0.000411280190483
0.000472677135867
0.000515889389318
0.000534949151985
0.000529750383571
0.000507228698219
0.000477544289062
0.000448835333279
0.000425680536007
0.00040938826659
0.000398573445415
0.000389917967277
0.000378938443623
0.000361014586971
0.000332765776582
0.000294690355622
0.000254606033479
0.000276676089966
0.000364760882878
0.000341047611552
0.00040524545363
0.000465562055349
0.000508219478683
0.000527571444603
0.000523345816064
0.00050210171533
0.000473578088812
0.00044567011309
0.000422889956428
0.000406585579629
0.000395444348184
0.000386247556319
0.000374711993535
0.000356464333519
0.000328337335684
0.000290884681279
0.000251700001887
0.000273839036423
0.000357040914187
0.000333588878253
0.000395952720673
0.000454976716403
0.000497283895896
0.000517970361584
0.00051646908363
0.000498472098569
0.000472779190876
0.000446764087689
0.000424824630419
0.000408444960577
0.000396502872164
0.000385988425658
0.00037294701007
0.000353398380932
0.00032455071082
0.000287134856041
0.00024851041093
0.00027077998442
0.000344541472126
0.000321996313502
0.000381815688359
0.000438954693503
0.000480605892604
0.000502867221234
0.000505122263366
0.000491807164919
0.000470354157666
0.000447322018829
0.000426866085695
0.000410598128963
0.000397663290616
0.00038542415854
0.00037039267414
0.000349061273467
0.000319195542697
0.000281683990287
0.000243640511817
0.000265562649362
0.000324817534063
0.000304552867942
0.000361010077362
0.000415335734037
0.000455660604677
0.00047879902811
0.00048465617556
0.000476450626773
0.000459979954864
0.000440761850305
0.000422528877697
0.000406899180152
0.000393306701082
0.000379585904511
0.000362779211847
0.000339960187997
0.000309509784546
0.000272287523312
0.00023519978543
0.000255607089326
0.00029538245737
0.00027967632206
0.000332071459271
0.000382551566672
0.000420669513552
0.00044345376885
0.000451725033399
0.000447884752033
0.000436218554963
0.000421112266217
0.000405713665165
0.000391478518173
0.000378067452529
0.000363775278705
0.000346188175868
0.000322996045761
0.000292963342546
0.000257014995859
0.000221237218472
0.000238143650693
0.000253996946982
0.000246329457852
0.000294474328984
0.000340288442769
0.000375168890771
0.000396762164746
0.000405758225748
0.000404815875177
0.000397042198318
0.000385784424689
0.000373515716966
0.000361400146269
0.000349217094376
0.000335634574921
0.000318717756687
0.000296579680357
0.000268324390584
0.000234516947062
0.000200180345752
0.000210446392676
0.000198809345013
0.00020459718008
0.00024950626905
0.000290629189636
0.000321678287694
0.000341212878617
0.000350097795555
0.000350577192458
0.000345427619415
0.000337348823454
0.000328149148842
0.000318599812521
0.000308487371822
0.000296761040316
0.000281836315218
0.000262069327065
0.000236389415688
0.000204941021435
0.000171360242794
0.000169952173863
0.000128807088784
0.000157421820797
0.000202919224379
0.000241403306027
0.000269493947258
0.000287001252761
0.000295263936048
0.000296475202611
0.000293098429321
0.000287321771423
0.000280605410636
0.000273519516837
0.000265759071104
0.000256293559157
0.000243634312239
0.000226188342414
0.000202612393197
0.000172216219078
0.000136481780959
0.000114511126865
5.27803885962e-05
0.000128334241488
0.000197566330235
0.000250350334677
0.000286924223621
0.00030901347874
0.000319269244114
0.000320919095235
0.000317245627764
0.000310998167234
0.000303921840844
0.000296615999406
0.000288574745892
0.000278334867174
0.000263810104396
0.000242683339542
0.00021249771851
0.000170708826398
0.000114835982866
4.98276540365e-05
6.62978812776e-05
0.000191684391479
0.000310646018857
0.000406069794436
0.000476938712412
0.000524276657716
0.000550920226339
0.000561194512722
0.000560002657951
0.000551715988184
0.000539330289062
0.000524036422185
0.00050515875653
0.000480389428
0.000446498598515
0.000400121587029
0.000338459565496
0.000259574940253
0.000162780712116
6.02640938171e-05
0.000192242497844
0.000233201690118
0.000306611714551
0.000372695743182
0.00042493165816
0.0004616514991
0.000483662139205
0.000493344515397
0.000493820256737
0.000488070628494
0.000478231769729
0.00046522050328
0.000448642851571
0.00042701704602
0.000398303069083
0.000360562406853
0.000312804725276
0.000255906277692
0.000194649356919
0.000162046102971
0.000311635690148
0.000307587496927
0.000377706954187
0.000447022564788
0.00050414589261
0.000545219753688
0.000569960506237
0.000580418465119
0.000579939762617
0.000572048775318
0.000559400100652
0.000543254612087
0.00052328939327
0.000497894681897
0.000464907746479
0.00042250670932
0.000370194029649
0.00031041120851
0.00025190975739
0.000256351384151
0.00040821517951
0.000375098543206
0.00044856742651
0.000524850754482
0.000588432350641
0.000633750226336
0.000659706302542
0.000668338792983
0.000663863090085
0.000651227253704
0.00063404073633
0.000614142283266
0.000591120034124
0.000562959807199
0.000527008006879
0.000481069564987
0.00042438310624
0.000360293614116
0.00030033182583
0.000327769699296
0.000481332919521
0.00042936521341
0.000508031795005
0.000591044004667
0.000659776262789
0.000707165082482
0.000730477047182
0.000732236637975
0.000719446058836
0.000699118136456
0.000676096019433
0.000652845600329
0.000628710116625
0.000600872540189
0.000565799538375
0.000519955528614
0.00046187366327
0.000395458530116
0.000334045860052
0.000375266145654
0.000532098611716
0.000468892472961
0.000552533479035
0.00064055299282
0.000712133067049
0.000757338622498
0.000772208016223
0.000761964497949
0.000737025499231
0.00070685885969
0.000677648829672
0.000652267433475
0.000629660116416
0.000605753685994
0.000575470184225
0.000534246189816
0.000479370920675
0.000413566377857
0.000352280632563
0.00040078278027
0.000563338451094
0.000494575377703
0.000581976585277
0.000672848252294
0.000744209083306
0.00078231528126
0.00078435079405
0.000758693065376
0.000719763265936
0.000679481701488
0.000645005079834
0.000619139680728
0.000600272738873
0.000582979629038
0.000560455686012
0.000526734542825
0.000478474152395
0.000416771652827
0.000357366776518
0.000408782758872
0.000579235587101
0.000508764938686
0.00059843136381
0.000689937127484
0.000758078249698
0.000786912381089
0.000774878753455
0.000733817875457
0.00068211384216
0.000633502815215
0.000595409103917
0.000570121591934
0.00055548152741
0.000545119306066
0.000530923436054
0.000505687954347
0.000465198681569
0.000409557818869
0.00035344048994
0.000405282018853
0.00058441957574
0.000514421784819
0.000605060411868
0.000695629979276
0.000759509352414
0.000779824213561
0.000756046083448
0.0007030184673
0.000642128357344
0.000588046863814
0.000547900596966
0.000523263109407
0.000511543546727
0.000506202707579
0.000498513712874
0.000480470571412
0.000446947822051
0.00039725535197
0.000345149041307
0.000396299562644
0.000582858112359
0.000514225079694
0.000604889387509
0.000694009889184
0.000754424169142
0.000768960396036
0.000737853492827
0.000677816273852
0.000611849835282
0.000554930789557
0.000513819054438
0.000489520657617
0.000479159662023
0.000476321342386
0.00047223369988
0.000458614814099
0.000429828539588
0.000384662751514
0.000336162973355
0.000386495702261
0.000576974755547
0.000509847163865
0.000599839139916
0.000687678278695
0.000746360946096
0.000758790392591
0.000725481447448
0.000663573694268
0.000596293401666
0.000538595497065
0.000497127845578
0.000472722601258
0.000462408127945
0.000459860640632
0.000456498258892
0.000444197937969
0.000417342730559
0.000374614588881
0.000328564806786
0.00037837237976
0.000567242811493
0.000501568994328
0.000590220966143
0.00067708144257
0.000735836176152
0.000749914404737
0.000719554612273
0.000660821132897
0.000595799303433
0.000539145560348
0.000497724641151
0.000472675871208
0.000461188079665
0.000456958563034
0.000451715634229
0.000437828966587
0.000410176556685
0.000367735203259
0.00032283188848
0.000372406993632
0.000552158560417
0.00048829401866
0.000574741064609
0.000660394879429
0.000720294858237
0.000739165167656
0.000716474796431
0.000665854524549
0.000606863435209
0.000553382729517
0.000512625506801
0.000486427858058
0.000472428801406
0.000464529477128
0.000455054419454
0.000437159665297
0.000406507063434
0.000362617099704
0.000317830777244
0.000367130969566
0.000528752960847
0.000467968461641
0.00055100087801
0.000634265126003
0.000694989775333
0.000720323382742
0.000708519317134
0.000669941090623
0.00062057193259
0.000572833591486
0.000533980349921
0.000506609490176
0.000488986492164
0.000475830676608
0.000460533260724
0.000437272655247
0.000402419364292
0.000356240765754
0.000311144723295
0.000359470207069
0.000493416047534
0.000438293409946
0.000516523966238
0.000595791240802
0.00065547771446
0.00068637172976
0.000685714561992
0.000660493709529
0.000622829437745
0.00058307943378
0.000547926950134
0.000520382287351
0.000499441088903
0.000481033184152
0.000459976844718
0.000431565732959
0.000392691852927
0.000344785058504
0.000299826550628
0.000345307247763
0.000442771156896
0.000397481556897
0.000469789938823
0.000543476679303
0.000600220745135
0.00063314839353
0.000640862039341
0.000627317646059
0.00060108070497
0.000570251288715
0.000540450240981
0.000514573895891
0.000492181950433
0.00047043304156
0.000445527892966
0.000413663766264
0.000372684856142
0.000324802653328
0.000280961874677
0.000320231348511
0.000374316108286
0.000344948885431
0.000411155856303
0.000477913966757
0.000530041064
0.00056210804801
0.000573708556713
0.000568249657503
0.000551179027923
0.000528552131262
0.000504788448431
0.000482285423952
0.00046093368526
0.000438765054876
0.000412955144263
0.00038060333151
0.000340488647795
0.000294895604111
0.000252527299445
0.000280383787909
0.000286527114776
0.000282075784829
0.000344077328562
0.000403890458229
0.000450377807769
0.000479758324054
0.000492210709436
0.000490673487021
0.000479549546434
0.00046345217264
0.000445438830054
0.000427307954546
0.00040902925555
0.000389073901594
0.000365239913125
0.000335534190212
0.000298866546561
0.000256368847162
0.000214345232475
0.000222771714924
0.000178787790122
0.000214386081192
0.000278768941604
0.000335237076443
0.000377474361034
0.000403910004669
0.000415695423133
0.00041581917354
0.000408122440041
0.000396235210813
0.000382721834035
0.000368829714481
0.000354378211918
0.00033800845478
0.000317710000637
0.000291414252541
0.000257611904487
0.000216083018211
0.000169754376298
0.000145376418296
6.39127194415e-05
0.000177754372773
0.000283462590637
0.000365519596392
0.000423140081803
0.000457714016942
0.000472644730318
0.000472920108778
0.000464021683468
0.000450671749536
0.000435997498605
0.000421255075084
0.000405863713095
0.000387730501378
0.000363816819435
0.000330699906199
0.000285235012881
0.000224569575391
0.000146065411915
5.70010695057e-05
8.51442173569e-05
0.000276430022544
0.000459029467729
0.000608612760678
0.000722813590647
0.000801423927964
0.000847496837534
0.000867089784267
0.000867543657068
0.000855488779672
0.000835546210332
0.000809623756805
0.000776798003769
0.000733672473112
0.000675479826872
0.000597635530129
0.000497055225468
0.000372294819256
0.00022447490953
7.20208593775e-05
0.000277522157907
0.000333292357196
0.000444434524508
0.00054859164189
0.000634361123841
0.000697508838504
0.000737878514637
0.000758202953529