/*--------------------------------*- C++ -*----------------------------------*\
| =========                 |                                                 |
| \\      /  F ield         | OpenFOAM: The Open Source CFD Toolbox           |
|  \\    /   O peration     | Version:  3.0.1                                 |
|   \\  /    A nd           | Web:      www.OpenFOAM.org                      |
|    \\/     M anipulation  |                                                 |
\*---------------------------------------------------------------------------*/
FoamFile
{
    version     2.0;
    format      ascii;
    class       volScalarField;
    location    "9.9";
    object      nut;
}
// * * * * * * * * * * * * * * * * * * * * * * * * * * * * * * * * * * * * * //

dimensions      [0 2 -1 0 0 0 0];

internalField   nonuniform List<scalar> 
7968
(
7.11737270953e-05
7.80621069232e-05
8.34491002021e-05
8.67601390232e-05
8.85814693304e-05
8.95298367584e-05
8.98683750938e-05
8.98505908089e-05
8.9718139656e-05
8.94955254207e-05
8.92864606362e-05
8.91667290375e-05
8.90700938654e-05
8.88746214431e-05
8.83942340526e-05
8.73827156313e-05
8.55473327394e-05
8.24779120403e-05
7.75353416046e-05
7.10625115424e-05
7.8003952093e-05
0.000100812615289
0.000114374098349
0.000122492095102
0.000127386597315
0.00013004177792
0.000131211358005
0.000131397693263
0.00013103098648
0.000130444270204
0.000129846621145
0.000129295852623
0.000128674408205
0.000127722301607
0.000126068758922
0.000123268805673
0.000118670737152
0.000111244549372
9.87598977806e-05
7.76760568143e-05
8.33006352516e-05
0.000114407093432
0.000131843735762
0.000142228610504
0.000148547051325
0.000152125272735
0.000153804777721
0.000154197537172
0.000153818531693
0.000153067051524
0.000152195722955
0.00015127751833
0.000150202934658
0.000148699093939
0.000146333983354
0.000142555376042
0.000136576193991
0.000127103716275
0.000111146918106
8.27432960177e-05
8.663300459e-05
0.000122592436876
0.000142314176426
0.000154049530648
0.000161208904723
0.000165269999282
0.000167161345527
0.000167572118979
0.000167082568743
0.000166189176495
0.00016504565097
0.000163789585929
0.00016241486712
0.000160599299385
0.000157858789875
0.000153567429811
0.000146838267286
0.000136220679266
0.000118330771848
8.58084322321e-05
8.86201625252e-05
0.000127598483502
0.000148823683388
0.0001614186111
0.000169044129143
0.000173305688331
0.00017537037206
0.000175965064155
0.000175430206388
0.000174283633931
0.000172883579274
0.000171367757105
0.000169651074094
0.000167413482554
0.000164304698737
0.000159781811203
0.000152690446991
0.000141437697534
0.000122449128086
8.74438498111e-05
8.96750145659e-05
0.000130481610035
0.000152695688465
0.000165814558985
0.000173660581423
0.000178193826509
0.000180410244059
0.000180724242741
0.00017982596746
0.000178336500207
0.000176686476348
0.000175037334268
0.000173290687856
0.000171069431284
0.000167801362014
0.000162833820143
0.000155604896508
0.000144063965385
0.000124516863527
8.81476715927e-05
9.01165791304e-05
0.000131941671454
0.000154756201024
0.000168151297216
0.000176090761022
0.000180873390177
0.000182810313458
0.000182699536732
0.000181363887004
0.00017951204689
0.000177633182818
0.000175910321314
0.000174234152788
0.000172177602889
0.000169083197554
0.000164161016795
0.000156592624551
0.000144976745607
0.000125198385102
8.84274508053e-05
9.01599968075e-05
0.00013246057472
0.000155601384408
0.000169102232534
0.000177262351791
0.000181850937595
0.000183410763976
0.000182852970829
0.00018108944929
0.000178905142404
0.000176838638891
0.000175088011758
0.000173528567908
0.000171688743612
0.000168853966504
0.000164159368282
0.000156563739355
0.000144857929135
0.000125074677715
8.85035216563e-05
9.00343867186e-05
0.000132456206139
0.000155726121149
0.000169219567167
0.000177438578365
0.000181788166669
0.000183005280007
0.000182070553817
0.000179963373773
0.000177524576064
0.000175327583256
0.000173579970885
0.000172138692792
0.000170498370799
0.000167905827213
0.000163459218196
0.000156056746242
0.00014426952383
0.000124587928319
8.83944852892e-05
8.9886851017e-05
0.00013224715754
0.000155502530099
0.000168917564833
0.00017707787635
0.000181236407516
0.000182220281484
0.000181047973149
0.000178736705389
0.000176153072474
0.000173888158814
0.000172155554843
0.000170801387759
0.000169294701415
0.000166865800413
0.000162600309465
0.000155375268805
0.000143613848578
0.00012406935061
8.82135641855e-05
8.98171673654e-05
0.000132018615129
0.000155137969183
0.000168431223686
0.000176459517387
0.000180518203497
0.000181419199596
0.000180185195106
0.000177837373862
0.000175239756377
0.000172975358679
0.000171254763518
0.000169927068601
0.00016846058456
0.000166088272944
0.000161902789041
0.000154784135375
0.000143124566327
0.000123709175728
8.80576600947e-05
8.98906289451e-05
0.000131795021118
0.000154668079566
0.000167809119927
0.000175647343506
0.000179705301545
0.000180678669615
0.000179559636201
0.000177339282406
0.000174854039227
0.000172659838238
0.000170952006339
0.000169580311863
0.000168050927918
0.000165623320297
0.000161413429709
0.000154324982273
0.000142802972286
0.000123551950726
8.80093134141e-05
8.99626265944e-05
0.000131417294209
0.000153936282121
0.000166887587376
0.000174457335081
0.000178581601325
0.000179748677486
0.000178885539073
0.000176922704643
0.000174645699447
0.000172574663652
0.00017088877599
0.000169441714856
0.000167785075201
0.000165225727792
0.000160919849003
0.00015381550417
0.000142506221237
0.000123451068991
8.80013091636e-05
8.9860949966e-05
0.000130599531389
0.000152623508742
0.000165320175166
0.000172568391512
0.000176702545791
0.000178120833058
0.000177597164399
0.000175976512842
0.000173974975861
0.000172068504788
0.000170424398446
0.000168902825779
0.000167102852999
0.000164388904891
0.000159974728726
0.000152886777869
0.000141885449997
0.000123089544664
8.78254073908e-05
8.93750171294e-05
0.000128959200897
0.000150284124377
0.000162617533908
0.000169716117425
0.000173498977862
0.000175110479557
0.000174935749527
0.000173686673212
0.000171997419507
0.000170293449391
0.000168727731194
0.000167169903888
0.000165263210287
0.000162438197665
0.000157993495376
0.000151170416283
0.000140477313147
0.000122070118688
8.7334024512e-05
8.8304356436e-05
0.000126040967542
0.000146358200574
0.000158146012423
0.000165004348019
0.000168535576391
0.00016995158492
0.000170028377653
0.00016911820092
0.000167746868064
0.000166276512364
0.000164840542018
0.000163321586946
0.000161406560367
0.000158603029751
0.00015442270237
0.00014801492521
0.000137675185014
0.000119869645266
8.65119349713e-05
8.63469884739e-05
0.000121170499459
0.000140043420268
0.000151018192906
0.000157452957341
0.000160825938241
0.000162093738858
0.000161993427096
0.000161202160312
0.000160111788354
0.000158896489289
0.000157657606932
0.000156300365045
0.000154650680306
0.000152247505104
0.000148456341374
0.000142407493305
0.00013266093378
0.00011587732269
8.4919714719e-05
8.30900243132e-05
0.000113293357845
0.0001300190549
0.000139759805725
0.000145465290457
0.000148464996231
0.000149619992896
0.00014957798957
0.00014887065103
0.000147908949364
0.000146939077263
0.000146022014337
0.000145037485384
0.000143707511762
0.000141634338233
0.000138277692199
0.000132868159268
0.000124124325987
0.000109080135417
8.20090901899e-05
7.79001194313e-05
0.000100160061607
0.000113234955808
0.000120907908582
0.000125384934412
0.000127671191056
0.000128497249325
0.000128412721736
0.000127848711897
0.000127141567456
0.000126483654221
0.00012591182444
0.00012531371782
0.00012444101764
0.000122951880196
0.000120401570354
0.000116144418235
0.000109183661466
9.73192321064e-05
7.72003699981e-05
7.1152195593e-05
7.7985588054e-05
8.32814977308e-05
8.65111629952e-05
8.82498381809e-05
8.90892245121e-05
8.93692013832e-05
8.9341265376e-05
8.92049738109e-05
8.89857962049e-05
8.87666805441e-05
8.85856121108e-05
8.8403536002e-05
8.81100362069e-05
8.7567342962e-05
8.65418027477e-05
8.47845663264e-05
8.18358447333e-05
7.70547420532e-05
7.09002255481e-05
7.75965902803e-05
9.84692268296e-05
0.000111894493299
0.000120319545171
0.000125602991707
0.000128727574756
0.000130324826785
0.000130851669863
0.00013068207023
0.000130185321381
0.000129566682801
0.000128890003065
0.00012805506379
0.000126797246703
0.000124772063881
0.000121581189821
0.000116633680771
0.000108969798942
9.67122391559e-05
7.71491527152e-05
9.84950454369e-05
0.000379996752356
0.000512708808822
0.000589548484626
0.000636963439983
0.000665363474864
0.000680454246519
0.000686206797721
0.000685718510874
0.000681311231802
0.000674583019255
0.000666162086692
0.000655641472583
0.000641725709277
0.000621960164466
0.000592711290921
0.000548523578579
0.000479445225468
0.000360176762083
9.66565743388e-05
0.000111926355383
0.00051138764672
0.000714238211703
0.000833218180617
0.000906973518015
0.000951134096891
0.000974373974803
0.000982875110358
0.000981607415013
0.00097424705981
0.000963540335582
0.000950510834561
0.000934422243419
0.000913193387446
0.000882913914901
0.000837876005271
0.000769622230159
0.000662947009134
0.000480737052964
0.000108865686389
0.000120409670797
0.000587911644206
0.000832992408633
0.0009773169146
0.00106638181523
0.00111880923726
0.001145073413
0.00115294161156
0.00114938798162
0.00113842141178
0.00112437253426
0.00110843927515
0.00108919646486
0.00106465610217
0.00102939080799
0.000976095446461
0.000894465086237
0.000766202293509
0.000547669945761
0.000116290735248
0.000125817227585
0.000635935265183
0.000907841861132
0.00106780523653
0.00116531448989
0.00122059493353
0.00124512651532
0.00124751789657
0.0012376270078
0.00122180362654
0.00120435819491
0.00118696379208
0.00116853312136
0.00114539891054
0.00111005421221
0.00105378277043
0.000965609696838
0.00082546879237
0.000586042772822
0.000120741077798
0.000129127500512
0.000665739146244
0.0009544072901
0.00112345408088
0.00122439515514
0.00127741136163
0.00129545345641
0.0012915285277
0.00127541794506
0.00125444796105
0.00123350307385
0.00121460726143
0.00119671092145
0.0011756691065
0.00114408527186
0.00109142913264
0.00100160065333
0.000856222953053
0.000606148632749
0.000123183516775
0.000130968850638
0.000682958113732
0.0009813085863
0.00115479489865
0.00125571963386
0.00130268784565
0.00131434458772
0.00130365410169
0.0012811066627
0.00125494995887
0.00123070353608
0.00121064394703
0.0011936608506
0.00117523001515
0.00114747147432
0.00109924292531
0.00101396606213
0.000867918858211
0.000614197203423
0.00012425257664
0.000131807686801
0.000691459507393
0.000994517417907
0.00116912774237
0.00126674779302
0.00130871426326
0.00131435010553
0.00129717698561
0.00126863055223
0.00123783219618
0.00121082386544
0.00119001556671
0.00117416799898
0.00115842986832
0.00113443514473
0.00109066458513
0.00101080603
0.000867747867999
0.000614829465636
0.000124405639988
0.000132023590964
0.000694219683773
0.000998719445413
0.00117272660944
0.00126680521166
0.00130453950561
0.00130518408442
0.00128276837962
0.00124954144606
0.00121529616816
0.00118635845143
0.00116515652261
0.001150272809
0.00113669885489
0.00111572337316
0.00107556361062
0.000999897558475
0.000861938449281
0.000611719158364
0.000124129464263
0.000131913262579
0.000693371466921
0.000997313805312
0.00117005724939
0.00126155560625
0.00129638115712
0.00129378655341
0.00126812658506
0.00123215537272
0.0011959111612
0.00116596798226
0.0011446708893
0.00113041603691
0.00111806145117
0.00109886496007
0.00106097854052
0.000988201284158
0.000854455126516
0.000607525885591
0.000123741882335
0.000131679341016
0.000690114399526
0.000992260056839
0.00116365399587
0.00125403526973
0.00128770119491
0.00128402611299
0.00125746578399
0.00122085939185
0.00118425836268
0.00115419571324
0.00113292657828
0.00111877990318
0.00110660272274
0.00108778205442
0.00105061517731
0.000979127785533
0.000847633686657
0.000603707486934
0.000123420392786
0.000131338878367
0.000684778253909
0.000984041791415
0.00115410186513
0.00124486146286
0.00127917692386
0.0012766180545
0.00125149931347
0.00121631378289
0.00118091085906
0.00115151425499
0.00113032755984
0.00111574832264
0.00110276230766
0.00108298101815
0.00104503344312
0.000973253585355
0.000842188388947
0.000600441879034
0.000123184816069
0.000130729832312
0.000676725000713
0.000971545507714
0.00113988623819
0.00123210504178
0.00126863958669
0.0012691124717
0.00124748435828
0.00121556334231
0.00118262870968
0.00115462602209
0.00113364190749
0.00111827463961
0.00110364328148
0.00108180211077
0.00104186023514
0.000968542651506
0.000836412212621
0.000596879559701
0.00012292664405
0.000129594867728
0.000664303116077
0.000952091112381
0.00111739644718
0.00121077436329
0.00125102795892
0.00125592746132
0.00123925173994
0.00121198636093
0.00118264039237
0.001156698473
0.00113618244723
0.0011198230623
0.00110307240565
0.00107853757396
0.00103592651831
0.000960444018985
0.000827155396262
0.000591112445484
0.000122357233398
0.000127588237722
0.000644911258055
0.000921586853942
0.00108121363442
0.00117349042314
0.00121841601214
0.00122854755463
0.00121753282847
0.00119566044912
0.0011706155251
0.00114734373744
0.00112771452179
0.00111058725759
0.00109181367504
0.00106462797103
0.0010192952616
0.000941399697824
0.000809923017635
0.000580166884179
0.000121096557959
0.00012427307794
0.000614930746651
0.000874464897554
0.00102451635204
0.0011128206118
0.0011592413619
0.0011753837286
0.00117021118271
0.00115398169555
0.00113356911751
0.001113440214
0.00109526308003
0.00107796781615
0.00105775841425
0.00102858664186
0.000981090010832
0.000903536702232
0.000778321954017
0.00056002512702
0.000118663223681
0.000119037959939
0.000568869362327
0.000802356156038
0.000937118988704
0.00101723578429
0.00106104400628
0.00107919998721
0.00107996134534
0.00106991729039
0.00105429473676
0.00103771549688
0.00102167848409
0.0010051137872
0.000984098285076
0.000953834377966
0.000908340783284
0.000837390351469
0.000723617055351
0.000524868248811
0.00011444450443
0.000110899499165
0.000496518352256
0.000689830554853
0.000800578836243
0.000866541972273
0.000903224387087
0.000919486329974
0.000921844398279
0.000915506969795
0.000904626597865
0.000892126421273
0.000879106634791
0.000864885010681
0.000847033333186
0.000821808306409
0.000783876785004
0.000725087496855
0.000630742638001
0.000464468756761
0.000107488643849
9.79478955086e-05
0.000371580018102
0.000498381290603
0.000569747293711
0.000611896576137
0.000635278838668
0.000645783592011
0.000647622365759
0.000644095520016
0.000637743412107
0.000630266166007
0.00062231934344
0.000613498209123
0.000602360287898
0.00058649516208
0.000562395701891
0.000524666125984
0.000463414462447
0.00035332279613
9.58922982312e-05
7.74906808819e-05
9.78756288175e-05
0.000110784836635
0.000118726963192
0.000123559726529
0.000126272799319
0.000127513916747
0.000127753373666
0.000127384811627
0.000126781061523
0.000126132044128
0.000125483269363
0.000124740513611
0.000123673592969
0.000121937295332
0.000119123363023
0.000114657128104
0.000107571652579
9.59402138616e-05
7.67374093756e-05
8.35331966961e-05
0.00011344668665
0.000131736545982
0.000143213953657
0.000150523724355
0.000154945351103
0.000157279114587
0.000158133781497
0.000158013248749
0.000157318076531
0.000156310427304
0.000155081265201
0.000153531042226
0.000151397514331
0.000148271382424
0.000143602893792
0.000136633218135
0.000126127839659
0.000109546813867
8.22959260435e-05
0.00011351335193
0.000516381661592
0.000720151909198
0.000840232091073
0.000915391443853
0.000961018900036
0.000985577438448
0.000995091105641
0.000994382566805
0.000987256700591
0.000976330898968
0.000962715159786
0.000945846043454
0.00092345524351
0.000891748268407
0.00084513336218
0.000775272264481
0.000667128199508
0.000483549411116
0.000109441667282
0.000131824676523
0.000717784555243
0.00105123578908
0.00125194456009
0.00137744760332
0.00145271015836
0.00149212958409
0.00150619612503
0.00150335083506
0.00149039199757
0.00147198927592
0.00145008563724
0.00142363644001
0.00138862441423
0.00133835036681
0.00126306833373
0.00114838709631
0.000969346773485
0.000669572651159
0.000125840989314
0.000143389564258
0.000837174359124
0.00125134014909
0.00150226630118
0.00165808343244
0.00174954552892
0.00179490491321
0.00180799488486
0.00179996442364
0.00178022023087
0.00175526901401
0.00172776286327
0.00169625233023
0.00165505585573
0.0015956006686
0.00150488042297
0.00136449762344
0.00114333209109
0.000774293620072
0.000135789082872
0.000150870744186
0.000913239641641
0.00137874106085
0.00166067314804
0.00183347123303
0.00193134732405
0.00197533301963
0.00198167770562
0.00196502962547
0.0019370531512
0.00190551157325
0.00187376651049
0.00184023401209
0.00179856199199
0.00173754286765
0.00164085083096
0.00148776663656
0.00124327978222
0.000834338833266
0.000141735441171
0.000155550318712
0.000961208216557
0.00145846898656
0.00175829268968
0.00193856794808
0.00203582329206
0.00207309047867
0.00206925148483
0.00204178087792
0.00200453230001
0.00196638278072
0.0019312951351
0.00189740752336
0.0018576611496
0.00179983332099
0.00170542536507
0.00154913805482
0.00129434029421
0.000865288092177
0.000144930277154
0.000158230004286
0.000989424608756
0.00150478902223
0.00181337451925
0.00199478918304
0.0020870496573
0.0021146468476
0.00209861563734
0.00205946386723
0.00201291707609
0.00196873731581
0.00193127762113
0.00189830447414
0.00186201217244
0.00180956328116
0.00172114535905
0.00156868312958
0.00131247513236
0.000876657941497
0.000146228311868
0.000159516940985
0.00100373259824
0.00152779258127
0.00183907092524
0.00201764839637
0.00210318853335
0.00212038902996
0.00209271543241
0.00204292976806
0.00198826470665
0.00193918574601
0.00190023041077
0.00186883210339
0.00183655299007
0.00178983890538
0.00170831357687
0.00156209492272
0.00131029964885
0.000875821145384
0.000146326475191
0.000159905085917
0.00100865472997
0.00153537348551
0.00184595435914
0.00202032077125
0.00209918288848
0.00210777225246
0.00207104593997
0.00201320898322
0.00195252195665
0.00189997010178
0.00186015227559
0.00183025155695
0.00180138631069
0.00175948278205
0.00168370036349
0.0015435143879
0.00129758981942
0.000868773568657
0.000145809067148
0.000159769360587
0.00100753687089
0.00153333904867
0.00184180597525
0.0020124468242
0.00208651603114
0.00208963038221
0.00204752615841
0.00198511900886
0.00192110750717
0.00186670214611
0.00182648975708
0.00179748273571
0.00177057570586
0.00173151833698
0.00165933738095
0.00152341050673
0.00128255697184
0.000860199744246
0.000145110860955
0.000159325651889
0.00100234202358
0.00152507745564
0.00183113751552
0.00199962391825
0.00207166886252
0.00207300581546
0.00202954796306
0.00196627545231
0.00190179870387
0.00184719933647
0.00180696504421
0.00177804462919
0.00175136751342
0.00171284394195
0.00164172406002
0.00150764588219
0.00126986289476
0.000852603250186
0.000144478153991
0.000158612552095
0.00099354289014
0.00151135574711
0.00181492613293
0.00198298096702
0.00205587824474
0.0020591660663
0.00201831016762
0.00195773312716
0.00189550728505
0.00184228532822
0.00180237466117
0.00177277117814
0.00174469471856
0.00170450691623
0.00163199045052
0.00149734724002
0.00126048978301
0.000846579906701
0.000143974338812
0.000157474963559
0.00098002917473
0.00149015872291
0.00179041586256
0.00195898858651
0.00203497334484
0.0020435166149
0.0020088806088
0.00195423153288
0.00189665521659
0.00184620708059
0.00180700700569
0.00177621448356
0.0017455310138
0.0017019797279
0.00162608276261
0.00148903558729
0.00125182218923
0.000840632494804
0.000143431990645
0.000155601231935
0.000959168792207
0.00145683675874
0.00175135368774
0.00191985867105
0.00199971180275
0.00201582373854
0.00199023019509
0.00194404581021
0.00189299054638
0.00184649198321
0.0018085032095
0.00177649550517
0.00174279142138
0.0016951586622
0.00161474325471
0.00147484693003
0.00123789358873
0.000831522857963
0.000142502271804
0.000152555520897
0.000926970268678
0.00140440290793
0.00168837446892
0.00185392364725
0.00193707590692
0.00196105705436
0.00194573873879
0.00190939366236
0.00186608740883
0.00182456460925
0.00178852483766
0.00175588140337
0.00171966382151
0.00166822409008
0.00158389483456
0.00144297948134
0.00120962291229
0.000814298742624
0.000140696346776
0.000147779162642
0.000877999830086
0.00132338439345
0.00158914022337
0.00174671021481
0.00182991621254
0.00186011004288
0.00185419211146
0.0018275926187
0.00179247947305
0.0017567317589
0.00172363372896
0.00169150428653
0.00165407797074
0.00160062918937
0.00151566068233
0.00137836584205
0.00115625713908
0.000782506174703
0.000137411622012
0.000140503056704
0.000804207981949
0.00119987220593
0.00143578469246
0.00157729764645
0.00165480672992
0.00168694324517
0.00168815761888
0.0016701328458
0.00164305756547
0.0016136868319
0.00158475963262
0.00155489683948
0.00151865712499
0.00146707096065
0.00138724712549
0.00126223904898
0.00106302233786
0.000727264347506
0.000131855211808
0.000129459363668
0.000690709431279
0.00100917348619
0.00119746022914
0.00131098364675
0.00137444895835
0.00140257423899
0.00140640959903
0.0013949835745
0.00137572855222
0.001353570247
0.00133048816636
0.00130551449561
0.00127475564053
0.00123159250524
0.00116642680225
0.00106564751043
0.000905753420964
0.000633472325937
0.000122776890229
0.00011199193367
0.000499589670295
0.000694096323236
0.000806124625024
0.000873431192101
0.00091130637456
0.000928433961763
0.000931219831696
0.000924913134473
0.000913733328936
0.000900525227471
0.000886506230042
0.00087117880716
0.000852348001232
0.000826172162946
0.000787122415622
0.000727145208986
0.000631722867812
0.000464795000832
0.000107619521437
8.3134476178e-05
0.00011185268728
0.000129185551704
0.000139819248891
0.000146338001229
0.00015001036002
0.000151653626691
0.000151909120486
0.000151316341342
0.000150301941676
0.000149137061613
0.000147916143107
0.000146552040548
0.000144784171495
0.000142207590216
0.000138291838993
0.000132288400785
0.000122961514165
0.00010772284609
8.15243084369e-05
8.97528984746e-05
0.000127946846953
0.000150331803544
0.000164407841253
0.000173493227802
0.000179075312002
0.000182073878333
0.000183206896299
0.000183079173519
0.00018216882416
0.000180788855544
0.000179054564043
0.000176867229963
0.000173915347234
0.000169709863648
0.000163597361296
0.000154694993421
0.000141567640477
0.000121132516273
8.69063065027e-05
0.000128071387341
0.000632519545134
0.000891797175888
0.00104558252397
0.00114224982891
0.00120091346438
0.00123216258837
0.00124369854029
0.00124185457776
0.00123174075877
0.00121690707667
0.00119891503496
0.00117708237548
0.00114842810169
0.00110786614815
0.00104816002405
0.000958726977426
0.000820840195462
0.000587926587834
0.00012094711661
0.000150491593146
0.000888953635096
0.00131945860884
0.00157909016423
0.00174088980717
0.00183684253302
0.00188556932711
0.00190082942056
0.00189402170247
0.00187440533894
0.00184842946344
0.00181895546019
0.00178480936618
0.00174067716857
0.00167747213382
0.00158236212787
0.00143657354353
0.00120790792483
0.000823934767499
0.000140972038495
0.000164699173884
0.00104250185594
0.00157908610108
0.00190362788149
0.00210344367589
0.0022187827689
0.00227331027691
0.00228442866788
0.00226818618551
0.0022377154891
0.00220170355958
0.0021641013589
0.00212325126032
0.00207225781158
0.00199923848952
0.00188667354623
0.00170999079281
0.00142883306914
0.00095606435212
0.000153031700173
0.000174031079466
0.00114119073942
0.00174456124595
0.00210819783325
0.00232911100089
0.00245194456493
0.00250202243459
0.00250145742509
0.00247131690563
0.00242797160987
0.00238190464483
0.00233793487555
0.00229402219138
0.0022419729135
0.00216805900204
0.00205148105811
0.00186176807225
0.0015529879398
0.00103043303055
0.00016010344841
0.000179974953952
0.00120390613455
0.00184792706705
0.00223372598889
0.00246466780151
0.00258483867013
0.00262221575701
0.00260426412069
0.00255702229579
0.00249971972944
0.00244424339291
0.00239580546904
0.00235191868422
0.00230301537227
0.0022335660335
0.00212110318487
0.00193177372082
0.00161283903897
0.00106670532371
0.000163651410888
0.00018345432711
0.00124105802333
0.00190758583157
0.00230452514528
0.00253679940726
0.00264698499175
0.00266693428584
0.00262916754443
0.00256441421537
0.00249425311209
0.00243127119698
0.00238040682837
0.00233858278707
0.00229512251487
0.00223303302374
0.00212837554997
0.00194622146175
0.00162932199406
0.00107707085467
0.000164721487894
0.000185182737036
0.00126007734771
0.00193671580559
0.00233694962196
0.00256455590269
0.00266228739561
0.00266484546044
0.00260918229307
0.0025298379649
0.00244987967814
0.00238189167851
0.00233006959771
0.00229078098069
0.00225261892558
0.00219791038027
0.00210181722031
0.00192858040369
0.00161918193513
0.00107130272952
0.000164231322134
0.000185746863862
0.00126683772956
0.00194573203625
0.00234412569176
0.00256509451617
0.00265188133538
0.00264099580212
0.00257265973386
0.0024834830654
0.00239726453981
0.00232638388781
0.0022743497749
0.00223707985022
0.00220268290034
0.00215333994473
0.00206403265191
0.00189844573469
0.00159703517377
0.00105790012458
0.000162987999711
0.000185589149996
0.00126572007642
0.00194244412408
0.00233710407544
0.00255238161021
0.00263176371775
0.0026128693365
0.0025378006979
0.00244403527559
0.00235525000038
0.0022834061032
0.00223159685689
0.00219537273512
0.00216260025817
0.00211575256378
0.00203011162135
0.00186931651886
0.00157389047042
0.00104324412155
0.000161612586774
0.000184964780226
0.00125932004976
0.00193148374612
0.00232247248627
0.0025344539511
0.00261080530396
0.00258950857155
0.00251314940236
0.00241927297454
0.00233111157328
0.00226004651453
0.00220875320325
0.00217260168647
0.00213960835135
0.00209271192793
0.00200765172245
0.00184842385289
0.00155602531019
0.00103128764243
0.000160456287399
0.00018391516416
0.00124817162579
0.00191384356982
0.00230154164394
0.00251288762706
0.00259070397498
0.00257253466602
0.00249995232326
0.00240979608359
0.00232481970341
0.00225591223361
0.00220535922623
0.00216849800831
0.00213384340409
0.00208483879836
0.00199769080941
0.00183705366508
0.00154473481091
0.00102297870977
0.000159598055697
0.000182260011944
0.00123068057859
0.00188673076015
0.00227006528501
0.00248249894632
0.00256586365268
0.00255631046803
0.00249273886876
0.00241017297304
0.00233055570691
0.00226464886609
0.00221491723015
0.00217679293229
0.00213937571192
0.00208659984439
0.00199521560994
0.00183079962765
0.00153641526254
0.00101629431463
0.000158835551968
0.000179630112411
0.00120327694486
0.00184387632485
0.00221922607271
0.00243204980616
0.00252361394514
0.00252727622096
0.00247768681333
0.00240642394548
0.00233420888111
0.00227204547488
0.00222322021351
0.00218362753837
0.00214289801772
0.00208540513878
0.00198872847429
0.00181938193598
0.00152276843042
0.00100637035785
0.000157720492756
0.000175510913277
0.00116068643161
0.00177605061121
0.0021378035199
0.00234676679
0.00244587455653
0.00246422025176
0.00243127472673
0.0023741593636
0.00231173596726
0.0022549192015
0.00220777275751
0.00216694738459
0.00212285837626
0.00206077029657
0.00195935396994
0.00178616993936
0.00149145885946
0.000986162768595
0.000155617680039
0.000169255361511
0.00109589234449
0.00167086733487
0.00201044064202
0.0022090108223
0.00231053188705
0.00234075180888
0.00232355543554
0.00228120587856
0.00223017807033
0.00218060265139
0.00213672926891
0.00209595344284
0.00204988542287
0.00198511376292
0.00188158675298
0.00171008454789
0.00142671196528
0.000946849825202
0.0001517472176
0.00016000069238
0.000998812230585
0.00151031078729
0.00181334123322
0.00199269596933
0.00208840240283
0.00212447295592
0.00211917801271
0.00208992530221
0.00205035591921
0.00200927251046
0.00197049892877
0.00193210616335
0.00188704126562
0.00182366088952
0.00172444775349
0.0015653648997
0.00130866686972
0.000876921313568
0.000145156378083
0.000146319002604
0.000851205779825
0.00126259385382
0.0015057458956
0.00165123998024
0.00173099670763
0.0017641643018
0.0017653003379
0.00174662866759
0.00171805835142
0.00168648734265
0.0016549898268
0.0016223265401
0.00158300400033
0.00152779613171
0.00144406438956
0.00131371698829
0.00110664763628
0.000757947337249
0.000134420005061
0.000124987146224
0.00060690736402
0.000855151319876
0.000999437008895
0.00108633333194
0.00113480868567
0.00115578359299
0.00115755963139
0.00114711626783
0.00113017872081
0.00111072108952
0.00109058914873
0.00106920604297
0.00104357220101
0.00100857302373
0.000957072491849
0.000878832713502
0.000756208766396
0.000546670637483
0.000116564542892
8.86470386621e-05
0.000124742377494
0.000145788988448
0.000158723198351
0.000166690234495
0.000171130709669
0.000172978930137
0.000173009336887
0.000171905502963
0.000170223019483
0.000168333864552
0.000166392484224
0.000164318731355
0.000161812472559
0.000158392671392
0.000153409480264
0.000146002311631
0.000134786104865
0.000116751059411
8.52768851915e-05
9.76021114229e-05
0.000144623665079
0.000171324422652
0.000188266897287
0.000199418721568
0.000206435854183
0.000210343226307
0.000211966807483
0.000212010024715
0.000211022758669
0.000209364350989
0.000207167093177
0.000204316460522
0.000200448363723
0.000194983631171
0.00018716250872
0.000175982770749
0.000159785764401
0.000134937252903
9.22750102364e-05
0.000144813250539
0.000761202837821
0.0010763598091
0.00126320306678
0.00138082829085
0.00145203939115
0.00148949961742
0.00150260007397
0.00149915922393
0.00148559092966
0.0014665092085
0.00144402190981
0.00141735887491
0.00138268980885
0.00133354594353
0.00126112107112
0.00115295016489
0.000986765223362
0.000705688622725
0.000134622035957
0.00017154425796
0.00107402841887
0.00159607745191
0.00190741502213
0.00209936217396
0.00221142352471
0.00226598835041
0.00227884309522
0.00226490429055
0.00223639613783
0.00220155075899
0.00216425693282
0.00212298154508
0.00207127951927
0.00199831944247
0.00188759899145
0.00171670894008
0.00144735243966
0.00098927477523
0.000158710675094
0.000188699263945
0.00126186826603
0.00190902530814
0.00229370128551
0.00252809904665
0.0026596981496
0.00271497387494
0.00271611215864
0.00268507391068
0.00263923775341
0.00258971192315