/*--------------------------------*- C++ -*----------------------------------*\
| =========                 |                                                 |
| \\      /  F ield         | OpenFOAM: The Open Source CFD Toolbox           |
|  \\    /   O peration     | Version:  3.0.1                                 |
|   \\  /    A nd           | Web:      www.OpenFOAM.org                      |
|    \\/     M anipulation  |                                                 |
\*---------------------------------------------------------------------------*/
FoamFile
{
    version     2.0;
    format      ascii;
    class       volVectorField;
    location    "9.9";
    object      U;
}
// * * * * * * * * * * * * * * * * * * * * * * * * * * * * * * * * * * * * * //

dimensions      [0 1 -1 0 0 0 0];

internalField   nonuniform List<vector> 
7968
(
(1.23951967899e-06 -3.83014595498e-05 5.48836103985e-05)
(0.000433595017708 -0.000228935931929 -9.2125274763e-05)
(0.00123000226715 -0.000318783943906 -0.000115409817619)
(0.00192461184135 -0.000356173889865 -4.26136604539e-05)
(0.00245138251083 -0.000326407683733 4.95585436195e-05)
(0.00269896987371 -0.000239893767641 0.000143719656964)
(0.00266780223242 -0.000155161981408 0.000206247710391)
(0.00240707053646 -6.73517955531e-05 0.000256722625369)
(0.00194335411493 1.05988799491e-06 0.000285237402904)
(0.00135805400406 3.71311523161e-05 0.00029839602848)
(0.000730979030621 4.00282306855e-05 0.000300137061637)
(0.000129946564049 1.12561884933e-05 0.00029228027697)
(-0.000383638445833 -4.41255038667e-05 0.000276004655113)
(-0.000753034083108 -0.000116789809444 0.000245551617618)
(-0.000942994412104 -0.000187580837262 0.000204483173365)
(-0.000944014472366 -0.000251325684916 0.000141645929331)
(-0.000742527937371 -0.000273819490394 7.05330043638e-05)
(-0.000429582925808 -0.000235184479673 6.00965114468e-06)
(-4.33709390158e-05 -0.000155633381169 1.2834675877e-05)
(9.87927779266e-05 -1.00265112597e-05 0.000117896522571)
(-0.000176021679252 0.000262510945949 -6.57576285856e-05)
(0.000367124661227 0.000156947064395 -0.000906906462752)
(0.00135936633118 0.000142332406236 -0.0011393492195)
(0.00213151612115 0.000198973163459 -0.00108624151592)
(0.0026661266114 0.000332394584103 -0.000951258263534)
(0.002893155473 0.00051409451816 -0.000795532588351)
(0.00282461000074 0.000688592981944 -0.000660677147133)
(0.00251785237623 0.000840351829196 -0.000547415046756)
(0.00201883209856 0.000952780564805 -0.000467623967009)
(0.00140393070379 0.00101551277644 -0.000429582284209)
(0.000748679448645 0.00102588073569 -0.00043200213076)
(0.00011963198714 0.000985277749795 -0.000469996602715)
(-0.000424065948926 0.000898556114229 -0.000535101052034)
(-0.000827962251206 0.000775696422103 -0.000620455580739)
(-0.00105156131879 0.000635484743259 -0.00071543965745)
(-0.0010706978682 0.000492703975988 -0.00081759060583)
(-0.00086269338136 0.000382451656593 -0.000902083993849)
(-0.000485333524783 0.000332245191968 -0.000923654269956)
(5.15893100955e-05 0.000325999197997 -0.000722455154085)
(0.000256371306837 0.000369756738002 -2.83643725721e-05)
(-0.000266696507467 0.000869252012961 -7.7283445188e-05)
(0.000367286624161 0.000945358244389 -0.00113798914297)
(0.00145189489938 0.00101293378237 -0.00133792304097)
(0.00225721851916 0.00114450508443 -0.0012071286108)
(0.00278760519108 0.00134679609775 -0.00100624610747)
(0.00299359015894 0.00159306627712 -0.000805824422369)
(0.00290311786677 0.00183008456956 -0.000640432360469)
(0.00257501996322 0.00203821903232 -0.000513139364233)
(0.00206143354014 0.00219727610272 -0.000429732405397)
(0.00143522439478 0.0022915892373 -0.000392449158518)
(0.000768962490252 0.00231631242866 -0.000399371491829)
(0.000126899761 0.00227303651712 -0.000445302167735)
(-0.000433980192728 0.00216824162401 -0.000522181187189)
(-0.00086005160145 0.00201462614602 -0.000627080937016)
(-0.00110870132925 0.00183138195135 -0.000752381869159)
(-0.00114684027568 0.00163542158499 -0.000894206440085)
(-0.000943709539782 0.00146095322757 -0.00103092687835)
(-0.000542703193818 0.00133075733915 -0.00111020340913)
(6.39064967192e-05 0.00122985746472 -0.000930817555407)
(0.00032935347503 0.00109073419673 -5.74409841531e-05)
(-0.000308058136887 0.00138393369435 -4.31165980899e-06)
(0.00042409562719 0.00153410540757 -0.00110312806776)
(0.0015906147592 0.00162977285087 -0.00123032819902)
(0.00243416367527 0.00179433953996 -0.00102087255979)
(0.00296805459316 0.00202925063555 -0.000761022783017)
(0.00315517816686 0.00230925384129 -0.000519074440536)
(0.00303786165939 0.00258148716419 -0.000325298350276)
(0.00267985728183 0.00282397674439 -0.000180403573466)
(0.00213885251639 0.00301331611128 -9.29892840491e-05)
(0.00148675144574 0.00313058490165 -5.48273137371e-05)
(0.000794238748148 0.00317033159016 -6.24621999493e-05)
(0.000123062483169 0.00313345263998 -0.000110093215945)
(-0.000470057511548 0.00302694124834 -0.000192602258064)
(-0.000931746294627 0.00286548949923 -0.000316592237975)
(-0.00121506008244 0.00266824791685 -0.00047087751605)
(-0.0012790489774 0.00245338583516 -0.000653698273045)
(-0.00108229825492 0.00225217663844 -0.000846226702708)
(-0.000657691472617 0.00208679378898 -0.000996909768759)
(1.05560964789e-05 0.00194786412395 -0.000885748346807)
(0.000355868694826 0.00172134178477 1.40205313405e-06)
(-0.000280421062806 0.00175914558361 7.91047877307e-05)
(0.000551064113167 0.00191409268415 -0.000995755084968)
(0.00179024559378 0.00200516282519 -0.00106195962441)
(0.0026714834407 0.00216975968913 -0.000794017403613)
(0.00320978399666 0.00240487650326 -0.000483571068331)
(0.00338013380215 0.00268881852491 -0.000201781109777)
(0.00323346278452 0.00296876969159 1.93451921986e-05)
(0.00283652138939 0.00322220313127 0.000182987750022)
(0.0022539466904 0.00342444072961 0.0002850536706)
(0.00156060342323 0.00355582522369 0.000329768461939)
(0.000825908733999 0.0036087130999 0.000323518947607)
(0.00011055254056 0.00358427083589 0.000271770411926)
(-0.000529703182134 0.00349030175796 0.00017776278135)
(-0.00103903697679 0.00334120665096 3.91371625241e-05)
(-0.00136387836192 0.00315533419678 -0.000138920844408)
(-0.00145842680809 0.00295084099729 -0.000359264711505)
(-0.00127421848166 0.0027569937555 -0.000600658049005)
(-0.000830470828922 0.00259179199659 -0.000808028852422)
(-0.000109901556756 0.00245111220365 -0.00076042826978)
(0.000324642835394 0.00220273088545 8.13079508796e-05)
(-0.000204154679506 0.00189213001804 0.000158201960051)
(0.000719128991561 0.00202400292122 -0.000870055924593)
(0.00202698157554 0.0020957541629 -0.000896098828394)
(0.00294501702265 0.00223941292684 -0.000587515412778)
(0.00349133022122 0.00245400044063 -0.000238126241815)
(0.00364521405379 0.00271740714551 7.58970892354e-05)
(0.00346798529787 0.00298031437229 0.000321443502664)
(0.00303051108803 0.00322555764472 0.000502807618993)
(0.00239903637543 0.00342584179451 0.000617638454198)
(0.0016526869339 0.00356058535557 0.00066929516656)
(0.000863193183119 0.00362165098832 0.000665505450847)
(9.23691445427e-05 0.0036109204038 0.000612241282838)
(-0.00060264548029 0.00353681447373 0.000512254573989)
(-0.00116363861134 0.00341406392531 0.000363360653869)
(-0.00153396612506 0.003260492751 0.000166229130429)
(-0.00166399137041 0.00309118961915 -8.05244100195e-05)
(-0.00149386364513 0.00292822016129 -0.000358170522239)
(-0.00103597154551 0.0027895361902 -0.000606753685877)
(-0.000268982742414 0.00266918004773 -0.000605907342931)
(0.000249652018019 0.00242802203851 0.000165868576272)
(-0.000126849332671 0.00179244680354 0.000209309439885)
(0.000880705255965 0.00188778704308 -0.000760933539499)
(0.00225376254973 0.00193600821621 -0.000760246080228)
(0.00320922912598 0.00205012742714 -0.000424502549213)
(0.00376792262062 0.00223172049009 -4.80906793712e-05)
(0.00390865100078 0.00245920038997 0.000291691949366)
(0.00370711723684 0.00269244649498 0.000555923429173)
(0.00323092671568 0.00291553192121 0.000753717324871)
(0.00255011695736 0.00310162616634 0.000879297610131)
(0.00174940548576 0.00323115912655 0.000935473324164)
(0.000904625197733 0.00329638287788 0.000931472016349)
(7.99966526141e-05 0.00329982030326 0.000874824199154)
(-0.000666183420336 0.00324916417628 0.000769457042189)
(-0.00127416005411 0.00315822332198 0.000613252966239)
(-0.00168412857888 0.00304313434934 0.000406057975448)
(-0.00184480219202 0.00291730882971 0.000145190826325)
(-0.00169022717906 0.00279765750039 -0.000154721921078)
(-0.00122195784179 0.00269441316312 -0.000429978504193)
(-0.000420098224752 0.00260011098009 -0.000464886731125)
(0.000172383640739 0.0023851030362 0.000223003941695)
(-4.62208958602e-05 0.00148785128764 0.000250955080539)
(0.0010231766819 0.0015459226869 -0.000668598724178)
(0.00245174513748 0.00157382349438 -0.000656287080895)
(0.00344197565219 0.00165595921053 -0.000304222498831)
(0.00401410899568 0.00179519514511 9.04285135416e-05)
(0.00415004673736 0.00197675690625 0.000448333687152)
(0.00393096599519 0.0021655001158 0.000728287388545)
(0.00342208631656 0.00235039976281 0.000942690856718)
(0.00269658335327 0.00250729065094 0.00107967061552)
(0.00184543044661 0.00262019536852 0.00113987446025)
(0.000949893783106 0.00268468940304 0.00113490885439)
(7.73998807772e-05 0.00270507076096 0.00107369105542)
(-0.000712952720044 0.00268588551466 0.000962172126272)
(-0.00136021174336 0.0026365320041 0.000799440305999)
(-0.00180187500091 0.00257023320425 0.000585703451475)
(-0.00198638693533 0.00249684505032 0.000317014114534)
(-0.00184591819023 0.00242673939796 2.75460525092e-06)
(-0.00137276110111 0.00236415116433 -0.000284158474793)
(-0.000546033694038 0.00229877899917 -0.000341005250963)
(9.29944255408e-05 0.00212826324575 0.00026685839304)
(1.59498551171e-05 0.00101581762905 0.000275832556966)
(0.00112778436565 0.00104479278075 -0.000603765724578)
(0.00259948304374 0.00105970322993 -0.000588464966933)
(0.00361920080869 0.00111291338207 -0.000228579586868)
(0.00420559663063 0.00120749874853 0.000175401893728)
(0.00434127788704 0.00133486201117 0.0005452548039)
(0.00411167837015 0.00146923710423 0.000835904132128)
(0.00357851842421 0.00160432690511 0.00106298729318)
(0.00281827411587 0.00172279909584 0.00120496370875)
(0.00192778944704 0.00181888155145 0.00125034483862)
(0.000990532650794 0.00188096974471 0.00123950022958)
(8.38811883505e-05 0.00191540854017 0.00117951111648)
(-0.000728790266603 0.00192607614076 0.00107917381231)
(-0.00140414543999 0.00192357374212 0.000914546336845)
(-0.00186835097532 0.00190975992892 0.000699784764317)
(-0.00207072053083 0.00189078394831 0.000430743569624)
(-0.00194258401644 0.00186981643493 0.000113081712549)
(-0.00147221419921 0.00184647338094 -0.00017800378186)
(-0.000633686066265 0.00180692598472 -0.000243654710269)
(2.94632074573e-05 0.00167922882269 0.000293345076967)
(4.99096578519e-05 0.000444840523303 0.000284672814549)
(0.00118478750276 0.000450252203561 -0.000573557717972)
(0.00268329613119 0.000456743293458 -0.000559278793643)
(0.00372337327772 0.000484313399702 -0.000197865366765)
(0.0043219877319 0.00053393190683 0.000210829945935)
(0.0044610659214 0.000602546488939 0.000587462183828)
(0.00422808376733 0.000677371628216 0.000883178700071)
(0.00368239282733 0.000756278405579 0.00111617549579)
(0.00290713595817 0.000831891122705 0.00124858069385)
(0.00199342404119 0.000898843125931 0.00129918356889)
(0.0010380589205 0.000957589273089 0.00128625985143)
(0.000115237588706 0.00101059181956 0.00121912287029)
(-0.000712535097395 0.00106020238851 0.00111618188338)
(-0.00139424681648 0.00110463908329 0.000962744038902)
(-0.00187124265815 0.0011436065594 0.000751649780219)
(-0.00208503744112 0.0011772790854 0.000487221572471)
(-0.00196837131162 0.00120279398466 0.000172763124114)
(-0.00150807941538 0.00121353775834 -0.000118441738676)
(-0.000675422436479 0.00119830902242 -0.0001861693209)
(-7.41315828574e-06 0.00111510468872 0.000304814977851)
(5.29313782964e-05 -0.000156460717394 0.000280516589103)
(0.0011913851461 -0.000171230158507 -0.000579072018891)
(0.00269817650923 -0.000171409993325 -0.000567890779274)
(0.00374714398195 -0.000169021675438 -0.000207028814084)
(0.00435411294676 -0.000164991579854 0.000202426042252)
(0.00449945597532 -0.000157451133976 0.000580984552482)
(0.00427051908114 -0.000143972309772 0.000877195746636)
(0.00372732965049 -0.00012323377878 0.00111001393853)
(0.00295369581541 -9.51095863815e-05 0.0012399891218)
(0.00204206989728 -5.32425463467e-05 0.00128867580086)
(0.00109067622221 3.90664921346e-06 0.00127369429296)
(0.000173071254847 7.5729163854e-05 0.00120586000027)
(-0.000651168484702 0.000160627153736 0.00110296348132)
(-0.00132876816292 0.000252901813073 0.000956123541314)
(-0.00180744753575 0.000343682223005 0.000750803343171)
(-0.00202684881724 0.000427812694867 0.000493170341235)
(-0.00192198899913 0.000497234237028 0.000185923445052)
(-0.00147888862178 0.000539048088216 -0.000100562632281)
(-0.000668719567723 0.000547114025835 -0.000169052758303)
(-1.46996986749e-05 0.000510191966709 0.000303168312234)
(2.53448698514e-05 -0.000719596472477 0.000264261925877)
(0.00114750961705 -0.000754368469591 -0.000617962891775)
(0.00264388597856 -0.000763286687924 -0.000611720544462)
(0.00368989476941 -0.000788832081626 -0.000254286735456)
(0.00430109620661 -0.000832424889841 0.000152144694727)
(0.00445588966396 -0.000886662218907 0.000527804610794)
(0.00423863286942 -0.000934048399357 0.000820622496192)
(0.00371350729812 -0.000969787413287 0.00104792642644)
(0.00295840016112 -0.000982312634364 0.00118527794625)
(0.00207411697574 -0.000967732692913 0.00122381284855)
(0.00114778353375 -0.000912216713327 0.0012079252793)
(0.000254742289697 -0.000822144589436 0.00114507565135)
(-0.000546171412343 -0.000702120691138 0.00104968989101)
(-0.00121124342571 -0.000567122042657 0.000902173092418)
(-0.00168010332302 -0.000427772184646 0.000703637438215)
(-0.00189920662952 -0.000295568065377 0.000453895866619)
(-0.00180559825181 -0.00018360885597 0.000157107012148)
(-0.00138608472125 -0.000110139606895 -0.000120185424844)
(-0.00061353270872 -7.80979147167e-05 -0.000186420486368)
(7.09965041859e-06 -7.04031460918e-05 0.000291078562775)
(-2.91767433072e-05 -0.00118272483572 0.000234305783455)
(0.00105690479747 -0.00123957914824 -0.000685947046366)
(0.00252525156559 -0.00126169731077 -0.000688158093714)
(0.00355835657779 -0.00131960260104 -0.000340301145896)
(0.00417114165342 -0.00141281684092 5.78585693029e-05)
(0.00433918044652 -0.00152705235026 0.000424870485005)
(0.00414104493222 -0.00163258987306 0.000710003235082)
(0.00364659047807 -0.00172055563609 0.000926972475169)
(0.00293045591835 -0.00177092782454 0.00106203296842)
(0.00209028896957 -0.00177083900441 0.00111629769393)
(0.00120977966687 -0.00171983740396 0.00110175033668)
(0.000359137360103 -0.00161487055541 0.00104542370489)
(-0.00041155027098 -0.00147039460593 0.00094395805945)
(-0.00104918899364 -0.00129759646202 0.000800425168278)
(-0.00149888118238 -0.00111350562225 0.000610619352332)
(-0.00171076451316 -0.000935248053734 0.000371520239794)
(-0.0016261433778 -0.000781191497765 8.97361469142e-05)
(-0.00123443536801 -0.000673281849809 -0.0001720803168)
(-0.000512526044184 -0.00061524952086 -0.000232126644777)
(5.46204680359e-05 -0.000566294403025 0.000270259782199)
(-0.000101965416469 -0.00148494386704 0.000191211385297)
(0.000928646379984 -0.00156947370508 -0.000775120063109)
(0.00235460055715 -0.00161110094383 -0.000793007131104)
(0.0033674466175 -0.0017045865632 -0.000463235842567)
(0.00398096893176 -0.00184636883364 -8.2469272137e-05)
(0.00416704394304 -0.00201580524119 0.000267815484981)
(0.00399528971462 -0.00217349224698 0.000540662684791)
(0.00354069326927 -0.00230609805076 0.00074445136028)
(0.00287464035053 -0.00239072541819 0.000871913665728)
(0.00208966232148 -0.00241086682802 0.000926048886824)
(0.00126503296494 -0.00236177472371 0.000920171683989)
(0.000465736747237 -0.00224856230868 0.000868254194736)
(-0.000257363067531 -0.00208096574371 0.000775864093485)
(-0.000855203510081 -0.00187623670986 0.000643693880397)
(-0.00127662884505 -0.00165369204234 0.000466955038628)
(-0.00147424613719 -0.00143359179325 0.000243827902)
(-0.00139492526827 -0.00123963976878 -1.57463625495e-05)
(-0.00103436483817 -0.00109550324574 -0.000255603063999)
(-0.000374564023118 -0.00100961828749 -0.000299898422484)
(0.000121260291995 -0.000921006489844 0.000240036856674)
(-0.000172328857345 -0.00159221913353 0.000141203080368)
(0.000781751197596 -0.00170489760744 -0.000875217673735)
(0.00215270413902 -0.001768582312 -0.000921271815839)
(0.00314003062722 -0.00189477127105 -0.00062068872626)
(0.00375251002535 -0.00207651405106 -0.00026848438859)
(0.00396308133377 -0.00229230864984 5.73156611889e-05)
(0.00382488990875 -0.00249048073623 0.000314638148742)
(0.00341670560292 -0.00265558602779 0.000505297946433)
(0.00280595633609 -0.00276453220064 0.000626181795657)
(0.00207988663774 -0.0027999585312 0.000680294243044)
(0.00131469073735 -0.00275713460474 0.00067923422537)
(0.000572775498617 -0.00264076813992 0.000634841243837)
(-9.68874153422e-05 -0.00246213599271 0.000552419917086)
(-0.000647716573293 -0.002237837994 0.000433014468428)
(-0.00103305405164 -0.00198831423851 0.000273148844121)
(-0.00120996384975 -0.00173623631538 7.27852249782e-05)
(-0.00113166683558 -0.00150863495153 -0.000154826863657)
(-0.00080521548542 -0.00133313589191 -0.000363607761618)
(-0.000216654048845 -0.00121896671101 -0.000378771976368)
(0.00019076725778 -0.00109314552235 0.000203675763325)
(-0.000238662760538 -0.00148904599453 6.69860914334e-05)
(0.000629946693102 -0.00161650545818 -0.000985605132808)
(0.0019382932783 -0.00169611534198 -0.00107060282533)
(0.00289661164311 -0.00184461233295 -0.000812182308994)
(0.00350959184544 -0.00205379921024 -0.000500155777785)
(0.00374612972549 -0.00229995743809 -0.000207191529167)
(0.00364770677462 -0.00252802416964 2.8065406174e-05)
(0.00328869092398 -0.00271504016189 0.000204328868088)
(0.0027342863437 -0.00284078351913 0.00031822297691)
(0.00206662309037 -0.00288853978311 0.000372494268543)
(0.00135958707604 -0.00285378030151 0.000376408570274)
(0.000674572012364 -0.00274114397919 0.000340136113015)
(5.95681489612e-05 -0.00256107465107 0.000269316766726)
(-0.00044141466577 -0.00232940438655 0.000166516324097)
(-0.000786454411308 -0.00206651474626 2.98083261052e-05)
(-0.000937458177616 -0.00179560437338 -0.000137588875989)
(-0.00085829092541 -0.00154868788481 -0.000324913052194)
(-0.00056627106998 -0.00135403454494 -0.000489203233076)
(-5.30584389246e-05 -0.00122098472842 -0.000464586167257)
(0.000255248665796 -0.001074470103 0.000151615317257)
(-0.000259217230924 -0.0011662202441 -1.29984709154e-05)
(0.000516798940692 -0.00128424569611 -0.00107720839671)
(0.00175407837301 -0.00136483665102 -0.00121631740907)
(0.00267871178947 -0.00151411223194 -0.00101621928987)
(0.0032916265272 -0.00172842871029 -0.000755389178469)
(0.00355183287435 -0.0019803966448 -0.000503504534134)
(0.00349010656523 -0.00221507606248 -0.000295433455779)
(0.00317757514855 -0.00240815592878 -0.000137105860266)
(0.00267199507409 -0.00254064653386 -3.34939409246e-05)
(0.00205244157427 -0.00259652000852 1.96314858575e-05)
(0.00139364537659 -0.00257286477783 2.76061120231e-05)
(0.000757293185992 -0.00247359637103 -5.77381222279e-07)
(0.000191230677091 -0.00230731869152 -5.73120442693e-05)
(-0.000262323359031 -0.00208651744924 -0.000137206514938)
(-0.000566829389147 -0.00183248225531 -0.000242783104707)
(-0.00069298497038 -0.00156805194988 -0.000370525464021)
(-0.000612540294577 -0.00132590380619 -0.000506201048146)
(-0.000355156161948 -0.00113408623021 -0.000613745933666)
(8.25800800179e-05 -0.000998426521411 -0.000536721359552)
(0.000289742939879 -0.000848887195546 9.73439595616e-05)
(-0.000214319063313 -0.00072057374376 -8.5245401432e-05)
(0.000470593094371 -0.000768808212296 -0.00110169949286)
(0.00162429586722 -0.000819926413688 -0.00130182896747)
(0.00251014511093 -0.000938715638145 -0.00117591462052)
(0.00311931024403 -0.00112548901869 -0.000974115823044)
(0.00340087288494 -0.00135254094094 -0.000765000415498)
(0.00337003398978 -0.00156578047712 -0.000585697072301)
(0.00309329164117 -0.00174164151578 -0.000444897657638)
(0.00262249879413 -0.00186594760573 -0.00034560928825)
(0.00203576797467 -0.00192382053147 -0.00029184070434)
(0.00140906303166 -0.00191283309644 -0.000280526752447)
(0.000806793170993 -0.0018362415752 -0.000303322640979)
(0.000278582003816 -0.00170049653839 -0.000349834745235)
(-0.000136596916104 -0.00151472843078 -0.000412259887144)
(-0.000406791474524 -0.00129951513404 -0.000486731579744)
(-0.000509516234573 -0.00107473349094 -0.000570528069266)
(-0.000428225193907 -0.000871961153964 -0.000650389367783)
(-0.000203631523612 -0.000717491039201 -0.000691470079332)
(0.000160208946523 -0.000609557499218 -0.000556534243291)
(0.000280488507831 -0.000506686152896 6.06537317256e-05)
(-0.000124609558704 -0.000196624731785 -8.12940676129e-05)
(0.000475260527611 -7.93157422229e-05 -0.000882447303763)
(0.00153313176671 -5.34190406953e-05 -0.00110417826718)
(0.00238044878995 -0.000102722721228 -0.00104939298713)
(0.00298859400017 -0.000227292162414 -0.000911692090936)
(0.00328952860992 -0.00039765241872 -0.000749140259865)
(0.00328051485889 -0.000562714132264 -0.000603433922748)
(0.00302879143671 -0.000700699831573 -0.000482596499948)
(0.00257817685871 -0.000800718136926 -0.000392177039715)
(0.00200969805005 -0.00085276424715 -0.000342900498099)
(0.00140092713884 -0.000856755689601 -0.000333270257881)
(0.000818139226238 -0.000813969458195 -0.000353526775916)
(0.000313598215251 -0.000727799797265 -0.000392919839361)
(-7.53562867993e-05 -0.000604540997203 -0.000441741164783)
(-0.0003198626152 -0.000460668288347 -0.000492009999248)
(-0.00040330212881 -0.000312727179207 -0.000541054780944)
(-0.000318168410574 -0.000188237919478 -0.000574835158595)
(-0.000117752019478 -0.000114196718453 -0.000565167662733)
(0.000179331165149 -8.07786448314e-05 -0.000404078345928)
(0.000237198647795 -9.52855482519e-05 9.13465258399e-05)
(4.15802497689e-05 5.22027377714e-05 2.42096508378e-05)
(0.000538167975273 0.000234677293138 -0.000121682010219)
(0.00140122394409 0.000320915008076 -0.000143252071434)
(0.00216094972291 0.000355119532008 -7.1232800236e-05)
(0.00274911865551 0.000326197091015 2.24152679587e-05)
(0.00306179635628 0.000247805139972 0.000118565053876)
(0.00307716316091 0.000163538941763 0.00018823695135)
(0.00286931863923 8.41363040915e-05 0.00023848089285)
(0.00245602094243 1.69323567415e-05 0.000267260617887)
(0.00192239502374 -2.24327012364e-05 0.000276984231043)
(0.00134658403072 -3.19264534806e-05 0.000273313759627)
(0.000795016155288 -1.47100437819e-05 0.000260344112822)
(0.000320461515105 2.58365058556e-05 0.00024152461019)
(-3.77161409828e-05 8.32462074299e-05 0.000219094864644)
(-0.000252398419603 0.000144632077156 0.000192206610042)
(-0.000316563585485 0.000199990513256 0.000156373259222)
(-0.000231560653075 0.000227244820754 0.00011768653784)
(-7.04190990556e-05 0.000210534973781 8.86082688461e-05)
(0.000125530843554 0.000168075072268 0.000114465963025)
(0.000136053116709 7.9414374816e-05 0.000212505972761)
(0.00032849674517 0.000303289165471 -0.000713908994495)
(0.000999167122138 0.000452162729958 -0.00111034734817)
(0.00172345430134 0.000563750704491 -0.00119868495741)
(0.00224916877824 0.000644775183441 -0.00106187896736)
(0.00258884595551 0.000706481429609 -0.000851059250153)
(0.00270739040727 0.000759922168073 -0.000629654029214)
(0.00261110754859 0.000800862114621 -0.000438248626275)
(0.00232501502718 0.000831393592284 -0.000281631095991)
(0.00188760000911 0.000852304009919 -0.000173671940715)
(0.00135717574545 0.000866127198199 -0.000120613249004)
(0.000790028703185 0.00087315332673 -0.000117160688184)
(0.000238015909569 0.000871875681132 -0.000155980030561)
(-0.000255721841033 0.000860524296806 -0.000228436666036)
(-0.000650345441884 0.000836683185972 -0.000328783091866)
(-0.000912498617142 0.00080135286864 -0.000449174307959)
(-0.00103018561371 0.000753557040493 -0.000584879690068)
(-0.000999146201799 0.000692733368247 -0.00071911134495)
(-0.000844165652918 0.00060853025175 -0.000807074788212)
(-0.000541971622763 0.000473180778381 -0.000730479660694)
(-0.000206677578706 0.000264911403007 -0.000421640631632)
(0.000546191323238 0.000833016844384 -0.00106726326054)
(0.0011768417068 0.000910257481259 -0.00189868460904)
(0.00175443832348 0.000974420539522 -0.00201603695106)
(0.00215867760705 0.0010516549999 -0.00182903432586)
(0.00240658846788 0.00114170517255 -0.00154911974987)
(0.00248303567202 0.00124169881682 -0.00126114054041)
(0.00239062528313 0.00134072436165 -0.00101040905469)
(0.00214837265724 0.0014317782417 -0.000815050758484)
(0.00178707110728 0.00150646629004 -0.000684222727232)
(0.00134722673471 0.0015584190816 -0.000622845887569)
(0.00087086623173 0.00158464203284 -0.000627538526974)
(0.00039881840571 0.00158425651883 -0.000690148887061)
(-3.40982606454e-05 0.00155697838188 -0.00080155352061)
(-0.000396041715221 0.0015060194431 -0.000951751802338)
(-0.00066031380824 0.00143798301476 -0.00113096985244)
(-0.00081223012616 0.0013588542678 -0.00132623051889)
(-0.000845826933163 0.00127449693248 -0.00150771971687)
(-0.000772399696746 0.00118031105312 -0.00161478252686)
(-0.000569025977911 0.00105508613579 -0.00148494715448)
(-0.000310238004864 0.000848061956934 -0.000798677873934)
(0.000686140464375 0.0013506674198 -0.00115158855907)
(0.0012815783217 0.00129840393998 -0.00202237778411)
(0.00179789010598 0.00130687155215 -0.00207332928737)
(0.00214255888658 0.00136951715453 -0.0018092933544)
(0.00234505622481 0.00147389447103 -0.00146349192162)
(0.00239814673367 0.00160691753181 -0.00112447226508)
(0.00230480765485 0.00174941064461 -0.000836276999273)
(0.00208033657212 0.00188558057077 -0.000616813172352)
(0.00175076816859 0.00199967656133 -0.000473232726735)
(0.00134971834133 0.00208174361611 -0.000406929378559)
(0.000912233006097 0.00212613664369 -0.000412676855759)
(0.000472936988956 0.00213146406882 -0.000482775648648)
(6.27240537111e-05 0.0020999371439 -0.000610051306975)
(-0.000289822311321 0.00203719079373 -0.000787232839408)
(-0.000560488865759 0.00195484391637 -0.00100657957659)
(-0.000734029879093 0.00186367177848 -0.0012554978453)
(-0.000802545154185 0.00177597557613 -0.00150153249617)
(-0.000773022910395 0.00169805101428 -0.00167753399806)
(-0.000615511018085 0.00162343947562 -0.00160732910865)
(-0.00039851340213 0.00152816932849 -0.000892373577351)
(0.000777213613131 0.00169129141506 -0.00103877420623)
(0.00137229040647 0.00153244390713 -0.00187299170963)
(0.00187253431914 0.00148867390031 -0.00185073341484)
(0.00219394203465 0.0015313164722 -0.00151023814725)
(0.002377206924 0.00163891691101 -0.00109618271253)
(0.00241914352984 0.00179041070864 -0.000703314337664)
(0.0023229401731 0.00196027510037 -0.000374349530094)
(0.00210108251833 0.00212726270369 -0.000125495048353)
(0.0017776615232 0.00227144375732 3.75094360168e-05)
(0.00138410263753 0.0023775885234 0.000115187833397)
(0.000952177320054 0.00243701505327 0.000114037823176)
(0.000514458836775 0.00244813318295 4.12357294217e-05)
(9.97344720557e-05 0.00241554733409 -9.82051733391e-05)
(-0.000262994898097 0.00234948210939 -0.000299462774425)
(-0.000548718291763 0.0022640410019 -0.000557449968962)
(-0.000741958843069 0.00217382433044 -0.000860807981777)
(-0.000833327481208 0.00209684395363 -0.00117657591117)
(-0.000825921246647 0.00204634031554 -0.00143071865256)
(-0.000682829164337 0.00202784290857 -0.001440011568)
(-0.000466440087172 0.00202982423777 -0.000776816549995)
(0.000844759643119 0.00187549429773 -0.000868126216247)
(0.00146678788095 0.00163566945635 -0.00164717599394)
(0.00197906692559 0.00155355475129 -0.00156172172284)
(0.0023011837654 0.00157968962884 -0.00115372143153)
(0.00248148718119 0.0016850335181 -0.000677695132181)
(0.00251992315902 0.00184415734052 -0.000231471814731)
(0.00242022773692 0.00202907376172 0.000141777135218)
(0.00219340482898 0.00221483400082 0.000425708256255)
(0.0018604166248 0.00237855245264 0.000614253916561)
(0.00145157894893 0.00250113543673 0.000708640504397)
(0.00100002603983 0.00257180898666 0.000715411230384)
(0.000539711561092 0.0025887748066 0.000641569665585)
(0.00010224798103 0.00255831015052 0.00049119642545)
(-0.00028254975196 0.00249440469799 0.000266798019457)
(-0.000590521395202 0.00241269567269 -2.72765834386e-05)
(-0.000804072090167 0.00233124414359 -0.000380678617417)
(-0.000910895634337 0.00227069671736 -0.000759656225971)
(-0.000909947537163 0.0022480507144 -0.00108643606205)
(-0.000759686605269 0.00227732627674 -0.00116742627749)
(-0.000516850982431 0.00235868147919 -0.000580685058272)
(0.000900729761781 0.00187502682111 -0.000695055678152)
(0.00156732695312 0.0015986726305 -0.00141853732213)
(0.00210887483307 0.00149723143377 -0.00128441267017)
(0.00244702115681 0.00151276695993 -0.000823629575986)
(0.00263517523514 0.00161282190811 -0.000294970045639)
(0.00267700426318 0.00177192032456 0.000200480691951)
(0.00257493870284 0.00196115820978 0.000617358595787)
(0.00233699102631 0.00215409526823 0.000939161560259)
(0.00198358319441 0.00232607388792 0.00115779528062)
(0.0015456795751 0.00245692676139 0.00127233423033)
(0.00105921255813 0.00253481977959 0.00128837708807)
(0.000561638731824 0.00255793474696 0.00121325805247)
(8.83674916885e-05 0.00253353009496 0.00105151954818)
(-0.000328549694329 0.00247625699248 0.000805673537087)
(-0.00066278632303 0.00240330098169 0.000480513222404)
(-0.000894426309299 0.00233440385576 8.56996834259e-05)
(-0.00101157589186 0.00229071030571 -0.00034415578035)
(-0.00100796728686 0.00229023027703 -0.000728372815423)
(-0.000837579984389 0.00234939949472 -0.000867877456635)
(-0.00055630672368 0.00247157625762 -0.000362739914778)
(0.000943687024661 0.00170056371871 -0.000546965570889)
(0.00166510370495 0.00142792249397 -0.00122270421025)
(0.0022451649042 0.00132597637885 -0.0010545584857)
(0.00260817084576 0.00133667805846 -0.000554822914544)