/*--------------------------------*- C++ -*----------------------------------*\
| =========                 |                                                 |
| \\      /  F ield         | OpenFOAM: The Open Source CFD Toolbox           |
|  \\    /   O peration     | Version:  3.0.1                                 |
|   \\  /    A nd           | Web:      www.OpenFOAM.org                      |
|    \\/     M anipulation  |                                                 |
\*---------------------------------------------------------------------------*/
FoamFile
{
    version     2.0;
    format      ascii;
    class       surfaceVectorField;
    location    "4.4";
    object      Uf_0;
}
// * * * * * * * * * * * * * * * * * * * * * * * * * * * * * * * * * * * * * //

dimensions      [0 1 -1 0 0 0 0];

internalField   nonuniform List<vector> 
22672
(
(0.00304962908878 0.00111193427126 -0.00261354014335)
(0.00110928810902 0.00305307458182 -0.00261325362591)
(0.00203438760914 0.00203765558375 -0.00610271300368)
(0.0069659692432 0.00048956022339 -0.00242592211546)
(0.00449879900526 0.0023373759141 -0.00394797226178)
(0.0059061725093 0.00197363291776 -0.00625372922695)
(0.0106331685429 0.000195116322433 -0.00190872281506)
(0.0090889377414 0.00205635421031 -0.00413623108628)
(0.0101300216173 0.00201076546153 -0.00572357223842)
(0.0131714223467 0.000227032655636 -0.00123555160012)
(0.0126014055083 0.00220771367634 -0.00366789258713)
(0.0132631018696 0.00225382712412 -0.00474599418622)
(0.0140536973799 0.000535492568338 -0.000625831513282)
(0.0146240563186 0.00279459171293 -0.00300786594906)
(0.0149604181038 0.00270597940628 -0.00367690339274)
(0.0132753355397 0.000950534285976 -0.000207927371816)
(0.0146022263855 0.00360968741221 -0.00243426017915)
(0.0147352350917 0.00324490242568 -0.00283137318938)
(0.0111858863918 0.00139577177902 4.59083468513e-05)
(0.0131335764227 0.00437192509963 -0.00205409289113)
(0.0131697497498 0.00373690157658 -0.00228253458677)
(0.00800876094603 0.00182182591135 0.000179410471336)
(0.0102702255888 0.00511332375223 -0.00179623905974)
(0.0102668729317 0.00423527565452 -0.00193626701148)
(0.00415569939462 0.00211142897078 0.000215475303315)
(0.00647189897989 0.00566570904989 -0.00169029534056)
(0.00646003189516 0.0046198588646 -0.00181272439262)
(3.12486097675e-06 0.0022125348598 0.000218076807042)
(0.00220784075103 0.00595307515735 -0.00166881978747)
(0.00220188357696 0.00482460774178 -0.00180058311244)
(-0.00415006508257 0.00211226281919 0.000215463399733)
(-0.00219929890729 0.0059535033424 -0.00166865109785)
(-0.00219493249063 0.0048248243037 -0.00180039842547)
(-0.00800482111634 0.00182336622269 0.000179281861699)
(-0.00646464775454 0.00566694669902 -0.00168984708791)
(-0.00645431128485 0.00462046212102 -0.00181227502302)
(-0.0111843442176 0.00139776796666 4.55530032114e-05)
(-0.0102652703702 0.00511525818563 -0.00179566316662)
(-0.0102632629788 0.00423615590904 -0.00193581565276)
(-0.0132764557335 0.000952597529113 -0.000208646039335)
(-0.0131315834336 0.00437429269146 -0.00205356998104)
(-0.0131687980796 0.00373786075275 -0.00228225511052)
(-0.0140568947405 0.000537499001317 -0.000626903389475)
(-0.0146030826461 0.00361206049197 -0.00243417993289)
(-0.0147368171915 0.00324564011761 -0.0028316864745)
(-0.0131758683524 0.00022882790047 -0.0012370617281)
(-0.0146272096535 0.00279696994021 -0.00300835373874)
(-0.0149637747658 0.00270665295804 -0.00367805084954)
(-0.0106373716436 0.000196638165358 -0.00191079577408)
(-0.01260519821 0.0022096692534 -0.00366931010287)
(-0.0132666684543 0.00225421280288 -0.00474820974395)
(-0.00696905210864 0.000491157847301 -0.00242864976201)
(-0.00909218677058 0.00205840000879 -0.00413841436606)
(-0.0101327630284 0.00201134453696 -0.00572675454278)
(-0.0030509096351 0.0011138038891 -0.00261684235833)
(-0.0045006968552 0.00234000784045 -0.00395099076482)
(-0.00590758522031 0.00197477123137 -0.00625818128579)
(-0.00110954838416 0.00305663343042 -0.00261652212387)
(-0.00203442286342 0.00203938496444 -0.00610756325711)
(0.00233554814811 0.00450152409373 -0.00394768574433)
(0.000487597897433 0.00696983634829 -0.00242495359559)
(0.00197197178592 0.00590963844583 -0.00625232081411)
(0.00683812077547 0.00416832639029 -0.0056582812326)
(0.00416796957859 0.00683786236608 -0.00565792505881)
(0.00609581086677 0.00609538027058 -0.00900307396642)
(0.0112517565786 0.00435975068828 -0.00589540085835)
(0.00956799122099 0.00712148364624 -0.0065568097013)
(0.0106887034867 0.00651644714652 -0.00947878608876)
(0.0142599403737 0.00510761645523 -0.00544020693608)
(0.0136782678952 0.00801741799641 -0.00622437977276)
(0.0140554991513 0.00739455413032 -0.00881791707762)
(0.015349633834 0.00625387301155 -0.00481629461493)
(0.0159873245694 0.0094921403862 -0.00548596879061)
(0.0157992941755 0.00866132656135 -0.00778728074219)
(0.014554736005 0.00746692282483 -0.00428042569847)
(0.0160892096452 0.0112116238802 -0.00475072008489)
(0.0156341899992 0.0100576862433 -0.00680708748336)
(0.01220760111 0.00857231911986 -0.00389624029773)
(0.0144199920545 0.0127805643357 -0.00420202131544)
(0.0139043968058 0.011321102361 -0.00606156307583)
(0.00870511534108 0.00948100394698 -0.00366594487164)
(0.0112489128141 0.0141752109558 -0.00383171545314)
(0.0108142071112 0.0124358525638 -0.00555946881671)
(0.00450669463935 0.0100574660059 -0.00357459043134)
(0.00707361714627 0.0151818510165 -0.00366162600587)
(0.00680157108708 0.0132429052254 -0.00531779522674)
(5.43500337228e-06 0.0102530628653 -0.00355554769236)
(0.00241013418503 0.0156982626703 -0.00361585994348)
(0.00231962311804 0.0136605227946 -0.00524400576235)
(-0.00449644695399 0.0100583320437 -0.00357396158549)
(-0.00239673384296 0.0156987083422 -0.00361541806983)
(-0.0023060354563 0.0136606277104 -0.00524340191707)
(-0.0086966493692 0.00948269942208 -0.00366479211623)
(-0.00706158703129 0.0151831455481 -0.00366037852171)
(-0.00678924455255 0.0132432078773 -0.00531607341695)
(-0.0122019173677 0.00857470788511 -0.00389478615087)
(-0.0112394728443 0.0141772726127 -0.0038297604315)
(-0.0108042320453 0.0124363627491 -0.00555681887692)
(-0.0145523893641 0.00746968105698 -0.00427910387459)
(-0.0144142215415 0.0127831379619 -0.00419964716785)
(-0.0138977284496 0.0113217626002 -0.00605843889344)
(-0.0153503732396 0.0062567163857 -0.00481563028215)
(-0.0160871927152 0.0112143650964 -0.00474861893113)
(-0.0156309552494 0.0100582787713 -0.00680437776964)
(-0.0142625870124 0.00511028129765 -0.00544060211351)
(-0.0159885471138 0.00949497868454 -0.0054849138203)
(-0.0157989321113 0.00866187890023 -0.00778584254386)
(-0.0112548051951 0.00436236739174 -0.00589692869485)
(-0.0136808771186 0.00802004966035 -0.00622477101851)
(-0.0140565681184 0.00739500710165 -0.00881820075985)
(-0.00684037258797 0.00417156181489 -0.00566075536887)
(-0.00957053132933 0.00712467067487 -0.00655839976411)
(-0.0106900007574 0.00651745468193 -0.00948073512068)
(-0.00233635425027 0.00450600222983 -0.00395067053036)
(-0.00416945092441 0.00684240350026 -0.00566041598079)
(-0.00609651424208 0.0060976605048 -0.00900644318852)
(-0.000487803372848 0.00697664467544 -0.00242773849551)
(-0.00197184678144 0.00591381028012 -0.00625638425005)
(0.00205589792475 0.00908960182786 -0.00413519291008)
(0.000193720200579 0.0106347888429 -0.00190684291933)
(0.00201047834241 0.0101314534962 -0.00572086035502)
(0.00712481907233 0.00956394774682 -0.00655645352752)
(0.00436112522017 0.0112467755641 -0.00589448919992)
(0.00651954855963 0.0106840264795 -0.00947784760415)
(0.0121867280268 0.0105398198018 -0.00688578861571)
(0.0105472178334 0.0121771096064 -0.00688587517945)
(0.0116167965682 0.0116081866766 -0.0101175530285)
(0.0156287913866 0.0121352677998 -0.00627014162729)
(0.0152624423891 0.0138181804651 -0.00633159601807)
(0.0153020081565 0.0131307661647 -0.00924285023927)
(0.0169078052579 0.0141390561466 -0.00542039426056)
(0.0178871104887 0.0160778416237 -0.00527188262531)
(0.0171688448027 0.0151244155867 -0.00786474671925)
(0.0160612717092 0.0161583177425 -0.00467231570186)
(0.018052948134 0.0185608821485 -0.00421725077978)
(0.0170093144964 0.0172634724168 -0.0065027637219)
(0.0134567750439 0.0179510529519 -0.00413749647085)
(0.0161416243426 0.0208040213378 -0.00340524990694)
(0.0150862912867 0.0192123750548 -0.00541900621366)
(0.00958668708752 0.0193805431697 -0.00382739658737)
(0.0125663531718 0.0227227178543 -0.00286619858726)
(0.0117182380841 0.020871912208 -0.00467747048355)
(0.00496083604801 0.0202838405176 -0.00370289551801)
(0.00788558836002 0.0240927261938 -0.00261449777623)
(0.00736809534281 0.0220582497579 -0.00428507949684)
(7.99237213883e-06 0.0205900190029 -0.00367573032095)
(0.0026828255917 0.024791048919 -0.0025393549149)
(0.00251358708535 0.0226695496591 -0.00413999953027)
(-0.00494557401519 0.0202845796577 -0.00370183500605)
(-0.00266492346064 0.0247912868776 -0.00253867273494)
(-0.00249461767268 0.0226695833926 -0.00413906846099)
(-0.00957350813446 0.0193819626172 -0.00382534683698)
(-0.00786915604317 0.0240934166495 -0.00261254130421)
(-0.00735054614127 0.0220583153384 -0.00428239070589)
(-0.0134469566956 0.0179530058321 -0.00413462144847)
(-0.0125528662329 0.0227238164981 -0.00286297984896)
(-0.0117034087564 0.0208719796393 -0.0046731448796)
(-0.0160556480383 0.0161605771628 -0.00466916222438)
(-0.01613258259 0.0208052904889 -0.00340106730785)
(-0.0150754666399 0.0192124368331 -0.00541350532851)
(-0.0169062886293 0.0141415021516 -0.00541790246928)
(-0.0180486212826 0.0185622913413 -0.00421321933863)
(-0.0170028678665 0.0172633813177 -0.00649732359499)
(-0.0156300744145 0.0121378071378 -0.00626908272531)
(-0.0178869560728 0.0160795848776 -0.00526912801094)
(-0.0171662114933 0.0151243036119 -0.00786085208194)
(-0.0121890685587 0.0105427867524 -0.00688624208777)
(-0.015264402601 0.0138201733211 -0.00633064341106)
(-0.0153016326936 0.013130781292 -0.00924115594445)
(-0.00712678776284 0.00956821098853 -0.00655806037603)
(-0.0105495652875 0.012180251732 -0.00688641045269)
(-0.0116172823768 0.0116091702577 -0.0101178853748)
(-0.00205670900564 0.00909622137935 -0.00413748394594)
(-0.00436270253103 0.0112520867781 -0.00589608941325)
(-0.00651985087494 0.0106869492419 -0.00947978551778)
(-0.000194206753697 0.0106437549454 -0.0019090921253)
(-0.00201032761567 0.0101377900474 -0.0057238343243)
(0.00220809647228 0.0125975852493 -0.00366613920918)
(0.000226246684461 0.0131686781454 -0.0012324542015)
(0.00225447113494 0.0132597450669 -0.00474199364266)
(0.00802284225193 0.0136679375894 -0.00622391085185)
(0.00510988711291 0.0142488667619 -0.00543924504193)
(0.00739942526628 0.014045141053 -0.00881684696462)
(0.0138312225262 0.01524749132 -0.00633168258181)
(0.012144674972 0.0156120917746 -0.00627100447825)
(0.0131421235707 0.0152871818169 -0.0092433753365)
(0.0177788696922 0.0175107141352 -0.00533333701609)
(0.0175286993777 0.0177574774025 -0.00533434624284)
(0.0172621029897 0.0172439065239 -0.00788696050681)
(0.0192399439847 0.0201900117657 -0.00406873914453)
(0.0205112672229 0.0205372748221 -0.00379804673141)
(0.0193114940559 0.0197279015003 -0.00592052773494)
(0.0182513281783 0.0228310006591 -0.00295018498485)
(0.0206852559704 0.0235239208816 -0.0022468784558)
(0.0190936893902 0.0223624158339 -0.00397444699778)
(0.0152540240967 0.0251358572204 -0.00213395202335)
(0.0184514016346 0.0261947842264 -0.00101711986753)
(0.016879689649 0.0247509299969 -0.00239348626889)
(0.0108328720831 0.026942326911 -0.00165329977613)
(0.0143263352208 0.0284334156632 -0.000163755802003)
(0.013069328595 0.0267431372793 -0.0012895757029)
(0.00559174713829 0.0280747845925 -0.00145095717312)
(0.0089640438013 0.0300214345494 0.000276439582139)
(0.00819235789012 0.0281516738252 -0.000687614368737)
(9.94006087099e-06 0.0284564046886 -0.00140229732889)
(0.00304329692367 0.0308295137045 0.000431831894471)
(0.00278985848859 0.0288700608158 -0.000456688048644)
(-0.00557264177725 0.0280750303442 -0.0014493790331)
(-0.00302238806974 0.0308292443162 0.000432809969991)
(-0.00276719457571 0.028869790522 -0.000455403936624)
(-0.0108159824966 0.0269427822286 -0.00165017431618)
(-0.0089446613016 0.0300207124191 0.000279307689299)
(-0.0081711613348 0.0281509137351 -0.000683980514086)
(-0.0152409729083 0.0251363198811 -0.00212942570833)
(-0.0143102553442 0.0284322716567 -0.000159003872343)
(-0.0130510357502 0.0267419132733 -0.00128348690075)
(-0.0182433353404 0.022831405986 -0.0029451244221)
(-0.0184404347865 0.0261931207418 -0.00101106754121)
(-0.0168660128056 0.0247491527628 -0.00238548651421)
(-0.0192369646314 0.0201906445717 -0.00406444488029)
(-0.0206797252895 0.0235223324306 -0.00224105973459)
(-0.0190852650351 0.0223602837529 -0.00396642718302)
(-0.0177794762211 0.0175117656382 -0.0053306886967)
(-0.0205104623078 0.0205362842029 -0.00379352408239)
(-0.0193076714128 0.019725911457 -0.00591420059805)
(-0.0138334420347 0.0152494770847 -0.00633081177598)
(-0.0175306090676 0.0177572626034 -0.00533190810488)
(-0.0172611427569 0.0172423691358 -0.00788313530448)
(-0.0080250308292 0.0136719441689 -0.00622443948991)
(-0.0121472906506 0.0156137249936 -0.00627027085226)
(-0.0131424386319 0.0152870763681 -0.00924189738666)
(-0.00220927007306 0.012605083082 -0.00366769759262)
(-0.00511194118395 0.0142535522051 -0.00543969723464)
(-0.00739980765923 0.0140476749788 -0.00881724160339)
(-0.000227353821646 0.0131784570459 -0.00123390584638)
(-0.002254559002 0.0132671047952 -0.00474398193242)
(0.00279556246327 0.0146142098726 -0.00300556003425)
(0.000534582448736 0.0140455840794 -0.000622386696183)
(0.00270766224627 0.0149504785548 -0.00367247363979)
(0.00949846284572 0.0159702682473 -0.00548633866833)
(0.00625575031834 0.0153334789808 -0.00481629186594)
(0.00866710171608 0.015783207953 -0.00778751852814)
(0.0160925906549 0.0178644040165 -0.00527366813929)
(0.0141485352342 0.0168856161981 -0.00542341419964)
(0.0151372191088 0.0171482987791 -0.00786765892486)
(0.0205616782315 0.0204839960588 -0.00379905595816)
(0.0202084789227 0.0192119930062 -0.00407298952126)
(0.0197480181789 0.0192869560945 -0.00592361060472)
(0.0221884296856 0.0235347807353 -0.00197618604268)
(0.0235640196532 0.0221556603908 -0.00197916443214)
(0.0220019662662 0.0219744226584 -0.00324514526172)
(0.0209954997968 0.0265298893283 -0.000313813338474)
(0.0236976310558 0.0252736490373 0.000176178340581)
(0.0216869896157 0.0248310582513 -0.000556807461835)
(0.0175067592814 0.0291226442822 0.000953076353817)
(0.0210851992033 0.0280227223875 0.00192474346987)
(0.0191104288177 0.0274157758426 0.00166079225111)
(0.012404807222 0.0311322205197 0.00176598355626)
(0.0163291560863 0.0302984224371 0.00317501534163)
(0.014754069537 0.0295404931855 0.00323693471344)
(0.00639353364763 0.0323888060488 0.00215922864973)
(0.0101883355911 0.0318966502011 0.00386108290474)
(0.0092257704958 0.0310332543228 0.00413604801458)
(1.09786222313e-05 0.0328126527438 0.00226693919335)
(0.00345136502511 0.0327062303441 0.00412089132457)
(0.0031359093372 0.0317941166342 0.00450583037395)
(-0.00637239231484 0.0323876919571 0.00216149669239)
(-0.0034296081014 0.0327053020359 0.00412188193517)
(-0.00311160277845 0.0317932754098 0.00450730793481)
(-0.0123861407215 0.0311300985234 0.00177047813314)
(-0.0101679639678 0.0318938848948 0.00386413705884)
(-0.00920293434752 0.0310308221462 0.00414057356475)
(-0.0174923787172 0.0291196255243 0.000959354294781)
(-0.0163121379742 0.03029395587 0.00318034172323)
(-0.0147344464188 0.0295366598668 0.00324455407849)
(-0.0209866808233 0.026526466342 -0.000307002853694)
(-0.0210734766555 0.0280167463308 0.00193162965619)
(-0.0190958395789 0.0274106482175 0.00167067901468)
(-0.02218494797 0.0235316919108 -0.00197013893668)
(-0.0236914723416 0.0252672935541 0.00018317435394)
(-0.0216779671249 0.0248254529029 -0.000546690152778)
(-0.0205622356515 0.0204817706948 -0.00379474349057)
(-0.0235629348358 0.0221501724556 -0.0019732372703)
(-0.0219978280123 0.0219690823895 -0.00323659679472)
(-0.0160951376567 0.0178638246537 -0.00527136718116)
(-0.0202103903674 0.0192079017858 -0.00406923741457)
(-0.0197471568418 0.0192824979276 -0.00591773541268)
(-0.00950122928723 0.0159725277037 -0.00548552859699)
(-0.0141513179438 0.0168841694295 -0.00542149447141)
(-0.0151378678647 0.0171458152939 -0.00786435500823)
(-0.00279744466249 0.0146209948703 -0.00300590548841)
(-0.00625803968463 0.015335944629 -0.00481559661488)
(-0.00866788612867 0.0157840671772 -0.00778618336476)
(-0.000536058399494 0.0140540188829 -0.000623099431396)
(-0.00270838451402 0.014957229631 -0.00367301014678)
(0.00360957082924 0.0145883933633 -0.00243311852787)
(0.000949446011637 0.0132644458461 -0.000204527138953)
(0.00324608207833 0.0147211597435 -0.00282843485617)
(0.0112166997588 0.0160682043765 -0.00475336739725)
(0.00746793576187 0.014536517887 -0.00428198645732)
(0.010063023793 0.0156149444253 -0.00681016941589)
(0.0185745829658 0.0180258939676 -0.00422273558161)
(0.0161667501472 0.0160378017281 -0.00467847399053)
(0.0172758462898 0.0169860179157 -0.00651006928876)
(0.0235479080152 0.0206523214131 -0.00225309799523)
(0.0228480801091 0.018222323989 -0.00295941444819)
(0.0223820553707 0.0190661172158 -0.00398365530842)
(0.0253072434016 0.0236611262362 0.000173199951127)
(0.0265588924465 0.0209608708465 -0.000323866232743)
(0.0248589269579 0.0216552785084 -0.000564544167655)
(0.0238663674265 0.0265484203359 0.00241473514892)
(0.0265860256048 0.0238302272434 0.00241058709902)
(0.0244252902752 0.0243922351134 0.0028842996277)
(0.0198437737573 0.0289955929405 0.00414668245768)
(0.0235848475042 0.0263105882193 0.00462266054752)
(0.0214639341754 0.0268291387818 0.00573472914135)
(0.0140255713232 0.0308703645889 0.00527011469011)
(0.018204603739 0.0283648260111 0.00621810654718)
(0.016524465306 0.0288129054739 0.00775179975535)
(0.00721302626836 0.0320300818141 0.00582274557958)
(0.0113109473686 0.0298083445691 0.00711915707859)
(0.0103043167863 0.030192447956 0.00890085216251)
(1.07789689051e-05 0.0324186102838 0.00597583406639)
(0.00381907805436 0.0305338826839 0.00746715276228)
(0.00349498877223 0.0308921052311 0.00937459836776)
(-0.00719213065929 0.0320275633582 0.00582452230162)
(-0.0037986782788 0.030532407572 0.00746787682755)
(-0.00347147647863 0.0308907045423 0.00937581029639)
(-0.0140068277612 0.0308654077945 0.00527400064893)
(-0.0112917234311 0.0298038458267 0.00712160989274)
(-0.0102820407387 0.030188253851 0.00890474538439)
(-0.0198290584038 0.0289884077462 0.00415261708464)
(-0.0181885878849 0.0283573155064 0.00622287912644)
(-0.016505205883 0.0288060916654 0.00775888307346)
(-0.0238569960103 0.0265398131095 0.00242180686383)
(-0.0235738797049 0.0263002111508 0.00462909143509)
(-0.0214495246536 0.0268199346737 0.00574448718725)
(-0.0253032510424 0.0236526439972 0.000180076020318)
(-0.0265800865851 0.023818439921 0.00241754676151)
(-0.0244161942952 0.0243818166333 0.00289512441593)
(-0.0235481674105 0.0206450884946 -0.0022477311943)
(-0.0265578110722 0.0209497337917 -0.000317477589198)
(-0.0248549043387 0.0216451291693 -0.00055462974396)
(-0.0185769273559 0.0180209238626 -0.00421936470482)
(-0.0228498266651 0.0182130198688 -0.00295503103252)
(-0.0223813340668 0.0190571725457 -0.00397634591927)
(-0.0112193174689 0.0160669127204 -0.0047515624893)
(-0.016169344592 0.0160319732187 -0.0046758375559)
(-0.0172766468941 0.0169796718013 -0.00650540649352)
(-0.00361135675892 0.014592611478 -0.00243279055787)
(-0.00747003639589 0.0145354840307 -0.00428040617049)
(-0.0100637977487 0.0156126563533 -0.00680749741146)
(-0.000951108350821 0.0132705791732 -0.000204586153294)
(-0.00324676470647 0.0147257054988 -0.00282791455809)
(0.00437188366403 0.0131183044912 -0.00205339506841)
(0.00139499692036 0.0111730557392 4.9839848795e-05)
(0.0037387184608 0.0131538345998 -0.00228049268201)
(0.0127848495296 0.0143994565646 -0.0042070930506)
(0.00857299850448 0.0121912442288 -0.0038991194445)
(0.0113263142573 0.0138857770562 -0.0060676895776)
(0.0208165220834 0.016116204046 -0.0034151528571)
(0.0179586438026 0.0134375313359 -0.00414631052016)
(0.0192240638942 0.0150651292026 -0.0054313973376)
(0.0262177701217 0.018420465748 -0.0010301826857)
(0.0251510321551 0.0152312804008 -0.00214763294758)
(0.0247693353245 0.016855347277 -0.00241019743058)
(0.0280564243264 0.0210505297388 0.00191352091515)
(0.0291506779219 0.0174792182443 0.000935251468787)
(0.0274430449289 0.0190818742984 0.00164300654738)
(0.0263473166859 0.0235490197448 0.00461851249762)
(0.0290342600868 0.0198151753628 0.00413475139354)
(0.0268626114298 0.0214340379066 0.00572416696811)
(0.0218205097638 0.0256599208804 0.00669408463703)
(0.0256973286181 0.0217920044657 0.006691554823)
(0.0235418982785 0.0235117803396 0.00904539595732)
(0.0153603938973 0.027271624783 0.00806714893567)
(0.0197724197522 0.0234332436754 0.00852130044265)
(0.0180685458622 0.0252205509649 0.0113917011792)
(0.00787059200587 0.0282511822625 0.00876356426129)
(0.0122495436817 0.0245503498649 0.00931458045161)
(0.0112260360791 0.0264047888364 0.0127477986391)
(9.63743180672e-06 0.0285749700665 0.00895919552344)
(0.0041225027484 0.0250869811583 0.00961523504914)
(0.0037966069252 0.0269998149945 0.0133078590667)
(-0.00785196779347 0.0282477721584 0.00876496441867)
(-0.00410550785751 0.0250852169655 0.00961582877285)
(-0.00377572339437 0.0269980638235 0.013308801211)
(-0.0153439084847 0.0272647028524 0.00807048837024)
(-0.0122337281426 0.0245447886876 0.0093167106731)
(-0.0112063613543 0.0263994633457 0.0127510065527)
(-0.021807936907 0.0256494378846 0.00669935347688)
(-0.0197599690588 0.0234234616995 0.00852545127257)
(-0.0180519461005 0.0252115465334 0.0113978948449)
(-0.0263395290887 0.0235357425958 0.00462483133277)
(-0.0256895712478 0.0217780146749 0.00669671179222)
(-0.0235298962233 0.0234990260497 0.00905380530641)
(-0.0280532151686 0.0210364281946 0.00191999315199)
(-0.0290304433033 0.0197985406846 0.0041400973572)
(-0.0268551925382 0.0214188276964 0.00573360518642)
(-0.0262180834838 0.0184075775815 -0.00102477742742)
(-0.0291503195959 0.0174624831938 0.000940503261406)
(-0.0274398546162 0.0190663076107 0.00165213984362)
(-0.0208186713839 0.0161062466576 -0.0034115038836)
(-0.0251527404457 0.0152166976783 -0.00214386403197)
(-0.0247689997114 0.0168412231378 -0.00240307096962)
(-0.0127872527811 0.0143940116389 -0.00420468123709)
(-0.017960876622 0.0134270347095 -0.00414375703214)
(-0.01922500006 0.015054242124 -0.00542646559243)
(-0.00437377196665 0.013119166974 -0.00205220176592)
(-0.00857466802854 0.0121862261032 -0.00389706088697)
(-0.0113270697084 0.0138796465742 -0.00606421218464)
(-0.00139683392495 0.0111755532327 5.05253057667e-05)
(-0.00373976800903 0.0131550596742 -0.00227873809028)
(0.00511317599931 0.0102560581241 -0.0017958845273)
(0.00182094927888 0.00799486415604 0.000184045455173)
(0.0042372296871 0.0102518526458 -0.00193498055434)
(0.0141789684376 0.0112334112512 -0.00383833691406)
(0.00948173828988 0.00869312411171 -0.00366918012823)
(0.0124411268598 0.0108001450685 -0.00556766601145)
(0.0227339329888 0.0125489784163 -0.00287879061064)
(0.0193876217739 0.00957549711299 -0.00383693254508)
(0.0208831733859 0.0117041484057 -0.0046929212733)
(0.0284547244026 0.0143056369966 -0.000182198793091)
(0.0269555585555 0.0108214865975 -0.00166862335643)
(0.0267599620407 0.0130542839924 -0.00131098637324)
(0.0303322473219 0.0163059768018 0.00315648194717)
(0.0311585904373 0.0123908391322 0.00174324787352)
(0.0295665664855 0.0147362537265 0.00321086750793)
(0.0284032648628 0.018181493592 0.00620779371891)
(0.0309097076485 0.0140110704598 0.00525335672122)
(0.0288473716576 0.0165062129309 0.00773309583146)
(0.023463273904 0.0197492681161 0.00851877062863)
(0.0273112629276 0.0153460181696 0.00806205221409)
(0.0252523980635 0.0180512075081 0.0113859807367)
(0.0164564728019 0.0209809413375 0.00976873195859)
(0.02100576159 0.016440587862 0.00977094011236)
(0.0193522970738 0.0193345544553 0.0139994553536)
(0.00843314361014 0.0217480069166 0.0101662512395)
(0.0129788641355 0.0172193471508 0.0103910694913)
(0.012007810603 0.0202415090413 0.0153543271312)
(7.38568366688e-06 0.0219942392704 0.0102718682986)
(0.00435240034414 0.0175982863228 0.0106089687859)
(0.00405129220863 0.0206845536111 0.0159144474198)
(-0.00841904414311 0.0217440738055 0.0101675750273)
(-0.0043401395991 0.0175962565888 0.0106096995561)
(-0.0040346251697 0.0206826421753 0.0159153866997)
(-0.0164446643524 0.0209725507561 0.00977167357543)
(-0.0129682829762 0.0172129232851 0.0103932997909)
(-0.0119924866287 0.020235498164 0.0153574859355)
(-0.0234553635489 0.0197360731238 0.0085228095879)
(-0.0209987575984 0.0164291983266 0.009774422334)
(-0.0193404449406 0.0193238462237 0.0140049683739)
(-0.0283992645156 0.0181642792183 0.00621197781665)
(-0.0273083545978 0.0153299245162 0.00806515632821)
(-0.0252449529007 0.0180357604801 0.0113920034665)
(-0.0303312684684 0.0162868926779 0.00316060746661)
(-0.030909390419 0.0139915238012 0.0052558327104)
(-0.0288432917558 0.0164872057262 0.0077390393241)
(-0.0284557024834 0.0142874537813 -0.000178583343144)
(-0.031159636421 0.0123702624686 0.00174548954146)
(-0.0295650810452 0.0147160553168 0.00321667701113)
(-0.0227358413056 0.0125341031953 -0.0028761171805)
(-0.0269571553868 0.010803098501 -0.00166679780103)
(-0.026760157104 0.0130355641101 -0.00130623960332)
(-0.0141807925598 0.0112235550636 -0.00383613668201)
(-0.0193892368238 0.0095612959567 -0.00383538921755)
(-0.0208840119126 0.0116889551049 -0.00468929043295)
(-0.00511468803875 0.0102528721256 -0.00179433381528)
(-0.00948270856654 0.00868459026777 -0.00366735534692)
(-0.012441581579 0.0107900398254 -0.00556445172796)
(-0.00182246068315 0.00799355556165 0.000185160326037)
(-0.00423821718212 0.0102490369865 -0.00193267828889)
(0.00566565478614 0.00645983610814 -0.00168925014575)
(0.00211062133814 0.00413993533129 0.000220958133133)
(0.00462179875121 0.00644734324357 -0.00181071971646)
(0.0151855189168 0.0070654942354 -0.00366777575924)
(0.0100583745182 0.00449895456844 -0.00357680753988)
(0.013248297404 0.00679400043006 -0.00532568556413)
(0.0241029405878 0.00787969909378 -0.00262676529087)
(0.0202905078482 0.00495830338968 -0.00371099802218)
(0.0220689989164 0.00736353679077 -0.00430021600923)
(0.0300410062021 0.00895830022621 0.000256823310186)
(0.0280864591285 0.00559230262746 -0.00146453875276)
(0.0281671985399 0.00818946427676 -0.000708867958981)
(0.0319296431589 0.0101817607416 0.00384012264757)
(0.0324127098319 0.00639429191598 0.00213697097393)
(0.031057938896 0.00922254685917 0.00410792263557)
(0.0298476617907 0.0113040587013 0.00710761521639)
(0.0320674209686 0.00721282854198 0.00580628554099)
(0.0302268043055 0.0103008006502 0.00888023055225)
(0.0245824822347 0.0122417720282 0.00931422169782)
(0.0282900579548 0.0078686450938 0.0087595169244)
(0.0264379015436 0.0112223920613 0.012742552268)
(0.0172373352414 0.0129695280426 0.010393277645)
(0.0217732111485 0.00842772617194 0.010171759605)
(0.020260707718 0.0120031482178 0.0153580006935)
(0.00881853273167 0.0134023302563 0.0108337870377)
(0.0134124758099 0.00881012845117 0.010835368942)
(0.0125274687584 0.0125216079763 0.016828007931)
(4.86705897624e-06 0.0135418803925 0.0109468000434)
(0.00448287728867 0.00899593031216 0.0110597340417)
(0.0042113341666 0.0127708015211 0.0174160063766)
(-0.0088098225847 0.0133978549424 0.0108354243197)
(-0.00447587193518 0.00899372455167 0.0110604696855)
(-0.00419937166245 0.0127686855959 0.0174172076019)
(-0.017231362965 0.012960004021 0.0103960485494)
(-0.0134075081466 0.00880314702971 0.0108373683409)
(-0.0125175399215 0.0125149300671 0.0168313067913)
(-0.0245802359602 0.0122271635378 0.00931676907431)
(-0.0217717482078 0.00841573387671 0.0101743026245)
(-0.0202544662807 0.011991379755 0.0153623346216)
(-0.0298482906832 0.0112852041105 0.00710901122196)
(-0.0282920934613 0.00785220762234 0.00876032402001)
(-0.0264356039486 0.0112059474858 0.0127457777174)
(-0.0319315421236 0.0101603201387 0.00384071478525)
(-0.0320708797584 0.00719292736661 0.00580549987641)
(-0.0302267959648 0.0102803864245 0.00888186285067)
(-0.0300427437624 0.00893724063915 0.000257275083572)
(-0.0324153191986 0.00637286998341 0.00213500743152)
(-0.0310585268984 0.00920014494753 0.00410861546025)
(-0.0241043763795 0.00786188185846 -0.00262606983808)
(-0.0280876520201 0.00557280119742 -0.00146562683445)
(-0.0281677742425 0.00816837589438 -0.000708046489561)
(-0.0151865127951 0.00705262673456 -0.00366660788246)
(-0.0202912499518 0.00494262907706 -0.00371120423301)
(-0.0220695441713 0.00734586124469 -0.00429917429801)
(-0.00566653193094 0.00645324967458 -0.0016878612056)
(-0.0100585672302 0.00448846751152 -0.00357592842363)
(-0.0132483638345 0.00678123588729 -0.00532383718705)
(-0.00211146814653 0.00413562983063 0.00022214229256)
(-0.00462248922256 0.0064410974817 -0.00180859169874)
(0.00595319896118 0.00219629838298 -0.00166659926099)
(0.00221219894056 -1.6094259747e-05 0.000223653826853)
(0.00482657245664 0.00219023967381 -0.00179716189735)
(0.0157017582727 0.00240795103148 -0.00362002980282)
(0.0102537194517 1.49502234777e-07 -0.00355633922433)
(0.0136656643172 0.00231740957935 -0.00524974393064)
(0.024800180958 0.00268684526796 -0.00254877148407)
(0.0205958269697 1.20961302442e-05 -0.00368157623809)
(0.0226795794387 0.00251753526372 -0.00415220209248)
(0.0308470188872 0.00305059474204 0.000415608910977)
(0.028466202936 2.00333122672e-05 -0.0014124607559)
(0.0288841852598 0.00279777351439 -0.000474553787798)
(0.032735783808 0.0034587699273 0.00410313386735)
(0.0328326909071 2.36651594613e-05 0.0022486283582)
(0.0318162396384 0.00314524806803 0.00448187453194)
(0.0305695173195 0.00382413349472 0.007458187249)
(0.0324507128098 2.14511749663e-05 0.00596232845204)
(0.0309230922 0.00350304782512 0.00935765018167)
(0.025116571598 0.00412352416846 0.0096170548316)
(0.0286088220663 1.60549867574e-05 0.00895690038127)
(0.027029854571 0.00380186635003 0.0133055330672)
(0.0176154121993 0.00434935834792 0.010613850902)
(0.0220160523204 7.99233042953e-06 0.0102783463527)
(0.0207019670059 0.0040527813354 0.0159208815374)