/*--------------------------------*- C++ -*----------------------------------*\
| =========                 |                                                 |
| \\      /  F ield         | OpenFOAM: The Open Source CFD Toolbox           |
|  \\    /   O peration     | Version:  3.0.1                                 |
|   \\  /    A nd           | Web:      www.OpenFOAM.org                      |
|    \\/     M anipulation  |                                                 |
\*---------------------------------------------------------------------------*/
FoamFile
{
    version     2.0;
    format      ascii;
    class       volScalarField;
    location    "8.1";
    object      k;
}
// * * * * * * * * * * * * * * * * * * * * * * * * * * * * * * * * * * * * * //

dimensions      [0 2 -2 0 0 0 0];

internalField   nonuniform List<scalar> 
7968
(
0.000282475239473
0.000341258238229
0.000381623089461
0.000401970391999
0.000405652071833
0.000399807669094
0.000388581197949
0.000375637575389
0.000364311464042
0.000356572349522
0.000356526912427
0.000364225752246
0.000375535495939
0.000388481715027
0.000399726570804
0.000405595674219
0.000401944381782
0.000381621084149
0.000341270121848
0.000282488272981
0.000341237292794
0.000511476526584
0.000609495111947
0.000654397018574
0.000661098228029
0.000645529911567
0.000617315192936
0.000584732996169
0.000556439293926
0.00053943995604
0.000539368060616
0.000556276984425
0.00058452371718
0.000617103191305
0.000645345864592
0.000660952351452
0.000654308497788
0.000609456487679
0.000511476922233
0.000341254367762
0.000381586760797
0.000609466437482
0.000738619342493
0.000798190318736
0.00080884116106
0.000789266783053
0.000752851559785
0.000710140965185
0.000672326219981
0.00064929272283
0.000649204708027
0.000672125116255
0.000709877963245
0.000752580238404
0.000789024274217
0.000808642248992
0.000798057508344
0.000738548567648
0.000609449586457
0.000381600976269
0.000401918427809
0.000654341839258
0.000798160929762
0.000866555755984
0.000881277748504
0.000861684438786
0.000823654826341
0.000786731992614
0.000755625475777
0.000735561036967
0.000735484280024
0.000755455553878
0.000786501319372
0.000823345030489
0.00086139767604
0.000881037038497
0.000866384854495
0.000798058017102
0.000654300463802
0.000401923509307
0.00040559089117
0.000661030265974
0.000808799018004
0.000881266135947
0.000899395800284
0.000890795470015
0.000874998134406
0.000850538954582
0.000824533355967
0.000806089295511
0.000806012010855
0.000824365451711
0.000850321597599
0.000874756118546
0.000890554072667
0.000899119977903
0.000881057758449
0.000808658903846
0.000660953594464
0.000405577828549
0.000399764309022
0.00064549112266
0.000789255206403
0.000861704592626
0.000890810756792
0.000906947063867
0.000906192562851
0.000890491773014
0.000868189052874
0.000850691100538
0.000850610471035
0.000868016155769
0.000890275487894
0.000905967923042
0.000906729180589
0.000890589958758
0.000861468619706
0.000789083615379
0.000645382018995
0.000399729765458
0.000388575057369
0.000617331818518
0.000752902384304
0.000823741873006
0.000875061295978
0.000906237709919
0.000915031246008
0.000904580779877
0.000884055743773
0.000866678287375
0.000866595820614
0.000883880580911
0.000904365500469
0.000914814422116
0.000906032095594
0.00087485631183
0.000823495856554
0.000752708701156
0.000617194619132
0.000388516980608
0.00037567491671
0.000584821116761
0.000710275832614
0.000786848501492
0.000850659944939
0.000890610970594
0.000904665006453
0.000896450235241
0.000875877553364
0.000857345014973
0.000857265052192
0.000875712281643
0.00089625363127
0.000904471275617
0.000890433571767
0.000850493348085
0.000786679240813
0.000710087731817
0.000584677070865
0.000375602674238
0.000364368891274
0.000556578296217
0.000672525538094
0.000755787474109
0.000824711645446
0.000868385784426
0.000884235080196
0.000875986817734
0.000853366127269
0.000832002352456
0.00083193295134
0.000853232947585
0.000875841118348
0.00088410309851
0.000868272992741
0.000824610533931
0.000755685809718
0.000672395641257
0.00055647275637
0.000364307152571
0.000356612163876
0.000539567202788
0.000649484003544
0.000735721509585
0.000806274740922
0.000850910984553
0.000866898306671
0.000857518462206
0.000832089744911
0.00080712215433
0.000807075785174
0.000832018914959
0.000857464171425
0.000866873190192
0.0008509088444
0.000806281057498
0.000735725631598
0.000649474423041
0.000539558139561
0.000356598875258
0.000356571316009
0.000539446500862
0.000649322228835
0.00073557224186
0.00080611523592
0.000850742454697
0.000866737957523
0.000857389724795
0.000832016245549
0.000807111930588
0.000807105091994
0.000832033962772
0.000857453300175
0.000866845009342
0.000850875923952
0.000806254291079
0.000735709206573
0.000649466617901
0.000539566914213
0.000356635956232
0.000364273988712
0.000556313537326
0.000672173023895
0.000755469901791
0.000824377583088
0.00086803899433
0.000883912055985
0.000875740979734
0.000853250626991
0.000832030434874
0.000832042560529
0.000853302626291
0.000875842781413
0.000884056490167
0.000868208023458
0.00082455262159
0.000755645672739
0.000672369599287
0.000556480411189
0.000364365229456
0.000375573369292
0.000584521426546
0.000709865017972
0.000786455989235
0.000850262418184
0.000890212794081
0.000904305265322
0.000896196336199
0.000875792882563
0.000857439550352
0.000857457250938
0.000875848508712
0.000896290802571
0.00090443112113
0.000890356384318
0.000850410898661
0.000786605832056
0.000710032017615
0.000584665063229
0.000375648986536
0.00038849378166
0.000617065031829
0.000752519607441
0.000823259673007
0.000874655013307
0.000905860372787
0.000914708208047
0.000904373622644
0.000884027416724
0.000866837774934
0.000866856044106
0.000884076663533
0.000904445981975
0.000914796062689
0.000905954764884
0.000874748821998
0.000823352116321
0.000752619487924
0.00061715181867
0.000388532025194
0.000399708528658
0.000645282017555
0.000788936016896
0.00086128614732
0.000890435293653
0.00090661276183
0.000905923525337
0.000890342399729
0.000868213873099
0.000850899489987
0.000850917370089
0.000868256663653
0.000890394960628
0.000905975414849
0.000906657503005
0.000890466276607
0.000861308347355
0.000788971117545
0.000645311662823
0.000399708538919
0.000405548399555
0.00066087600149
0.000808546274205
0.000880925886613
0.000898995526427
0.000890485169221
0.000874768265005
0.000850436300564
0.000824596477175
0.000806322443844
0.000806340121058
0.00082463451735
0.000850472349652
0.000874786421898
0.000890482975836
0.000898953275075
0.000880902425256
0.000808535920837
0.000660863452446
0.000405520525147
0.0004018674036
0.000654225613639
0.000797965784243
0.000866292008847
0.000880970753205
0.000861385020225
0.000823425232843
0.00078666098032
0.000755720053589
0.000735819447426
0.000735836076705
0.000755751977218
0.000786678478046
0.00082339269234
0.000861332830649
0.000880913042187
0.000866246238326
0.000797929321576
0.000654188052037
0.00040182494973
0.000381519171048
0.000609369919329
0.00073847062795
0.000797993766465
0.000808614750257
0.00078904953897
0.000752690648078
0.000710098873666
0.000672458522642
0.000649605199637
0.000649620038428
0.000672480744924
0.000710096493347
0.000752657452707
0.000788996117508
0.000808550395062
0.000797936094675
0.000738419643289
0.000609319893574
0.000381472379776
0.00034115530821
0.000511394443314
0.000609394489029
0.000654270667027
0.000660950357811
0.000645384538452
0.000617205848669
0.000584710122242
0.000556549220143
0.000539690149823
0.000539700810273
0.000556562826993
0.000584698444716
0.000617163849797
0.000645322343509
0.000660875600714
0.000654201316431
0.000609333602201
0.000511339274157
0.000341109996717
0.000282390493699
0.000341191805563
0.000381576873631
0.000401930130437
0.000405610199183
0.000399766435301
0.000388552924142
0.000375646778885
0.000364378630951
0.00035670438137
0.000356701984379
0.000364373267064
0.000375620346068
0.000388502964287
0.000399702484984
0.000405541391795
0.000401867918588
0.000381526829465
0.000341151576265
0.000282356503431
0.000391399704766
0.000518527691246
0.000605671332658
0.000653596184606
0.000671443406139
0.000669852487912
0.000659743518638
0.000650430676957
0.000647626545262
0.000649289719793
0.000649217637808
0.000647443019214
0.000650176041556
0.000659472350977
0.000669612598267
0.000671264980817
0.000653486961458
0.000605620080046
0.00051851187372
0.000391394338886
0.000518513153823
0.000893187773923
0.00108477693916
0.00117067898842
0.00119053258133
0.00117142304487
0.00113443740931
0.00109420545872
0.00106177120465
0.00104373470474
0.0010436386754
0.00106153627783
0.00109388001561
0.00113407605803
0.00117107683076
0.00119024634915
0.00117047724762
0.00108466607616
0.000893153177692
0.000518516705956
0.000605643336566
0.00108472489805
0.0013404390199
0.00146355382764
0.00150171703335
0.00148790040695
0.00144715162664
0.00139622451785
0.00135061652052
0.00132419662141
0.00132410188479
0.00135038317469
0.00139588159881
0.00144677131303
0.00148751982837
0.00150138185295
0.00146330049775
0.00134028744851
0.0010846682299
0.000605637507566
0.000653548904041
0.00117058479103
0.00146349948487
0.00161899317634
0.00168443475731
0.00169320331741
0.00167551307284
0.001634616039
0.00158890881871
0.00155865691439
0.00155854664905
0.00158864820783
0.00163427767657
0.00167519363205
0.00169282953069
0.00168408435747
0.00161870653844
0.00146330623452
0.00117048911602
0.000653519593735
0.000671395921246
0.00119043512168
0.00150164243666
0.00168440541031
0.00178266316403
0.00182970047693
0.0018261261965
0.0017925366155
0.0017499022862
0.00171998712076
0.00171986618498
0.00174961784299
0.00179216871639
0.0018257493509
0.00182933013926
0.00178234571468
0.00168410067632
0.00150140695165
0.00119028588694
0.000671327537627
0.000669859656175
0.00117138178586
0.00148785929
0.00169319136232
0.00182972272078
0.00189432735391
0.00190486224196
0.00187934923907
0.00184005969305
0.00181075233015
0.00181062424029
0.00183975751751
0.00187895975113
0.00190446243633
0.00189395119735
0.00182938038559
0.00169288470961
0.00148759003408
0.00117117667461
0.000669740434377
0.000659872609381
0.00113450664896
0.00144718938213
0.00167554882315
0.00182622361951
0.00190495535665
0.00192601187677
0.00190549000902
0.00186727750941
0.00183859145061
0.00183846630866
0.00186698105571
0.00190509445341
0.00192561090157
0.0019045884812
0.00182590006145
0.00167530059389
0.00144691295177
0.00113426647055
0.000659704740643
0.000650708046654
0.00109440133333
0.00139636413348
0.00163478139015
0.0017927710472
0.00187960798764
0.00190567671084
0.00188731310467
0.00185033643119
0.0018207542447
0.0018206402165
0.00185007207714
0.00188697272254
0.00190531874089
0.00187928717666
0.00179248461113
0.00163453238917
0.00139611558096
0.00109417409044
0.000650534805936
0.000647990578673
0.00106205018334
0.00135079981843
0.00158915842412
0.00175025270559
0.00184048041085
0.00186763855267
0.00185053998266
0.00181215517787
0.00177987965781
0.00177978985858
0.00181195926357
0.00185030682124
0.00186741602833
0.00184028656438
0.00175008158962
0.00158900489025
0.00135065906202
0.00106190920683
0.000647894443524
0.000649613875185
0.00104399134235
0.00132434900983
0.00155889551112
0.00172034279597
0.0018112097821
0.00183901582368
0.00182106181374
0.00178002634845
0.00174490471938
0.0017448569921
0.00177994244476
0.0018209943719
0.00183899376954
0.00181122836908
0.00172036855664
0.00155891561647
0.00132436415472
0.00104401261161
0.000649676388076
0.000649414344512
0.00104378453898
0.00132416407458
0.00155867309031
0.00172008285052
0.00181093189251
0.00183877280759
0.00182089295439
0.00177996270005
0.00174494585457
0.00174495273316
0.00178001396057
0.00182101530906
0.00183897218397
0.00181118409255
0.00172033029858
0.00155889414409
0.00132435317444
0.00104399349333
0.000649650534272
0.000647522860832
0.00106156289664
0.00135035458107
0.00158864683083
0.00174965960169
0.00183985257609
0.00186709687504
0.0018501853524
0.00181206385032
0.00178003869544
0.00178007447835
0.00181218165694
0.00185039427697
0.00186738743941
0.0018401927669
0.00174999444016
0.00158895404429
0.00135062707493
0.00106185578539
0.000647822473567
0.000650155827922
0.00109379750905
0.00139576488967
0.00163416248662
0.00179206058905
0.00187887040024
0.00190502833367
0.00188692757223
0.00185029999114
0.00182103674733
0.00182108231215
0.00185043187191
0.00188713851264
0.00190530262366
0.00187918048923
0.0017923682351
0.00163445371572
0.00139603875931
0.00109407606118
0.000650416914064
0.000659370145438
0.00113389891023
0.00144656529714
0.00167498862827
0.00182554485746
0.00190426625152
0.00192543270069
0.00190516974477
0.00186732927056
0.00183898807659
0.00183903473474
0.00186745359753
0.00190534415371
0.00192564670542
0.001904499663
0.00182577468045
0.00167521144665
0.00144677672751
0.00113410672541
0.000659537103886
0.00066945066496
0.00117082236782
0.00148724008124
0.00169256191686
0.00182908463775
0.00189372779366
0.00190439627938
0.00187913690145
0.00184020565373
0.00181124673857
0.00181129250101
0.00184031991668
0.00187928692489
0.00190456198087
0.00189389443278
0.00182924316344
0.00169270849623
0.0014873753392
0.00117094468678
0.000669522610427
0.00067105663343
0.00118993267865
0.00150104769669
0.0016837806326
0.00178210329605
0.00182918347081
0.00182576323997
0.00179241086351
0.00175009522605
0.00172049201677
0.00172054031132
0.00175021179588
0.00179255227944
0.00182590662558
0.00182930971662
0.00178222458396
0.00168386584622
0.00150111663043
0.00118998113248
0.000671058143573
0.000653245405047
0.00117012683904
0.00146293528043
0.00161839103995
0.00168386574357
0.00169273936561
0.00167525600749
0.00163456332278
0.00158913754885
0.00155915928519
0.00155920828716
0.0015892542501
0.00163470200516
0.00167540213245
0.00169283277784
0.00168392440167
0.00161842669617
0.00146295258065
0.00117012165518
0.000653203669172
0.000605354127243
0.00108430149959
0.00133992166202
0.00146300842277
0.00150119964801
0.00148747321031
0.00144688332418
0.00139617131857
0.00135081235296
0.00132461107118
0.00132465534605
0.0013509159899
0.00139628127646
0.001446968416
0.00148751729069
0.00150120883273
0.00146299583132
0.00133989242164
0.00108425342807
0.000605285933792
0.000518240722767
0.00089282375629
0.00108435478497
0.001170244951
0.00119011444618
0.00117105982304
0.00113418663367
0.00109412889783
0.00106190904771
0.00104407406851
0.00104410567404
0.0010619745257
0.00109418367815
0.00113420492802
0.00117103780366
0.00119006441496
0.00117018218016
0.0010842845181
0.000892742028797
0.000518156181911
0.000391153243543
0.000518281776308
0.000605433262873
0.000653354191469
0.000671188047462
0.000669592283958
0.000659513994057
0.000650291395259
0.000647619047881
0.000649410472497
0.000649422185608
0.000647622626702
0.000650252094171
0.000659427328796
0.000669475755644
0.000671063006821
0.000653238852774
0.000605332629375
0.00051819314531
0.000391072117317
0.000529949103883
0.000730533079726
0.000868834402806
0.000947671651867
0.000986540490223
0.0010037188732
0.00101950428805
0.00104860130646
0.00108811029933
0.00111761244966
0.00111752731469
0.00108785880602
0.00104819586606
0.0010190220603
0.00100326680114
0.000986203445737
0.000947467357867
0.0008687353366
0.000730490984988
0.000529916724236
0.000730563554121
0.00123997409834
0.0014976652283
0.00160444117866
0.00161984812051
0.00158453304099
0.00153258961588
0.00148904216886
0.00146527355636
0.00145691080127
0.00145676648542
0.00146488555474
0.00148845977742
0.0015319079048
0.00158387508233
0.0016193103429
0.00160406920047
0.00149745816696
0.0012398997318
0.000730533342325
0.000868862014915
0.00149760088256
0.00182646448406
0.0019696255969
0.00199925964657
0.00196306751518
0.00189632378414
0.00182680497025
0.00177897785972
0.0017519029487
0.00175176789924
0.00177863736998
0.00182630563632
0.00189568221476
0.00196242779689
0.00199869816131
0.00196920849068
0.00182621971235
0.00149750720853
0.000868825724883
0.00094768250929
0.00160433304467
0.00196955030256
0.00215324543509
0.00222646356789
0.00223682440426
0.00220600894036
0.0021509726131
0.00209758773281
0.00206388063152
0.00206374799894
0.0020972614556
0.00215051739144
0.00220550343128
0.00223635861205
0.00222596503277
0.0021528273657
0.00196926909404
0.00160419293272
0.000947629458103
0.000986575297397
0.00161975807838
0.00199916446413
0.00222642109244
0.00236761584003
0.00243037830935
0.00243400970856
0.00239986206599
0.002353632761
0.00232052012497
0.0023203897168
0.00235331402163
0.00239943377849
0.00243355521528
0.00242995613322
0.00236722102902
0.00222602619346
0.00199883264655
0.00161953803552
0.000986479600998
0.00100388342698
0.00158457301659
0.00196304331202
0.00223680526664
0.0024303952974
0.0025368158438
0.00257237956537
0.00255805213231
0.00252043397813
0.00248948112443
0.00248935545719
0.00252012370107
0.00255763255838
0.00257193446754
0.00253641360208
0.00243004300571
0.00223648709668
0.00196266076305
0.00158425217125
0.00100372189347
0.00101993183217
0.00153287184484
0.00189645904775
0.00220610179895
0.00243412449111
0.0025724859138
0.00263238689554
0.00263172692203
0.00259793539029
0.00256683344586
0.00256671534668
0.00259763383862
0.00263131221434
0.00263193917587
0.00257208463141
0.00243378346136
0.00220576289828
0.0018960443306
0.00153247853027
0.00101971901284
0.00104927643883
0.00148957977723
0.00182709559316
0.00215121436418
0.00240013466711
0.00255834650607
0.00263194154394
0.00263591155493
0.00260090416142
0.00256744486989
0.0025673418152
0.00260063552973
0.00263553011394
0.00263152595074
0.00255797768334
0.00239983282719
0.00215091445994
0.00182676010878
0.00148921922318
0.00104913452352
0.00108884500721
0.00146593467582
0.00177937671534
0.0020979389103
0.00235404700788
0.00252091645912
0.00259838983029
0.00260116887334
0.00256208577537
0.00252479358147
0.00252471909888
0.00256189159921
0.00260089136449
0.00259808725966
0.00252066433055
0.00235386025119
0.00209775783748
0.00177917298572
0.00146574454327
0.00108892453737
0.00111820198599
0.00145750887253
0.00175228252209
0.00206423388834
0.0023209604897
0.00249002788746
0.0025673880453
0.00256785939429
0.00252498885352
0.00248450611208
0.00248447762003
0.00252491565339
0.00256775610657
0.00256728827068
0.00248998279137
0.0023209756842
0.00206425029973
0.00175228861762
0.00145758351617
0.00111857119967
0.00111788063949
0.00145715738077
0.00175199272281
0.00206396033628
0.00232068017927
0.0024897486027
0.00256714514421
0.00256770040619
0.00252494860353
0.00248457873564
0.0024846042145
0.00252501281765
0.00256778983522
0.002567267227
0.00248993502017
0.00232092541436
0.00206420577812
0.00175223720724
0.00145750125944
0.00111849227665
0.00108798602895
0.0014650290152
0.0017786641741
0.00209728230213
0.00235338535453
0.00252026696134
0.0025978262796
0.00260081455332
0.00256203151611
0.00252501800015
0.00252507107112
0.00256216468481
0.00260099809184
0.00259805157028
0.00252055663427
0.00235373547562
0.00209763861998
0.00177902970832
0.00146551331643
0.00108870005825
0.0010481231115
0.00148836458472
0.00182614052172
0.00215035726458
0.00239930795508
0.00255755638235
0.0026312781136
0.0026355157558
0.00260089957446
0.00256779999304
0.00256785791687
0.00260104270056
0.00263570845366
0.00263150976635
0.00255784702326
0.00239965517765
0.002150714349
0.00182650716318
0.00148884491739
0.00104877865376
0.00101878134721
0.00153159104593
0.00189532886369
0.00220517905393
0.00243327883832
0.00257171389216
0.00263176763922
0.00263139640753
0.00259801395919
0.0025672957938
0.00256734923863
0.00259814548986
0.00263157295636
0.0026319763147
0.00257196976621
0.00243357211779
0.00220547343863
0.0018956252091
0.00153196270872
0.00101925796835
0.00100291013792
0.00158336789957
0.00196188902989
0.0022358888985
0.00242956749812
0.00253611368377
0.00257186197633
0.00255782775435
0.00252060515945
0.00249003612577
0.00249008982006
0.00252073785206
0.00255800010525
0.00257205872129
0.00253633688666
0.00242980156648
0.00223611266106
0.00196208674874
0.0015836032967
0.00100318899336
0.000985770703883
0.00161865083562
0.00199799118039
0.00222534035217
0.00236673893916
0.00242970237137
0.00243356684712
0.00239973338639
0.00235389344056
0.00232114841299
0.00232120676357
0.00235403560464
0.0023999126053
0.00243375720102
0.00242989591667
0.00236691303011
0.00222547043508
0.00199810585735
0.00161877568458
0.000985895192144
0.000946997207778
0.0016033045023
0.00196837514703
0.00215208825203
0.00222546272038
0.0022361227843
0.00220556110511
0.00215086794932
0.00209786858268
0.00206451243491
0.00206457384779
0.00209801566603
0.0021510419806
0.00220572583934
0.002236277692
0.00222555063879
0.00215215089637
0.00196842766739
0.00160335107272
0.000947016485441
0.000868260115967
0.00149665372291
0.00182533744727
0.00196848232687
0.00199821476136
0.00196222256245
0.00189576328848
0.0018266270068
0.00177916818832
0.00175241360547
0.00175246705836
0.00177929040515
0.00182675565917
0.00189583730555
0.00196225122313
0.00199821446135
0.00196847732016
0.0018253328046
0.0014966382102
0.000868210376919
0.00073006768087
0.00123917225957
0.00149670872477
0.00160345503547
0.0016189018255
0.00158369422142
0.00153195119307
0.0014886946553
0.00146523946294
0.00145714400453
0.00145716953309
0.00146528244541
0.00148870475572
0.00153190351584
0.00158360501677
0.00161880632293
0.00160337913401
0.00149664809067
0.00123910497469
0.000729971342477
0.000529582363754
0.000730051078585
0.000868294486362
0.000947096041924
0.000985921412003
0.00100307754905
0.00101891381874
0.00104815605293
0.00108784342048
0.00111749090305
0.00111749756763
0.00108782399389
0.00104806391791
0.00101874229428
0.00100286671609
0.000985715361085
0.000946920126781
0.000868150622122
0.000729930009841
0.000529468219818
0.000683068329036
0.000988083492681
0.00120506105414
0.00134308026036
0.00143703105915
0.00151355703559
0.00159690511167
0.00169072937198
0.00177660793507
0.00182879264687
0.00182871903322
0.00177640647597
0.00169038730285
0.00159644060787
0.00151305798361
0.00143664622077
0.00134286818531
0.00120498245823
0.00098807099252
0.000683024125274
0.000988205332502
0.00168962500944
0.00204313817291
0.00219044307726
0.0022154860046
0.00217954605545
0.00213593623271
0.00211916554354
0.00212919133082
0.00214340341907
0.00214320936677
0.00212863863644
0.00211829394669
0.00213485127065
0.00217848976889
0.00221464708806
0.0021898963084
0.00204286194036
0.00168954534063
0.000988130517529
0.00120519461265
0.00204307142375
0.00245920989042
0.0026200367275
0.00262858796243
0.00255511777128
0.00245112001734
0.00236753823705
0.00231392927787
0.0022887646874
0.00228855599152
0.00231336806565
0.00236669391754
0.00245000478684
0.00255402311742
0.00262768341638
0.00261941537686
0.00245889109462
0.00204299947229
0.00120514073953
0.00134321834772
0.00219034933244
0.00261997261964
0.00280174562066
0.00284700776101
0.00283054603877
0.0027639003604
0.00268334623689
0.00261442801445
0.0025741305244
0.00257394717312
0.00261394523025
0.00268263492424
0.00276303913888
0.00282969819091
0.00284622762482
0.00280113436856
0.00261960493536
0.00219023688862
0.00134319947022
0.00143722729741
0.00221548000456
0.00262854484091
0.00284699187813
0.00297903429538
0.00302842627071
0.003016050622
0.00296620744473
0.00290668189716
0.00286599861408
0.00286585782915
0.00290630174115
0.00296563787234
0.00301536478445
0.00302774280766
0.00297841333914
0.00284641620727
0.00262808763788
0.00221525372045
0.00143723736648
0.00151393892876
0.00217980729018
0.00255524236662
0.00283062061127
0.00302848837703
0.00314344017937
0.00318330383658
0.00316503220387
0.00311856305744
0.0030810400232
0.00308094240438
0.00311827305665
0.00316456135359
0.00318269942113
0.00314281608811
0.00302792226924
0.0028300827019
0.00255466386898
0.00217941818646
0.00151397040689
0.00159755260811
0.00213661227343
0.00245155108584
0.0027641770936
0.00301627722518
0.00318346894903
0.00326206724097
0.00326510536277
0.00322579788584
0.00318907865949
0.00318901590702
0.00322557070861
0.00326468860279
0.00326148714213
0.00318283685555
0.00301569280813
0.00276361432559
0.00245088405175
0.00213611384789
0.00159767150575
0.00169148560399
0.00212020588789
0.00236825716591
0.00268386420271
0.00296665925955
0.00316543826789
0.0032653689371
0.00327703115218
0.00323751439667
0.00319855494044
0.00319851835154
0.00323734272262
0.00327666814564
0.00326482379787
0.00316482206761
0.00296608662837
0.00268333875449
0.00236770632189
0.00211979403694
0.00169187069468
0.00177726628483
0.0021303407856
0.00231483525401
0.00261512686148
0.00290732159087
0.00311919226
0.00322632902688
0.00323780520319
0.00319360013351
0.00315063832744
0.00315063117977
0.00319350220251
0.00323754458036
0.00322588931099
0.00311867700978
0.00290685497679
0.00261472852963
0.00231445878233
0.00213020386496
0.00177801328069
0.00182923189332
0.00214439615805
0.00228961444181
0.00257482980643
0.00286667621077
0.00308174461016
0.00318973292186
0.00319902142009
0.00315085038526
0.00310492455749
0.00310495899861
0.00315086009506
0.00319891222373
0.0031894731679
0.00308142289021
0.00286642416065
0.00257467739693
0.00228953985904
0.00214463233167
0.00183031630629
0.00182891563823
0.00214389367495
0.00228914684967
0.00257443485322
0.00286634263602
0.0030814697967
0.00318953532724
0.00319892054398
0.00315086449416
0.00310504180804
0.00310512150948
0.003150990582
0.00319897239723
0.00318946489813
0.00308137091443
0.00286634514585
0.00257457292161
0.00228940482635
0.00214447695905
0.0018302171674
0.00177636618229
0.00212895998629
0.00231361396732
0.00261412111283
0.00290648052245
0.00311849552878
0.00322581373405
0.00323753764057
0.00319363160162
0.00315093182165
0.00315103202313
0.00319381355342
0.00323767441737
0.00322584916927
0.0031185243185
0.00290662849324
0.00261442939053
0.00231407245435
0.00212975430361
0.0017777405672
0.00169014122983
0.0021182440312
0.00236657764653
0.00268249034319
0.00296552217359
0.00316450018182
0.00326466708089
0.00327665721001
0.00323754803259
0.00319893943578
0.00319903433506
0.00323772738335
0.00327680808266
0.00326474505507
0.00316458596075
0.00296572399749
0.00268284426961
0.00236707168497
0.002119061807
0.00169142007511
0.00159600407155
0.00213442826651
0.00244952619305
0.00276258346538
0.00301499263474
0.00318242689087
0.00326128730236
0.00326468016386
0.00322581711041
0.00318948304033
0.00318956003049
0.00322596762215
0.00326482537604
0.00326139670754
0.00318255544424
0.00301521385701
0.00276291640869
0.00244994835711
0.00213512470273
0.00159705049119
0.00151247565528
0.00217772358349
0.00255317878993
0.00282892819437
0.00302712268364
0.00314236396325
0.0031825149025
0.00316460785091
0.00311858026802
0.00308145525341
0.00308152506081
0.00311872489458
0.00316476188401
0.00318265691341
0.00314252627929
0.00302735315806
0.00282921278619
0.00255350733822
0.0021782389625
0.00151321787358
0.00143596204119
0.00221360631445
0.00262651457568
0.00284514615019
0.00297753187185
0.0030272718504
0.00301524517359
0.00296582026149
0.00290676837237
0.00286651376529
0.00286657990416
0.0029069134139
0.00296598021897
0.0030153950833
0.0030274403925
0.00297773685139
0.00284535618758
0.00262677015359
0.00221396214177
0.00143642398882
0.00134215404775
0.00218867162323
0.00261800229598
0.00279978531896
0.0028452866208
0.00282921334878
0.00276299072957
0.00268294774028
0.00261455515962
0.00257471225463
0.00257477130894
0.00261468654755
0.00268308476366
0.00276309956774
0.00282932459175
0.0028454016574
0.00279993450466
0.0026182006141
0.00218889956378
0.00134238645606
0.00120430815338
0.00204156556916
0.00245737124941
0.0026181055502
0.00262675455758
0.00255354211777
0.00244995892766
0.00236697121859
0.00231389021069
0.00228915791502
0.00228919876263
0.00231397229507
0.00236703180037
0.00244994047218
0.0025535067077
0.00262676006321
0.002618182913
0.00245750202147
0.00204168877078
0.00120437373785
0.000987515478597
0.00168835570375
0.00204159730366
0.00218880031138
0.00221385544175
0.0021780445488
0.00213472053578
0.00211837617237
0.00212881667734
0.00214335781853
0.00214336490471
0.00212880627197
0.00211830116093
0.0021345699862
0.00217787659124
0.00221374290722
0.00218877515692
0.00204163127774
0.00168838475463
0.000987467947698
0.00068263517894
0.000987373589106
0.00120423604461
0.00134218047591
0.00143607442751
0.00151261890444
0.00159610944391
0.00169015992826
0.00177625203831
0.00182859660232
0.00182860841603
0.00177625653123
0.00169010637601
0.00159596920931
0.00151242758302
0.0014358889558
0.00134202975082
0.00120412266053
0.000987281693763
0.000682528493912
0.000850838476764
0.00129950524445
0.00163168375628
0.00186870870231
0.00205630883173
0.00221945242923
0.00237463733636
0.0025188792595
0.00263461067653
0.00270079249877
0.00270077578604
0.00263455073055
0.0025187553763
0.00237443376914
0.00221923143437
0.00205616510777
0.00186872110179
0.00163177619563
0.00129962986232
0.000850812768556
0.00129979318987
0.00227864742916
0.00278383952059
0.00302632820008
0.00311416700939
0.00312505444484
0.00312477182507
0.00315036997854
0.00319307196799
0.00322467231975
0.00322447124012
0.00319247455291
0.00314940492304
0.00312355305304
0.00312387795778
0.00311330014833
0.00302585228643
0.00278369097204
0.00227866988352
0.00129968734973
0.00163198291391
0.00278383769233
0.00332525468927
0.00352472517509
0.00352395613497
0.00342137764191
0.00329076093842
0.00319404102939
0.00313548812698
0.00310927144549
0.00310899540265
0.00313471153765
0.0031928284135
0.0032892037463
0.00341990290848
0.00352286522041
0.0035241171666
0.00332509482183
0.00278394009851
0.00163199904713
0.00186905203347
0.00302635884024
0.00352470810617
0.00368466267524
0.00367948394199
0.00360959934165
0.00349686183349
0.00338069311029
0.00328682200721
0.00323376473959
0.0032335405862
0.00328618598498
0.00337969775217
0.00349561763387
0.00360838465585
0.00367859509089
0.00368401398595
0.00352448626245
0.00302648968472
0.0018692376991
0.00205667364394
0.00311436467637
0.00352402960445
0.00367953201942
0.00375068854856
0.00375268583319
0.00369951274911
0.00361212732607
0.00352216900712
0.00346464853496
0.00346453278883
0.00352178916226
0.00361146670146