/*--------------------------------*- C++ -*----------------------------------*\
| =========                 |                                                 |
| \\      /  F ield         | OpenFOAM: The Open Source CFD Toolbox           |
|  \\    /   O peration     | Version:  3.0.1                                 |
|   \\  /    A nd           | Web:      www.OpenFOAM.org                      |
|    \\/     M anipulation  |                                                 |
\*---------------------------------------------------------------------------*/
FoamFile
{
    version     2.0;
    format      ascii;
    class       volScalarField;
    location    "4.3";
    object      alpha.air;
}
// * * * * * * * * * * * * * * * * * * * * * * * * * * * * * * * * * * * * * //

dimensions      [0 0 0 0 0 0 0];

internalField   nonuniform List<scalar> 
7968
(
3.23998356141e-20
2.31279945873e-19
7.17697324896e-19
5.76387023902e-19
5.52717268985e-19
1.78275133197e-19
6.01513530777e-20
3.35362990379e-21
4.01796981348e-23
2.38721826798e-25
6.77773473764e-25
9.78636926438e-23
7.30506609032e-21
4.49279105385e-20
1.35726008369e-19
4.81957201973e-19
6.68679206657e-19
5.59825047927e-19
3.05114652182e-19
5.00075669001e-20
2.6683254182e-19
1.47606697002e-18
2.44852342569e-18
1.8562583998e-18
1.43966907064e-18
1.08221207094e-18
2.86365828969e-19
4.28933013831e-20
6.411164976e-21
1.71768515619e-21
1.87385966945e-21
6.48508243917e-21
3.3131463074e-20
1.57711913634e-19
6.03918835452e-19
1.14664836176e-18
8.9963664061e-19
1.91837973571e-18
4.82754614717e-19
3.33557500409e-19
5.39623850271e-19
2.56512760288e-18
5.38247298676e-18
2.9297658499e-18
1.24408080579e-18
2.25025227665e-19
2.70465805212e-20
2.51987037105e-21
2.55380882164e-22
5.40884111937e-23
6.23224316736e-23
2.77394932491e-22
1.93752707272e-21
1.32886122785e-20
8.7223894748e-20
4.54313346667e-19
1.4083132603e-18
1.4206177608e-18
2.1457033488e-18
4.59879649881e-19
1.10835444434e-18
2.84196247722e-18
1.9682214989e-18
1.17939842372e-18
1.76194907301e-19
1.54728297652e-20
1.06861631355e-21
6.61848027518e-23
5.54960395022e-24
1.04780375023e-24
1.1923736847e-24
5.52255656199e-24
4.74622365073e-23
4.71367753582e-22
5.08036805927e-21
5.03283331515e-20
3.702323812e-19
1.11726750862e-18
1.33176765972e-18
7.06604499324e-19
6.00470558747e-19
2.22838953509e-18
1.68624110771e-18
2.26803301859e-19
1.51730863363e-20
7.356440259e-22
3.65878868811e-23
1.91345999446e-24
1.35824888117e-25
2.26787190083e-26
2.52177596417e-26
1.20543931332e-25
1.07241889208e-24
1.22148712832e-23
2.01786581209e-22
3.66140123663e-21
5.43336690603e-20
4.95039854455e-19
1.42019688868e-18
3.56646282442e-19
4.09792840825e-19
8.443376137e-19
3.97536662684e-19
2.8177971501e-20
1.11296501305e-21
4.03683080746e-23
1.49882862476e-24
5.88431402404e-26
3.23568607629e-27
4.66449952757e-28
5.04104162595e-28
2.48902176489e-27
2.40143009534e-26
3.51261557067e-25
7.95789022408e-24
2.23021092323e-22
5.76920562885e-21
9.49038458996e-20
5.92992624481e-19
1.45912028702e-19
1.19332624605e-19
3.47521365724e-19
5.72379037706e-20
2.5765791472e-21
8.43277363306e-23
2.65864397306e-24
7.57069274274e-26
1.99988389737e-27
7.01583311639e-29
8.05232358529e-30
8.43094283008e-30
4.38463553576e-29
5.20759836585e-28
1.17989507405e-26
3.84658748475e-25
1.35388599763e-23
4.99575048574e-22
1.28243388512e-20
1.30645011491e-19
1.74800270533e-20
1.32935488869e-20
9.7874068423e-20
7.29871616661e-21
2.19468682956e-22
6.55006549356e-24
1.85646765128e-25
4.43145889963e-27
8.30383477844e-29
1.49660414363e-30
1.04951115803e-31
1.05190179584e-31
6.30213798597e-31
1.2962864134e-29
5.25035725779e-28
2.28959875565e-26
9.37157472462e-25
3.7608100252e-23
1.35959710855e-21
1.95557144213e-20
6.64267855175e-22
2.95894138723e-22
2.83902372242e-20
1.33476115056e-21
3.22160332932e-23
8.58882446136e-25
2.13240839391e-26
4.31178156398e-28
6.25245341728e-30
5.81973927059e-32
1.03370620752e-33
8.75538063708e-34
8.84870311232e-33
4.4633248468e-31
2.61558817847e-29
1.31300665117e-27
5.84462364397e-26
2.50851378362e-24
1.17263507995e-22
2.38897740191e-21
1.21286812119e-23
5.25302412351e-24
9.82987941341e-21
3.64870052323e-22
8.11355446875e-24
1.99936340306e-25
4.58171389985e-27
8.48603883624e-29
1.10435621027e-30
8.30129635041e-33
2.67247049411e-35
5.87324229119e-36
3.814633978e-34
3.5819599093e-32
2.51256421458e-30
1.42255785474e-28
7.08936284985e-27
3.41086170176e-25
1.78964898926e-23
4.83133588891e-22
9.83293655958e-26
1.1344672807e-24
7.85619013438e-21
2.78785911046e-22
5.925908308e-24
1.39585655946e-25
3.06344396959e-27
5.44759380786e-29
6.82065917815e-31
4.94866966104e-33
1.714957997e-35
7.60712143256e-36
4.25851015545e-34
3.91311454079e-32
2.77287474911e-30
1.59166870004e-28
8.05294239306e-27
3.93401722231e-25
2.09008111789e-23
5.62077492785e-22
1.14063116976e-26
9.01698286475e-23
1.74656643234e-20
7.34404684527e-22
1.57712487611e-23
3.71181508699e-25
8.10978590114e-27
1.44459297595e-28
1.86993136707e-30
1.76232784815e-32
8.36125547016e-34
1.21757327896e-33
1.05675894637e-32
3.47464238255e-31
2.04123091698e-29
1.10879691322e-27
5.37688200434e-26
2.50831622259e-24
1.27405994382e-22
2.68439667983e-21
2.72168465502e-24
7.88404610374e-21
7.35170335762e-20
4.09519878804e-21
9.62012061891e-23
2.24670871952e-24
5.01593132282e-26
9.92948799168e-28
1.90063913385e-29
5.69694948216e-31
8.89818683976e-32
1.37451774654e-31
8.90704804654e-31
9.37223839964e-30
2.42470405275e-28
1.0310713839e-26
4.57521304301e-25
2.0119663706e-23
7.92168078675e-22
1.147196932e-20
2.04780438875e-22
7.41661395602e-20
3.27946824305e-19
2.56283974889e-20
8.09927870882e-22
2.01870446988e-23
5.26430785842e-25
1.55066564574e-26
6.08590493956e-28
3.44874707127e-29
6.7530264874e-30
1.0502089691e-29
6.56094803989e-29
5.15687803164e-28
6.19574895201e-27
1.44566800681e-25
4.95876575273e-24
1.96391308372e-22
5.34413188646e-21
5.4871861542e-20
4.06640833022e-21
1.85405233678e-19
9.00042256398e-19
1.29876589847e-19
6.73209337676e-21
2.32996251154e-22
8.6835630943e-24
4.31589417762e-25
2.568722064e-26
1.79950165826e-27
3.96581484203e-28
6.17994311247e-28
3.80142004421e-27
2.782651131e-26
2.50269910948e-25
3.49586799278e-24
7.96787683955e-23
1.87719668009e-21
2.64978286767e-20
1.06115052261e-19
2.01001095024e-20
4.49322090878e-19
1.15651525726e-18
5.55341233202e-19
5.89363887338e-20
3.95060174761e-21
2.17408512903e-22
1.47155654272e-23
1.03737338021e-24
8.14134299302e-26
1.99317739224e-26
3.10597605013e-26
1.87176535283e-25
1.3363374491e-24
1.07003102631e-23
1.12265650037e-22
1.51195782367e-21
1.9038707419e-20
1.67436783463e-19
4.03134528743e-19
8.94224256106e-20
8.21589433236e-19
2.71643958973e-18
1.01005107304e-18
3.94902077232e-19
6.22155397078e-20
5.81834818079e-21
5.32091732055e-22
4.09377975734e-23
3.50994693153e-24
9.52732889478e-25
1.4807409171e-24
8.62377846786e-24
6.12514290498e-23
4.66104095533e-22
3.08749722149e-21
2.23029713289e-20
1.28879757214e-19
2.28844783008e-19
3.26799104979e-19
9.73521721718e-20
5.57745372025e-19
2.6300722761e-18
3.11997748338e-18
1.19666602795e-18
6.10604597588e-19
9.40396618176e-20
1.49732261092e-20
1.62701761313e-21
1.65902358056e-22
4.98705620327e-23
7.68344331414e-23
4.24706356187e-22
2.29975537592e-21
1.26280396589e-20
4.69658540453e-20
2.05351301247e-19
2.69259742503e-19
6.23056426582e-19
1.85981895919e-19
4.35136205062e-20
2.95688309772e-19
1.61184587041e-18
9.46657767535e-19
2.81242619612e-18
1.60855318906e-18
3.38217835819e-19
1.56823199598e-19
2.64253840012e-20
3.72759515111e-21
1.37862917407e-21
1.90980896011e-21
8.20949954868e-21
3.16391572583e-20
1.26642307005e-19
1.95663779717e-19
5.35882428154e-19
5.44574527772e-19
1.90061083267e-19
9.79779042144e-20
6.20336472038e-20
4.86693543045e-20
3.0521118689e-19
5.70772495872e-19
8.16635956858e-19
4.04354316004e-19
1.76384198211e-19
2.48183505403e-20
9.44118455091e-22
1.66245859698e-23
1.1431011819e-25
5.22108712956e-25
6.72718667175e-23
2.19499863288e-21
2.47418007288e-20
6.78285421944e-20
1.51519158943e-19
1.59769689817e-19
5.11203618681e-20
6.35644302295e-20
9.41486167438e-21
6.08933983259e-18
3.65891665109e-17
1.11250561138e-16
1.02254367097e-16
1.15731925448e-16
5.62481233415e-17
3.94646597822e-17
1.39750690235e-17
4.28183816999e-18
1.72986856266e-18
1.50509401249e-18
3.52909193496e-18
1.22656573586e-17
2.52357026332e-17
4.22139579027e-17
1.08626220534e-16
1.22931724029e-16
9.21675527148e-17
4.73795824502e-17
9.58691308612e-18
4.39025781044e-17
1.27360088432e-16
1.67083667504e-16
1.35305133422e-16
1.13589439738e-16
1.02839615242e-16
3.39280567637e-17
6.63220955376e-18
1.3597917233e-18
4.61613955076e-19
4.79132072806e-19
1.33211666959e-18
5.28228011539e-18
1.99310848332e-17
6.28014189126e-17
9.80943527543e-17
7.11625605816e-17
1.47791069803e-16
4.33358314832e-17
5.32800563427e-17
8.42878254224e-17
1.78558233427e-16
3.30807604086e-16
1.8612944499e-16
8.82231125396e-17
1.93755389671e-17
2.99118661643e-18
3.71021772819e-19
5.21756007146e-20
1.40745797051e-20
1.57161708918e-20
5.62529440816e-20
3.03116412054e-19
1.60889285121e-18
8.43698827689e-18
3.60238684511e-17
9.83459830374e-17
9.88155673117e-17
1.67934080899e-16
7.16764221253e-17
1.84769769045e-16
2.17831600623e-16
1.15217842518e-16
7.84197124609e-17
1.35422836938e-17
1.39075131321e-18
1.18198957965e-19
1.10024037882e-20
1.37046644105e-21
3.35369778083e-22
3.72983713015e-22
1.36986374551e-21
7.65448863231e-21
5.94987784559e-20
5.20626626653e-19
4.3407245928e-18
2.82892483313e-17
8.08100066614e-17
1.12421681078e-16
1.31760885287e-16
1.22290648829e-16
1.64118837787e-16
1.13341272063e-16
1.70154819026e-17
1.24850733774e-18
6.76555223056e-20
4.24047378616e-21
3.2914855626e-22
3.59945991595e-23
8.0436148654e-24
8.77270344103e-24
3.26080936162e-23
1.89166604317e-22
1.65179130683e-21
2.11493021886e-20
3.48008819101e-19
4.72118251049e-18
4.0094191955e-17
1.27363125138e-16
8.4550779563e-17
1.17129164705e-16
7.20052787109e-17
3.06094553568e-17
2.3983517412e-18
1.00252718289e-19
4.06538227815e-21
1.72447451539e-22
9.50010246633e-24
8.55937167541e-25
1.74411207402e-25
1.85010504273e-25
6.93367419169e-25
4.29981820197e-24
4.75514518913e-23
9.1442318062e-22
2.34655673719e-20
5.89777397291e-19
9.10359577842e-18
6.18918488765e-17
5.39851538213e-17
6.20551082391e-17
3.74384676037e-17
5.45029307006e-18
2.56161757286e-19
9.31492787897e-21
3.0780901424e-22
9.06436416247e-24
2.89316167509e-25
1.74238583782e-26
3.14465961716e-27
3.21252867475e-27
1.21883644176e-26
9.06147597723e-26
1.67166400116e-24
5.28155203079e-23
1.82628796455e-21
6.16299128398e-20
1.51407668539e-18
1.64168051252e-17
1.36711713508e-17
2.56238557764e-17
1.30264629342e-17
9.08456835194e-19
3.04250400068e-20
9.95258459144e-22
2.86079701601e-23
6.66839851714e-25
1.27291601266e-26
3.60031654424e-28
1.44320678315e-28
9.66301702072e-29
1.70237845192e-28
2.30619280353e-27
9.05435611235e-26
4.0215514904e-24
1.61637767234e-22
5.91773665679e-21
2.06556603362e-19
3.1319195613e-18
3.43791991706e-18
9.66085919983e-18
4.74280472942e-18
2.19184448534e-19
6.52223762146e-21
1.90702809883e-22
4.86672391188e-24
9.78332060887e-26
1.45034282301e-27
2.00556124203e-29
9.76766357225e-30
5.22041673483e-30
2.48883866802e-30
1.12389480055e-28
6.8627942309e-27
3.51360795367e-25
1.54690018287e-23
6.19308619442e-22
2.38633304979e-20
5.26006765108e-19
1.12338812612e-18
5.36809439409e-18
2.02659048206e-18
7.44860428805e-20
2.05205649876e-21
5.61492531999e-23
1.34911293248e-24
2.55239038441e-26
3.99802318702e-28
7.59474619341e-30
2.71527029283e-31
1.20424888802e-31
5.27142829083e-31
1.68338614588e-29
1.00682925083e-27
5.59303489171e-26
2.66147634389e-24
1.15247824431e-22
4.78687245037e-21
1.4098682475e-19
3.9666419862e-19
4.84829971926e-18
1.70096057248e-18
5.99976919631e-20
1.58171246352e-21
4.14665077057e-23
9.58213064235e-25
1.75037669392e-26
2.933497722e-28
6.96851234429e-30
1.39928916257e-31
7.28727402705e-33
2.51902051598e-31
1.70229166618e-29
1.15235913877e-27
6.46458759953e-26
3.10744786745e-24
1.3582994949e-22
5.66724561177e-21
1.65161981529e-19
3.89510542241e-19
7.41842204421e-18
3.23832328256e-18
1.36177519429e-19
3.62692498467e-21
9.46013640497e-23
2.16186562384e-24
3.91446872417e-26
5.09802799059e-28
5.05537232617e-30
2.75503726469e-30
4.79976148148e-31
2.93501370686e-30
1.03271493171e-28
6.4449941724e-27
3.49413984022e-25
1.63613849617e-23
6.96200803421e-22
2.82323938793e-20
6.30388312464e-19
8.59785481429e-19
1.78038504356e-17
1.08745503894e-17
6.07201604066e-19
1.63726513994e-20
4.26909816255e-22
9.83536395363e-24
1.90859274968e-25
3.66229026892e-27
1.51273250817e-28
5.74145315637e-29
4.90299569123e-29
2.35471274627e-28
1.89984931502e-27
4.97422965894e-26
2.16506927415e-24
9.29491775787e-23
3.65532275317e-21
1.35892557882e-19
2.07056710346e-18
1.83703003287e-18
4.35423206834e-17
3.91822073295e-17
3.01975150691e-18
1.00061985523e-19
2.69749604779e-21
7.09541030569e-23
2.15890479156e-24
1.08398340942e-25
9.47731903678e-27
2.51680349884e-27
3.67743297578e-27
1.73544002062e-26
1.00833131403e-25
1.05699977604e-24
2.39217677069e-23
8.02653969095e-22
2.84869998447e-20
7.34717007223e-19
8.1580586722e-18
6.78819080042e-18
5.93901181214e-17
8.8948571779e-17
1.21046910338e-17
6.71487032821e-19
2.3615939419e-20
9.55445151912e-22
5.77326743362e-23
4.75155267393e-24
4.98124015843e-25
1.44369563602e-25
2.11770735709e-25
9.91250247092e-25
5.36013129409e-24
4.04469773364e-23
4.83189251639e-22
9.85386869382e-21
2.23087272786e-19
2.88464350866e-18
1.36000811881e-17
1.19889018074e-17
9.90724728764e-17
9.94722089516e-17
4.26682714353e-17
4.97119307789e-18
3.6306050569e-19
2.18198640901e-20
1.95168212476e-21
1.91150437584e-22
2.19648245043e-23
6.9083184726e-24
1.01421781436e-23
4.7186024175e-23
2.45071206613e-22
1.65108844935e-21
1.37136623476e-20
1.67870426525e-19
1.89684113737e-18
1.55549536961e-17
4.33681736069e-17
3.39248131301e-17
1.45757702649e-16
2.12473196825e-16
6.77368511875e-17
2.92343318082e-17
5.2856604239e-18
5.69420076858e-19
6.51399746285e-20
7.00155272487e-21
8.68135359569e-22
2.96631741627e-22
4.33909022512e-22
2.00716489591e-21
9.89720695786e-21
6.37468816834e-20
3.55540631343e-19
2.18752677945e-18
1.12483517923e-17
1.88107642085e-17
3.23184208998e-17
2.75729438626e-17
8.42123458129e-17
2.00091384317e-16
2.06018944122e-16
8.34770988958e-17
4.75496519211e-17
8.40728407162e-18
1.77027813893e-18
2.48639118969e-19
3.31665741457e-20
1.23281521361e-20
1.77717259649e-20
8.16417845404e-20
3.53299345661e-19
1.60159673208e-18
4.90782863163e-18
1.85140471659e-17
2.21595214327e-17
4.95589827133e-17
1.72732045567e-17
9.83111356757e-18
4.65429730207e-17
1.38128233647e-16
7.37118378269e-17
2.22382624961e-16
1.37460929561e-16
3.25904482775e-17
1.95682575992e-17
4.18691264379e-18
7.76887580177e-19
3.58200775155e-19
4.59225179335e-19
1.63587970992e-18
5.06407257796e-18
1.71398305754e-17
2.37432781977e-17
5.54471453679e-17
5.23033218635e-17
1.78323177197e-17
1.02901487535e-17
1.36703754232e-17
9.27104110221e-18
4.85107701917e-17
8.65006138271e-17
1.50014048133e-16
9.4128067091e-17
6.43359408685e-17
1.89172313417e-17
5.5037602351e-18
1.5630605271e-18
1.07167173624e-18
9.88034961537e-19
2.98368782742e-18
6.99435115334e-18
2.03557991442e-17
2.96640358654e-17
4.79143622306e-17
4.33074706956e-17
1.15791515951e-17
1.41182931945e-17
2.77012687485e-18
3.72676453853e-16
1.91617550223e-15
5.19764610406e-15
4.82511621884e-15
5.52076444455e-15
3.24434136723e-15
3.10863770711e-15
1.60139630175e-15
7.23682970238e-16
4.18507125252e-16
3.06298095737e-16
5.27555933144e-16
1.27195329094e-15
1.96283306353e-15
2.44818803332e-15
5.60119405772e-15
5.90940668793e-15
4.47468270827e-15
2.19643108559e-15
5.61662406338e-16
2.34608076371e-15
4.64315669095e-15
5.06830719682e-15
4.31518463843e-15
3.87883384769e-15
4.323853598e-15
1.78098885382e-15
4.56810979864e-16
1.28423454164e-16
5.57230828665e-17
5.36192429505e-17
1.19352606446e-16
3.66269549667e-16
1.10478345812e-15
2.87015450732e-15
3.69637006913e-15
2.55761192985e-15
4.93680782529e-15
1.60906668441e-15
2.54948612247e-15
4.00460239656e-15
5.61401701114e-15
9.70693684058e-15
5.78142908956e-15
3.09001645935e-15
8.29501537963e-16
1.65962197418e-16
2.78758825544e-17
5.52319240526e-18
1.92498582242e-18
2.02999464501e-18
5.70574555653e-18
2.32434802656e-17
9.45959635136e-17
3.96615048334e-16
1.39213511508e-15
3.35044761907e-15
3.30697900213e-15
5.74711917035e-15
3.29210862754e-15
7.98881700355e-15
7.51266924018e-15
3.21202564867e-15
2.60407282716e-15
5.29714145611e-16
6.5744597744e-17
7.44326425252e-18
1.08158025682e-18
1.94818616937e-19
6.23355205391e-20
6.57933349799e-20
1.87263297249e-19
7.71821032206e-19
3.92279804085e-18
2.72611100225e-17
1.87241196588e-16
1.07359867062e-15
2.87104394641e-15
4.25617852413e-15
6.20562952736e-15
5.56230398175e-15
5.24852466528e-15
3.74940658881e-15
6.47699591332e-16
5.4645462249e-17
3.91040050734e-18
3.25864839771e-19
3.92872074048e-20
6.67024121966e-21
2.11978366027e-21
2.05146956442e-21
5.62907798339e-21
2.31206114428e-20
1.2985481474e-19
1.21754944316e-18
1.72672215292e-17
2.05507764736e-16
1.58866281525e-15
5.05018371181e-15
4.36547629077e-15
6.00086654252e-15
2.65051984529e-15
1.18134874467e-15
1.07023213847e-16
5.73108430175e-18
2.84906373308e-19
1.74778223318e-20
5.58911545197e-21
4.00828102927e-21
2.523228565e-21
1.62277710771e-21
9.71651556784e-22
8.64211347111e-22
4.33111813462e-21
6.3045933662e-20
1.35605248407e-18
3.08095699494e-17
4.25905916691e-16
2.83465052213e-15
3.43274901098e-15
4.05600591103e-15
1.79525973598e-15
2.67003458272e-16
1.44112196575e-17
6.75294073275e-19
2.83160961978e-20
5.63794809712e-21
1.43565043125e-20
2.44631855323e-20
1.79925588099e-20
1.53142947823e-20
1.16102044536e-20
2.42021243481e-21
9.13554190957e-22
4.783811154e-21
1.4192452118e-19
3.97217152214e-18
8.75683335303e-17
9.05996942923e-16
1.14327599905e-15
2.28670946833e-15
7.70554911986e-16
5.82680908864e-17
2.60644413762e-18
1.04984891028e-19
7.32231986517e-21
1.18759875718e-20
6.0975871046e-20
5.07411944169e-20
7.36875835102e-20
5.10560094011e-20
2.27308627303e-20
1.10725233463e-20
9.39199833992e-22
6.05636702521e-22
1.84741491635e-20
5.71450965021e-19
1.5690417212e-17
2.22124633613e-16
4.7004602744e-16
1.2245676694e-15
3.52611261792e-16
1.85475515232e-17
7.56195006734e-19
2.78085209574e-20
3.12716828974e-21
1.97896263838e-20
4.39438000261e-20
6.11618406255e-21
6.04484686105e-21
4.25476071246e-21
2.88685770628e-21
7.71197016443e-21
9.69308563859e-22
1.74811574591e-22
2.56719009241e-21
8.49242451262e-20
2.49237353232e-18
5.23100457832e-17
2.59799159753e-16
8.97155239144e-16
1.85935617534e-16
8.02124406512e-18
3.07080973802e-19
1.06100354196e-20
1.93331314422e-21
1.97935236354e-20
6.04626939923e-20
2.701236433e-21
1.085142719e-22
3.65659140632e-22
5.18517662156e-21
3.36999491779e-20
4.63281008914e-21
1.62702574612e-22
5.97153590447e-22
2.1131296818e-20
6.66082635727e-19
1.88484111777e-17
1.51916021302e-16
8.35653692694e-16
1.62688407694e-16
6.75119488199e-18
2.47009958789e-19
8.18009949488e-21
1.17835556119e-21
1.88272297734e-20
5.32223192658e-20
2.14300508162e-21
1.12050942607e-22
2.96287364155e-22
3.8173107139e-21
2.51028427404e-20
3.59357079718e-21
9.5859379053e-23
7.12252730266e-22
2.53403388026e-20
7.97741839289e-19
2.21348694178e-17
1.55067592361e-16
1.00822825504e-15
2.63477612128e-16
1.27746762139e-17
4.66940555741e-19
1.53529268126e-20
1.5071874842e-21
1.64221502181e-20
1.94207501119e-20
1.45962445696e-21
2.9871611616e-21
2.35379824468e-21
4.41707693046e-22
1.73216153699e-21
1.90919982794e-21
1.13937877501e-22
3.03478596111e-21
1.05011860544e-19
3.18745002844e-18
6.62645711438e-17
2.39847468051e-16
1.77482169309e-15
7.05491993356e-16
4.46058053627e-17
1.61958208034e-18
5.2233534568e-20
1.85154649352e-21
3.69677699435e-21
1.7581920026e-20
7.1253283717e-21
2.58250173311e-20
2.12601922573e-20
2.81673019963e-21
5.59704357648e-21
2.97994373571e-21
3.57099591281e-22
1.20561175449e-20
3.98537653911e-19
1.16933004849e-17
1.64820580297e-16
3.1578541202e-16
3.1912659886e-15
2.05128847455e-15
1.73468304751e-16
6.58602188053e-18
2.19764207973e-19
7.06791284186e-21
2.49288706282e-21
3.922240919e-21
8.10339827116e-22
4.37019844144e-21
2.8034609816e-21
2.15684230907e-21
1.87612036544e-21
8.41317145608e-22
2.61942443459e-21
7.54903868608e-20
2.17391160305e-18
4.97809069143e-17
5.32376782776e-16
8.04117899042e-16
3.47399750023e-15
3.87268788904e-15
5.50806193217e-16
3.45629855004e-17
1.49342602087e-18
7.31872121005e-20
5.69667518695e-21
1.08425637127e-21
1.43606945449e-22
1.23784656491e-22
9.47659025223e-23
2.23510484137e-22
7.31627795255e-22
4.31748184799e-21
4.0416728571e-20
6.83798559497e-19
1.3796023811e-17
1.56106652643e-16
7.71481206961e-16
1.05086859622e-15
4.95285592529e-15
3.82411680149e-15
1.6172482376e-15
2.12020597335e-16
1.76253686347e-17
1.38521166815e-18
1.59732402122e-19
2.35598543497e-20
3.72460700915e-21
1.45854267214e-21
2.00099264234e-21
7.54014738342e-21
2.7267784895e-20
1.47717270504e-19
9.22343776543e-19
9.76472222238e-18
9.40759703602e-17
7.04051245711e-16
2.04557379605e-15
2.61755349377e-15
6.6745455718e-15
7.35323909516e-15
2.20803001569e-15
1.08480356515e-15
2.26848190186e-16
2.91143873278e-17
4.29939846642e-18
7.11976507544e-19
1.19447216342e-19
5.06061623812e-20
6.88979946999e-20
2.60119172117e-19
9.11871553174e-19
4.54792956015e-18
2.10576959197e-17
1.06791461962e-16
4.8757487454e-16
7.51390956952e-16
1.40993046008e-15
1.91698015339e-15
3.83102687387e-15
6.63630557668e-15
6.47937969722e-15
2.84572227923e-15
1.81890072418e-15
3.75320047858e-16
1.04454373838e-16
1.91747137614e-17
3.39991629543e-18
1.57059902851e-18
2.09273570241e-18
7.89593957596e-18
2.68725992868e-17
9.91357813705e-17
2.53716088563e-16
8.1264215476e-16
8.83847348048e-16
1.85778152901e-15
7.03073327139e-16
6.24191997934e-16
2.30122707934e-15
4.8329723432e-15
2.60311659109e-15
7.80356810921e-15
5.1982998606e-15
1.39956290711e-15
1.07890224999e-15
2.94818211116e-16
7.31129047965e-17
4.20562495948e-17
4.91770141858e-17
1.44418091511e-16
3.55176307632e-16
1.01282224854e-15
1.26837807242e-15
2.5128561707e-15
2.20151128277e-15
7.36017187928e-16
4.35694839784e-16
8.26909722126e-16
5.73615402682e-16
2.41040757833e-15
3.93182163511e-15
7.16108762413e-15
4.86163569691e-15
4.07632459764e-15
1.54130034869e-15
6.77758392941e-16
3.22093325041e-16
2.93140531971e-16
2.40058195778e-16
5.57210725224e-16
8.45556277496e-16
1.84689485553e-15
2.10871116835e-15
3.0802405217e-15
2.8768998877e-15
7.17436631468e-16
8.59425938503e-16
2.1187436622e-16
1.15887260044e-14
5.18667342915e-14
1.14254177859e-13
9.78996295145e-14
1.03856460211e-13
6.80107524711e-14
8.08348564897e-14
5.3261158095e-14
3.01195046935e-14
2.33878748943e-14
1.43421832522e-14
2.0703047967e-14
3.984075543e-14
5.22022248999e-14
5.10374547588e-14
1.13809723632e-13
1.1968730224e-13
1.00776835214e-13
4.60777859331e-14
1.64799944092e-14
6.27319766326e-14
9.34069578222e-14
8.81125823507e-14
7.40678045429e-14
6.73419569209e-14
9.65192532276e-14
4.8228744081e-14
1.56744652397e-14
5.75385778317e-15
3.15750608646e-15
2.7811396426e-15
5.14656899941e-15
1.26886734916e-14
3.19382132959e-14
6.99967523926e-14
7.62701645342e-14
5.31498999154e-14
8.74194082577e-14
3.12161595411e-14
5.66666551634e-14
9.06590538538e-14
1.02669880463e-13
1.64821301336e-13
1.05516991867e-13
6.34037193081e-14
2.07480102351e-14
5.32810172084e-15
1.20126230446e-15
3.33461158289e-16
1.59635162629e-16
1.48630107526e-16
3.2301165886e-16
1.0045045742e-15
3.1622433441e-15
1.07986983296e-14
3.15985905058e-14
6.73415770258e-14
6.53059355793e-14
1.07545449133e-13
7.23548067632e-14
1.44883482594e-13
1.44833159725e-13
5.14233055711e-14
5.18934778102e-14
1.26630815132e-14
1.93822420733e-15
3.25700311036e-16
6.60444895837e-17
1.7572817436e-17
8.10455916451e-18
7.6728467187e-18
1.56030879048e-17
4.67140477392e-17
1.58897998588e-16
8.75831531264e-16
4.90135332205e-15
2.45617091773e-14
6.05424532719e-14
8.97623681774e-14
1.18937055149e-13
9.84273435705e-14
8.78850623731e-14
7.24904450629e-14
1.50373264209e-14
1.52178191857e-15
1.48989002212e-16
2.02705611363e-17
9.28019415182e-18
7.71247104784e-18
8.05194558297e-18
5.34119118749e-18
5.50483973193e-18
5.00711691704e-18
8.23438631498e-18
5.06487050881e-17
5.44939589433e-16
5.43060432173e-15
3.69165819792e-14
1.08363173421e-13
8.61760217151e-14
1.09112177335e-13
4.85624600194e-14
2.67614077696e-14
2.98703036834e-15
2.15993439601e-16
1.79083777064e-17
1.77152129564e-17
2.65786374016e-17
2.97342812489e-17
2.89416236883e-17
2.4056901778e-17
1.65451759365e-17
1.03933522917e-17
8.29003639703e-18
5.76432696192e-18
5.64997457425e-17
9.93345475428e-16
1.15536953794e-14
6.8637820842e-14
7.8126017391e-14
8.65070988591e-14
4.47331702632e-14
7.78395608502e-15
5.90908800666e-16
3.75273365228e-17
1.6225221791e-17
2.15566219144e-17
3.91477597801e-17
5.9396221259e-17
5.6363525086e-17
5.24824518097e-17
3.99956424956e-17
1.6997934253e-17
1.22513009222e-17
8.40468778807e-18
9.23980225938e-18
1.60790332521e-16
2.9093696572e-15
2.59982301565e-14
3.14391276337e-14
5.93970671259e-14
2.28570863783e-14
2.18257115652e-15
1.41549956004e-16
1.30436152527e-17
2.6417743273e-17
3.45620247601e-17
8.87331359292e-17
8.54870392127e-17
1.24517596967e-16
9.73113115218e-17
5.70402179225e-17
3.54968606265e-17
1.48420510419e-17
9.14935421121e-18
4.06247737584e-18
3.49343078424e-17
6.93180543762e-16
8.09462354286e-15
2.04139218047e-14
3.90377600891e-14
1.26694959216e-14
9.11812657809e-16
5.48239597824e-17
8.73041190207e-18
2.37319535358e-17
5.41072445421e-17
6.66714457859e-17
7.20582833868e-18
8.54820525511e-18
9.61978772573e-18
1.16278730832e-17
3.07932230567e-17
1.62713655198e-17
1.17507808243e-17
2.13511419335e-18
7.23358206567e-18
1.50899590422e-16
2.61745315878e-15
1.53309481324e-14
3.29455835076e-14
7.9303778015e-15
5.16936474643e-16
2.94535735322e-17
6.29459345142e-18
2.48249069299e-17
6.43999677463e-17
9.32312091931e-17
3.59661781216e-18
3.53789953298e-19
3.84262482401e-18
2.84782332969e-17
9.80754256994e-17
3.97800122291e-17
1.72743454736e-17
2.03552133768e-18
2.4545690627e-18
5.59375754424e-17
1.23368277386e-15
1.18263538084e-14
3.14754032246e-14
7.16514007541e-15
4.49224886908e-16
2.47445977529e-17
4.9503065906e-18
2.12938928751e-17
6.80418459582e-17
9.18666762775e-17
4.74300407216e-18
1.06320783762e-18
3.82794414495e-18
2.41957585381e-17
8.32450314747e-17
3.34888585747e-17
1.44970147626e-17
2.11248845758e-18
2.96082818303e-18
6.77778214282e-17
1.45718909179e-15
1.2383495363e-14
3.38731616405e-14
1.01917739536e-14
6.72315915692e-16
3.61566049493e-17
6.06698624351e-18
2.11409293475e-17
5.79482446327e-17
4.75389825595e-17
6.19121399768e-18
1.31273851781e-17
1.13637246214e-17
6.20193292016e-18
1.80897892476e-17
1.9507996687e-17
8.28945722287e-18
1.94307102096e-18
9.81385757544e-18
2.08972477367e-16
3.50973759532e-15
1.67516292614e-14
5.12709674658e-14
2.27197514243e-14
1.84771576133e-15
9.63264277773e-17
7.54639610431e-18
1.52300204492e-17
2.6179428003e-17
5.06956698696e-17
3.29415903502e-17
7.75470597803e-17
6.96324743903e-17
2.15472433297e-17
3.35210662035e-17
2.67952685916e-17
9.74411946818e-18
3.04807732482e-18
2.83037853782e-17
5.88015099698e-16
6.74045795951e-15
1.77356117784e-14
7.58929360127e-14
5.49968214062e-14
5.64249371982e-15
2.93150731569e-16
1.39669342035e-17
1.47392846208e-17
2.33529285703e-17
2.73925078352e-17
1.8166992568e-17
3.9008991282e-17
2.94590146578e-17
2.22717577181e-17
2.27142917644e-17
1.76596101059e-17
7.56693661667e-18
6.37493636732e-18
1.07514506422e-16
1.94820382513e-15
1.80652990518e-14
3.30642795204e-14
7.33954711081e-14
8.92902852268e-14
1.44271932701e-14
1.08907013743e-15
6.13276548013e-17
7.40147704441e-18
1.1549979897e-17
1.65574923278e-17
1.06486452443e-17
1.8260158329e-17
1.49836163891e-17
1.06203470699e-17
1.24404439538e-17
7.79518725027e-18
5.03499317235e-18
3.47799481012e-17
5.43628019747e-16
4.97195205807e-15
2.33150938927e-14
3.32670619413e-14
9.70038258258e-14
8.06134493793e-14
3.61189240369e-14
5.49145104622e-15
5.39429843251e-16
5.87188689384e-17
1.12370545574e-17
4.75812839878e-18
2.95681507302e-18
2.16514069119e-18
2.44813464589e-18
2.39660599761e-18
4.15216753938e-18
1.01942077955e-17
4.47459339693e-17
3.6849926187e-16
2.8063848009e-15
1.84840112336e-14
5.13578875829e-14
8.07038309373e-14
1.26276238809e-13
1.39245797495e-13
4.29507214687e-14
2.4409067221e-14
5.91097184812e-15
9.32193613335e-16
2.01658238584e-16
4.51592695481e-17
1.00831941719e-17
5.32803249543e-18
6.65788909868e-18
2.05629482761e-17
5.56125038498e-17
2.04862915133e-16
7.77269675354e-16
3.13807083313e-15
1.26426478198e-14
1.76230707671e-14
3.33603741909e-14
5.77198306017e-14
8.39701282682e-14
1.19730101586e-13
1.17154234092e-13
5.75089921099e-14
4.07613817406e-14
9.89765700687e-15
3.58656518254e-15
8.5577240086e-16
2.00786173772e-16
1.16713028474e-16
1.40407572441e-16
4.38881982179e-16
1.17156644308e-15
3.50964900007e-15
7.67991062702e-15
2.06958137063e-14
2.06258759462e-14
3.92863814479e-14
1.58343385656e-14
1.88458562584e-14
5.63597596984e-14
8.94376830636e-14
5.36546532773e-14
1.49733703863e-13
1.06353469453e-13
3.25792540986e-14
3.08525596382e-14
1.05043591416e-14
3.45195861806e-15
2.40340711954e-15
2.58695517922e-15
6.37486167106e-15
1.263858366e-14
3.09206686834e-14
3.59023858824e-14
6.06133229645e-14
4.97922517211e-14
1.68731594221e-14
9.8901425801e-15
2.17809063174e-14
1.89505028569e-14
5.84592643826e-14
8.60384945565e-14
1.44027941539e-13
9.75738614808e-14
9.26986481802e-14
4.05687879235e-14
2.40376033031e-14
1.80066581482e-14
1.86684264945e-14
1.48210494772e-14
2.86535506226e-14
3.03157041463e-14
5.57310956084e-14
5.23817438906e-14
7.41419716608e-14
8.05454573508e-14
1.9385530689e-14
2.28744395367e-14
6.81686915819e-15
2.38373384983e-13
8.62718820822e-13
1.39572769132e-12
9.96799812494e-13
8.86435552938e-13
6.17903403593e-13
8.03316430455e-13
6.22814247615e-13
4.19168193459e-13
4.43234118924e-13
2.35188634503e-13
2.88909012085e-13
4.66679870578e-13
5.61600193297e-13
4.56855495923e-13
9.99359805162e-13
1.14257776771e-12
1.24093035027e-12
5.23913397619e-13
3.33725197832e-13
9.85532681032e-13
1.15266844807e-12
9.95654411055e-13
7.60738543485e-13
5.79805976002e-13
1.1735262701e-12
6.70589221075e-13