/*--------------------------------*- C++ -*----------------------------------*\
| =========                 |                                                 |
| \\      /  F ield         | OpenFOAM: The Open Source CFD Toolbox           |
|  \\    /   O peration     | Version:  3.0.1                                 |
|   \\  /    A nd           | Web:      www.OpenFOAM.org                      |
|    \\/     M anipulation  |                                                 |
\*---------------------------------------------------------------------------*/
FoamFile
{
    version     2.0;
    format      ascii;
    class       surfaceVectorField;
    location    "7.1";
    object      Uf_0;
}
// * * * * * * * * * * * * * * * * * * * * * * * * * * * * * * * * * * * * * //

dimensions      [0 1 -1 0 0 0 0];

internalField   nonuniform List<vector> 
22672
(
(0.00517811044044 0.00222810798057 -0.00398121475285)
(0.00222551806559 0.00518149462037 -0.00398067505817)
(0.00330002247312 0.00330327084749 -0.0103596161248)
(0.0109439675724 0.00151868754195 -0.00363445632553)
(0.00774554562468 0.00453050945068 -0.00563074001717)
(0.00951006607553 0.00341782483809 -0.0102963800669)
(0.0157820605065 0.00106630106874 -0.00281611015116)
(0.0138584263436 0.00416458783789 -0.00567185840098)
(0.0151015815223 0.00356453048776 -0.00900269701752)
(0.0187540129086 0.000929376426385 -0.00161586839489)
(0.0182304680338 0.00413029970446 -0.00483672286975)
(0.0188041070548 0.00379542519934 -0.00710227131167)
(0.0192209201834 0.00106206784048 -0.000609804378487)
(0.0203309629825 0.00452367305584 -0.00344817869194)
(0.0203027468775 0.00416595703276 -0.00499060244473)
(0.0177088826735 0.00137504819804 -2.81821377497e-05)
(0.0196701899534 0.00503903889513 -0.0025844581666)
(0.0193722951101 0.00451803401416 -0.00352702603211)
(0.0145738585094 0.0018552006013 0.000367917278911)
(0.0173232613453 0.00566893007149 -0.00184681987705)
(0.0168249058428 0.00492982322847 -0.00253393247288)
(0.0102530410599 0.00239350049783 0.000507352146863)
(0.0133300541064 0.0063472775498 -0.00135250232728)
(0.0128130734576 0.00540380038908 -0.00202648779241)
(0.00525823001336 0.00282321898243 0.000486188711054)
(0.00826704622348 0.00695078478148 -0.00113997957414)
(0.00788850988196 0.00586147675946 -0.00195600178323)
(1.30963568802e-05 0.00298642096375 0.000455799828175)
(0.00279506138542 0.00730646411835 -0.00110479982873)
(0.00265567840809 0.00614506344575 -0.0020613582428)
(-0.0052330254971 0.00282413081278 0.000486660189559)
(-0.00276591396646 0.00730649986901 -0.00110420298329)
(-0.00262746224353 0.00614511128277 -0.00206040511193)
(-0.0102305056757 0.00239492281098 0.000508224784553)
(-0.00823972446259 0.00695085856273 -0.00113832077561)
(-0.00786210293806 0.00586152243414 -0.0019534045479)
(-0.0145553522746 0.00185654446513 0.000369196557894)
(-0.0133063739351 0.00634719874 -0.00134992319596)
(-0.012790224537 0.00540353865839 -0.00202237716695)
(-0.0176951399956 0.00137603960565 -2.68252931765e-05)
(-0.0173048270986 0.0056685373438 -0.00184379837109)
(-0.0168071235345 0.00492906097066 -0.00252877317818)
(-0.0192114661153 0.00106297754834 -0.000608505141363)
(-0.0196571906718 0.0050384379059 -0.00258193799662)
(-0.0193597350185 0.00451699850051 -0.00352213333197)
(-0.0187491808258 0.000930256954473 -0.00161515247267)
(-0.0203221156112 0.00452401148596 -0.00344535337916)
(-0.0202941169774 0.00416512767405 -0.00498631566703)
(-0.0157799669881 0.00106712453647 -0.00281643178079)
(-0.0182267316949 0.00413058338048 -0.00483572503133)
(-0.0187995389362 0.00379474484643 -0.00709981287249)
(-0.0109432523298 0.00151962511898 -0.00363555119886)
(-0.0138565946794 0.00416533381219 -0.00567195957007)
(-0.0150989082089 0.00356424752756 -0.00900206089653)
(-0.00517787915085 0.0022290777499 -0.00398283064955)
(-0.0077450578415 0.00453169727281 -0.00563187739345)
(-0.00950882435764 0.00341785026832 -0.0102970808957)
(-0.00222540884099 0.00518307379627 -0.00398241847733)
(-0.00329962256693 0.00330347220523 -0.0103609594963)
(0.00452863434364 0.00774812490368 -0.00563020032249)
(0.00151680842659 0.0109465850754 -0.00363313367309)
(0.00341669593551 0.00951231604325 -0.0102937373722)
(0.0110191944245 0.00750488604272 -0.00766814209261)
(0.00750400421316 0.0110189293373 -0.00766765084353)
(0.00998126951163 0.00998021007798 -0.0129789951014)
(0.0166466827073 0.00757985507277 -0.00769247111957)
(0.0144044848511 0.0112375999203 -0.00844516518296)
(0.0158179916982 0.0105762685497 -0.0127005182259)
(0.0201039321128 0.00808522421204 -0.0066690331668)
(0.0193264204738 0.0118312883427 -0.00768529691759)
(0.0196711691637 0.0114568236112 -0.0111582586328)
(0.0208652803372 0.00886444835202 -0.00542283248005)
(0.0217550216922 0.0128765834299 -0.00618708527013)
(0.0212443470971 0.0125611501438 -0.00911428161596)
(0.0192887127592 0.00969979145421 -0.0044030959059)
(0.0211956593041 0.0139700100478 -0.00492211930888)
(0.0203596111438 0.0136017214844 -0.00735442839447)
(0.0158958609982 0.0105387576635 -0.00356723948324)
(0.0187218590265 0.0150101509308 -0.00388669813115)
(0.0177265502354 0.0145578468825 -0.00594839492835)
(0.011180831182 0.0112954683732 -0.00299983404829)
(0.0144535348832 0.0159966581258 -0.00308635502209)
(0.013547480576 0.0154286096421 -0.00493437676965)
(0.0057304221274 0.0118351746484 -0.00273096811393)
(0.00899467091348 0.016790538797 -0.00261855596769)
(0.00838591419464 0.0161250478038 -0.00438937046494)
(1.59688293751e-05 0.0120314765908 -0.00266480264019)
(0.0030479605668 0.0172341736582 -0.00244743778692)
(0.00283570050306 0.0165108900717 -0.00421328082109)
(-0.0056993680884 0.0118344233953 -0.00272918394845)
(-0.00301332998586 0.0172336429281 -0.00244649382695)
(-0.00280154405943 0.0165100335295 -0.00421182964107)
(-0.0111524717021 0.0112941263528 -0.00299646875612)
(-0.00896200722135 0.0167890682058 -0.00261578283364)
(-0.00835350597046 0.0161226061825 -0.0043851284682)
(-0.0158720343768 0.010537032771 -0.00356291812494)
(-0.0144250226119 0.0159944927658 -0.00308206584)
(-0.0135187325571 0.0154248688406 -0.00492775276521)
(-0.0192705152193 0.00969786355541 -0.00439891107453)
(-0.0186993689845 0.0150075755932 -0.00388180584775)
(-0.0177032502911 0.0145532912978 -0.00594057766267)
(-0.0208523035983 0.00886329908593 -0.00541878623441)
(-0.0211792101251 0.0139672450974 -0.0049177926126)
(-0.0203421145341 0.013596989044 -0.00734703752393)
(-0.0200964863897 0.00808500628148 -0.00666592593781)
(-0.0217438420461 0.0128756096362 -0.00618243600881)
(-0.0212317500271 0.0125576933979 -0.00910743196531)
(-0.0166430023613 0.00758014768214 -0.0076912528206)
(-0.0193207737278 0.0118307861092 -0.00768288723244)
(-0.0196635856105 0.0114541671565 -0.0111537007469)
(-0.0110178006283 0.00750601781102 -0.00766828576465)
(-0.0144016681367 0.0112382280998 -0.00844420271297)
(-0.0158135093394 0.0105747578416 -0.0126981074324)
(-0.00452829839056 0.00775011544957 -0.00563146522122)
(-0.00750315707905 0.0110207465428 -0.00766808286362)
(-0.00997908811233 0.00997969576402 -0.0129785613695)
(-0.00151682039239 0.0109499570274 -0.00363478204492)
(-0.00341623857459 0.00951299855499 -0.0102951877617)
(0.00416365072064 0.0138580757089 -0.00567058419413)
(0.00106491354944 0.0157820201252 -0.00281440515741)
(0.00356447292516 0.0151007510789 -0.0089990986045)
(0.0112395293539 0.0144013720081 -0.00844467393388)
(0.00758010649751 0.0166423410742 -0.00769114849768)
(0.0105789677051 0.0158129494411 -0.01269930542)
(0.0174509608517 0.015133277616 -0.00843799098098)
(0.015138136236 0.0174443924354 -0.00843778627658)
(0.0168672371573 0.0168601806074 -0.0124182411547)
(0.0212687885576 0.0162459913965 -0.00720334902091)
(0.0205173008148 0.0185888250291 -0.00740051289044)
(0.0209251620073 0.0182491909969 -0.0105753833035)
(0.0222336648216 0.0175697889913 -0.00568637209895)
(0.0231883866199 0.020122246048 -0.00564747892412)
(0.0225678696412 0.0198601647687 -0.00821055896824)
(0.0206465251174 0.0188143769162 -0.00440572153413)
(0.0226963855017 0.0216070606624 -0.00407281554419)
(0.021683455848 0.0213594291992 -0.00604993132958)
(0.0171050351224 0.0199302362025 -0.00340581367)
(0.0200850364521 0.0228674405441 -0.00286994843659)
(0.0189357521839 0.0226308175107 -0.00431581949736)
(0.0121095399865 0.0208824450733 -0.00270507694149)
(0.015561669865 0.0240031025212 -0.00196346238151)
(0.0145713372761 0.0237192278426 -0.00301096787429)
(0.00624300113964 0.0215303796893 -0.00233502564068)
(0.00972674825348 0.0248695827879 -0.00143425793047)
(0.00910226562426 0.0245424105787 -0.00221252209562)
(1.85599397442e-05 0.0217595844059 -0.00222912897367)
(0.00330595996202 0.0253380686375 -0.00123384252352)
(0.00309895169532 0.0249875677212 -0.00187946904851)
(-0.00620699413179 0.0215289988713 -0.00233309271213)
(-0.00326698114001 0.0253371669894 -0.00123290633105)
(-0.00306009286799 0.0249863979804 -0.00187798387855)
(-0.0120768577737 0.0208799091506 -0.00270137991753)
(-0.00968999423516 0.024867005464 -0.00143138563748)
(-0.00906552140189 0.0245390569242 -0.00220808659193)
(-0.0170775833011 0.0199269117291 -0.00340095356282)
(-0.0155295975758 0.0239992113248 -0.00195883700313)
(-0.0145387879257 0.0237141216553 -0.00300400556109)
(-0.0206252748872 0.0188106958354 -0.00440068738583)
(-0.0200595496778 0.0228627793629 -0.00286451688269)
(-0.0189090611307 0.0226246524394 -0.00430752454214)
(-0.0222185227789 0.0175670306609 -0.005681442387)
(-0.022677303424 0.0216021795848 -0.00406763401095)
(-0.0216628531969 0.0213530964656 -0.00604169871329)
(-0.0212595693205 0.016244555201 -0.00719939730344)
(-0.0231754858303 0.0201195040335 -0.00564218882498)
(-0.0225529929085 0.0198553666493 -0.00820285935066)
(-0.0174460221164 0.0151328982738 -0.00843583712481)
(-0.0205100711338 0.0185869969387 -0.00739726593341)
(-0.0209155416077 0.0182455604754 -0.0105697684155)
(-0.0112374882758 0.0144024967925 -0.00844399981193)
(-0.0151343867171 0.0174443811613 -0.00843602955581)
(-0.0168614259459 0.0168581546492 -0.0124146960525)
(-0.00416318068036 0.0138610935301 -0.00567139968732)
(-0.00757878378179 0.0166443412126 -0.00769089050776)
(-0.0105759418706 0.0158125511784 -0.0126979107826)
(-0.00106499651625 0.0157870517401 -0.00281592329507)
(-0.0035638488165 0.0151027279978 -0.00900028079977)
(0.00413005547901 0.0182267421322 -0.00483496946095)
(0.000928732143894 0.0187497474638 -0.00161365883934)
(0.00379595755449 0.018799226317 -0.00709779507224)
(0.011834486425 0.0193188585424 -0.00768426084037)
(0.00808664016588 0.0200943572614 -0.00666721724582)
(0.011460723343 0.019661852729 -0.0111564610795)
(0.0185970509331 0.0205076004773 -0.00740030818603)
(0.0162524401569 0.0212569716096 -0.00720318069504)
(0.0182576479599 0.0209140033717 -0.0105751587989)
(0.0227471884891 0.0220411556112 -0.00584464279365)
(0.0220526246964 0.0227337168874 -0.005845061224)
(0.022558533911 0.0225461730566 -0.00829504500454)
(0.023831716648 0.0237108653057 -0.00403392236935)
(0.0249192581812 0.0245359704539 -0.00377550298341)
(0.0242388837953 0.0243603663026 -0.00549826773822)
(0.0221525885479 0.0251928516985 -0.00253704244664)
(0.0244368070404 0.0262424995881 -0.00190604181158)
(0.023259035961 0.0260268070492 -0.00295632456904)
(0.0183568459645 0.0264557826517 -0.00142759714809)
(0.0216152262697 0.0276072004689 -0.000478103440878)
(0.0202796148559 0.0273857024541 -0.000944028768866)
(0.0130086960832 0.0274981867903 -0.000692643370487)
(0.0167444847489 0.028790515314 0.000608835153909)
(0.0156068380148 0.0285054791677 0.000560728484141)
(0.00671623867371 0.0281876611147 -0.000333074813316)
(0.0104700865605 0.0296760834026 0.00124999235779)
(0.0097641703325 0.0293176485183 0.0014859510236)
(2.02801681743e-05 0.0284283944563 -0.000237619880907)
(0.00356006058658 0.0301499098005 0.00149416833511)
(0.00332861962074 0.0297456870168 0.00188411387164)
(-0.00667682062894 0.0281857811408 -0.000331199256394)
(-0.00351806792011 0.030148632611 0.00149528221864)
(-0.0032867248855 0.0297442343108 0.00188563320388)
(-0.0129727521811 0.0274946090094 -0.000688842723081)
(-0.010430476044 0.0296723763821 0.00125346721912)
(-0.00972445848538 0.0293134591026 0.00149055920774)
(-0.0183264033883 0.0264509396075 -0.001422400323)
(-0.0167099422017 0.028784810923 0.000614436071945)
(-0.0155714915581 0.0284990631489 0.000568049773836)
(-0.0221286750042 0.0251873624275 -0.00253146350781)
(-0.0215877382798 0.0276003228387 -0.000471675427696)
(-0.0202503182344 0.02737792647 -0.000935274818004)
(-0.0238144574787 0.0237063122374 -0.00402838044893)
(-0.0244160369976 0.0262354396882 -0.00189991787815)
(-0.0232360419064 0.0260187523733 -0.0029474820036)
(-0.0227362576524 0.0220382215092 -0.00584005745495)
(-0.0249051329615 0.0245311922826 -0.00376943192594)
(-0.0242221112479 0.0243539110738 -0.00548989362604)
(-0.0185908720212 0.0205062581318 -0.00739745836441)
(-0.022044302741 0.0227301296969 -0.00584090921646)
(-0.0225472811726 0.022541174603 -0.00828852460944)
(-0.0118317057488 0.0193198050018 -0.00768292025165)
(-0.0162479507839 0.0212558424391 -0.00720042220027)
(-0.0182506579564 0.0209111590501 -0.0105706340541)
(-0.0041293286473 0.018230832166 -0.00483541411552)
(-0.00808487980317 0.0200959574563 -0.00666579146294)
(-0.0114568209011 0.0196614390513 -0.0111540001992)
(-0.000929004042195 0.0187559119732 -0.00161448270364)
(-0.0037950929167 0.0188026651324 -0.00709819340175)
(0.0045246332519 0.0203207442743 -0.00344590662421)
(0.00106219996798 0.0192114801116 -0.00060783676416)
(0.00416751775613 0.0202913060752 -0.00498637721147)
(0.0128812936891 0.0217412997776 -0.00618613710049)
(0.00886673821053 0.020850785003 -0.00542203284446)
(0.0125665091945 0.0212297833039 -0.00911310065946)
(0.0201322147036 0.0231730064961 -0.005647933733)
(0.0175775001333 0.0222174156272 -0.00568766126002)
(0.0198701834821 0.0225525143473 -0.00821137778949)
(0.024551255995 0.0249022373024 -0.00377592141376)
(0.0237236231555 0.023814146839 -0.00403602369755)
(0.0243740489474 0.0242229999856 -0.0054994832732)
(0.0256964465558 0.0267544115559 -0.00164762242563)
(0.0267726781827 0.0256770557371 -0.00164899851856)
(0.0260635032143 0.0260466563532 -0.00228628603646)
(0.0238885602948 0.0283782715739 0.000152897194185)
(0.0262363310734 0.0274096622557 0.00056601386873)
(0.024950433638 0.0277385391448 0.000640716364053)
(0.0197849478687 0.0296946427773 0.00155832886113)
(0.0231706039042 0.028744905452 0.00228819695255)
(0.0217106811354 0.0290749182934 0.0029659039744)
(0.0140142921753 0.0307430286307 0.00255147088219)
(0.0179184383233 0.0298527374099 0.00362959603849)
(0.0166844311562 0.0301386558986 0.00470843416751)
(0.00723370093833 0.0314257822823 0.00307723550622)
(0.0111886049735 0.0306682162086 0.0044470062049)
(0.0104274192212 0.0308924395927 0.00578846250866)
(2.15360318806e-05 0.0316620866616 0.00322707043466)
(0.00380049518462 0.0311072547883 0.00477989518685)
(0.00355251645813 0.0312864273412 0.00625482657198)
(-0.00719191077524 0.0314228389123 0.00307994869416)
(-0.00375703251137 0.0311055278992 0.00478122797644)
(-0.00350884518232 0.0312846168181 0.0062565595451)
(-0.0139763806791 0.0307374855528 0.00255674601415)
(-0.0111475919591 0.0306631609984 0.00445105618725)
(-0.0103861148527 0.0308871976004 0.00579369337802)
(-0.0197530419414 0.0296872608833 0.00156516096725)
(-0.0178826478166 0.0298448159101 0.0036359528316)
(-0.0166478110074 0.0301306172318 0.00471666314146)
(-0.0238635163995 0.0283702145867 0.000159870201963)
(-0.0231419739048 0.0287352333761 0.0022953703951)
(-0.0216803917395 0.0290652137231 0.00297556849453)
(-0.0256783220697 0.0267474762426 -0.00164096935516)
(-0.0262144867693 0.0273998129136 0.000572800058301)
(-0.0249265132363 0.0277285680176 0.000650434279303)
(-0.024539584851 0.0248970198148 -0.00377028368744)
(-0.026757626343 0.0256694685524 -0.00164222746633)
(-0.0260458911954 0.0260382550844 -0.00227701431896)
(-0.0201253840189 0.0231697048595 -0.00564387305231)
(-0.0237143174334 0.0238079055525 -0.00403124465319)
(-0.0243619426953 0.0242160939815 -0.00549197959935)
(-0.012878084936 0.0217407709947 -0.00618329341156)
(-0.0175720919968 0.0222141090373 -0.0056841089331)
(-0.0198624521816 0.0225481822132 -0.00820557007557)
(-0.00452391979181 0.020324250442 -0.00344486005106)
(-0.00886421359648 0.0208507616195 -0.00541960582241)
(-0.0125619413463 0.0212284071845 -0.00910897479593)
(-0.00106254406532 0.0192170881096 -0.000607890326027)
(-0.00416662709819 0.0202949725588 -0.00498509976793)
(0.00504043153905 0.0196570824755 -0.00258396298442)
(0.00137614603027 0.017696900619 -2.71362149359e-05)
(0.00452044582541 0.0193570193713 -0.00352586240121)
(0.0139753905888 0.0211789730522 -0.00492355700399)
(0.00970342893051 0.0192720602985 -0.00440421457957)
(0.0136084106477 0.0203422122051 -0.00735624549394)
(0.0216178943233 0.0226781670115 -0.00407575122456)
(0.0188237209015 0.0206284777117 -0.00440917476708)
(0.021370907922 0.0216659879625 -0.00605357662791)
(0.0262585869969 0.0244170441422 -0.00190910080235)
(0.0252069469302 0.0221338136144 -0.00254152680559)
(0.026041625187 0.0232417352268 -0.00296036876616)
(0.0274296772036 0.02621533252 0.000564637775804)
(0.0283977066427 0.0238681676669 0.000148650790301)
(0.0277560950797 0.024932483774 0.000637791239555)
(0.0254593353709 0.0277276853575 0.0027013136271)
(0.0277496344172 0.025438365946 0.00269967974936)
(0.0264896469123 0.0264713696124 0.00394163528388)
(0.0210524136959 0.0289125909649 0.00435946412991)
(0.0244542450722 0.0266169598211 0.00468414010307)
(0.0229948757329 0.0276576991518 0.00653486891488)
(0.0148854197941 0.0298334651655 0.0055251313612)
(0.0188664353987 0.0275702830991 0.0062378105259)
(0.0176320592899 0.0285769195017 0.00844945409782)
(0.007672332983 0.03042271962 0.00614966588553)
(0.0117424477422 0.0282662461601 0.00721905935107)
(0.0109984469356 0.0292261075282 0.00961506629915)
(2.17432516508e-05 0.0306222734404 0.00633405272863)
(0.00398009414287 0.0286372045226 0.00747060140881)
(0.00374145392084 0.029565604741 0.0101206518116)
(-0.00763005026532 0.0304188447821 0.00615233546953)
(-0.00393725964538 0.0286350035054 0.00747148330919)
(-0.00369778321781 0.0295635040742 0.0101223307942)
(-0.0148468871733 0.02982612903 0.0055302630047)
(-0.0117019355779 0.0282599213708 0.00722209323977)
(-0.0109571147663 0.0292199873165 0.00962008909807)
(-0.0210196602121 0.0289026726017 0.00436616225944)
(-0.0188308868002 0.0275602460067 0.00624412494544)
(-0.0175953463038 0.0285673593397 0.00845735378476)
(-0.0254332665626 0.0277166479068 0.00270830025143)
(-0.0244256196042 0.0266045181613 0.00469121940763)
(-0.0229643258378 0.0276459417846 0.00654432965652)
(-0.0274103615887 0.0262053042105 0.000571541947129)
(-0.0277275607151 0.025425462114 0.00270659558126)
(-0.0264653279644 0.0264590882321 0.00395145051988)
(-0.0262456300763 0.024408826548 -0.00190318843209)
(-0.0283822143894 0.0238572697661 0.000155831009004)
(-0.0277379453218 0.0249216022783 0.000647468673519)
(-0.0216097075155 0.0226722031548 -0.00407148053398)
(-0.0251971467728 0.0221244103704 -0.00253660741706)
(-0.0260288268617 0.0232323214065 -0.00295242874072)
(-0.0139709480455 0.0211764248276 -0.00492042134394)
(-0.0188175620317 0.020622436634 -0.00440523791303)
(-0.0213623250994 0.021659521055 -0.00604709048131)
(-0.00503900205042 0.0196594389637 -0.00258263609737)
(-0.00970011582287 0.0192699432862 -0.0044011329476)
(-0.0136029446595 0.0203393074287 -0.00735113253103)
(-0.00137645413166 0.017701362954 -2.668867181e-05)
(-0.00451925691339 0.0193599823792 -0.00352328052209)
(0.00567219501202 0.0173081469467 -0.00184738781009)
(0.00185763927796 0.0145605213672 0.000368622932105)
(0.00493395587929 0.016807274589 -0.00253582540817)
(0.0150179328104 0.0187040865004 -0.00388983234266)
(0.0105447729438 0.0158796455556 -0.00356996455337)
(0.0145672375754 0.0177082225993 -0.00595333334621)
(0.0228804738562 0.0200664706273 -0.00287495034811)
(0.0199420584215 0.0170883842554 -0.00341122240555)
(0.0226449474306 0.0189183290562 -0.00432245731776)
(0.0276251112558 0.0215956601818 -0.000483775212937)
(0.0264718002582 0.0183404041712 -0.00143431420165)
(0.0274025767548 0.0202631864319 -0.000951235995467)
(0.0287663983696 0.0231500101293 0.00228369276386)
(0.0297157716045 0.019767519262 0.00155075330476)
(0.0290940998438 0.0216940618997 0.00295935602074)
(0.0266390552552 0.0244329249202 0.00468250622534)
(0.0289360576589 0.021034578586 0.00435398223883)
(0.0276771331638 0.0229782569009 0.00653112892751)
(0.0219815038322 0.0254146087211 0.00656248649905)
(0.0254373080637 0.0219630265876 0.00656019034008)
(0.0239700389224 0.0239527432952 0.00931148712575)
(0.0154985425031 0.026136031628 0.00793173851576)
(0.0195713462664 0.022683567916 0.00820347245333)
(0.0183443613294 0.0247082329356 0.0113696827676)
(0.00794758566604 0.0266039024168 0.00853999487435)
(0.0121389918685 0.0231363341674 0.00897051831)
(0.0114159246753 0.0252267471129 0.0126808780087)
(2.08729357687e-05 0.0267824834972 0.00860803198937)
(0.00409493742948 0.0234140524705 0.00908314852523)
(0.00387868297777 0.0255195084376 0.0131498758415)
(-0.00790692820232 0.0265993763477 0.00854124107943)
(-0.00405519088386 0.0234116220307 0.00908349806146)
(-0.00383675918102 0.0255171634148 0.0131511944027)
(-0.0154612933854 0.0261270838341 0.00793595518051)
(-0.012101408276 0.0231289752261 0.00897211754445)
(-0.0113763461771 0.0252197985092 0.0126853226362)
(-0.0219499371481 0.025402249877 0.00656918209362)
(-0.0195385596383 0.0226717008663 0.00820756112963)
(-0.0183093728892 0.0246972290659 0.0113771986174)
(-0.026613888554 0.0244190099644 0.00468951473746)
(-0.0254107717952 0.0219481686032 0.00656682018987)
(-0.0239410298133 0.0239390290302 0.00932030805317)
(-0.0287476513734 0.0231367159214 0.00229088464314)
(-0.0289156871998 0.021018709501 0.00436046776385)
(-0.027654060071 0.0229635755353 0.00654051942924)
(-0.0276124560183 0.0215840902381 -0.000477587975968)
(-0.0297012732111 0.0197531059611 0.00155773806297)
(-0.0290768236662 0.0216804252376 0.00296896935326)
(-0.0228723089311 0.020057370022 -0.0028703647961)
(-0.0264626883993 0.0183275765742 -0.00142966832199)
(-0.0273904035138 0.0202509227421 -0.000943315010784)
(-0.0150132396939 0.0186987313183 -0.00388594951668)
(-0.019936078677 0.0170789867988 -0.00340714284267)
(-0.0226365381278 0.018909077584 -0.00431562313425)
(-0.00567062834152 0.0173083054098 -0.00184518552204)
(-0.0105413371482 0.0158745493238 -0.00356624178655)
(-0.0145616446987 0.0177027348047 -0.00594722256742)
(-0.00185817639325 0.0145625152996 0.000369714822996)
(-0.00493271873735 0.0168080254461 -0.00253178467426)
(0.00635238339194 0.0133153010621 -0.00135395381117)
(0.00239655247807 0.0102390187593 0.000508722851956)
(0.0054095359408 0.0127959729216 -0.00203089008759)
(0.0160069574321 0.0144380248378 -0.00309135461626)
(0.0113033755134 0.0111673789551 -0.00300356722429)
(0.015440568901 0.0135314494198 -0.00494231744871)
(0.0240184646073 0.0155465342758 -0.00197058625909)
(0.0208962087085 0.0120973007858 -0.00271183006256)
(0.0237359504604 0.0145570731042 -0.00302043326796)
(0.0288103399084 0.0167294028042 0.000600214316048)
(0.0275156334855 0.0129979751769 -0.000700734666721)
(0.0285244702241 0.0155943759277 0.000550545519739)
(0.02987597996 0.0179029260877 0.00362104277973)
(0.030765287909 0.0140039064106 0.00254117879057)
(0.0301596841397 0.0166725238172 0.00469796687863)
(0.0275941722763 0.0188506968892 0.00623166635357)
(0.029858155169 0.0148750596166 0.00551592191755)
(0.0285980151768 0.0176205068095 0.00844132355784)
(0.0227037294783 0.0195548210763 0.00820117629436)
(0.0261597810526 0.0154883533228 0.00792791665758)
(0.0247270635532 0.0183326170918 0.0113651160325)
(0.0159313358769 0.020071297089 0.00924225224757)
(0.0200897257455 0.0159201738378 0.0092422126904)
(0.0188996798685 0.0188868685157 0.0135357903394)
(0.0081581565383 0.0204042080585 0.00951367196088)
(0.0124208479325 0.0162164353186 0.00965755784185)
(0.0117433271324 0.0192768232147 0.0146930829082)
(1.86307015601e-05 0.0205235989588 0.00955861459732)
(0.00416689375532 0.0163989447958 0.00974770832206)
(0.00397336799508 0.019485857693 0.0151546395136)
(-0.00812196725354 0.0203990928805 0.00951437452648)
(-0.00413249799451 0.0163965239913 0.00974798140653)
(-0.00393550257612 0.019483343383 0.0151557024677)
(-0.0158984543245 0.0200613331473 0.00924372349358)
(-0.0123885077547 0.016208953155 0.00965857992077)
(-0.0117077413333 0.0192692911169 0.0146965152796)
(-0.022675662801 0.0195406396832 0.00820519922588)
(-0.0200619127119 0.0159078804781 0.00924382740268)
(-0.0188686738332 0.0188749787006 0.0135410337961)
(-0.0275720551279 0.0188339243606 0.00623777321626)
(-0.0261374782624 0.01547195818 0.00793209495311)
(-0.0247015101811 0.0183172041859 0.0113726058197)
(-0.0298594922734 0.0178860774338 0.00362732118368)
(-0.0298411532671 0.0148570927905 0.00552057377622)
(-0.0285779264445 0.0176035468261 0.00844905463908)
(-0.0287990923726 0.0167139776272 0.000605657716947)
(-0.0307530758468 0.0139866212308 0.00254644140443)
(-0.0301446475893 0.0166559946742 0.00470608332163)
(-0.0240110914662 0.0155336889846 -0.00196644636856)
(-0.0275080576405 0.0129823400945 -0.000697320852701)
(-0.0285140152099 0.0155791575016 0.000557232060635)
(-0.0160025962873 0.0144291256074 -0.00308743511254)
(-0.0208912785936 0.0120848573143 -0.00270854022841)
(-0.0237287549454 0.0145446505342 -0.00301437078922)
(-0.0063510321671 0.0133122464708 -0.00135134144152)
(-0.011300518279 0.0111593742211 -0.00300019477996)
(-0.0154357587354 0.0135227484658 -0.0049363953519)
(-0.00239727618559 0.0102378212888 0.000510143760722)
(-0.00540859601044 0.0127931579832 -0.00202634303478)
(0.00695657628744 0.0082539940886 -0.00114089056117)
(0.0028261250047 0.00524262763247 0.000489023354368)
(0.00586756077071 0.00787431927429 -0.00196019450905)
(0.0168021656051 0.00898409041234 -0.0026240426706)
(0.0118433754339 0.0057198854166 -0.00273405906852)
(0.016137967621 0.00837464749268 -0.00439810601638)
(0.0248860865238 0.00971842926115 -0.00144197847019)
(0.0215443077601 0.00623631740236 -0.00234144736674)
(0.0245602593808 0.00909372100243 -0.00222294760389)
(0.029696612378 0.0104634920469 0.0012402298078)
(0.0282048624331 0.00671267621941 -0.00034063003987)
(0.0293375443113 0.00975827075484 0.00147476393801)
(0.0306919719879 0.0111828147767 0.00443605792839)
(0.0314473136865 0.00723235430051 0.003066922409)
(0.0309141590601 0.0104232068083 0.00577618478785)
(0.0282908320405 0.0117369560429 0.00721217222156)
(0.0304467887908 0.00767202105607 0.00613901095685)
(0.0292477485076 0.0109951383317 0.0096041726576)
(0.0231579050883 0.012133292882 0.00896895305363)
(0.0266266309166 0.00794778037433 0.00853894663147)
(0.0252463172816 0.0114129601593 0.0126734959328)
(0.016230181424 0.0124134740749 0.00965751828469)
(0.0204227856668 0.00815747221121 0.00951455603533)
(0.0192914133798 0.0117398075809 0.0146904229873)
(0.0083016138556 0.0125851319707 0.00989159420302)
(0.0125939883448 0.00829816376423 0.00989200410652)
(0.011957123174 0.0119517078849 0.0158468380517)
(1.5542369959e-05 0.0126488090448 0.00993707513126)
(0.00421270499183 0.00838280097479 0.00997806391555)
(0.00403155555831 0.0120668341133 0.0163022150031)
(-0.00827156692909 0.0125801735084 0.00989218680082)
(-0.00418435055422 0.00838061213579 0.00997830597082)
(-0.0039993678695 0.01206440509 0.0163030211772)
(-0.0162032294868 0.0124034168843 0.00965868382988)
(-0.0125676753481 0.00829130338214 0.00989277424175)
(-0.0119271309723 0.011944316772 0.0158493122201)
(-0.0231353723819 0.0121185685298 0.00897072312992)
(-0.0204006018081 0.00814583912525 0.0095156767972)
(-0.0192656377157 0.0117277165097 0.0146941835534)
(-0.0282733242102 0.0117190609235 0.00721489551307)
(-0.0266094567021 0.00793201212002 0.00854030175199)
(-0.0252256510099 0.0113970785283 0.0126778961386)
(-0.0306790550405 0.0111640071043 0.00443969399696)
(-0.0304339274381 0.00765415133818 0.00614049691204)
(-0.0292318690592 0.0109772493306 0.00960866917763)
(-0.029687874323 0.0104456672542 0.00124346283478)
(-0.0314381111121 0.00721447244642 0.00306905277678)
(-0.0309024754458 0.0104051501486 0.00578096351387)
(-0.0248805397949 0.00970300364361 -0.00143941471255)
(-0.0281994374981 0.00669628491313 -0.000339347469005)
(-0.0293297917456 0.00974136200833 0.00147871475232)
(-0.0167990623086 0.00897245373724 -0.00262129989584)
(-0.0215412447209 0.00622257581692 -0.00234003235506)
(-0.0245553829559 0.00907918292051 -0.00221920303852)
(-0.00695577697224 0.0082478407525 -0.00113870957772)
(-0.0118418306316 0.00571023520117 -0.00273227195469)
(-0.0161350023396 0.00836353139249 -0.00439415442448)
(-0.00282673268041 0.00523867997226 0.000490267863585)
(-0.00586716234778 0.00786807087705 -0.00195664181803)
(0.00731173381888 0.0027819655614 -0.00110414515298)
(0.00298928641728 -6.09152477944e-06 0.000459059503609)
(0.00615047324942 0.00264350160293 -0.00206302443626)
(0.0172449418442 0.0030413872186 -0.00245146376466)
(0.012038125693 6.72876350093e-06 -0.00266642205619)
(0.0165225669688 0.0028286245131 -0.0042200622238)
(0.0253533377159 0.00330416519834 -0.00124009893642)
(0.0217713589464 1.62770207313e-05 -0.00223405364464)
(0.0250040387806 0.00309603377364 -0.00188836637222)
(0.0301687024716 0.00356193150602 0.00148606256133)
(0.0284429824092 2.27588396404e-05 -0.000243372127521)
(0.0297640633797 0.00332922095654 0.00187454231457)
(0.03112877838 0.00380477827777 0.00476987543746)
(0.0316801867613 2.81067754579e-05 0.00321911647589)
(0.031306268166 0.00355605600544 0.00624416227323)
(0.0286602549289 0.00398537945294 0.00746578536677)
(0.0306425595314 3.03670160839e-05 0.00632487978754)
(0.0295852479826 0.00374670853872 0.0101101693057)
(0.0234333375302 0.00410005698937 0.00908454961318)
(0.0268013880537 2.99650561155e-05 0.00860914321298)
(0.0255368593936 0.00388470856373 0.0131447257146)
(0.0164118562785 0.00417036686551 0.00974904185717)
(0.020538924828 2.65562415455e-05 0.00956034400623)
(0.0194989047242 0.00397905434235 0.0151523912239)
(0.00838740714596 0.00421400631168 0.00997847381904)