/*--------------------------------*- C++ -*----------------------------------*\
| =========                 |                                                 |
| \\      /  F ield         | OpenFOAM: The Open Source CFD Toolbox           |
|  \\    /   O peration     | Version:  3.0.1                                 |
|   \\  /    A nd           | Web:      www.OpenFOAM.org                      |
|    \\/     M anipulation  |                                                 |
\*---------------------------------------------------------------------------*/
FoamFile
{
    version     2.0;
    format      ascii;
    class       volScalarField;
    location    "0.9";
    object      ddt0(epsilon);
}
// * * * * * * * * * * * * * * * * * * * * * * * * * * * * * * * * * * * * * //

dimensions      [0 2 -4 0 0 0 0];

internalField   nonuniform List<scalar> 
15984
(
-0.0593527715824
-0.0597024411953
-0.0596780718841
-0.0596604947716
-0.0596547573826
-0.059646785212
-0.0596437884726
-0.0596435580895
-0.0596452050705
-0.0596489914699
-0.0596534591512
-0.0596571989296
-0.0596652645185
-0.0596757993446
-0.0596766966198
-0.0596763561089
-0.0596763998499
-0.0596765873903
-0.0596752622789
-0.0596742260371
-0.0596735047456
-0.0596730661701
-0.059672862312
-0.0596728408893
-0.0596729525095
-0.059673154744
-0.0596734135449
-0.0596737023837
-0.0596740018144
-0.0596742975305
-0.0596745797417
-0.0596748419038
-0.0596750794272
-0.0596752952913
-0.0596755064864
-0.0596759952418
-0.0596789164906
-0.0596947125918
-0.0597133189621
-0.0593595001539
-0.0638825109055
-0.0676401520993
-0.0678113418737
-0.067715397301
-0.0676921185482
-0.0676854317816
-0.0676728539864
-0.0676461822642
-0.06762767116
-0.067628510012
-0.0676384550502
-0.0676495555847
-0.0676585376694
-0.067669224789
-0.0676707431913
-0.0676727579867
-0.0676775477664
-0.0676849882452
-0.06768791067
-0.067687272038
-0.0676867919585
-0.0676864941366
-0.0676863679822
-0.0676863874705
-0.0676865207169
-0.0676867354776
-0.0676870042986
-0.0676873039292
-0.0676876159191
-0.0676879256526
-0.0676882225233
-0.0676885003228
-0.06768875577
-0.0676890256989
-0.0676896533913
-0.0676939320069
-0.0677225102723
-0.0678311668601
-0.067649360865
-0.0638776423517
-0.0646280053432
-0.0716518351042
-0.0721494508912
-0.0719806391226
-0.0719366547235
-0.071926359953
-0.0718961727106
-0.0718300067452
-0.0717787852902
-0.0717746433605
-0.071795268085
-0.0718154074555
-0.0718349677038
-0.0718505641276
-0.0718545439337
-0.071857762513
-0.0718636289046
-0.0718719079999
-0.0718817786464
-0.0718818525289
-0.071881614713
-0.0718814611668
-0.0718814188484
-0.0718814851407
-0.0718816499615
-0.0718818889812
-0.0718821810359
-0.0718825080487
-0.0718828492921
-0.0718831916874
-0.0718835211315
-0.0718838350801
-0.0718841388712
-0.0718845555634
-0.0718861687093
-0.0718975572506
-0.0719654460437
-0.0721770273216
-0.0716809774108
-0.0646392086043
-0.0646232126646
-0.0725386525154
-0.0730742316503
-0.0728300228952
-0.0727711568191
-0.0727539255196
-0.0726940055167
-0.0725678906926
-0.0724580385768
-0.0724350340799
-0.0724652033389
-0.0724982237339
-0.0725252475201
-0.0725479837335
-0.0725549912289
-0.0725596279904
-0.0725662254389
-0.0725746663392
-0.072584692126
-0.0725894877022
-0.0725894182087
-0.0725893589059
-0.0725893676613
-0.0725894642692
-0.0725896523823
-0.072589920956
-0.0725902572733
-0.0725906429889
-0.0725910612347
-0.072591498443
-0.0725919522643
-0.0725924262748
-0.0725929753484
-0.0725938593096
-0.0725971998392
-0.0726173121807
-0.0727283587458
-0.0730671222866
-0.0725740182726
-0.0646520886142
-0.0645593490775
-0.0723954760828
-0.0727959107781
-0.0724497751606
-0.0723612292349
-0.0723366613355
-0.0722628344659
-0.0721034644539
-0.0719146173145
-0.071855944215
-0.0718914334589
-0.0719371029631
-0.0719733834083
-0.072001648189
-0.072012161709
-0.0720182575551
-0.0720256050554
-0.0720343737845
-0.072044227909
-0.072051473755
-0.0720514893025
-0.0720514579831
-0.0720514642357
-0.0720515428041
-0.0720517079507
-0.0720519575865
-0.0720522835906
-0.0720526764133
-0.0720531231214
-0.0720536190584
-0.0720541684391
-0.0720548081919
-0.0720556356856
-0.0720570090795
-0.07206146631
-0.0720877908471
-0.0722361715611
-0.0727037509142
-0.0724112396142
-0.0646024300691
-0.0645223494997
-0.0721727366695
-0.0724199792325
-0.071983474284
-0.0718860992868
-0.071855377113
-0.0717560227914
-0.0715689706226
-0.0713396501129
-0.0712326390392
-0.0712672875985
-0.0713234301579
-0.071367448728
-0.0714012839705
-0.0714148721824
-0.0714219497932
-0.0714299586518
-0.0714390861351
-0.0714490930568
-0.0714568816757
-0.0714569318546
-0.0714568994143
-0.0714568843423
-0.0714569268392
-0.0714570446487
-0.0714572378909
-0.0714575068005
-0.0714578452416
-0.0714582440738
-0.0714586986396
-0.0714592184486
-0.0714598517325
-0.0714606930827
-0.0714621868687
-0.0714670494535
-0.0714982211653
-0.0716730847941
-0.0722373920269
-0.0721471273916
-0.0645760378009
-0.0645043081854
-0.0720739358903
-0.0722242764686
-0.0717653894805
-0.0716768944061
-0.0716423983899
-0.0715138518459
-0.0712798796922
-0.07102824186
-0.070870087876
-0.0708993586643
-0.0709629058154
-0.0710127425212
-0.0710508867889
-0.0710673313864
-0.0710750907575
-0.0710835156783
-0.0710929545094
-0.0711032824238
-0.0711106523986
-0.0711107208881
-0.0711106834299
-0.0711106507737
-0.0711106655215
-0.071110743506
-0.0711108874126
-0.0711110937718
-0.0711113606622
-0.0711116804499
-0.0711120534356
-0.0711124841474
-0.0711130084475
-0.0711137240743
-0.0711151053302
-0.071120810406
-0.0711546501675
-0.0713441619431
-0.0719639436446
-0.071998385143
-0.064566207641
-0.0644943579489
-0.072056461524
-0.0721746617105
-0.0717245984746
-0.0716517480072
-0.0716143207477
-0.0714593184677
-0.0711838827856
-0.070910420864
-0.0707106210263
-0.0707340790134
-0.0708027130054
-0.0708565710915
-0.0708977485969
-0.0709164563675
-0.0709248509513
-0.0709333610958
-0.0709430708723
-0.0709535375107
-0.0709604206842
-0.0709604980663
-0.0709604632589
-0.0709604215244
-0.0709604221695
-0.07096048
-0.0709605943805
-0.0709607605659
-0.0709609741643
-0.0709612294846
-0.0709615266757
-0.0709618708372
-0.0709622933138
-0.0709628922937
-0.0709641347511
-0.070969928147
-0.0710055845369
-0.0712017167376
-0.0718469355842
-0.0719389472095
-0.0645631742848
-0.0644878709796
-0.0720624402503
-0.0721790868187
-0.0717437936919
-0.0716844752119
-0.0716437874942
-0.0714706900608
-0.071167454807
-0.0708767275006
-0.0706509599268
-0.070671126689
-0.070742914591
-0.0707994815619
-0.0708425860191
-0.0708628640574
-0.0708716406499
-0.0708802571719
-0.0708900800833
-0.0709007199683
-0.0709071352816
-0.0709072121999
-0.0709071812316
-0.0709071364651
-0.0709071319271
-0.0709071808107
-0.0709072828775
-0.0709074301035
-0.0709076151418
-0.0709078318324
-0.0709080802332
-0.0709083664069
-0.0709087201599
-0.0709092339362
-0.0709103867765
-0.070916117679
-0.0709527173609
-0.0711513683915
-0.0718062568184
-0.0719197660843
-0.0645623659187
-0.0644842638838
-0.0720674677248
-0.0721883473681
-0.0717620476104
-0.0717107206558
-0.0716667938226
-0.0714852451009
-0.0711689188947
-0.0708687693266
-0.0706318007884
-0.0706508501755
-0.0707243539596
-0.0707823144152
-0.0708262904216
-0.0708474169437
-0.0708563810803
-0.0708650870331
-0.070874949115
-0.070885692889
-0.0708918264659
-0.0708919013302
-0.0708918736357
-0.0708918286762
-0.0708918227116
-0.0708918682731
-0.070891966655
-0.0708921077848
-0.0708922823127
-0.0708924829527
-0.0708927093955
-0.0708929661231
-0.0708932846388
-0.0708937547612
-0.0708948693092
-0.0709005621317
-0.0709372704605
-0.0711369540061
-0.071794796084
-0.0719147137701
-0.064562188153
-0.0644841805041
-0.0720671775835
-0.072188173096
-0.0717618019147
-0.0717102895535
-0.071666455264
-0.0714849898684
-0.0711687919804
-0.0708684625725
-0.0706317288385
-0.0706508464515
-0.0707243479341
-0.0707823020325
-0.0708262887055
-0.0708474100259
-0.0708563739852
-0.0708650772678
-0.0708749456466
-0.0708856982564
-0.0708918268145
-0.0708919019648
-0.0708918766177
-0.0708918329283
-0.0708918278428
-0.0708918747065
-0.0708919740516
-0.0708921163232
-0.0708922914341
-0.0708924928583
-0.0708927193454
-0.0708929751863
-0.0708932931918
-0.0708937623419
-0.0708948759604
-0.0709005659987
-0.0709372703587
-0.0711369583039
-0.0717947950887
-0.0719147056027
-0.0645622018436
-0.0644875797664
-0.0720614982745
-0.0721785301244
-0.071743117108
-0.0716834899337
-0.0716429106105
-0.071470020892
-0.0711671049984
-0.0708759027217
-0.070650739486
-0.0706710928871
-0.0707428930118
-0.0707994299051
-0.0708425764286
-0.0708628406017
-0.0708716127965
-0.0708802412691
-0.070890080972
-0.0709007407897
-0.0709071368921
-0.0709072153376
-0.0709071896133
-0.0709071482198
-0.0709071467482
-0.0709071984542
-0.0709073033492
-0.070907452757
-0.0709076389602
-0.0709078568191
-0.0709081032216
-0.0709083867615
-0.0709087362594
-0.0709092465668
-0.0709103957692
-0.0709161181396
-0.0709527185732
-0.0711513767757
-0.0718062497418
-0.0719197367275
-0.0645624060324
-0.0644939996288
-0.0720551882918
-0.0721737887496
-0.0717235387102
-0.0716505126571
-0.0716132246756
-0.0714583425913
-0.0711833580721
-0.0709092098284
-0.0707103459295
-0.070734067827
-0.0708027382326
-0.070856541356
-0.0708977357353
-0.0709164123172
-0.0709248283364
-0.0709333572124
-0.0709430946787
-0.0709535835598
-0.0709604256483
-0.070960510897
-0.0709604808543
-0.0709604440769
-0.0709604483066
-0.0709605092116
-0.0709606261791
-0.0709607936119
-0.0709610070727
-0.0709612603319
-0.0709615509628
-0.07096189033
-0.0709623065934
-0.0709628919993
-0.0709641243027
-0.0709699025848
-0.0710056220612
-0.0712017273314
-0.0718469218128
-0.0719388953045
-0.0645632385073
-0.064503921291
-0.0720725366454
-0.0722232228832
-0.0717641107296
-0.0716755602376
-0.0716412039181
-0.0715127579664
-0.0712792804252
-0.0710268991316
-0.0708698580482
-0.0708993821353
-0.0709629529065
-0.071012708895
-0.0710508729864
-0.0710673001425
-0.0710750760841
-0.0710835292759
-0.0710930486855
-0.0711033991335
-0.0711106800091
-0.071110761878
-0.0711107287619
-0.0711107008294
-0.0711107186328
-0.0711107983859
-0.0711109410944
-0.0711111449481
-0.0711114058312
-0.0711117169579
-0.0711120760278
-0.0711124941556
-0.0711130024813
-0.0711137056346
-0.0711150558553
-0.071120829677
-0.0711546981826
-0.0713441779978
-0.0719639244056
-0.0719983048248
-0.0645662905968
-0.0645220222464
-0.0721714952481
-0.0724188515117
-0.0719821833893
-0.0718848266255
-0.0718542209134
-0.0717549762815
-0.0715683341906
-0.0713385029222
-0.0712325879376
-0.0712674294205
-0.0713235461187
-0.0713674711788
-0.0714013332442
-0.0714149058207
-0.0714219627585
-0.0714300414384
-0.0714392524411
-0.0714493340328
-0.071456971424
-0.0714570319334
-0.0714570037039
-0.0714569909163
-0.0714570329783
-0.0714571457185
-0.0714573333256
-0.0714575926321
-0.0714579176308
-0.071458298913
-0.071458735717
-0.071459238814
-0.0714598360985
-0.0714606538524
-0.0714620989778
-0.0714671218209
-0.0714982877763
-0.0716731172011
-0.0722373733007
-0.0721470140914
-0.0645761324121
-0.0645591388164
-0.0723945866361
-0.0727936149842
-0.0724485306966
-0.0723599845816
-0.0723355020459
-0.0722618223623
-0.0721014427764
-0.0719138406223
-0.0718560597632
-0.0718917108065
-0.0719372593583
-0.0719734546325
-0.072001843711
-0.0720121706819
-0.0720183124766
-0.0720257346004
-0.0720346358275
-0.0720445886389
-0.0720516292933
-0.0720516500471
-0.0720516209023
-0.0720516270957
-0.072051702815
-0.0720518601599
-0.0720520989876
-0.0720524114417
-0.0720527876839
-0.0720532158874
-0.0720536888208
-0.0720542127905
-0.0720548186397
-0.072055594315
-0.0720569237072
-0.0720615230976
-0.0720878621397
-0.0722362127195
-0.0727037229264
-0.0724110796479
-0.0646025248589
-0.0646230917202
-0.0725382099828
-0.0730727084421
-0.0728273803876
-0.072767884911
-0.0727508567727
-0.0726914591304
-0.0725665455692
-0.072457764157
-0.0724353105521
-0.0724654946551
-0.0724984011643
-0.072525372014
-0.0725479993562
-0.072554938664
-0.0725596688599
-0.0725663656276
-0.072574949566
-0.0725851560256
-0.0725896400585
-0.0725895723471
-0.0725895131838
-0.0725895206865
-0.0725896140666
-0.0725897937812
-0.0725900505341
-0.0725903733928
-0.0725907425651
-0.0725911457869
-0.0725915644714
-0.0725919963658
-0.0725924457219
-0.0725929582665
-0.0725937941406
-0.0725970456275
-0.0726170714637
-0.0727283183851
-0.0730670073207
-0.0725735276372
-0.064652162199
-0.0646280900339
-0.071651722964
-0.0721486838392
-0.0719788467513
-0.0719344085154
-0.0719241803635
-0.0718944652054
-0.0718292112698
-0.0717787346729
-0.0717748991716
-0.07179550191
-0.0718155964797
-0.0718351979216
-0.0718504629374
-0.0718544544808
-0.0718577845737
-0.0718637690837
-0.0718721842286
-0.0718821046553
-0.0718819280438
-0.0718817039697
-0.0718815555514
-0.0718815162337
-0.0718815842726
-0.0718817475382
-0.071881985569
-0.071882275099
-0.0718825984027
-0.0718829371436
-0.0718832751489
-0.0718836022082
-0.0718839115135
-0.0718842095813
-0.0718846149584
-0.0718862039666
-0.0718975582531
-0.0719653194688
-0.0721768383648
-0.071680660223
-0.0646392436147
-0.0638826828237
-0.0676401826704
-0.0678108937448
-0.0677143023194
-0.0676907320373
-0.0676841252835
-0.0676718621781
-0.0676457915089
-0.0676276727718
-0.0676286659476
-0.0676387133137
-0.067649847758
-0.0676584536838
-0.0676691676903
-0.0676707653491
-0.0676728420095
-0.0676777349409
-0.067685322565
-0.0676879601544
-0.0676873253367
-0.0676868510258
-0.0676865593636
-0.0676864391471
-0.0676864642272
-0.0676866027854
-0.0676868228353
-0.0676870967903
-0.0676874014716
-0.0676877178562
-0.0676880317938
-0.0676883326964
-0.0676886139489
-0.067688872765
-0.0676891450928
-0.0676897746504
-0.0676940516712
-0.0677226224842
-0.0678312461659
-0.0676493798357
-0.0638776772513
-0.0593527969731
-0.0597025080962
-0.0596780749452
-0.0596603997902
-0.059654618715
-0.05964666568
-0.0596437726858
-0.0596436433986
-0.0596453118938
-0.0596490456517
-0.0596535108474
-0.0596571347978
-0.0596653349795
-0.0596758858967
-0.0596767825413
-0.0596765088655
-0.0596766371584
-0.0596766634009
-0.0596753387562
-0.0596743066153
-0.0596735894185
-0.0596731555243
-0.0596729565134
-0.0596729397839
-0.0596730560923
-0.0596732629981
-0.059673526356
-0.0596738194587
-0.0596741226038
-0.0596744216401
-0.0596747067499
-0.0596749715014
-0.059675211501
-0.0596754295131
-0.0596756424991
-0.0596761325779
-0.059679056482
-0.0596948485162
-0.0597134394568
-0.0593595819148
-0.0638724817403
-0.0676509029626
-0.0678322380546
-0.0677338392087
-0.0677098592367
-0.0677021869896
-0.0676896352501
-0.0676681902153
-0.0676503022142
-0.0676465883388
-0.0676522165195
-0.0676611354445
-0.0676724349624
-0.0676830806134
-0.0676873067142
-0.0676880616886
-0.0676886366881
-0.06768901726
-0.0676891645355
-0.0676893316831
-0.0676895383326
-0.0676897947229
-0.0676900885904
-0.0676904066924
-0.0676907342239
-0.0676910579355
-0.0676913698154
-0.0676916648016
-0.0676919381633
-0.0676921890093
-0.067692415359
-0.0676926186623
-0.067692797943
-0.0676929982526
-0.0676935520642
-0.0676977629301
-0.0677262525509
-0.067834765197
-0.0676526575097
-0.0638802979121
-0.0495238585553
-0.0419748444573
-0.0416730849736
-0.0415351152934
-0.0415157289424
-0.0415132308363
-0.0414985404901
-0.0414669016283
-0.0414380067236
-0.0414285387238
-0.041432316469
-0.0414394200034
-0.0414461406168
-0.0414507984574
-0.0414539897083
-0.0414566592628
-0.0414590935815
-0.0414612176542
-0.0414627553632
-0.0414633232421
-0.0414636777464
-0.0414638863296
-0.0414639933082
-0.041464032271
-0.0414640271451
-0.0414639946832
-0.0414639470656
-0.0414638922117
-0.0414638347002
-0.0414637767315
-0.0414637187673
-0.0414636613336
-0.0414636058506
-0.041463596088
-0.0414640575504
-0.0414689244138
-0.0415036851135
-0.0416658696374
-0.0419772540496
-0.0495364006762
-0.0530443460801
-0.0423325069216
-0.041599264417
-0.0413734086991
-0.0413408552976
-0.0413357565833
-0.0413128688823
-0.0412645939953
-0.0412202438848
-0.0412056885799
-0.041211350353
-0.0412216041271
-0.0412309858083
-0.0412380615196
-0.0412427190801
-0.0412464355716
-0.0412495140317
-0.0412519784516
-0.0412537872184
-0.0412543929477
-0.0412544605576
-0.041254400348
-0.0412542768102
-0.0412541293527
-0.0412539820447
-0.0412538465426
-0.0412537283328
-0.0412536291303
-0.0412535473348
-0.0412534796532
-0.041253421954
-0.0412533709727
-0.0412533290135
-0.041253376243
-0.041254309823
-0.0412627524964
-0.0413192390549
-0.0415838097672
-0.0423364959284
-0.0530626812474
-0.0535040167812
-0.0419893508811
-0.0409605912041
-0.0406514725214
-0.0406038645724
-0.040594968815
-0.0405627512572
-0.0404958892577
-0.0404321397268
-0.0404118181538
-0.0404210829845
-0.0404358915854
-0.0404485543336
-0.0404575306701
-0.0404633919136
-0.0404677392309
-0.0404711476255
-0.0404737586646
-0.0404756137448
-0.0404765739132
-0.0404765051178
-0.0404763171551
-0.0404760899539
-0.0404758653029
-0.0404756667351
-0.0404755030168
-0.0404753747103
-0.0404752813208
-0.040475216203
-0.0404751737346
-0.0404751466969
-0.0404751306208
-0.0404751340753
-0.0404752839865
-0.0404768014461
-0.0404891523805
-0.040568110789
-0.0409296114031
-0.0419902243488
-0.053534975287
-0.0534233147767
-0.0415795482038
-0.0403608862422
-0.0399828985197
-0.0399193802023
-0.0399064350192
-0.0398682916305
-0.0397900526164
-0.0397024882003
-0.0396720784942
-0.0396842294096
-0.0397036603442
-0.0397196022668
-0.0397302826204
-0.0397370374808
-0.0397418295827
-0.0397454756435
-0.0397482024849
-0.039750109844
-0.0397512705606
-0.0397511599502
-0.0397509182907
-0.0397506463253
-0.0397503880157
-0.0397501664833
-0.0397499900686
-0.0397498597557
-0.0397497714117
-0.0397497185619
-0.0397496938572
-0.0397496901974
-0.039749703404
-0.039749747112
-0.0397499853293
-0.0397519752958
-0.0397674110325
-0.0398641102801
-0.0402993486921
-0.0415664162329
-0.0534638245158
-0.053332519321
-0.0413424914201
-0.0400148778068
-0.039596514772
-0.0395277308315
-0.0395120177617
-0.0394631352551
-0.0393670076892
-0.0392625066232
-0.0392168297968
-0.0392293596437
-0.0392524003694
-0.0392710415355
-0.0392832986369
-0.039290680102
-0.0392957640042
-0.0392995874299
-0.0393024061281
-0.0393043515468
-0.0393055375755
-0.0393054445567
-0.039305181812
-0.039304889609
-0.0393046133233
-0.0393043763554
-0.039304187342
-0.0393040481367
-0.039303954267
-0.0393038989026
-0.0393038727261
-0.0393038705021
-0.0393038880464
-0.0393039391787
-0.0393042117748
-0.0393064803281
-0.0393239732466
-0.0394322279267
-0.0399138545153
-0.0413033713609
-0.0533765821055
-0.0532897078085
-0.0412532663793
-0.0398749595397
-0.0394453024098
-0.0393799970072
-0.039362732651
-0.0393006047197
-0.0391819213024
-0.0390616895449
-0.0389983929569
-0.0390091553366
-0.0390345296582
-0.0390551228881
-0.0390686102687
-0.0390764931792
-0.0390817704584
-0.0390857040566
-0.0390885947375
-0.0390905737647
-0.0390917587712
-0.0390916190472
-0.0390913490331
-0.0390910477456
-0.0390907616621
-0.0390905138905
-0.0390903134831
-0.0390901617703
-0.0390900567175
-0.039089989642
-0.0390899550868
-0.039089943733
-0.0390899518019
-0.0390899942826
-0.0390902758219
-0.039092713817
-0.0391113836291
-0.0392258120663
-0.0397317535148
-0.0411829714246
-0.0533332064678
-0.05327493139
-0.0412353238886
-0.0398401125522
-0.0394128895809
-0.0393542884465
-0.0393361052086
-0.0392618557524
-0.0391235081558
-0.0389894062189
-0.0389111619278
-0.0389196822468
-0.0389464851341
-0.0389683903282
-0.0389827575594
-0.0389910077075
-0.0389964257509
-0.0390004071654
-0.0390033521733
-0.0390053458439
-0.0390064700565
-0.039006329254
-0.0390060575365
-0.0390057528068
-0.0390054616554
-0.0390052083123
-0.0390050003303
-0.039004839516
-0.0390047232007
-0.0390046452037
-0.0390045995337
-0.0390045779699
-0.0390045763946
-0.0390046116471
-0.0390048934493
-0.0390074033802
-0.0390266516262
-0.0391438644189
-0.0396605717627
-0.0411381795557
-0.0533169758861
-0.0532704797412
-0.0412381948862
-0.0398395490471
-0.0394170869405
-0.0393641577306
-0.0393453680819
-0.0392627116599
-0.0391116776823
-0.03896837833
-0.0388808156496
-0.0388878769075
-0.0389155444069
-0.038938287574
-0.0389532217475
-0.0389617103807
-0.0389672207317
-0.038971234472
-0.0389742017465
-0.0389762072998
-0.0389772782358
-0.0389771367901
-0.0389768658796
-0.0389765605407
-0.0389762677139
-0.0389760108147
-0.0389757996709
-0.0389756337548
-0.0389755106777
-0.0389754249576
-0.0389753709896
-0.0389753416393
-0.0389753334626
-0.0389753622064
-0.0389756431702
-0.0389781747717
-0.0389976301398
-0.0391159631492
-0.0396367519073
-0.0411240357612
-0.0533119240296
-0.0532690911692
-0.0412419283845
-0.0398431743478
-0.0394234596213
-0.0393736656548
-0.0393544807769
-0.0392676313897
-0.0391108632662
-0.0389633221661
-0.0388717727353
-0.0388782670242
-0.0389063866622
-0.0389295452402
-0.0389447609482
-0.0389533680325
-0.0389589233626
-0.0389629587367
-0.0389659327841
-0.0389679427222
-0.0389689840602
-0.0389688422596
-0.038968572409
-0.0389682670976
-0.0389679738051
-0.0389677159758
-0.0389675030939
-0.0389673355919
-0.0389672095783
-0.0389671202362
-0.0389670619093
-0.0389670282607
-0.0389670161475
-0.038967041104
-0.0389673223314
-0.0389698601132
-0.0389893773754
-0.0391080758219
-0.0396301284115
-0.0411203133296
-0.0533106180098
-0.0532690417204
-0.0412418521442
-0.0398431481228
-0.0394234467126
-0.039373677631
-0.0393544660611
-0.0392676225717
-0.0391108535692
-0.0389632718761
-0.0388717614827
-0.0388782680324
-0.0389063893711
-0.0389295477955
-0.0389447646514
-0.03895337072
-0.0389589270117
-0.0389629623132
-0.0389659360831
-0.0389679466725
-0.0389689875092
-0.038968846108
-0.03896857657
-0.0389682714786
-0.038967978407
-0.0389677208285
-0.0389675080805
-0.0389673407627
-0.0389672147983
-0.0389671254134
-0.0389670669189
-0.038967032992
-0.038967020736
-0.0389670457178
-0.0389673268927
-0.0389698643989
-0.0389893814844
-0.0391080808326
-0.0396301330228
-0.0411203156873
-0.0533106169862
-0.0532703414973
-0.0412379695516
-0.0398394626159
-0.0394170424563
-0.0393641784022
-0.0393453899359
-0.0392626741523
-0.0391116452188
-0.0389682402496
-0.0388807848607
-0.0388878822176
-0.0389155534049
-0.0389382952324
-0.0389532323768
-0.0389617193492
-0.0389672321296
-0.0389712465898
-0.0389742136611
-0.0389762204818
-0.0389772889616
-0.038977148237
-0.0389768786457
-0.0389765737902
-0.03897628152
-0.0389760250526
-0.0389758144307
-0.0389756487492
-0.038975525436
-0.038975439432
-0.0389753846439
-0.0389753543453
-0.0389753455941
-0.0389753741573
-0.0389756553782
-0.03897818693
-0.0389976415694
-0.0391159781246
-0.0396367657513
-0.0411240425391
-0.0533119176956
-0.0532747443227
-0.0412350059601
-0.0398399687126
-0.0394128161355
-0.0393543126461
-0.0393361420572
-0.0392617903439
-0.0391234549022
-0.0389892084703
-0.0389111289017
-0.0389196992333
-0.0389465107922
-0.0389684107654
-0.0389827778941
-0.0389910254194
-0.0389964506638
-0.0390004327434
-0.0390033790209
-0.0390053726726
-0.0390064911652
-0.0390063517673
-0.0390060804681
-0.0390057765849
-0.0390054860448
-0.03900523304
-0.0390050253432
-0.0390048641852
-0.0390047467442
-0.0390046682169
-0.0390046203421
-0.0390045980647
-0.0390045962044
-0.0390046296307
-0.0390049119553
-0.0390074218568
-0.0390266698451
-0.0391438908199
-0.0396605963779
-0.0411381971674
-0.0533169643545
-0.0532895193602
-0.0412529116916
-0.03987477778
-0.0394452140776
-0.0393800147417
-0.0393627444509
-0.0393005270801
-0.0391818622379
-0.0390614786239
-0.0389983791947
-0.039009192315
-0.0390345697801
-0.0390551582319
-0.0390686429748
-0.0390765282184
-0.0390818098507
-0.0390857477304
-0.0390886487678
-0.0390906232107
-0.0390917959495
-0.0390916580147
-0.0390913881283
-0.0390910873015
-0.0390908012319
-0.0390905533172
-0.0390903521033
-0.0390901990508
-0.0390900913553
-0.0390900226218
-0.0390899843632
-0.0390899716743
-0.039089978456
-0.0390900207674
-0.0390903015015
-0.0390927393366
-0.0391114238838
-0.0392258536247
-0.0397317919217
-0.0411829973569
-0.0533331820261
-0.0533323827631
-0.041342163865
-0.0400146399645
-0.0395963982743
-0.0395277220275
-0.0395119941563
-0.0394630454129
-0.0393669254166
-0.0392623324481
-0.0392168567569
-0.0392294278316
-0.0392524636107
-0.0392710979052
-0.0392833533562
-0.0392907411125
-0.0392958239012
-0.0392996593178
-0.0393024882199
-0.0393044325236
-0.0393056160127
-0.0393055054218
-0.0393052425172
-0.0393049497804
-0.0393046725924
-0.0393044339966
-0.039304243071
-0.0393041009445
-0.0393040029949
-0.0393039434207
-0.0393039149031
-0.0393039107332
-0.039303924436
-0.0393039735524
-0.0393042484305
-0.0393065231965
-0.0393240298887
-0.0394322869389
-0.0399139077149
-0.0413034048785
-0.0533765359634
-0.0534232534105
-0.0415792788543
-0.0403604225992
-0.0399826634791
-0.039919228051
-0.0399062928752
-0.0398681145726
-0.0397897208698
-0.0397023657523
-0.0396721357251
-0.0396843171682
-0.039703735402
-0.039719667213
-0.0397303560231
-0.0397371046304
-0.0397419024969
-0.0397455645888
-0.0397483048521
-0.0397502099659
-0.0397513522245
-0.0397512326093
-0.0397509899927
-0.0397507167452
-0.0397504566453
-0.0397502325829
-0.0397500534235
-0.0397499197145
-0.0397498277311
-0.0397497706002
-0.0397497411838
-0.0397497333934
-0.0397497439229
-0.0397497823646
-0.0397500180664
-0.0397520111829
-0.0397674675224
-0.0398641732558
-0.0402994028764
-0.0415664459832
-0.0534637406
-0.0535040268457
-0.0419891410539
-0.0409601637819
-0.0406508875422
-0.0406032381179
-0.0405943605591
-0.040562219786
-0.0404955757342
-0.0404320652841
-0.0404118742314
-0.0404211529682
-0.0404359475112
-0.0404486021641
-0.040457591461
-0.0404634259989
-0.040467791979
-0.0404712161307
-0.0404738401076
-0.0404756985257
-0.0404766277616
-0.0404765567843
-0.0404763674469
-0.040476138765
-0.0404759123378
-0.0404757109472
-0.0404755443562
-0.0404754131678
-0.0404753159963
-0.0404752478384
-0.0404752008122
-0.0404751707993
-0.0404751506713
-0.0404751501756
-0.0404752968247
-0.0404768079054
-0.0404891542753
-0.0405681344073
-0.0409296246074
-0.0419901906619
-0.0535348209792
-0.0530444270779
-0.0423323414548
-0.0415989132261
-0.0413728681107
-0.0413402658437
-0.041335176461
-0.0413123777491
-0.0412643309416
-0.0412201835865
-0.0412057220785
-0.0412113919873
-0.0412216408036
-0.0412310137177
-0.0412380491745
-0.0412427159654
-0.041246449575
-0.041249542302
-0.04125201739
-0.0412538297217
-0.0412544073815
-0.0412544745208
-0.0412544146153
-0.0412542910111
-0.0412541432486
-0.0412539951402
-0.0412538590342
-0.0412537398872
-0.0412536396543
-0.0412535564637
-0.0412534870696
-0.0412534278296
-0.0412533749242
-0.0412533316028
-0.0412533774456
-0.0412543100768
-0.0412627520321
-0.0413192330789
-0.0415837982727
-0.0423364754466
-0.0530624838106
-0.0495240643738
-0.0419747136918
-0.041672847506
-0.0415347225359
-0.041515306889
-0.041512830646
-0.0414982150955
-0.0414667551041
-0.0414380021078
-0.0414285890929
-0.0414323872992
-0.0414394876877
-0.0414461684807
-0.0414508164228
-0.0414539986407
-0.0414566746781
-0.0414591200228
-0.0414612537679
-0.0414627736888
-0.0414633426536
-0.0414636991576
-0.041463909878
-0.0414640189641
-0.0414640596079
-0.0414640558191
-0.0414640247099
-0.0414639782051
-0.0414639242715
-0.04146386704
-0.0414638089406
-0.041463750769
-0.0414636928822
-0.0414636374448
-0.041463627609
-0.0414640903504
-0.0414689581626
-0.0415037204144
-0.0416658928738
-0.0419772529291
-0.0495362419566
-0.0638725464519
-0.0676509488314
-0.0678323048237
-0.0677337682653
-0.0677097478334
-0.0677021443561
-0.0676897165566
-0.0676684500257
-0.0676506004047
-0.0676468191028
-0.0676523803589
-0.0676612328242
-0.0676722377409
-0.0676833212534
-0.0676873587207
-0.0676881005717
-0.0676886945966
-0.0676890823567
-0.067689257053
-0.0676894308769
-0.0676896444442
-0.0676899078249
-0.0676902097851
-0.0676905355513
-0.0676908707194
-0.0676912032564
-0.0676915242488
-0.0676918277478
-0.0676921082099
-0.0676923642744
-0.0676925944993
-0.0676928006569
-0.0676929827537
-0.0676931842411
-0.0676937390173
-0.0676979421121
-0.06772641472
-0.0678348540715
-0.0676526204764
-0.0638803146002
-0.0646436740174
-0.0717188874761
-0.0722286230932
-0.0720397767304
-0.0719845455422
-0.0719720716853
-0.0719499654555
-0.0719080883946
-0.0718680728246
-0.0718508573129
-0.0718514799313
-0.0718591196065
-0.0718706302377
-0.0718808503131
-0.0718860228076
-0.0718866561763
-0.071886037117
-0.0718851886394
-0.0718851649838
-0.0718852475235
-0.0718854194722
-0.0718856783499
-0.0718860077203
-0.071886374538
-0.0718867617888
-0.0718871489484
-0.0718875175064
-0.0718878628571
-0.0718881813748
-0.0718884722712
-0.0718887337253
-0.0718889656167
-0.0718891671033
-0.0718894621044
-0.0718908888149
-0.0719020492978
-0.0719692585643
-0.0721807423095
-0.07168408696
-0.0646427757495
-0.0530615913578
-0.0423712932435
-0.0416290670391
-0.0413890945697
-0.0413486549047
-0.0413415917506
-0.0413228404533
-0.0412855024296
-0.0412496432704
-0.0412343598499
-0.0412339890889
-0.0412380336901
-0.0412424289987
-0.0412457040512
-0.0412478398708
-0.0412493768178
-0.0412506009849
-0.0412515827449
-0.0412524000169
-0.041253111337
-0.0412536411924
-0.041254015568
-0.0412542625819
-0.0412544085369
-0.0412544783367
-0.0412544930146
-0.0412544693783
-0.0412544210807
-0.041254357725
-0.0412542855974
-0.0412542086881
-0.0412541306221
-0.0412540584498
-0.0412540783192
-0.0412549847976
-0.0412633948759
-0.041319834648
-0.0415843554138
-0.0423369181049
-0.053062806761
-0.0575668490009
-0.0413518623137
-0.0398012375276
-0.0394379903334
-0.0393819477778
-0.0393717384512
-0.039347063482
-0.0393000236285
-0.0392553140239
-0.0392365430498
-0.0392366928567
-0.0392420904551
-0.0392474901017
-0.0392517690764
-0.0392547616213
-0.0392569965528
-0.0392586463283
-0.0392598183087
-0.0392606036147
-0.039261101796
-0.0392614029218
-0.0392615603228
-0.0392616157771
-0.0392616015825
-0.0392615425468
-0.0392614564706
-0.0392613561621
-0.0392612506348
-0.0392611456573
-0.0392610439569
-0.0392609469025
-0.0392608559093
-0.0392607813082
-0.0392608506156
-0.0392622284806
-0.0392740156284
-0.0393518558114
-0.0397482380607
-0.0413139861234
-0.0575671298914
-0.058245423077
-0.0404197064249
-0.0383996024773
-0.0379300941392
-0.0378565326465