/*--------------------------------*- C++ -*----------------------------------*\
| =========                 |                                                 |
| \\      /  F ield         | OpenFOAM: The Open Source CFD Toolbox           |
|  \\    /   O peration     | Version:  3.0.1                                 |
|   \\  /    A nd           | Web:      www.OpenFOAM.org                      |
|    \\/     M anipulation  |                                                 |
\*---------------------------------------------------------------------------*/
FoamFile
{
    version     2.0;
    format      ascii;
    class       volScalarField;
    location    "0.9";
    object      epsilon_0;
}
// * * * * * * * * * * * * * * * * * * * * * * * * * * * * * * * * * * * * * //

dimensions      [0 2 -3 0 0 0 0];

internalField   nonuniform List<scalar> 
15984
(
0.0157024923046
0.0162621429614
0.0163800217835
0.0163916554215
0.0163869745972
0.016383761733
0.0163863529753
0.0163873360112
0.0163822251072
0.016371999136
0.0163613826154
0.0163535943761
0.0163492849164
0.0163476692955
0.0163473107729
0.0163469718191
0.0163466576003
0.0163463873145
0.0163460697584
0.0163456833636
0.016345272565
0.0163448664493
0.0163444827848
0.0163441314891
0.0163438170446
0.0163435403447
0.0163433001562
0.016343094061
0.0163429189986
0.016342772067
0.0163426506907
0.0163425526832
0.0163424766577
0.0163424200705
0.0163423795882
0.0163422613955
0.0163410342435
0.0163277299758
0.0162189546056
0.0156799825121
0.0192357738935
0.0230082187744
0.0239065791611
0.0240210796933
0.0240227640754
0.024016845555
0.0240176688122
0.0240275151071
0.0240270035863
0.0240035566189
0.0239722368279
0.0239457222293
0.0239267685539
0.0239150845685
0.0239081006338
0.023903603615
0.0239008766081
0.0238995266136
0.023899036536
0.0238986361827
0.0238982507867
0.0238978868535
0.0238975499688
0.0238972435407
0.0238969690755
0.0238967266352
0.0238965151364
0.0238963330883
0.0238961783072
0.0238960494894
0.0238959457442
0.023895866995
0.0238958140272
0.0238957802095
0.0238956853124
0.0238943572096
0.02387959417
0.023746734601
0.0228594560295
0.0191375108341
0.0202593904517
0.0272721160615
0.0290759540961
0.0293396941665
0.0293562202169
0.0293506046932
0.0293563475781
0.0293850598378
0.0293965482559
0.0293626466978
0.0293125576707
0.02927128824
0.0292425267161
0.0292245350812
0.0292134795013
0.0292063649608
0.0292019637053
0.0291995156963
0.0291984735826
0.0291980444724
0.029197674489
0.029197343893
0.0291970468488
0.029196780196
0.0291965430474
0.0291963340904
0.02919615223
0.0291959966313
0.0291958654807
0.0291957585705
0.0291956761978
0.029195619706
0.0291955917635
0.0291955732696
0.0291953021003
0.0291914995136
0.0291536736222
0.0288523563718
0.0270623193639
0.0201276713189
0.0205313785351
0.0292388459249
0.0316347100223
0.0319862237982
0.0320035019063
0.0319994177728
0.032025807365
0.0321067781659
0.0321657139373
0.0321385593899
0.0320751924449
0.0320221240632
0.031985881807
0.0319639466906
0.0319506483842
0.0319420070566
0.0319366293649
0.0319334992342
0.0319319266529
0.0319313725147
0.0319310092176
0.0319307001141
0.0319304300152
0.031930191861
0.0319299821509
0.0319297996416
0.0319296446127
0.0319295147968
0.0319294096974
0.0319293293812
0.0319292770599
0.0319292562516
0.031929275773
0.0319293051566
0.0319288889998
0.0319225385394
0.0318631377609
0.0314232674196
0.0290089800377
0.0203837405725
0.0206044002102
0.0299860481073
0.0326431963607
0.033045749571
0.0330880120361
0.0330926012489
0.0331234761251
0.0332219967074
0.0333688861212
0.0333721611113
0.0333028816296
0.033241089505
0.0331989763314
0.0331739290228
0.0331593987352
0.033149954589
0.0331440581733
0.0331406018844
0.0331387955698
0.033138111876
0.033137747923
0.0331374467657
0.0331371875697
0.0331369607695
0.0331367621603
0.0331365905878
0.0331364450204
0.0331363258414
0.0331362326937
0.0331361677869
0.033136135115
0.0331361441846
0.0331362082417
0.0331362850546
0.033135762442
0.0331275101887
0.0330532558938
0.0325275411475
0.0297763535477
0.0204482106607
0.0206253864082
0.0302010402329
0.0329373865832
0.0334255158736
0.0334602068638
0.0334660364965
0.0335152590717
0.0336225690753
0.0338007075252
0.0338515075947
0.0337825309147
0.0337146936379
0.0336679551321
0.0336405161855
0.0336250123972
0.0336152418284
0.0336090583108
0.0336054745157
0.0336036023498
0.0336028788833
0.0336025112531
0.0336022115241
0.0336019548138
0.0336017296469
0.0336015308125
0.0336013568335
0.0336012074952
0.0336010835136
0.0336009856683
0.0336009168358
0.0336008808361
0.0336008889516
0.0336009542595
0.0336010278748
0.0336003905369
0.0335910433563
0.0335088621999
0.032940447971
0.0300392955382
0.020464225253
0.0206322212906
0.0302260528583
0.033017801821
0.033490480882
0.033508376363
0.033514537824
0.0335859179572
0.0337339933743
0.0339163044782
0.0340168281825
0.033950868206
0.0338786796501
0.0338283521116
0.0337989808488
0.0337827367197
0.0337727470407
0.0337664443976
0.0337628044327
0.0337609402098
0.0337602413527
0.0337598713039
0.0337595710851
0.0337593144062
0.0337590880232
0.0337588860085
0.0337587070177
0.0337585504753
0.0337584160579
0.0337583069861
0.0337582242547
0.033758172888
0.0337581620078
0.0337582041753
0.0337582444554
0.0337575235838
0.0337476823716
0.0336620512309
0.0330759956787
0.0301183398594
0.02046804495
0.0206354514448
0.0302068744837
0.0330146275347
0.0334649714373
0.033465725596
0.0334718008691
0.0335634715931
0.0337445173824
0.0339333833257
0.0340704122407
0.0340066350762
0.0339310447342
0.0338778997082
0.0338470203155
0.0338302526644
0.0338200198169
0.033813740545
0.0338100393322
0.0338082152543
0.0338075407635
0.0338071692706
0.0338068676295
0.033806610348
0.0338063834067
0.0338061790052
0.0338059963958
0.0338058344593
0.0338056929872
0.0338055735141
0.033805478017
0.0338054111251
0.0338053813907
0.0338053996362
0.033805408737
0.0338046295284
0.0337945957222
0.0337076982941
0.0331154238376
0.0301393683918
0.0204688892784
0.0206378135609
0.0301925694053
0.0330018511728
0.0334379142762
0.0334252657098
0.0334309811788
0.0335381625181
0.0337382058114
0.0339342955257
0.0340892061273
0.0340256105885
0.0339473118336
0.0338921920817
0.0338602446486
0.0338431118344
0.0338327191257
0.0338264155436
0.033822724609
0.0338209206461
0.0338202680852
0.0338198961731
0.0338195932329
0.0338193354172
0.0338191079684
0.0338189033273
0.0338187186752
0.0338185542722
0.0338184091822
0.0338182838507
0.033818180105
0.033818102616
0.0338180592527
0.033818061161
0.0338180502531
0.0338172387236
0.0338071296647
0.0337198308062
0.0331256483466
0.030144332179
0.0204690560379
0.0206392595791
0.0301881607295
0.0329962185764
0.0334265190008
0.0334058922171
0.0334111780272
0.0335275600328
0.0337352734437
0.0339359315536
0.0340962544259
0.0340319684208
0.0339521253486
0.0338959762651
0.0338634518392
0.0338461423845
0.0338356759497
0.033829339169
0.0338256667741
0.0338238750225
0.0338232355015
0.0338228634479
0.0338225600868
0.0338223020699
0.0338220743642
0.0338218697262
0.0338216851754
0.0338215198327
0.0338213736545
0.0338212461035
0.0338211389144
0.0338210561844
0.0338210060911
0.0338209999607
0.0338209797628
0.0338201543947
0.0338100192726
0.0337226091214
0.0331279309552
0.0301453302855
0.0204690850014
0.0206392590983
0.0301882414408
0.0329962576208
0.0334265814233
0.0334059690868
0.0334112771416
0.0335276310545
0.0337353222018
0.0339360201491
0.0340962651242
0.0340319500627
0.0339521031694
0.0338959561287
0.0338634390452
0.0338461328341
0.0338356658475
0.0338293325642
0.0338256635902
0.0338238716586
0.033823232546
0.0338228605622
0.0338225573496
0.0338222996991
0.0338220722707
0.0338218680903
0.0338216839321
0.0338215189545
0.0338213731179
0.0338212460867
0.0338211392165
0.0338210566295
0.0338210066857
0.0338210004443
0.0338209801132
0.0338201540462
0.0338100176205
0.0337226033013
0.0331279217563
0.0301453182414
0.0204690908262
0.0206377763763
0.0301927574683
0.0330019663236
0.0334381047418
0.0334254740123
0.0334312221723
0.0335383458395
0.0337383405689
0.0339345540272
0.0340892276253
0.0340255565049
0.0339472447709
0.0338921264518
0.033860201757
0.0338430796293
0.033832687651
0.0338263955095
0.0338227135069
0.0338209098457
0.0338202593848
0.0338198877611
0.0338195851175
0.0338193282943
0.0338191018441
0.0338188985094
0.0338187148785
0.0338185515129
0.0338184074289
0.0338182831254
0.0338181800534
0.0338181029554
0.0338180597191
0.033818061448
0.0338180499526
0.0338172357598
0.0338071224642
0.0337198110226
0.033125618281
0.0301442929347
0.0204690722091
0.0206353967802
0.0302071592051
0.0330148062831
0.0334652570803
0.0334660169856
0.0334721197746
0.0335637467148
0.0337447088017
0.0339337381507
0.0340704268182
0.0340065529526
0.033930950466
0.0338778043006
0.0338469485696
0.0338301928865
0.0338199566751
0.0338136993161
0.0338100125906
0.0338081960996
0.0338075254929
0.0338071547646
0.0338068540931
0.0338065986465
0.0338063732902
0.0338061706984
0.0338059895125
0.0338058288523
0.0338056888435
0.0338055699315
0.0338054752098
0.0338054084778
0.0338053782784
0.0338053959284
0.0338054029817
0.0338046190385
0.0337945782243
0.033707660982
0.0331153693322
0.0301392986547
0.0204689136019
0.0206321170752
0.030226313657
0.0330180040743
0.0334908155732
0.0335087128557
0.0335148998255
0.0335862382799
0.0337341932332
0.0339166419909
0.0340168040744
0.033950731221
0.0338785254529
0.0338282105912
0.0337988722233
0.0337826486932
0.0337726597121
0.0337663929058
0.0337627499926
0.0337609093636
0.0337602188564
0.0337598502649
0.033759551592
0.0337592972188
0.0337590729894
0.0337588728438
0.0337586950491
0.033758539387
0.0337584061528
0.0337582969932
0.0337582146116
0.0337581626252
0.0337581502505
0.033758190266
0.0337582262937
0.0337574962385
0.0337476479709
0.0336619898717
0.0330759098206
0.0301182325343
0.0204680723071
0.0206252266857
0.0302012049781
0.032937577002
0.0334258345867
0.0334605325538
0.0334663907567
0.0335155570268
0.0336227401608
0.0338009256968
0.0338514059417
0.0337823231791
0.0337144800002
0.03366778204
0.0336403728588
0.033624856042
0.0336151404201
0.0336089697673
0.0336053991117
0.0336035485377
0.0336028408798
0.0336024766993
0.0336021796507
0.0336019254335
0.0336017023184
0.0336015047711
0.0336013315362
0.0336011825034
0.0336010588536
0.0336009608843
0.0336008909742
0.0336008537509
0.0336008584523
0.0336009199618
0.0336009852124
0.0336003375313
0.0335909814041
0.0335087664915
0.032940321024
0.0300391427625
0.0204642488438
0.0206041987164
0.0299860740215
0.0326436919169
0.0330459828535
0.0330882707742
0.033092884041
0.0331236857521
0.0332225296725
0.0333688800092
0.0333719179545
0.0333025826489
0.0332408159089
0.0331987595574
0.0331737161148
0.0331591661237
0.0331498069471
0.0331439154493
0.0331404766317
0.033138708613
0.0331380423231
0.0331376823128
0.0331373840679
0.0331371273636
0.0331369027135
0.0331367053728
0.0331365342406
0.033136388935
0.0331362694551
0.0331361762162
0.0331361105371
0.0331360762146
0.0331360813662
0.0331361395757
0.0331362077403
0.033135668566
0.0331274049021
0.0330531110995
0.0325273606849
0.0297761478517
0.0204482213553
0.0205311261106
0.0292386866891
0.0316348601665
0.0319867849583
0.0320041917462
0.0320001365681
0.0320263756203
0.0321069593202
0.0321654942687
0.0321381843989
0.0320748079919
0.0320217849836
0.0319855932047
0.031963615191
0.0319504148213
0.0319417824855
0.0319364319064
0.0319333300526
0.0319317938277
0.0319312571957
0.0319308976733
0.0319305912382
0.0319303234911
0.0319300874641
0.0319298793581
0.0319296977015
0.0319295432072
0.031929413268
0.0319293080097
0.0319292279865
0.0319291744239
0.0319291526767
0.0319291679947
0.0319291892418
0.0319287554431
0.031922383868
0.0318629315328
0.031423025228
0.0290087218456
0.0203837289515
0.0202591648064
0.0272718630453
0.0290758029517
0.029339826139
0.0293564383018
0.0293508776986
0.029356517391
0.0293849477999
0.0293961883057
0.0293622212068
0.0293121605078
0.0292709483806
0.0292421755466
0.0292242489123
0.0292132261212
0.0292061407338
0.0292017733604
0.0291993546606
0.0291983438521
0.0291979214409
0.0291975548654
0.0291972275234
0.029196932804
0.0291966683165
0.029196433192
0.029196225943
0.0291960457358
0.0291958915118
0.0291957621973
0.0291956573761
0.0291955770227
0.0291955228214
0.0291954959517
0.0291954768628
0.0291951993373
0.0291913851964
0.0291535184642
0.0288521746362
0.0270621326205
0.0201276435784
0.0192356263588
0.0230079523053
0.0239063151664
0.0240209510059
0.0240226946374
0.0240168169417
0.0240175890989
0.0240272914135
0.024026654387
0.0240031891454
0.0239719529061
0.023945420375
0.0239265143233
0.0239148972277
0.0239079590227
0.0239034852755
0.0239007856503
0.0238994681548
0.0238989901182
0.0238985916927
0.0238982082618
0.0238978462034
0.0238975109028
0.023897206043
0.023896933294
0.0238966925993
0.0238964830724
0.0238963030764
0.0238961507843
0.0238960247932
0.023895924113
0.0238958487591
0.0238957990616
0.0238957682615
0.0238956744721
0.0238943441683
0.0238795676368
0.0237466852163
0.0228593969053
0.0191375076448
0.0157024053469
0.0162619869844
0.0163798229419
0.0163914750178
0.0163868114603
0.0163836024176
0.0163861730447
0.0163871328141
0.0163820067776
0.0163717786027
0.016361211096
0.0163534883044
0.0163492440048
0.0163476621773
0.0163473204188
0.0163469989768
0.0163467069276
0.0163464549685
0.0163461379591
0.0163457518909
0.0163453415649
0.0163449361119
0.0163445532347
0.0163442028403
0.0163438894198
0.0163436139008
0.0163433751192
0.0163431706191
0.0163429974159
0.0163428526098
0.0163427335684
0.0163426382397
0.0163425650442
0.0163425115553
0.0163424741054
0.0163423584759
0.0163411318288
0.0163278190586
0.0162190304699
0.0156800446847
0.0191559980763
0.0228905203485
0.0237836728256
0.0239018487584
0.0239036718903
0.0239014599143
0.0239101604087
0.0239271406166
0.0239379392131
0.0239344227112
0.0239241551501
0.02391434336
0.0239075433002
0.0239054429088
0.0239046359374
0.0239037250623
0.0239028041737
0.0239020195512
0.0239013517568
0.0239007885905
0.0239003149163
0.0238999162885
0.023899581012
0.0238992993249
0.023899063526
0.0238988664138
0.0238987020692
0.0238985663516
0.0238984546335
0.0238983654951
0.0238982973455
0.0238982497144
0.0238982239508
0.023898209101
0.0238981325924
0.0238967944388
0.0238820102554
0.0237490799834
0.0228616846751
0.0191396307771
0.021392731171
0.0233742247301
0.0240554160492
0.0241625786978
0.0241702711107
0.0241699926739
0.0241743873017
0.0241848311298
0.0241931797329
0.0241927461551
0.0241875616435
0.0241822459648
0.0241781264148
0.0241753337688
0.0241735287549
0.024172304883
0.0241715289804
0.0241710925907
0.0241708866491
0.0241707875621
0.0241707395341
0.0241707227558
0.0241707246415
0.0241707369387
0.0241707545214
0.0241707742152
0.0241707940815
0.0241708132805
0.0241708312336
0.0241708483456
0.0241708652285
0.0241708829486
0.0241709027339
0.0241709181452
0.0241708354985
0.0241694584257
0.0241551594506
0.024038668486
0.0233566787977
0.0213846064409
0.0244207120964
0.0253526196834
0.0260753236366
0.0262063398865
0.0262181270524
0.0262188650437
0.0262256579656
0.0262412781496
0.0262545122105
0.0262555788696
0.0262498928716
0.026243907958
0.0262393428294
0.0262361573999
0.02623403673
0.0262327156579
0.026231961198
0.0262315916999
0.026231462039
0.0262314521505
0.0262314649607
0.0262314840603
0.0262315039313
0.0262315218978
0.0262315372274
0.0262315497991
0.0262315599154
0.0262315681754
0.0262315749149
0.0262315809163
0.0262315869717
0.0262315942
0.0262316033179
0.0262316021306
0.026231420492
0.0262292066883
0.0262089444118
0.0260636400151
0.0253314912392
0.0243816272897
0.0253535664297
0.0263504949949
0.0271551473623
0.0273099847163
0.0273261291499
0.0273277977902
0.0273363744054
0.0273563848882
0.0273744029818
0.0273754562703
0.0273673512528
0.0273594384626
0.0273537867472
0.0273501507413
0.0273477901139
0.0273463348746
0.0273455223588
0.027345129945
0.0273449912312
0.0273449900662
0.0273450196819
0.0273450458207
0.0273450657421
0.0273450793678
0.0273450879096
0.0273450927696
0.0273450953944
0.0273450968162
0.0273450978143
0.0273450992721
0.027345102262
0.0273451081081
0.0273451177658
0.0273451128738
0.0273448509
0.0273418538254
0.0273161451924
0.0271434036423
0.0263239985305
0.0252962181949
0.025634879077
0.0267545956691
0.0276158826447
0.027791462582
0.0278152026408
0.0278185801153
0.0278259918429
0.0278438158431
0.0278704249949
0.0278744313288
0.0278646166633
0.0278549011316
0.0278481805938
0.0278440454437
0.0278415065125
0.0278399432418
0.0278390717395
0.0278386503937
0.027838496359
0.0278384867964
0.0278385207891
0.0278385483191
0.0278385671489
0.0278385781084
0.0278385831279
0.027838584254
0.0278385833601
0.0278385819075
0.0278385809826
0.0278385817003
0.0278385853407
0.0278385938711
0.0278386084855
0.0278386050007
0.027838287106
0.0278347238908
0.0278051954546
0.0276135048615
0.0267295409411
0.0255696329203
0.0257161709944
0.0268905656965
0.0277809364649
0.0279786077737
0.0280046449897
0.0280085879762
0.0280171022711
0.0280319953597
0.0280593523147
0.0280692980384
0.0280590808984
0.0280480816122
0.0280404936157
0.02803594478
0.0280332389862
0.0280316080156
0.0280306942359
0.0280302550432
0.0280300938043
0.0280300811976
0.0280301154829
0.0280301427247
0.028030160426
0.0280301695109
0.0280301720276
0.0280301702191
0.0280301662961
0.0280301619704
0.0280301586476
0.0280301573836
0.0280301596757
0.0280301678508
0.0280301824075
0.0280301765824
0.0280298195882
0.028025924113
0.0279942399158
0.0277921537966
0.0268736885597
0.0256493345347
0.0257368918923
0.0269253265337
0.0278340548457
0.0280372399979
0.0280621584057
0.028066325623
0.0280777137276
0.0280953161471
0.0281202200789
0.0281370815902
0.0281272705087
0.0281154223373
0.0281071781705
0.0281023096765
0.0280994679004
0.0280977851109
0.02809684735
0.0280963982526
0.0280962367212
0.0280962257679
0.0280962601216
0.0280962867817
0.0280963036019
0.0280963113981
0.0280963120224
0.0280963078758
0.0280963010879
0.0280962936603
0.0280962870649
0.0280962826242
0.028096281731
0.0280962866114
0.0280962978063
0.0280962865542
0.0280959063276
0.0280918513871
0.0280591601009
0.0278523565747
0.0269189787276
0.0256713317008
0.0257409460912
0.0269293980609
0.0278458951512
0.0280492666812
0.0280714529448
0.0280756923841
0.0280907363609
0.0281121316302
0.028136174024
0.0281585608495
0.028149232431
0.0281367912551
0.0281280565218
0.0281229498333
0.0281200093726
0.0281182807479
0.0281173338643
0.0281168774963
0.0281167182374
0.028116710503
0.028116744078
0.0281167704634
0.028116786724
0.0281167937841
0.0281167933617
0.0281167876821
0.0281167789334
0.0281167689863
0.0281167594901
0.0281167518135
0.0281167475502
0.0281167487719
0.0281167562811
0.0281167400617
0.0281163476343
0.0281122267396
0.0280791358042
0.0278705102893
0.0269316688301
0.0256769332432
0.0257415321113
0.0269277828968
0.0278463869543
0.0280485566418
0.0280677760818
0.0280719934252
0.0280904871729
0.0281150201693
0.0281396837806
0.0281651220691
0.0281559948973
0.0281431182599
0.0281340485219
0.0281287781955
0.028125771657
0.028124011316
0.0281230560434
0.0281225985349
0.0281224410182
0.0281224360907
0.0281224690438
0.0281224951138
0.0281225111391
0.0281225178931
0.0281225169313
0.028122510562
0.0281225007802
0.0281224894178
0.0281224780107
0.0281224680881
0.0281224612727
0.028122459771
0.0281224642888
0.0281224449979
0.0281220466335
0.0281179013941
0.0280846726618
0.0278754365921
0.0269348566695
0.0256782260088
0.0257416993598
0.0269267172052
0.0278454590774
0.0280467260825
0.0280640127388
0.0280681842559
0.0280888317152
0.0281150556611
0.0281405146601
0.0281670666605
0.028157937939
0.0281448182065
0.0281355753465
0.0281302204275
0.0281271808236
0.0281254047718
0.0281244438122
0.0281239871942
0.0281238308531
0.0281238275258
0.0281238601749
0.0281238861483
0.0281239021077
0.0281239087673
0.028123907687
0.0281239011111
0.0281238910096
0.0281238791044
0.028123866876
0.0281238558888
0.0281238477416
0.0281238447575
0.0281238476571
0.0281238270043
0.0281234263371
0.0281192733312
0.0280860041109
0.0278765966387
0.0269355510368
0.0256784820752
0.0257417014525
0.0269267311002
0.0278454625958
0.028046718751
0.0280639938974
0.0280681716384
0.0280888200073
0.0281150550585
0.0281405269426
0.0281670685671
0.0281579348617
0.0281448140813
0.0281355713916
0.0281302177371
0.0281271784994
0.0281254025696
0.0281244423171
0.0281239863368
0.0281238301811
0.0281238270293
0.028123859727
0.0281238858419
0.0281239019221
0.0281239086901
0.0281239077505
0.0281239012842
0.0281238912942
0.0281238794839
0.0281238673452
0.0281238564068
0.0281238482702
0.0281238453039
0.0281238481713
0.0281238274695
0.0281234265871
0.0281192731676
0.0280860029316
0.0278765944667
0.0269355475978
0.0256784790151
0.0257415321754
0.0269278179932
0.027846395011
0.0280485384693
0.0280677291783
0.0280719536869
0.0280904599934
0.0281150196965
0.0281397189221
0.0281651262313
0.0281559857499
0.0281431060312
0.0281340362769
0.0281287694707
0.0281257641442
0.0281240043376
0.0281230513322
0.0281225956302
0.028122438774
0.028122434425
0.0281224675815
0.0281224940108
0.0281225104063
0.0281225174869
0.0281225168747
0.0281225108227
0.0281225013123
0.0281224901798
0.0281224789681
0.0281224691302
0.0281224623115
0.0281224607969
0.0281224652248
0.0281224457764
0.0281220467995
0.0281179003195
0.0280846685904
0.0278754295631
0.0269348457672
0.0256782140768
0.0257409397527
0.0269294503406
0.0278459086859
0.028049243129
0.0280713968104
0.0280756443118
0.0280907015301
0.0281121319014
0.0281362218018
0.0281585638306
0.0281492169799
0.028136772237
0.0281280371459
0.0281229342015
0.0281199951715
0.0281182674724
0.0281173246182
0.0281168709776
0.0281167134371
0.0281167067835
0.0281167409795
0.0281167677784
0.0281167846058
0.0281167921571
0.0281167921954
0.0281167868863
0.0281167784336
0.0281167687416
0.0281167593693
0.0281167516971
0.0281167474172
0.0281167486106
0.0281167557912
0.0281167392489
0.0281163457906
0.0281122228958
0.0280791272865
0.0278704970046
0.0269316492372
0.0256769095728
0.0257368675679
0.0269253776295
0.0278340728219
0.0280372182163
0.0280621065399
0.0280662809798
0.0280776819785
0.0280953165418
0.0281202629147
0.028137075473
0.0281272427189
0.0281153899226
0.0281071474209
0.028102283287
0.0280994436167
0.0280977632228
0.0280968312812
0.0280963846381
0.0280962263509
0.028096217107
0.0280962524557
0.0280962797447
0.0280962972259
0.0280963055587
0.0280963066232
0.0280963027112
0.0280962960997
0.0280962887664
0.0280962820903
0.0280962774497
0.0280962764481
0.0280962809679
0.0280962919721
0.0280962797994
0.0280958979791
0.0280918405799
0.0280591432603
0.0278523335129
0.0269189477344
0.0256712878236
0.0257161226809
0.0268905990873
0.0277809555493
0.0279785890586
0.0280046043062
0.0280085517478
0.0280170742833
0.0280319938937
0.0280593694571
0.0280692698998
0.0280590321106
0.0280480293836
0.0280404462772
0.028035901174
0.0280331943816
0.0280315713132
0.0280306624658
0.0280302273565
0.0280300701215
0.0280300601921
0.0280300958312
0.0280301238236
0.0280301421511
0.0280301516938
0.0280301544019
0.0280301526612
0.0280301486781
0.0280301442481
0.0280301406235
0.0280301391151
0.0280301411865
0.0280301485451
0.0280301628023
0.0280301554167
0.0280297964118
0.0280258980564
0.0279942066408
0.0277921136939
0.0268736411868
0.0256492591841
0.02563481096
0.0267545975852
0.0276159384991
0.0277914468379
0.0278151734947
0.0278185536717
0.0278259684423
0.0278438547057
0.0278703948687
0.0278743625611
0.027864534285
0.0278548188499
0.0278481046478
0.0278439706276
0.0278414296067
0.0278398779166
0.0278390115198
0.0278385955894
0.0278384469276
0.0278384406131
0.0278384758606
0.0278385041359
0.0278385235175
0.0278385348521
0.0278385399665
0.0278385410157
0.0278385399637
0.0278385382955
0.027838537124
0.0278385374907
0.0278385406894
0.0278385486932
0.0278385621429
0.0278385574421
0.0278382365158
0.0278346697786
0.0278051331632
0.0276134363976
0.0267294696545
0.0255695125786
0.0253534868625
0.0263504527662
0.0271551427077
0.0273100173532
0.0273261713481
0.0273278465362
0.0273364034321
0.0273563678122
0.0273743185598
0.0273753410247
0.0273672295322
0.0273593193701
0.0273536725961
0.0273500320852
0.027347680107
0.0273462309797
0.0273454253748
0.02734503944
0.0273449064421
0.0273449086697
0.027344939323
0.0273449661376
0.0273449865304
0.0273450005166
0.0273450091687
0.0273450139536
0.027345016485
0.0273450176877
0.0273450185569
0.0273450198767
0.0273450226628
0.0273450282879
0.0273450372844
0.0273450310817
0.0273447659503
0.0273417642794
0.0273160454961
0.0271432991347
0.0263238993775
0.0252960436391
0.0244206692609
0.0253525463464
0.0260752552192
0.026206310443
0.0262181127894
0.0262188636506
0.0262256385393
0.0262412073517
0.0262543879246
0.0262554333042
0.0262497496438
0.0262437680985
0.0262392032499
0.0262360174425
0.0262339053597
0.0262325906216
0.0262318431857
0.0262314797106
0.0262313548636
0.0262313472167
0.0262313610775
0.0262313810566
0.0262314014718
0.0262314198863
0.0262314355449
0.026231448327
0.0262314586584
0.0262314670897
0.0262314741704
0.0262314805697
0.0262314870398
0.0262314947389
0.0262315040511
0.0262315025079
0.0262313190534
0.0262291013421
0.0262088294631
0.0260635198748
0.0253313789238
0.0243814296709
0.0213928012937
0.0233741298274
0.0240552955031
0.0241624869251
0.0241701969669
0.024169936685
0.024174319452
0.0241847227492
0.0241930320484
0.0241925870698
0.0241874200979
0.0241821028391
0.0241779902051
0.0241752110282
0.0241734130016
0.0241721923444
0.0241714215138
0.0241709899138
0.0241707874388
0.0241706895485
0.0241706425399
0.0241706266087
0.0241706290816
0.0241706419639
0.0241706601344
0.0241706803511
0.0241707008263
0.0241707206279
0.0241707394329
0.0241707574773
0.0241707753544
0.0241707941792
0.0241708148989
0.0241708309506
0.0241707475447
0.0241693669204
0.0241550576105
0.0240385527904
0.0233565615621
0.0213844424471
0.0191559362238
0.0228903325894
0.0237834437285
0.0239016776546
0.0239035387504
0.0239013520351
0.0239100169059
0.0239269270096
0.023937669065
0.0239341374465
0.0239239116702
0.0239141151026
0.0239073679257
0.0239053273463
0.0239045369066
0.0239036194864
0.0239027024096
0.0239019160465
0.0239012487907
0.0239006847931
0.0239002104118
0.0238998108726
0.0238994748093
0.0238991929336
0.0238989571395
0.0238987604406
0.0238985972183
0.0238984630473
0.02389835412
0.023898268137
0.0238982034351
0.0238981599808
0.0238981380125
0.023898126666
0.0238980504477
0.0238967050705
0.0238818966789
0.0237489144553
0.0228614834336
0.0191395528679
0.0201455788672
0.0270545366176
0.028837818839
0.0291112858138
0.029130088127
0.0291310083987
0.0291475446596
0.0291818679222
0.0292127739501
0.0292224774551
0.0292189143453
0.0292125580524
0.0292074504547
0.0292056330426
0.0292058293671
0.0292055020022
0.0292048410988
0.0292040794698
0.0292033410044
0.0292027014244
0.0292021541152
0.0292016867795
0.0292012919739
0.0292009588748
0.0292006801756
0.0292004486909
0.0292002561212
0.0292000969988
0.0291999664082
0.0291998608788
0.0291997784269
0.0291997163762
0.0291996739704
0.0291996196078
0.0291992873258
0.0291953853308
0.029157306043
0.028855938352
0.0270657279003
0.0201313768872
0.0243666071606
0.0253325911778
0.0260673795699
0.0262091173228
0.0262256614157
0.026227060526
0.0262303765273
0.0262373981461
0.0262432435145
0.0262436662205
0.0262410136104
0.0262381626422
0.0262359831301
0.0262346006292
0.0262337796123
0.026233130567
0.0262326315467
0.0262322710752
0.026232022377
0.0262318675513
0.0262317807267
0.0262317398119
0.0262317294871
0.0262317381036
0.0262317580027
0.0262317839273
0.0262318122041
0.0262318407372
0.0262318683581
0.0262318947488
0.026231920161
0.0262319449338
0.0262319691183
0.0262319780093
0.0262318021836
0.0262295815322
0.0262092977366
0.0260639828365
0.0253318459426
0.0243828277503
0.0284524754937
0.0267285177336
0.0271380386344
0.0272418227053
0.0272558808062
0.0272578272524
0.0272624546798
0.0272716995503
0.0272802132401
0.0272827974112
0.0272815680578
0.0272796790716
0.0272781016249
0.0272769552769
0.0272761488479
0.0272756161511
0.0272752752367
0.0272750691253
0.027274953182
0.0272748954545
0.0272748752542
0.027274878378
0.0272748953968
0.0272749198244
0.0272749474873
0.0272749757353
0.0272750029473
0.0272750282897
0.0272750513713
0.0272750723278
0.0272750915504
0.0272751094993
0.0272751254914
0.0272751200602
0.0272748840652
0.0272724960096
0.0272539287635
0.0271427269938
0.0267238099414
0.0284415868375
0.029871142899
0.0275200621767
0.0278104364672
0.0278991097686
0.0279127584455
0.0279150547627
0.0279198695673
0.0279291883873
0.0279380302444
0.0279403831357
0.0279385620123
0.0279362898631
0.0279345770611
0.027933424975
0.0279326503257
0.0279321675118
0.0279318865586
0.0279317346311
0.027931661031
0.0279316328623
0.0279316285292
0.027931637645
0.0279316541265
0.0279316740872
0.0279316951439
0.0279317158614
0.0279317354043
0.027931753427
0.0279317697059
0.0279317845122
0.0279317981541
0.027931811011
0.0279318217342
0.0279318057016
0.0279315188762
0.0279289443289
0.0279108729379
0.0278138873395
0.0275080027715
0.0298425131353
0.0303570744138
0.0278682612315
0.0281207829823
0.02820533884
0.0282196130177
0.0282222791929
0.0282269519818
0.0282354198893
0.0282450885479
0.0282476552472
0.0282451337643
0.0282422604783
0.0282402486807
0.0282389886377
0.028238204913
0.0282377293369
0.0282374641607
0.0282373285669
0.028237267564
0.0282372476377
0.0282372471048
0.0282372562226
0.0282372702858
0.0282372864804
0.0282373031614
0.0282373194092
0.0282373347277
0.0282373489099
0.0282373618995
0.0282373738974
0.0282373852307
0.0282373962107
0.0282374049467
0.0282373827851
0.0282370607185
0.0282343419913
0.0282162629374
0.0281240647008
0.0278515948781
0.0303211968586
0.0305156193183
0.0280013607145
0.0282443026974
0.0283292742863
0.0283434898099
0.0283463736377
0.0283517429094
0.0283602475904
0.0283704782779
0.0283742702705
0.0283714858854
0.0283681330944
0.0283658385149
0.0283644585197
0.028363637385
0.0283631544579
0.0283628893564
0.0283627571689
0.0283626994567
0.0283626813222
0.0283626812414
0.0283626895585
0.0283627019816
0.0283627160479
0.0283627303647
0.0283627442247
0.0283627572972
0.0283627694468
0.0283627807237
0.0283627912631
0.0283628013798
0.0283628114142