/*--------------------------------*- C++ -*----------------------------------*\
| =========                 |                                                 |
| \\      /  F ield         | OpenFOAM: The Open Source CFD Toolbox           |
|  \\    /   O peration     | Version:  3.0.1                                 |
|   \\  /    A nd           | Web:      www.OpenFOAM.org                      |
|    \\/     M anipulation  |                                                 |
\*---------------------------------------------------------------------------*/
FoamFile
{
    version     2.0;
    format      ascii;
    class       volScalarField;
    location    "0.9";
    object      k_0;
}
// * * * * * * * * * * * * * * * * * * * * * * * * * * * * * * * * * * * * * //

dimensions      [0 2 -2 0 0 0 0];

internalField   nonuniform List<scalar> 
15984
(
0.00956483565015
0.00979822647194
0.0098478603955
0.00985288142178
0.00985097145862
0.00984969475928
0.00985080482252
0.00985121740727
0.00984906188861
0.00984474565199
0.00984025854206
0.00983696420291
0.00983509274394
0.00983432942438
0.0098341676492
0.00983402883526
0.00983389743613
0.0098337823114
0.00983365942241
0.00983350633022
0.00983334041881
0.0098331741063
0.00983301521686
0.00983286833228
0.00983273574088
0.00983261817422
0.00983251540511
0.00983242664803
0.00983235078899
0.00983228673611
0.00983223349443
0.0098321902025
0.00983215631769
0.00983213075006
0.0098321119541
0.00983205818478
0.00983151885133
0.00982580797853
0.00977999403236
0.0095552115735
0.0109756783343
0.0123971824888
0.0127290322037
0.0127718872177
0.0127726828227
0.0127705590009
0.0127709585249
0.0127747770813
0.0127747232297
0.0127660888566
0.0127544853522
0.0127446397497
0.0127375962828
0.0127332141072
0.0127306288363
0.0127289601465
0.0127279236885
0.0127273756529
0.0127271672281
0.0127270244715
0.0127268861528
0.0127267544169
0.0127266313784
0.0127265184716
0.0127264164802
0.0127263256628
0.0127262458243
0.0127261765899
0.0127261172945
0.0127260675682
0.0127260271613
0.0127259960897
0.0127259746646
0.0127259601613
0.0127259204061
0.0127253987809
0.0127197454618
0.0126699321497
0.0123415203786
0.0109367002216
0.0113721651744
0.0139135789985
0.0145386838155
0.014630611944
0.014636597953
0.0146347442456
0.0146369326263
0.0146472539798
0.0146515515823
0.0146399327726
0.0146225726882
0.0146082411267
0.0145982146012
0.0145919178997
0.0145880850881
0.0145856175945
0.0145840660627
0.014583170227
0.0145827463684
0.0145825904597
0.0145824647596
0.0145823520775
0.0145822501933
0.0145821580255
0.0145820753366
0.0145820018284
0.0145819372716
0.014581881509
0.0145818340461
0.0145817949187
0.0145817643069
0.0145817427022
0.0145817309699
0.0145817216705
0.0145816169079
0.0145802280084
0.0145667327712
0.0144613219082
0.0138393538338
0.0113206838832
0.0114779436566
0.0145920689057
0.0154015493095
0.0155206690177
0.0155268305512
0.0155255893597
0.0155348022325
0.0155626412921
0.015583007385
0.0155741168513
0.0155527980991
0.015534881061
0.0155226129456
0.0155151432762
0.0155106571243
0.015507745173
0.0155059096378
0.0155048117822
0.0155042233895
0.0155039985337
0.0155038776534
0.0155037748729
0.0155036846861
0.0155036045969
0.015503533405
0.0155034707621
0.0155034168427
0.0155033710086
0.0155033332033
0.0155033035488
0.0155032831345
0.0155032731037
0.0155032760404
0.0155032800009
0.0155031185193
0.0155008619424
0.0154802749952
0.015330715623
0.0145126344436
0.0114203727824
0.0115067472313
0.0148489699987
0.0157392431707
0.0158746017226
0.0158891287915
0.0158908088353
0.0159014826311
0.0159350034369
0.0159845830662
0.0159860478817
0.0159630275769
0.0159423869789
0.0159282816367
0.015919846536
0.0159149881195
0.0159118390352
0.0159098509404
0.0159086572475
0.0159080000178
0.0159077200688
0.015907599633
0.0159075005708
0.0159074151227
0.0159073399005
0.0159072734171
0.0159072152995
0.0159071652587
0.0159071234838
0.0159070899427
0.0159070653981
0.0159070511419
0.0159070500771
0.0159070659464
0.0159070824065
0.0159068789308
0.0159039813223
0.0158785107755
0.0157015383227
0.0147772628261
0.0114458157649
0.0115151650798
0.0149237116003
0.0158390254037
0.0160026771484
0.0160147181132
0.0160168404824
0.0160336658474
0.0160701108348
0.016129980279
0.0161473074102
0.0161245086884
0.0161019227331
0.0160863200176
0.0160771063897
0.0160719315626
0.0160686840978
0.0160666070534
0.0160653749091
0.0160646981889
0.0160644042901
0.0160642817562
0.0160641836314
0.0160640995422
0.0160640254449
0.016063959509
0.016063901242
0.0160638505689
0.0160638077674
0.0160637731542
0.0160637477041
0.0160637326138
0.0160637312883
0.0160637474072
0.0160637619184
0.0160635181333
0.0160602434794
0.0160321183637
0.0158412631712
0.0148688187865
0.0114522422549
0.0115179532623
0.0149328940094
0.0158668672928
0.0160254536653
0.0160319149854
0.0160341707831
0.0160584501216
0.0161085305413
0.016169838777
0.0162037222292
0.0161819856748
0.0161579683745
0.0161411794595
0.0161313210849
0.0161258933415
0.0161225747052
0.0161204592277
0.0161192086584
0.0161185336065
0.0161182493123
0.016118127604
0.0161180295028
0.0161179456695
0.016117871472
0.0161178048525
0.0161177453504
0.0161176927948
0.016117647094
0.0161176093537
0.0161175799069
0.0161175603683
0.0161175534955
0.0161175627647
0.0161175670053
0.0161172925915
0.0161138416879
0.0160845341798
0.015887805196
0.0148967669788
0.0114538030804
0.0115192819417
0.0149264920241
0.0158661540753
0.0160173528578
0.0160180829774
0.0160203312064
0.0160514552867
0.0161126195824
0.0161762053576
0.0162222726508
0.0162013005495
0.0161761526768
0.0161584247885
0.0161480584797
0.0161424470698
0.0161390460949
0.0161369386158
0.0161356668717
0.0161350043516
0.0161347312384
0.0161346091223
0.0161345105917
0.0161344266596
0.0161343524043
0.0161342851655
0.0161342246931
0.0161341706511
0.0161341229977
0.0161340822739
0.0161340491347
0.016134025062
0.0161340126481
0.0161340148107
0.0161340096854
0.016133715991
0.0161301915881
0.0161004389174
0.0159015864306
0.0149043376
0.0114541550911
0.0115202471669
0.0149215851515
0.0158619114101
0.0160083417106
0.0160045780982
0.0160067309049
0.0160430800139
0.0161106669919
0.0161767310035
0.0162288044706
0.0162079185529
0.0161818703918
0.0161634817039
0.0161527549905
0.0161470144911
0.0161435589648
0.0161414430325
0.0161401740343
0.0161395171055
0.0161392541554
0.0161391319405
0.0161390329983
0.0161389489159
0.0161388745375
0.0161388072879
0.0161387462338
0.0161386915098
0.0161386428574
0.0161386004634
0.0161385649319
0.0161385377527
0.0161385213099
0.0161385186523
0.0161385075215
0.0161382036467
0.0161346507239
0.016104751523
0.0159052310751
0.0149061612222
0.0114542263509
0.0115208350789
0.0149200505997
0.0158599916464
0.0160044776624
0.0159980380622
0.0160000717618
0.0160395050998
0.0161096989249
0.0161773199113
0.0162312328263
0.0162101309253
0.0161835690059
0.0161648353116
0.0161539145364
0.0161481108613
0.0161446299722
0.0161425026259
0.0161412394619
0.0161405859229
0.01614032901
0.0161402067704
0.0161401076843
0.0161400235413
0.0161399490916
0.0161398818634
0.0161398208651
0.0161397658725
0.0161397169317
0.0161396739148
0.0161396373939
0.0161396086812
0.0161395902568
0.0161395852399
0.016139571305
0.016139263119
0.0161357010536
0.0161057593359
0.0159060614557
0.0149065365435
0.0114542390455
0.0115208354307
0.0149200799394
0.0158600057224
0.0160044999226
0.0159980663572
0.0160001067197
0.0160395302111
0.0161097157701
0.0161773508526
0.0162312367532
0.0162101249018
0.0161835617854
0.016164828789
0.0161539103526
0.0161481077604
0.016144626698
0.0161425005185
0.0161412384324
0.0161405847818
0.016140328036
0.016140205819
0.0161401067689
0.0161400227384
0.016139948374
0.0161398812866
0.0161398204098
0.0161397655288
0.016139716695
0.0161396738424
0.0161396374252
0.0161396087639
0.0161395903918
0.0161395853436
0.0161395713709
0.0161392629725
0.0161357005058
0.0161057573989
0.0159060584271
0.0149065324942
0.0114542411941
0.011520234652
0.0149216552032
0.0158619531879
0.0160084091164
0.016004653539
0.0160068163329
0.0160431448832
0.0161107135325
0.0161768208179
0.016228812794
0.0162079010021
0.0161818485513
0.0161634605119
0.0161527409816
0.0161470040544
0.0161435487991
0.016141436548
0.0161401703671
0.0161395134224
0.0161392512836
0.0161391291591
0.0161390302856
0.0161389465069
0.0161388724361
0.0161388055943
0.0161387448536
0.0161386904519
0.0161386421199
0.0161386000539
0.0161385647516
0.0161385377177
0.016138521339
0.0161385186458
0.016138507342
0.0161382026484
0.0161346483827
0.0161047449788
0.0159052212012
0.0149061480477
0.011454232299
0.011519263029
0.0149265970633
0.01586621893
0.0160174541915
0.016018187544
0.0160204438283
0.0160515523744
0.0161126858412
0.016176329143
0.0162222790093
0.0162012736204
0.0161761215332
0.0161583936608
0.0161480350156
0.0161424277073
0.0161390255193
0.0161369251031
0.0161356579202
0.0161349977585
0.0161347261779
0.0161346042728
0.016134506039
0.0161344226743
0.0161343489118
0.016134282242
0.0161342222153
0.0161341685795
0.0161341214044
0.0161340808772
0.016134048027
0.0161340240345
0.0161340115098
0.0161340135547
0.0161340078244
0.0161337126733
0.0161301858634
0.0161004266037
0.0159015685328
0.0149043141825
0.0114541640062
0.011517915274
0.014932991551
0.0158669410335
0.0160255725341
0.0160320349998
0.0160342981496
0.0160585627762
0.0161086000199
0.0161699577157
0.0162037155948
0.0161819404895
0.0161579174702
0.016141133212
0.01613128549
0.0161258645907
0.0161225461183
0.0161204422105
0.0161191902025
0.0161185227313
0.0161182417139
0.016118120428
0.0161180228047
0.0161179396938
0.016117866178
0.0161178001543
0.0161177410463
0.0161176887922
0.0161176435159
0.0161176058003
0.0161175765482
0.0161175568798
0.0161175496188
0.0161175582606
0.0161175612926
0.0161172837808
0.0161138300762
0.0160845139277
0.0158877769736
0.014896730936
0.0114538130185
0.0115151050968
0.0149237753174
0.0158390956548
0.0160027907674
0.0160148340948
0.0160169649731
0.0160337708038
0.0160701711165
0.0161300589028
0.0161472741805
0.0161244394925
0.0161018517858
0.0160862629317
0.016077058938
0.0160718799493
0.0160686506455
0.0160665773863
0.0160653490328
0.0160646789458
0.0160643905765
0.0160642697446
0.01606417247
0.0160640891802
0.0160640157522
0.0160639502624
0.0160638922697
0.0160638417551
0.0160637991442
0.016063764599
0.0160637389061
0.0160637235166
0.0160637212836
0.0160637362936
0.0160637483781
0.0160635006355
0.0160602226786
0.0160320866806
0.01584122132
0.0148687674353
0.0114522506324
0.0115066701978
0.0148489841081
0.0157394219714
0.015874687008
0.0158892226524
0.0158909100128
0.0159015584679
0.0159351920923
0.0159845857217
0.0159859667835
0.0159629270868
0.0159422956088
0.0159282095
0.0159197749562
0.0159149112594
0.0159117899032
0.015909802969
0.0159086142224
0.0159079690166
0.0159076958289
0.015907576937
0.0159074788184
0.0159073941871
0.0159073196858
0.0159072536631
0.0159071957529
0.0159071458792
0.0159071041062
0.0159070706489
0.0159070459915
0.0159070313459
0.0159070291931
0.0159070434452
0.0159070573228
0.0159068482183
0.0159039461208
0.0158784626883
0.015701478589
0.0147771935678
0.011445819129
0.0114778461817
0.0145920164256
0.015401609023
0.0155208732759
0.015527082218
0.0155258495243
0.0155350084558
0.0155627102347
0.0155829355932
0.0155739896812
0.0155526677089
0.0155347665069
0.0155225155787
0.0155150322909
0.0155105793588
0.0155076698025
0.0155058426805
0.015504753384
0.0155041760939
0.0155039590182
0.0155038393893
0.0155037374984
0.0155036481023
0.0155035687398
0.0155034981284
0.0155034358363
0.0155033821706
0.0155033363948
0.0155032986385
0.0155032692001
0.0155032484997
0.0155032383018
0.01550324006
0.0155032416058
0.0155030747973
0.0155008117106
0.0154802063998
0.0153306351494
0.0145125493396
0.0114203676391
0.0113720762348
0.0139134899933
0.0145386360001
0.0146306685869
0.0146366874165
0.0146348523051
0.0146370019454
0.0146472202559
0.0146514276931
0.0146397843441
0.0146224342414
0.0146081226782
0.0145980920994
0.014591819945
0.0145879983871
0.0145855402139
0.0145839995225
0.0145831129124
0.0145826992554
0.0145825475366
0.0145824229803
0.0145823113774
0.014582210274
0.0145821188389
0.014582036848
0.0145819639342
0.0145818999608
0.0145818446894
0.0145817978793
0.0145817594924
0.0145817295941
0.0145817088034
0.014581697477
0.0145816880416
0.0145815812498
0.0145801885951
0.0145666801006
0.0144612602972
0.0138392899637
0.0113206727336
0.0109756181097
0.0123970821114
0.0127289371611
0.0127718466623
0.0127726663426
0.0127705569741
0.0127709355617
0.0127746968548
0.0127745941093
0.0127659520047
0.012754378619
0.0127445263014
0.012737502865
0.0127331452685
0.0127305763768
0.0127289158412
0.0127278887796
0.0127273516555
0.0127271497066
0.0127270076403
0.0127268700025
0.012726738911
0.0127266164109
0.0127265040391
0.0127264026397
0.0127263124258
0.0127262332758
0.0127261647607
0.0127261063508
0.012726057636
0.0127260183294
0.0127259884829
0.0127259682371
0.0127259548289
0.0127259154701
0.0127253930436
0.0127197348067
0.0126699132758
0.0123414980597
0.010936698636
0.00956479862523
0.00979816053606
0.00984777715501
0.00985280682789
0.00985090459971
0.00984962949935
0.00985073007226
0.00985113194938
0.00984896979017
0.00984465291571
0.00984018624109
0.00983692014222
0.00983507490875
0.00983432555257
0.00983417086514
0.00983403887603
0.00983391612868
0.00983380918092
0.00983368734517
0.0098335343623
0.00983336861763
0.00983320254507
0.00983304394507
0.00983289739803
0.00983276519549
0.00983264808362
0.00983254586526
0.00983245774077
0.00983238262989
0.00983231944009
0.00983226715227
0.00983222496078
0.00983219224161
0.00983216795581
0.0098321504155
0.00983209770476
0.00983155855694
0.00982584416152
0.00978002488162
0.00955523731115
0.0109440858915
0.0123531274286
0.012683559152
0.0127278621791
0.0127287147736
0.0127279590187
0.0127312578154
0.0127376697697
0.0127417768545
0.0127405077433
0.0127366833223
0.0127330026038
0.0127304185991
0.0127295659454
0.0127292350638
0.012728893908
0.0127285507518
0.0127282581157
0.0127280116836
0.012727803048
0.0127276270839
0.0127274783819
0.0127273527225
0.0127272466115
0.012727157324
0.0127270823091
0.0127270194492
0.012726967259
0.0127269240714
0.0127268893694
0.0127268625786
0.0127268435096
0.0127268326616
0.0127268256569
0.0127267932227
0.0127262684195
0.0127206081741
0.0126707715167
0.0123423294047
0.0109375214539
0.0187474051056
0.023836892085
0.0250660238214
0.0252528806819
0.0252615096417
0.0252627666797
0.0252826780323
0.0253241696191
0.0253645039715
0.0253828526526
0.0253853235875
0.0253824277828
0.0253783073296
0.025374201628
0.0253712928169
0.025369214309
0.0253677605383
0.0253667928135
0.0253661922219
0.0253658888028
0.0253657838137
0.0253658046287
0.0253659010362
0.0253660382844
0.025366193489
0.0253663521071
0.0253665049687
0.0253666474773
0.0253667774314
0.0253668955151
0.0253670035751
0.0253671042456
0.0253672003664
0.0253672729651
0.0253670864775
0.0253638840031
0.0253335621979
0.0251086957744
0.0238569136103
0.0187423245464
0.020501642582
0.0282589996874
0.030142950351
0.0304826511366
0.0305177611647
0.0305221285379
0.0305426414354
0.030586097864
0.0306257971673
0.0306385276569
0.0306339060623
0.0306256842257
0.0306183094785
0.0306124804539
0.0306082988903
0.030605482111
0.0306036129539
0.0306024247857
0.0306017205589
0.0306013586848
0.0306012472961
0.0306012937375
0.0306014329283
0.0306016207588
0.0306018280687
0.030602036732
0.030602235918
0.0306024200941
0.0306025866717
0.0306027368799
0.0306028730273
0.030602998043
0.0306031133145
0.0306031694632
0.0306026067904
0.0305958003368
0.0305388066962
0.0301628222064
0.0282657724311
0.020478736308
0.0210343591917
0.0302661054648
0.0325925463408
0.0330420553482
0.0330952126645
0.033102666191
0.0331294189238
0.0331862097414
0.0332362459807
0.0332485676429
0.0332381909082
0.03322509018
0.0332147512107
0.0332074709299
0.0332024340171
0.0331991088232
0.0331969628546
0.0331956346392
0.0331948718222
0.0331944918931
0.0331943723964
0.033194427773
0.033194584902
0.0331947948534
0.0331950247659
0.0331952549474
0.0331954742337
0.0331956753584
0.0331958561874
0.0331960176161
0.0331961625685
0.033196293731
0.0331964088883
0.0331964235558
0.0331954361734
0.0331851225025
0.033104746824
0.032610624411
0.0302715488887
0.0210011257322
0.0211961850025
0.0311155337582
0.0336959408493
0.0342026943887
0.0342597826884
0.0342693620782
0.0343098148749
0.0343942328836
0.0344700141053
0.0344903011052
0.0344769475296
0.03445996747
0.0344471370712
0.0344385463894
0.0344329026274
0.0344292141596
0.0344268681306
0.0344254379969
0.0344246279424
0.0344242327461
0.0344241075331
0.0344241667324
0.0344243327895
0.0344245537707
0.0344247954866
0.0344250373091
0.0344252661992
0.0344254759117
0.0344256637133
0.0344258304434
0.0344259783412
0.0344261098586
0.0344262190869
0.0344261940984
0.0344248584549
0.0344118727041
0.0343147309279
0.0337416908475
0.0311361250186
0.0211584560801
0.0212436073705
0.0314240194166
0.0341201682923
0.0346290340027
0.0346780155071
0.0346891053437
0.0347493918394
0.0348790817961
0.0349933220258
0.0350289169286
0.0350155028376
0.0349958556123
0.0349810993816
0.0349714680602
0.0349653293654
0.0349614003213
0.0349589136783
0.0349574106528
0.0349565676632
0.0349561549581
0.0349560251347
0.034956085999
0.0349562567417
0.0349564835514
0.034956731436
0.0349569794223
0.0349572139429
0.0349574284748
0.0349576206478
0.0349577916581
0.0349579427005
0.0349580759638
0.0349581854847
0.0349581374008
0.0349565887182
0.0349419541006
0.0348348194756
0.0342170938514
0.0314730153551
0.0212049716912
0.0212559151091
0.0315081550281
0.0342348978647
0.0347277857855
0.0347639586412
0.0347758402676
0.0348559445672
0.0350272276591
0.035184438416
0.0352377492788
0.0352260228796
0.035204709052
0.0351885584642
0.0351781595819
0.0351716412486
0.0351675421461
0.0351649644751
0.0351634104045
0.0351625429307
0.0351621218143
0.0351619866542
0.0351620477784
0.0351622209184
0.0351624505641
0.0351627015776
0.0351629529385
0.0351631914191
0.0351634088543
0.0351636048552
0.0351637782761
0.0351639320419
0.0351640681771
0.035164179634
0.0351641232081
0.0351624673696
0.0351469860653
0.0350348650908
0.0343956695252
0.0315897769157
0.0212180250448
0.0212583980368
0.0315175377453
0.0342441600803
0.0347195758356
0.0347446720878
0.0347568218906
0.0348519414651
0.035052947492
0.0352425840732
0.0353101038187
0.0353001888624
0.0352778134943
0.0352606857368
0.035249746915
0.0352429615908
0.0352387354325
0.0352361052436
0.0352345167608
0.0352336328309
0.0352332048678
0.0352330679844
0.0352331273026
0.0352333012812
0.0352335325311
0.0352337846288
0.0352340376547
0.0352342782565
0.0352344987344
0.0352346968601
0.0352348725257
0.0352350282219
0.0352351662427
0.0352352784397
0.0352352203121
0.0352335189036
0.0352176735889
0.0351034391366
0.0344554155763
0.0316257186447
0.0212214096684
0.0212587842924
0.0315115540741
0.0342344132607
0.0346994864151
0.0347183195638
0.0347304919266
0.0348340315805
0.0350505052611
0.035257401915
0.0353330002635
0.0353241104133
0.0353010174028
0.0352832507607
0.0352719606781
0.0352650033325
0.0352606931181
0.0352580286079
0.0352564219612
0.0352555276243
0.0352550952213
0.0352549578571
0.0352550158467
0.0352551896655
0.035255421286
0.0352556746828
0.0352559279921
0.0352561697292
0.0352563920386
0.0352565918353
0.0352567688701
0.0352569256608
0.0352570643437
0.0352571778642
0.0352571187652
0.0352554012314
0.0352394229531
0.0351244175761
0.0344732557541
0.031635582054
0.02122220643
0.0212588959386
0.0315073185499
0.0342289372051
0.0346902401626
0.0347066842011
0.0347187967723
0.0348256835291
0.035047725595
0.0352607903121
0.0353394925565
0.0353309203727
0.0353074334384
0.0352893426115
0.0352778826317
0.0352708369862
0.0352664844325
0.0352638011662
0.0352621877371
0.0352612891987
0.035260854609
0.0352607170781
0.0352607743682
0.0352609480577
0.0352611796883
0.0352614335499
0.0352616874908
0.035261929409
0.0352621526549
0.0352623533879
0.0352625312231
0.0352626885689
0.0352628277549
0.0352629421619
0.0352628821516
0.0352611590113
0.0352451410517
0.0351299044983
0.0344778194506
0.0316379133552
0.0212223679422
0.0212588976693
0.0315073692053
0.0342290029107
0.0346903265011
0.0347067709126
0.0347188857882
0.0348257855499
0.0350477987569
0.0352608273192
0.0353395008129
0.035330917942
0.0353074287811
0.0352893380153
0.0352778787214
0.035270833261
0.0352664804805
0.035263797878
0.0352621851712
0.0352612866255
0.0352608520541
0.0352607145846
0.0352607716486
0.035260945461
0.0352611771658
0.035261431151
0.0352616851949
0.0352619271718
0.0352621505187
0.0352623514851
0.0352625295031
0.0352626869982
0.0352628263174
0.0352629406525
0.0352628805491
0.0352611571332
0.0352451386446
0.035129900809
0.0344778145009
0.0316379071821
0.021222366206
0.0212587858371
0.0315116967247
0.0342346181243
0.0346997442649
0.0347185701178
0.0347307561844
0.0348342923097
0.035050707813
0.0352575066161
0.0353330225438
0.0353241029408
0.0353010036723
0.0352832369577
0.0352719489471
0.035264992044
0.0352606812655
0.0352580184617
0.0352564136914
0.0352555195626
0.0352550874953
0.0352549502427
0.0352550077104
0.0352551817977
0.0352554137099
0.0352556676168
0.0352559211053
0.035256163121
0.0352563858918
0.0352565861732
0.0352567637599
0.0352569210697
0.0352570601943
0.0352571738699
0.0352571144421
0.0352553956761
0.0352394158179
0.0351244064932
0.0344732407707
0.0316355632251
0.0212221996886
0.0212583964607
0.0315177492648
0.0342444887619
0.0347199947065
0.0347450535892
0.0347572048714
0.0348523475282
0.0350532506575
0.0352427357172
0.0353101320933
0.0353001747839
0.0352777906456
0.0352606630567
0.0352497267937
0.0352429417693
0.0352387142396
0.0352360870212
0.0352345002476
0.0352336174637
0.0352331901974
0.035233052828
0.035233112422
0.0352332870763
0.0352335188897
0.0352337717699
0.0352340252593
0.0352342663846
0.0352344878191
0.03523468647
0.0352348633094
0.0352350194729
0.0352351577476
0.0352352709906
0.035235212309
0.0352335089077
0.0352176609086
0.0351034199192
0.0344553896714
0.0316256859998
0.0212213962839
0.0212559032901
0.0315083928022
0.03423529661
0.0347283193026
0.034764451738
0.0347763288036
0.0348564410705
0.035027573981
0.0351845983969
0.0352377676945
0.0352259935683
0.0352046707753
0.0351885221703
0.0351781263521
0.0351716075665
0.0351675087218
0.0351649335827
0.0351633792694
0.0351625146854
0.0351620950887
0.0351619594433
0.0351620211001
0.0351621953129
0.0351624260535
0.035162678032
0.0351629301681
0.0351631693865
0.035163388437
0.0351635853613
0.0351637606596
0.0351639152571
0.0351640522019
0.0351641632057
0.0351641075518
0.0351624491704
0.0351469635129
0.0350348333209
0.0343956286914
0.0315897282227
0.0212180002692
0.0212435813025
0.0314242356594
0.0341205657178
0.0346295952979
0.0346785452533
0.0346896373432
0.0347498964173
0.0348794052307
0.0349934405065
0.0350289000479
0.0350154421819
0.0349957892657
0.0349810378608
0.034971408953
0.0349652661947
0.0349613414841
0.0349588552101
0.0349573521022
0.0349565118997
0.0349561009061
0.0349559718417
0.0349560342443
0.034956206573
0.0349564348921
0.0349566842654
0.0349569333317
0.0349571692211
0.0349573857294
0.0349575801593
0.0349577525294
0.0349579045417
0.0349580396858
0.0349581487689
0.034958101529
0.0349565501628
0.0349419094231
0.0348347632047
0.0342170278458
0.0314729450244
0.021204929183
0.0211961468031
0.0311156851677
0.0336962251633
0.0342031584078
0.0342602472089
0.0342698325198
0.0343102172129
0.0343944634256
0.0344700437466
0.0344902198462
0.0344768353514
0.0344598548734
0.0344470307053
0.0344384398377
0.0344327919704
0.0344291086753
0.0344267628968
0.0344253330753
0.0344245249412
0.0344241309679
0.0344240079002
0.0344240692572
0.0344242373579
0.0344244604608
0.0344247042354
0.0344249478066
0.0344251787089
0.0344253903858
0.0344255805955
0.0344257496865
0.0344258994028
0.0344260320008
0.0344261435791
0.034426117207
0.0344247804465
0.0344117876462
0.0343146321882
0.0337415842489
0.031136024446
0.0211583882425
0.021034313549
0.0302661676486
0.0325926819303
0.0330423291668
0.033095511431
0.0331029730044
0.0331296722991
0.0331863032754
0.0332361745857
0.0332484149777
0.0332380222116
0.0332249236041
0.0332145898646
0.0332073052429
0.0332022742599
0.0331989470287
0.0331968010046
0.033195472989
0.0331947112233
0.033194331611
0.0331942152998
0.0331942732744
0.0331944328792
0.0331946453305
0.0331948779602
0.0331951106425
0.033195332213
0.0331955355056
0.0331957184166
0.0331958825437
0.0331960288395
0.0331961621425
0.0331962784612
0.0331962929137
0.0331953041907
0.0331849862253
0.0331045984257
0.0326104707967
0.0302714144122
0.0210010273533
0.0205016168782
0.0282589935759
0.0301429677438
0.030482775421
0.030517915901
0.0305223000164
0.0305427709343
0.0305860964057
0.0306256684547
0.0306383407423
0.0306337159713
0.0306254922156
0.0306181199698
0.0306122889637
0.0306081144729
0.0306052948068
0.0306034243782
0.0306022357658
0.0306015317386
0.0306011719053
0.0306010636916
0.0306011128376
0.0306012543452
0.0306014445128
0.0306016543307
0.030601865147
0.0306020664238
0.0306022522335
0.0306024207361
0.0306025727811
0.0306027103778
0.0306028371192
0.0306029531082
0.0306030094431
0.0306024440505
0.030595632442
0.0305386242385
0.0301626315682
0.0282656027434
0.0204786237775
0.0187474452734
0.0238368752961
0.025066008244
0.0252529507557
0.025261608713
0.0252628866376
0.0252827705307
0.0253241613196
0.02536439898
0.025382701731
0.025385178749
0.025382268351
0.0253781495176
0.0253740506403
0.025371144187
0.0253690619835
0.0253676056174
0.0253666365938
0.0253660371479
0.0253657360454
0.0253656331917
0.0253656558108
0.0253657535818
0.0253658922285
0.0253660489399
0.0253662088307
0.0253663629682
0.0253665064979
0.0253666377889
0.0253667572287
0.0253668665562
0.0253669685817
0.0253670656121
0.0253671389211
0.0253669506372
0.0253637433169
0.0253334054689
0.0251085234445
0.0238567486486
0.0187422268683
0.0109440611489
0.01235305735
0.0126834747688
0.0127278005996
0.0127286677249
0.012727920941
0.0127312055817
0.01273759014
0.01274167578
0.0127404013566
0.0127365924757
0.0127329177743
0.0127303553786
0.0127295214962
0.0127291980245
0.0127288546194
0.0127285127951
0.0127282196909
0.0127279730851
0.0127277641046
0.0127275878366
0.0127274387505
0.0127273127432
0.0127272065056
0.0127271171632
0.0127270422345
0.0127269797195
0.0127269280348
0.0127268858205
0.0127268522397
0.0127268266874
0.0127268091335
0.0127267996621
0.01272679394
0.0127267616056
0.0127262341937
0.0127205651397
0.0126707097493
0.0123422543998
0.0109374903754
0.0113276422175
0.0138363389875
0.0144559417648
0.0145516211339
0.0145584846482
0.0145588908868
0.0145647409482
0.0145768483662
0.0145877601674
0.0145912163483
0.0145899836228
0.0145877420813
0.0145859061572
0.0145852121381
0.0145852420023
0.0145851240227
0.0145849003069
0.0145846436992
0.0145843904606
0.0145841698605
0.0145839803904
0.0145838178256
0.0145836797166
0.0145835625649
0.0145834639774
0.0145833816269
0.014583312789
0.0145832556205
0.0145832084589
0.0145831701162
0.0145831399181
0.0145831169368
0.0145831009093
0.0145830800777
0.0145829555409
0.0145815340333
0.0145679566579
0.0144625335677
0.0138405354045
0.0113221029755
0.020470019764
0.0281937335058
0.0300554788097
0.0303809203506
0.03040966421
0.030415483626
0.0304452553737
0.0305044700575
0.0305649360746
0.0305981304717
0.0306093320396
0.0306115330942
0.0306104447368
0.0306082678287
0.03060639878
0.0306049783272
0.0306039318261
0.0306032076186
0.0306027413578
0.0306025015687
0.0306024243901
0.0306024502119
0.0306025377876
0.030602658065
0.0306027921637
0.030602928025
0.0306030580246
0.0306031781824
0.0306032869237
0.030603384655
0.0306034730561
0.0306035539501
0.030603626821
0.0306036410037
0.0306030296651
0.0305961815342
0.0305391104967
0.030163122745
0.0282660894968
0.0204794321712
0.022729410524
0.0337999283044
0.0364666105184
0.0370074876316
0.0370797396686
0.0370917376877
0.0371213230385
0.0371777711516
0.0372325429268
0.0372583533976
0.0372625742211
0.037259834235
0.0372557808987
0.0372520695548
0.0372491166782
0.0372470716769
0.0372456738979
0.0372447629282
0.0372442119506
0.0372439278582
0.0372438511364
0.0372439059926
0.0372440374565
0.0372442081349
0.0372443933357
0.0372445778457
0.0372447525617
0.0372449127995
0.0372450566901
0.0372451852357
0.0372453005243
0.0372454045682
0.0372454915248
0.0372454440005
0.0372440589801
0.0372307976604
0.0371320059265
0.036549132026
0.0338646924983
0.0227234048125
0.0234975853272
0.0364644773519
0.0396844099111
0.0403849461969
0.0404891970252
0.0405070208371
0.0405424735154
0.0406064490518
0.0406642076031
0.0406864199449
0.0406844329203
0.0406768919805
0.0406700323432
0.0406648936197
0.0406611902888
0.0406586939759
0.0406570502022
0.0406560128953
0.040655407187
0.0406551024846
0.0406550187162
0.0406550836581
0.0406552343337
0.0406554283081
0.0406556375658
0.040655845146
0.040656040875
0.0406562195851
0.0406563789777
0.0406565206558
0.0406566465626
0.0406567581894
0.040656842364
0.0406567074609
0.0406545039432
0.0406351522414
0.0405004622131
0.0397575816995
0.0365311278791
0.0234819574556
0.0237614467175
0.0376735075556
0.0412385510604
0.0420348531932
0.0421513643882
0.042173413039
0.0422247328072
0.0423127454946
0.0423876020669
0.0424134804395
0.0424077251497
0.0423962335529
0.0423869428726
0.0423805309066
0.042376242742
0.0423734050186
0.0423715761769
0.0423704427529
0.0423697919239
0.0423694732307
0.0423693830796
0.0423694527691
0.0423696141416
0.0423698214569
0.0423700447403
0.0423702658844
0.0423704737899
0.0423706629187
0.0423708312414
0.0423709797952
0.0423711107602
0.042371224695
0.0423713015903
0.0423710871469
0.0423682040332
0.0423440776993
0.0421827917037
0.0413287363444
0.0377575398237
0.0237419203682
0.0238484743172
0.0381599424511
0.0419074963143
0.0427352631819
0.0428453971025
0.0428703474805
0.042946632149
0.0430758191055
0.0431825165569
0.043219171864
0.0432125020851
0.0431982228305
0.0431870315887
0.0431795999568
0.0431748274109
0.0431717482206
0.0431697857812
0.0431685820826
0.0431678981094
0.0431675650923
0.0431674698308
0.0431675421596
0.0431677099698
0.043167925355
0.043168157215
0.0431683868486
0.0431686026565
0.0431687986524
0.0431689732223