/*--------------------------------*- C++ -*----------------------------------*\
| =========                 |                                                 |
| \\      /  F ield         | OpenFOAM: The Open Source CFD Toolbox           |
|  \\    /   O peration     | Version:  3.0.1                                 |
|   \\  /    A nd           | Web:      www.OpenFOAM.org                      |
|    \\/     M anipulation  |                                                 |
\*---------------------------------------------------------------------------*/
FoamFile
{
    version     2.0;
    format      ascii;
    class       volScalarField;
    location    "0.9";
    object      nut;
}
// * * * * * * * * * * * * * * * * * * * * * * * * * * * * * * * * * * * * * //

dimensions      [0 2 -1 0 0 0 0];

internalField   nonuniform List<scalar> 
15984
(
0.000516887974261
0.000523955400103
0.000525535807264
0.000525710089181
0.000525656313532
0.000525624336435
0.000525661790255
0.000525674504501
0.00052560480393
0.000525465392848
0.000525320079758
0.000525213552719
0.000525148083139
0.000525115086545
0.000525107844284
0.000525103919267
0.000525099957735
0.000525096176338
0.000525093185126
0.00052508939805
0.00052508493581
0.000525080203025
0.000525075480516
0.000525070955406
0.000525066743233
0.000525062906406
0.000525059470545
0.00052505643732
0.00052505379161
0.000525051513879
0.000525049582954
0.000525047978304
0.000525046687421
0.000525045673524
0.000525044870257
0.000525042689535
0.000525022921511
0.000524828863056
0.000523372134205
0.000516574959813
0.000556186298288
0.000593925247164
0.000602886925718
0.000604118929425
0.000604158800486
0.000604107087208
0.000604128031894
0.000604250609837
0.000604261456699
0.00060402528426
0.000603701804776
0.000603425738296
0.000603228659556
0.000603102243145
0.000603030551002
0.000602984631191
0.000602954046624
0.000602934939547
0.000602925493466
0.000602922081995
0.000602918711602
0.000602915395619
0.000602912192307
0.000602909155009
0.000602906325787
0.000602903734097
0.000602901394804
0.000602899315221
0.000602897491572
0.000602895924987
0.000602894616642
0.000602893571235
0.000602892799007
0.000602892196441
0.00060289061868
0.000602873166474
0.0006026984081
0.000601265417523
0.000592380471666
0.000555037308925
0.000567177511958
0.000631733854903
0.000647375610961
0.00064979238136
0.000649971808771
0.000649933063962
0.00065000883346
0.000650309837306
0.000650449238241
0.000650159067583
0.000649708693318
0.000649335074853
0.000649071058184
0.000648903337421
0.000648804229232
0.000648741057691
0.000648699350719
0.000648672592966
0.00064865646185
0.000648650493691
0.000648647494615
0.000648644781319
0.00064864227315
0.000648639940962
0.000648637783637
0.000648635806812
0.000648634018067
0.000648632425411
0.000648631028449
0.000648629837924
0.00064862886546
0.000648628125818
0.000648627635175
0.000648627122176
0.000648623388609
0.000648580891165
0.000648197746275
0.000645407008725
0.000629792338775
0.000565676484553
0.000570230879562
0.000648470249109
0.000668174783735
0.00067121076413
0.000671396257201
0.000671377967717
0.00067163944025
0.000672389467634
0.000672947220838
0.000672745117006
0.000672210014352
0.000671755539457
0.000671442521839
0.000671248357443
0.000671135111151
0.000671062627592
0.000671015151843
0.000670984387768
0.000670965041247
0.000670954924592
0.000670951919269
0.000670949472889
0.000670947297927
0.00067094531945
0.000670943504415
0.000670941849421
0.000670940365265
0.00067093904728
0.000670937903377
0.00067093694548
0.0006709362017
0.000670935697164
0.000670935463765
0.000670935047224
0.000670929080281
0.000670861863401
0.000670294739209
0.000666454320482
0.000646448297357
0.000568548604709
0.00057110900392
0.00065497342702
0.000676487904009
0.000679928876714
0.000680328127123
0.000680383706638
0.000680683252841
0.000681578553942
0.000682869252271
0.00068293789558
0.000682368557935
0.000681849424586
0.000681492356475
0.000681275335137
0.000681152900396
0.000681075064515
0.000681024282067
0.000680991534857
0.00068097089848
0.000680958994565
0.000680955367026
0.000680953023526
0.000680950991271
0.000680949166628
0.000680947504109
0.000680945994719
0.000680944635649
0.000680943436857
0.000680942405041
0.000680941561883
0.000680940936678
0.000680940580392
0.000680940530225
0.000680940172186
0.000680932396268
0.000680846843924
0.000680150982119
0.000675640161237
0.000653179132934
0.000569321159731
0.000571380554515
0.000656962275461
0.000679093007395
0.000683241851322
0.000683584974604
0.000683654531109
0.000684113698871
0.000685087973923
0.000686638970359
0.000687110192609
0.00068655090561
0.000685983329741
0.00068558864463
0.000685351594753
0.000685220533136
0.00068514026068
0.000685087301186
0.00068505364241
0.000685032587334
0.000685020352525
0.000685016452084
0.000685014141144
0.000685012162359
0.00068501039301
0.00068500877785
0.000685007303728
0.000685005968414
0.000685004782036
0.000685003757576
0.000685002920969
0.000685002296841
0.000685001942372
0.000685001893107
0.000685001418614
0.000684992306485
0.000684895536183
0.000684125672327
0.000679256870195
0.000655618253267
0.000569527576257
0.0005714754049
0.000657250791427
0.000679872561345
0.000683908948819
0.000684114208339
0.000684189251886
0.000684842147957
0.000686165245515
0.000687759992472
0.000688650193678
0.000688120821731
0.000687516691651
0.000687091465167
0.00068683734864
0.000686698894021
0.000686616639582
0.000686562626341
0.000686528431116
0.000686507297812
0.000686495268215
0.000686491629973
0.000686489325462
0.000686487365045
0.000686485611105
0.000686484003316
0.000686482528177
0.000686481182813
0.000686479966535
0.000686478909753
0.000686478021811
0.000686477338434
0.000686476906414
0.00068647675349
0.000686476084121
0.000686466100901
0.000686363421485
0.000685558538241
0.000680528437045
0.00065640467361
0.000569580675392
0.000571521741895
0.000657103736049
0.000679885984768
0.000683742052353
0.000683802046269
0.000683878773826
0.000684710237456
0.000686320233492
0.000687980721439
0.000689181728311
0.000688674460954
0.000688041334766
0.000687591844402
0.00068732419543
0.000687180142531
0.000687095568975
0.000687041697214
0.000687006879391
0.000686985969268
0.000686974263103
0.000686970821069
0.000686968506362
0.000686966549308
0.000686964802178
0.000686963191247
0.000686961708924
0.000686960349543
0.000686959114401
0.00068695801985
0.000686957082609
0.000686956335077
0.000686955821862
0.000686955558026
0.000686954731283
0.000686944283063
0.000686839021689
0.000686019877569
0.000680927534604
0.000656630516784
0.000569593399396
0.000571554749407
0.000656978770229
0.000679782833004
0.00068351771054
0.000683462747067
0.000683539236496
0.000684506159925
0.000686285193633
0.000688014202783
0.000689371774393
0.000688868858643
0.000688212926824
0.000687746303062
0.000687469076974
0.000687321079927
0.000687234958426
0.000687180813742
0.000687145993377
0.000687125131745
0.000687113773645
0.000687110470301
0.000687108146109
0.00068710618688
0.000687104439832
0.000687102833537
0.000687101344092
0.000687099978187
0.000687098733851
0.000687097619175
0.000687096649461
0.000687095857041
0.000687095282694
0.000687094946378
0.000687094019523
0.000687083352116
0.000686977184524
0.000686152837154
0.000681039626532
0.000656688455799
0.00056959616267
0.000571574543694
0.00065693766391
0.000679731724493
0.000683415391392
0.000683291887793
0.000683367524102
0.000684413116245
0.000686261976139
0.000688033241137
0.000689440743725
0.000688933587197
0.000688264664233
0.000687789080575
0.00068750676441
0.000687356793663
0.000687269935965
0.000687215462704
0.000687180755703
0.000687159927179
0.000687148769062
0.00068714555336
0.000687143225116
0.000687141264713
0.000687139516883
0.000687137912656
0.000687136426116
0.000687135056899
0.000687133811042
0.000687132689796
0.000687131707431
0.000687130893074
0.000687130289342
0.000687129918625
0.000687128943847
0.000687118188104
0.00068701173886
0.000686185779495
0.000681066709684
0.000656701243436
0.000569596690562
0.000571574605582
0.000656938560721
0.000679732180252
0.000683416100228
0.000683292863328
0.000683368594155
0.000684413894816
0.000686262465966
0.000688034150579
0.000689440875754
0.000688933442615
0.000688264497012
0.000687788930953
0.000687506665664
0.000687356721233
0.00068726986094
0.000687215417579
0.000687180732433
0.000687159897213
0.000687148743393
0.000687145530744
0.000687143202285
0.000687141243935
0.000687139497673
0.000687137896045
0.000687136411785
0.000687135044562
0.000687133800826
0.000687132682976
0.000687131702985
0.000687130890163
0.0006871302879
0.000687129916835
0.000687128941536
0.000687118181973
0.000687011725223
0.000686185731527
0.000681066637709
0.000656701155041
0.000569596741092
0.000571554569122
0.00065698105171
0.000679784202707
0.00068351980925
0.000683465254899
0.000683541910151
0.000684508177209
0.000686286544986
0.000688016802345
0.000689372088615
0.000688868453691
0.000688212414999
0.0006877458215
0.000687468746805
0.000687320839677
0.000687234727925
0.000687180666166
0.000687145903808
0.000687125033524
0.00068711369689
0.000687110403237
0.000687108078411
0.000687106124578
0.000687104383225
0.000687102784929
0.000687101301152
0.000687099941431
0.000687098703868
0.000687097596176
0.000687096632468
0.0006870958447
0.000687095273527
0.000687094938127
0.000687094008539
0.00068708332571
0.000686977133417
0.000686152677834
0.000681039393747
0.000656688170431
0.00056959630097
0.000571521410879
0.00065710707607
0.000679888104101
0.000683745221737
0.000683805449297
0.00068388227813
0.000684713230632
0.000686322168876
0.000687984347759
0.0006891820237
0.000688673814912
0.000688040567578
0.000687591109384
0.000687323639563
0.00068717969758
0.000687095088673
0.000687041376024
0.000687006651154
0.000686985788021
0.000686974127401
0.000686970699093
0.000686968389652
0.000686966443294
0.000686964705653
0.000686963106196
0.000686961632672
0.000686960281794
0.000686959057687
0.000686957968751
0.000686957040847
0.000686956297336
0.000686955784598
0.000686955523692
0.000686954687523
0.000686944211865
0.000686838906358
0.000686019579177
0.000680927112765
0.000656629971367
0.000569593603329
0.000571474532103
0.000657253994427
0.000679874992892
0.00068391266769
0.000684118045807
0.000684193168466
0.000684845583701
0.000686167300934
0.000687763576753
0.000688650151978
0.000688119715709
0.000687515441097
0.000687090368421
0.000686836497783
0.000686698208477
0.000686615960416
0.000686562209107
0.000686527947638
0.000686506980212
0.000686495039443
0.000686491436621
0.000686489141029
0.000686487194987
0.00068648545513
0.000686483859965
0.000686482394115
0.000686481056648
0.000686479852965
0.000686478800937
0.000686477923505
0.000686477242582
0.000686476809164
0.000686476647086
0.000686475963351
0.000686465925843
0.000686363140248
0.00068555804613
0.000680527769586
0.000656403822021
0.000569580893634
0.000571378996297
0.000656964531377
0.000679095378632
0.000683245426077
0.000683588653906
0.000683658331625
0.000684116907887
0.00068508982621
0.000686641485364
0.000687109416817
0.000686549161111
0.000685981556671
0.00068558724956
0.000685350422043
0.000685219281365
0.000685139446961
0.000685086544098
0.000685052935666
0.00068503200469
0.000685019875246
0.000685016109905
0.000685013816834
0.000685011855347
0.000685010101314
0.000685008498363
0.000685007032814
0.000685005705435
0.000685004529507
0.000685003514833
0.000685002681059
0.000685002057625
0.000685001697839
0.00068500163219
0.000685001125643
0.000684991927883
0.000684895002839
0.000684124896196
0.000679255872991
0.000655617039923
0.000569527740135
0.000571106869177
0.00065497423412
0.000676493507279
0.000679931712336
0.00068033122278
0.000680386925983
0.000680685730755
0.000681584265147
0.000682869744235
0.000682935869461
0.000682365971887
0.000681847123665
0.000681490554097
0.000681273493343
0.000681151042916
0.000681073848908
0.000681023059881
0.000680990371511
0.000680969973
0.00068095823286
0.000680954735166
0.000680952412861
0.000680950399494
0.00068094859266
0.000680946944131
0.000680945444211
0.000680944095079
0.000680942903916
0.000680941882663
0.000680941047515
0.00068094042465
0.00068094005797
0.000680939992933
0.000680939593348
0.000680931726682
0.000680845967596
0.000680149804238
0.000675638733044
0.000653177501044
0.000569321178821
0.00057022809457
0.000648469112941
0.000668177077879
0.000671217238454
0.000671404317847
0.000671386161024
0.000671645980446
0.000672391942958
0.000672945621427
0.000672741840969
0.000672206652156
0.000671752621643
0.000671440050659
0.000671245627366
0.000671133237103
0.000671060765187
0.00067101344408
0.000670982821395
0.000670963666046
0.000670953788813
0.000670950905413
0.000670948480428
0.000670946324805
0.000670944364839
0.000670942566957
0.000670940925269
0.000670939452822
0.000670938143644
0.000670937008764
0.000670936064969
0.000670935324075
0.000670934826519
0.000670934581746
0.000670934129835
0.00067092807713
0.000670860744396
0.000670293186828
0.000666452538993
0.000646446540554
0.000568548394885
0.000567174814797
0.000631731540392
0.000647374773406
0.000649794821265
0.000649975390925
0.000649937115339
0.000650011600096
0.00065030944723
0.000650446110888
0.000650155131996
0.000649705031329
0.000649331944065
0.000649067829266
0.000648900911256
0.000648802089722
0.000648739094156
0.000648697590504
0.000648671000855
0.000648655054023
0.000648649365024
0.000648646392956
0.000648643703337
0.000648641212964
0.000648638897841
0.00064863675779
0.000648634796103
0.000648633022824
0.000648631443654
0.000648630064432
0.000648628893949
0.000648627940561
0.000648627223113
0.000648626745324
0.000648626234336
0.000648622462598
0.000648579888784
0.000648196477126
0.000645405546235
0.000629790857407
0.000565676130059
0.000556184323205
0.000593922356063
0.000602884524215
0.000604118452514
0.00060415923035
0.000604107848871
0.000604128033876
0.000604248638851
0.000604257883182
0.000604021401741
0.000603698684529
0.000603422437683
0.000603226115881
0.000603100375717
0.000603029097318
0.000602983359851
0.0006029529724
0.000602934076261
0.000602924975831
0.000602921583595
0.000602918228207
0.000602914925654
0.000602911732861
0.000602908706118
0.000602905889137
0.000602903310041
0.000602900985734
0.000602898922071
0.000602897119304
0.000602895577203
0.000602894295821
0.000602893281082
0.000602892538305
0.000602891963787
0.000602890395563
0.000602872922387
0.000602698036234
0.000601264843657
0.000592379834794
0.000555037229735
0.000516886776136
0.000523953266867
0.000525533194511
0.000525707858581
0.000525654396649
0.000525622479628
0.00052565954252
0.00052567180851
0.000525601856403
0.000525462447732
0.000525317762969
0.000525212199541
0.000525147448887
0.000525114862763
0.000525107857459
0.000525104093552
0.00052510033892
0.00052509677497
0.000525093989231
0.000525090204064
0.000525085744428
0.000525081015552
0.00052507629797
0.000525071779156
0.000525067574794
0.000525063747771
0.000525060324825
0.000525057307368
0.00052505468157
0.000525052427719
0.000525050523883
0.00052504895121
0.000525047694551
0.000525046718959
0.000525045953338
0.00052504380406
0.000525024039258
0.00052482987411
0.000523372994872
0.00051657570603
0.000555260150065
0.000592700448202
0.000601635596113
0.000602911065254
0.000602952696335
0.00060293845763
0.000603037308694
0.000603226547666
0.000603350278403
0.00060331783573
0.000603209449437
0.000603103013073
0.000603025919734
0.000602995041706
0.000602982282406
0.000602972470478
0.000602962842259
0.000602954497804
0.000602947819839
0.000602942061424
0.000602937158311
0.000602932954133
0.000602929342458
0.000602926238927
0.000602923581171
0.000602921310721
0.000602919377157
0.000602917744556
0.000602916371844
0.000602915245496
0.000602914350649
0.000602913679805
0.000602913245847
0.000602912894251
0.000602911566136
0.000602894076725
0.000602719202244
0.000601285729408
0.000592400469092
0.000555059469344
0.00146059195385
0.00216549703136
0.00232924691099
0.0023543889925
0.00235534027518
0.00235562984936
0.00235906321611
0.00236608154573
0.00237309355818
0.00237672205193
0.00237773476042
0.00237771420391
0.0023773335356
0.00237682469468
0.00237644510562
0.00237616663419
0.00237596279531
0.00237581792478
0.00237571905492
0.00237566435109
0.00237564350372
0.00237564478588
0.00237565981074
0.0023756826247
0.00237570919196
0.00237573686553
0.00237576391969
0.00237578941456
0.00237581287625
0.00237583430261
0.00237585391533
0.00237587204535
0.00237588904153
0.00237590155665
0.00237587111933
0.00237537012748
0.00237086258989
0.00233923398263
0.0021709909659
0.00146034148962
0.00153097241219
0.00280715460332
0.0031088905805
0.00316489772468
0.00317105853826
0.00317194847473
0.00317557278982
0.00318306012727
0.00319003336257
0.00319269000778
0.00319242046041
0.00319140165624
0.00319038902779
0.0031895359599
0.00318890451249
0.0031884641193
0.00318815456858
0.00318794167222
0.00318780194552
0.00318771795868
0.00318768401892
0.0031876846804
0.0031877067602
0.0031877410163
0.00318778106599
0.00318782278819
0.00318786358834
0.00318790198599
0.00318793721274
0.00318796928648
0.00318799849087
0.00318802520601
0.00318804948577
0.00318806143681
0.00318795644816
0.00318672659636
0.00317686769169
0.00311473807185
0.00281104779255
0.00152996188801
0.00155276473417
0.00310007826903
0.0034925200997
0.0035710212335
0.00358082064108
0.00358232907984
0.0035872621152
0.00359741132941
0.00360630971838
0.0036090096311
0.00360780883388
0.00360594917472
0.00360440191028
0.00360326744016
0.00360246189633
0.00360191455883
0.00360154150788
0.00360129242625
0.00360113420024
0.00360104270614
0.00360100242917
0.0036010030589
0.00360102918468
0.00360106975997
0.00360111704014
0.00360116614089
0.00360121405793
0.00360125881731
0.00360129959617
0.00360133632058
0.00360136934232
0.00360139896099
0.00360142435157
0.00360142778229
0.00360123151796
0.0035992640527
0.00358457885205
0.00349836000282
0.00310459088906
0.00155131267005
0.00155969099866
0.00322897789275
0.00367320133304
0.00376266267509
0.0037724379944
0.00377423450605
0.00378256885286
0.00379950104032
0.00381322497237
0.00381740644693
0.00381577667566
0.00381326898778
0.00381128528549
0.00380990896886
0.00380897890933
0.00380835659012
0.00380794066609
0.00380766804483
0.00380749788615
0.00380740191527
0.00380735919777
0.00380735998589
0.00380738840196
0.00380743237376
0.0038074835822
0.00380753673171
0.00380758828597
0.00380763633879
0.00380767988879
0.00380771878832
0.00380775321805
0.00380778332753
0.00380780736014
0.00380780137971
0.00380752672473
0.00380497832499
0.00378674382191
0.00368420311663
0.0032367093395
0.00155804089961
0.00156183094412
0.00327798017769
0.00374569402703
0.00383297632018
0.00384061840619
0.00384270435334
0.00385552002475
0.00388341261214
0.00390599085967
0.00391290188353
0.00391132248532
0.00390837026468
0.00390605256487
0.00390448543086
0.00390345877016
0.00390278618154
0.00390234089146
0.00390205191798
0.00390187360878
0.00390177279531
0.00390172861692
0.00390172961424
0.00390175935287
0.00390180520298
0.00390185856541
0.00390191398765
0.00390196772772
0.0039020177474
0.00390206306592
0.00390210359386
0.00390213926523
0.00390217010547
0.003902194365
0.00390218281603
0.00390185918412
0.00389894349724
0.00387854118896
0.00376656941473
0.00329090557812
0.0015601389706
0.00156242085352
0.00329191806442
0.00376455835155
0.00384754797697
0.00385241449202
0.00385466172653
0.00387167383471
0.00390883300405
0.00394177175102
0.00395182109116
0.00395058059341
0.00394735582864
0.00394479998417
0.00394309428125
0.00394199540747
0.00394128838574
0.00394082401404
0.00394052377011
0.00394033927527
0.00394023597331
0.00394018980729
0.0039401908697
0.00394022133966
0.00394026815576
0.00394032267358
0.00394037938424
0.00394043461616
0.00394048592367
0.0039405327318
0.00394057442096
0.00394061127182
0.00394064328426
0.00394066840441
0.00394065523114
0.00394030702096
0.00393719892287
0.00391568796888
0.00379908244073
0.00331062968096
0.00156076153101
0.00156255149278
0.00329356154942
0.00376522054072
0.00384419789598
0.00384689151063
0.00384919304732
0.00386916954696
0.00391267717304
0.00395329744096
0.00396587111078
0.00396498899949
0.00396159910076
0.00395888147245
0.00395708062499
0.00395593171926
0.0039552006073
0.00395472470402
0.00395441727022
0.00395422850021
0.00395412288696
0.00395407612891
0.00395407678359
0.00395410755884
0.00395415489667
0.00395420988121
0.00395426725277
0.00395432330938
0.00395437571608
0.00395442347456
0.00395446617265
0.00395450396879
0.00395453693825
0.00395456271565
0.00395454960391
0.00395419093564
0.00395099857311
0.00392900683896
0.00381045265624
0.0033169757259
0.00156093244732
0.00156257599612
0.00329251794806
0.00376300696971
0.00383975479847
0.003841405923
0.00384371530782
0.00386516579387
0.0039118300416
0.00395640264778
0.0039704343408
0.00396976902735
0.00396627390433
0.00396345320931
0.00396159209117
0.00396041155449
0.0039596649212
0.00395918204823
0.0039588704699
0.00395867905965
0.00395857190834
0.0039585249372
0.00395852534724
0.00395855613857
0.00395860362748
0.00395865899822
0.00395871655734
0.00395877303219
0.00395882606873
0.00395887448859
0.00395891781812
0.00395895623009
0.00395898973901
0.00395901621749
0.00395900321253
0.00395864091236
0.00395541714051
0.00393324649031
0.0038139842557
0.00331878866987
0.00156097514564
0.00156258329337
0.00329174406589
0.00376189549082
0.00383788035914
0.00383924056742
0.00384154133216
0.00386347359969
0.00391120939604
0.00395712592049
0.00397173232395
0.00397114597533
0.00396759426405
0.0039647219862
0.00396283248206
0.00396163577449
0.00396088135002
0.00396039490741
0.00396008160454
0.00395988907367
0.00395978114287
0.00395973409261
0.00395973436964
0.00395976514869
0.00395981266172
0.003959868163
0.00395992589156
0.00395998245833
0.00396003578537
0.00396008453514
0.00396012819083
0.00396016691556
0.00396020074717
0.00396022764614
0.00396021459817
0.00395985107498
0.00395661776715
0.00393439276557
0.00381491821538
0.00331923269869
0.00156098438092
0.00156258344356
0.00329175367757
0.00376191090237
0.00383790271614
0.00383926566101
0.00384156535795
0.00386350044446
0.00391122726303
0.00395713304412
0.00397173403923
0.00397114585897
0.00396759377792
0.00396472149814
0.00396283198117
0.00396163526954
0.00396088078591
0.00396039439657
0.00396008116331
0.00395988860693
0.00395978065844
0.0039597336214
0.0039597338217
0.00395976461124
0.00395981212636
0.00395986763545
0.00395992537058
0.0039599819344
0.00396003527079
0.00396008405953
0.00396012774908
0.00396016650545
0.00396020036506
0.00396022725546
0.00396021419248
0.00395985063562
0.00395661726716
0.00393439213251
0.00381491742687
0.0033192318307
0.00156098430912
0.00156257627877
0.00329254554633
0.00376305525911
0.00383982076886
0.00384147654009
0.00384378769907
0.00386523411267
0.00391187923627
0.00395642270444
0.00397043909652
0.00396976860941
0.00396627246726
0.00396345178347
0.00396159066553
0.00396041008175
0.00395966326829
0.00395918048254
0.00395886905559
0.00395867761311
0.00395857044996
0.00395852348339
0.00395852372412
0.00395855451957
0.00395860202876
0.00395865746415
0.0039587150176
0.00395877151476
0.00395882461995
0.00395887311845
0.00395891655792
0.0039589550842
0.00395898869544
0.00395901522748
0.00395900217288
0.00395863968062
0.00395541572278
0.00393324461611
0.00381398192043
0.00331878608773
0.0015609748716
0.00156255171806
0.00329360243268
0.00376529756404
0.00384430370791
0.00384699594962
0.00384929634841
0.0038692741068
0.00391275038627
0.00395332685969
0.00396587743329
0.00396498787714
0.00396159646233
0.00395887897004
0.00395707822404
0.00395592922401
0.00395519771876
0.0039547219414
0.00395441450327
0.00395422576859
0.00395412015582
0.00395407318447
0.00395407383747
0.00395410468452
0.0039541520808
0.00395420717555
0.00395426459792
0.00395432072401
0.00395437330097
0.00395442116402
0.00395446411542
0.00395450202509
0.00395453506006
0.00395456111118
0.00395454792521
0.00395418895043
0.00395099626553
0.00392900373787
0.00381044873379
0.00331697132559
0.00156093190178
0.00156242064522
0.00329196496229
0.00376465125262
0.00384768077828
0.00385254454592
0.00385478904178
0.00387179908792
0.00390891633605
0.00394180374954
0.00395182627216
0.00395057755045
0.00394735139217
0.00394479584407
0.00394309028951
0.00394199107029
0.00394128385211
0.00394081925896
0.00394051864382
0.00394033436
0.00394023112561
0.00394018468449
0.00394018576694
0.00394021638368
0.00394026336869
0.00394031804091
0.00394037488811
0.00394043025156
0.00394048189384
0.00394052892842
0.00394057105139
0.00394060810623
0.00394064035594
0.00394066539677
0.00394065253301
0.0039403039569
0.00393719530576
0.00391568310976
0.00379907646218
0.0033106232476
0.00156076052901
0.00156183004922
0.00327802444008
0.00374578585079
0.00383311435495
0.00384075414845
0.00384283916935
0.00385564565824
0.00388349044911
0.00390601654261
0.00391290179405
0.00391131500872
0.00390836200884
0.0039060448244
0.00390447780448
0.00390345047376
0.00390277784385
0.00390233200129
0.00390204246666
0.0039018642385
0.00390176352573
0.003901719129
0.00390172035906
0.00390175036123
0.00390179648316
0.00390185015076
0.00390190579808
0.00390195983897
0.00390201029396
0.00390205614917
0.00390209702447
0.00390213294391
0.00390216430574
0.00390218847788
0.00390217738849
0.00390185345155
0.00389893694955
0.00387853295661
0.00376656005327
0.00329089653579
0.00156013726051
0.00155968947129
0.00322901158648
0.00367326049397
0.00376277563564
0.00377255442339
0.003774351721
0.00378266853122
0.0037995503531
0.00381323642853
0.00381739713938
0.00381576203954
0.00381325432585
0.00381127127098
0.00380989488726
0.00380896438653
0.00380834172059
0.00380792519533
0.0038076519425
0.00380748149655
0.00380738534867
0.0038073427717
0.0038073439291
0.00380737271692
0.00380741710139
0.00380746874843
0.0038075222896
0.00380757430117
0.00380762281061
0.0038076669171
0.00380770637313
0.00380774124751
0.00380777166207
0.00380779634618
0.00380779018273
0.00380751571985
0.00380496656943
0.00378673000116
0.00368418855336
0.00323669698392
0.00155803818696
0.00155276277287
0.00310009764799
0.00349255264786
0.00357108115572
0.0035808857676
0.00358239503995
0.00358731792359
0.00359743614458
0.00360630541797
0.00360899063209
0.00360778699571
0.00360592755559
0.00360438092186
0.00360324624096
0.00360244108743
0.00360189263466
0.00360151874558
0.00360126889293
0.00360111016232
0.00360101834347
0.00360097833517
0.00360097943402
0.00360100602978
0.00360104709297
0.00360109493952
0.00360114458865
0.00360119300967
0.00360123825564
0.00360127950693
0.00360131681866
0.00360135015356
0.0036013802442
0.00360140594858
0.00360140946899
0.00360121326221
0.00359924539353
0.00358455916556
0.00349833995803
0.00310457426963
0.00155130877854
0.0015309711484
0.00280716248288
0.00310890406762
0.00316493034443
0.00317109643267
0.00317198835517
0.00317560526538
0.00318306980119
0.00319002139963
0.00319266769132
0.00319239705429
0.00319137754171
0.00319036558823
0.00318951242661
0.00318888150673
0.00318843985869
0.00318812927002
0.00318791559484
0.00318777536331
0.00318769127132
0.00318765785411
0.00318765896579
0.00318768145984
0.00318771614834
0.00318775668273
0.00318779883516
0.00318784004837
0.0031878787686
0.00318791435517
0.00318794676402
0.00318797621462
0.00318800322473
0.00318802762034
0.00318803964466
0.00318793429137
0.0031867038244
0.00317684299521
0.00311471248584
0.00281102614211
0.00152995740688
0.00146059333379
0.00216550328355
0.00232925683607
0.00235441327886
0.00235536877814
0.00235566043014
0.00235908929515
0.00236609160427
0.00237308826921
0.00237670873853
0.0023777206957
0.00237769763501
0.00237731644556
0.00237680799755
0.00237642827427
0.00237614886953
0.00237594411669
0.00237579856752
0.00237569937489
0.00237564496704
0.00237562441905
0.00237562595375
0.00237564117673
0.00237566419941
0.00237569099618
0.0023757188619
0.0023757460995
0.00237577173023
0.002375795361
0.00237581695191
0.00237583670307
0.0023758549769
0.00237587204605
0.00237588462793
0.00237585391766
0.0023753523619
0.00237084282612
0.00233921277138
0.00217097163143
0.00146033739486
0.000555259394719
0.000592698522848
0.000601633329927
0.000602909567555
0.000602951664304
0.000602937653142
0.000603036011129
0.000603224336714
0.000603347402469
0.000603314823642
0.000603206867608
0.00060310063554
0.000603024323066
0.0006029936628
0.000602981217907
0.000602971363627
0.000602961765236
0.000602953421998
0.000602946710606
0.00060294094027
0.000602936025855
0.000602931807397
0.000602928181164
0.000602925068902
0.000602922404348
0.000602920129912
0.000602918198935
0.000602916573544
0.000602915221407
0.000602914120928
0.000602913256052
0.00060291262357
0.000602912224528
0.000602911906781
0.000602910580747
0.00060289302562
0.000602717922986
0.000601283986904
0.000592398421383
0.000555058537514
0.000565874920599
0.000629690404242
0.000645239273183
0.00064777167167
0.000647980554845
0.000647999516109
0.000648161178761
0.000648492085508
0.0006487910292
0.000648888023952
0.000648855973106
0.000648794544933
0.000648741466048
0.000648718044601
0.000648714960305
0.000648711340294
0.000648705979586
0.000648700008298
0.00064869382832
0.000648688258344
0.000648683411018
0.00064867918051
0.000648675514634
0.000648672345651
0.000648669625306
0.000648667309034
0.000648665341436
0.000648663680807
0.000648662288762
0.00064866113626
0.000648660206517
0.000648659474489
0.000648658931694
0.000648658196553
0.000648654071985
0.000648610888644
0.000648226078111
0.000645435234545
0.000629820888519
0.000565714851338
0.00152959013377
0.00279610859631
0.00309131390072
0.00314283633253
0.00314702967986
0.00314814044811
0.00315415420823
0.00316604957765
0.003178374375
0.00318550346243
0.00318825668991
0.00318908436508
0.00318911883018
0.00318882009053
0.00318851754834
0.00318828973394
0.0031881237295
0.00318800975321
0.00318793696957
0.0031878996296
0.00318788954099
0.00318789677577
0.00318791435313
0.00318793738605
0.00318796263934
0.0031879880374
0.00318801227429
0.00318803464403
0.00318805486208
0.00318807298282
0.0031880892744