/*--------------------------------*- C++ -*----------------------------------*\
| =========                 |                                                 |
| \\      /  F ield         | OpenFOAM: The Open Source CFD Toolbox           |
|  \\    /   O peration     | Version:  3.0.1                                 |
|   \\  /    A nd           | Web:      www.OpenFOAM.org                      |
|    \\/     M anipulation  |                                                 |
\*---------------------------------------------------------------------------*/
FoamFile
{
    version     2.0;
    format      ascii;
    class       volVectorField;
    location    "0.5";
    object      ddt0(U);
}
// * * * * * * * * * * * * * * * * * * * * * * * * * * * * * * * * * * * * * //

dimensions      [0 1 -2 0 0 0 0];

internalField   nonuniform List<vector> 
15984
(
(6.71189423523e-06 -0.000222698270137 0.000361465784515)
(0.000165144956953 -0.000354799896899 0.000486367710367)
(0.000482666340176 -0.000419941284548 0.00062122664933)
(0.000751778771668 -0.000482036474992 0.000712633406182)
(0.0013371005452 -0.000570848814965 0.000743946889674)
(0.0021616775977 -0.000557952710902 0.000761429582828)
(0.002696697456 -0.000449637546606 0.000751969549956)
(0.00284617162294 -0.000367796658558 0.000671570501577)
(0.00293426404114 -0.000315925131425 0.000521624064542)
(0.00300010106016 -0.000233041324449 0.000357274568566)
(0.00297365923001 -0.000148747006899 0.000205175683924)
(0.00286190958037 -8.88041693171e-05 0.000158191513911)
(0.00267859454653 -3.92279837571e-05 8.64994133311e-05)
(0.00247907714685 -1.36172113196e-05 6.47486842764e-05)
(0.00225169159711 1.10441804654e-06 5.54966979668e-05)
(0.00200835569984 8.79306463545e-06 5.49679765224e-05)
(0.00176215873767 1.235914328e-05 5.51442571235e-05)
(0.00152363615445 1.36992406489e-05 5.36135705964e-05)
(0.00130164158904 1.39043957444e-05 5.00987530067e-05)
(0.00110115598204 1.35738525088e-05 4.53455983697e-05)
(0.000924047632395 1.30363318968e-05 4.00574850931e-05)
(0.000770182017168 1.24494151838e-05 3.47212503536e-05)
(0.000638115128601 1.18939819831e-05 2.9624404759e-05)
(0.0005257526682 1.13966308232e-05 2.49363272335e-05)
(0.00043077421016 1.09526723915e-05 2.07698081205e-05)
(0.000350956915836 1.04589888246e-05 1.7220218764e-05)
(0.000284095299777 1.0255877302e-05 1.4081503822e-05)
(0.000228186789741 1.00484954941e-05 1.14836488422e-05)
(0.000181594471401 9.85149762561e-06 9.35724002852e-06)
(0.000142946931434 9.51067085906e-06 7.68924378435e-06)
(0.000111264735686 9.08381863996e-06 6.31845808109e-06)
(8.52432548826e-05 9.32087834946e-06 4.78274106154e-06)
(6.41026276931e-05 9.25949507785e-06 3.49594153793e-06)
(4.76039512879e-05 9.14674387563e-06 2.409324234e-06)
(3.5860634822e-05 8.93155578128e-06 1.31129276374e-06)
(2.60795177254e-05 8.82586589184e-06 1.0789751456e-06)
(2.20295164682e-05 8.36361772736e-06 -9.86012526783e-09)
(1.5792799936e-05 8.1632740159e-06 1.19268436297e-06)
(6.94715103277e-06 7.50575707214e-06 2.37014565076e-06)
(3.57224553297e-06 4.85231528823e-06 2.50952960166e-06)
(-0.000128393050858 -0.000608949199217 0.00017506876437)
(9.51176457373e-05 -0.000889305218028 8.20124708725e-05)
(0.000451672405857 -0.001033293192 0.000103482127362)
(0.000707167369364 -0.00122405110968 0.000103583854755)
(0.0013228214508 -0.00150413149658 6.95751422627e-05)
(0.00223494043781 -0.00147297047189 9.50860137152e-05)
(0.00280040514893 -0.00114809802542 0.00016963771302)
(0.00292290684219 -0.00090758711031 0.000209119010997)
(0.0030166968049 -0.000774597014118 0.000191133905139)
(0.00310672698462 -0.000575711976685 0.000143002414147)
(0.00307465045883 -0.000361607777249 7.6673041741e-05)
(0.00294726348212 -0.000229579255293 9.24083916833e-05)
(0.00274613064288 -0.000104614393163 5.35505503365e-05)
(0.00252603531204 -4.49369943974e-05 5.59945971075e-05)
(0.00228582081171 -1.43698238848e-05 6.30298922707e-05)
(0.00203304636379 2.66113434775e-06 7.10344528711e-05)
(0.0017800760341 1.02743684266e-05 7.52945787154e-05)
(0.00153677826236 1.3305387016e-05 7.55083520719e-05)
(0.00131140811665 1.41136561021e-05 7.22910809008e-05)
(0.00110850417836 1.38179111646e-05 6.70910571175e-05)
(0.000929633562637 1.30731724785e-05 6.10034211809e-05)
(0.000774464346704 1.21987935846e-05 5.47202482744e-05)
(0.000641427097837 1.13461211318e-05 4.8659353592e-05)
(0.000528332694066 1.05480147181e-05 4.30734339022e-05)
(0.000432747012739 9.769868016e-06 3.81482762654e-05)
(0.000352584181028 8.47882437316e-06 3.41218701529e-05)
(0.000285513871086 8.41035460928e-06 3.03264452571e-05)
(0.00022933882842 8.13663495725e-06 2.72231690225e-05)
(0.000182462995912 7.84473813572e-06 2.47312399515e-05)
(0.000143510893398 6.78377309484e-06 2.3045373674e-05)
(0.000111937515992 5.00607200754e-06 2.19446118636e-05)
(8.59075777211e-05 6.27265828052e-06 1.99998640049e-05)
(6.43567389385e-05 6.31026098069e-06 1.83750710629e-05)
(4.74673025936e-05 6.17940819708e-06 1.70107790089e-05)
(3.53675068383e-05 5.88251593249e-06 1.55350273234e-05)
(2.49346653477e-05 5.64020410294e-06 1.50028569092e-05)
(2.05864781005e-05 5.05605722831e-06 1.32630827582e-05)
(1.4204051802e-05 4.20021425352e-06 1.40436511893e-05)
(4.95070021632e-06 3.49687435925e-06 1.4795517459e-05)
(2.27965111392e-07 -4.62278733073e-07 1.41595295398e-05)
(-0.000210868078258 -0.000735405375727 0.000201265510962)
(-1.33013524696e-05 -0.000953137706405 -5.11174006068e-05)
(0.000356119066307 -0.000991855108078 -4.84892210894e-05)
(0.000553660885341 -0.00120084656886 -5.20180984036e-05)
(0.001240122694 -0.00163383373759 -0.000133672364811)
(0.00235485942753 -0.00159472218355 -0.00010638908581)
(0.00299103559768 -0.00110897031039 2.11718555389e-05)
(0.0030479333603 -0.000835362116784 8.04820028495e-05)
(0.00312789039951 -0.00080160659918 6.95804820894e-05)
(0.00324985888222 -0.000647149433318 6.20650051255e-05)
(0.00319612533078 -0.000417886815935 5.26547094114e-05)
(0.00303817082092 -0.000280652280867 5.09112081141e-05)
(0.00281367461526 -0.000127423044995 3.95762861387e-05)
(0.00255920394237 -6.4208832142e-05 4.71427130662e-05)
(0.00230308362153 -3.33436651341e-05 6.05671265516e-05)
(0.00204168735188 -1.62476771359e-05 7.06707837009e-05)
(0.00178323353881 -9.13212369241e-06 7.58318462664e-05)
(0.00153727677404 -6.29516884356e-06 7.64352631415e-05)
(0.00131061666859 -5.39350416507e-06 7.33172665257e-05)
(0.00110714135276 -5.48076044166e-06 6.78531552571e-05)
(0.000928108395707 -6.02197311822e-06 6.13501172308e-05)
(0.000772978939939 -6.67287356365e-06 5.46338346573e-05)
(0.000640060859278 -7.29700915981e-06 4.81206654176e-05)
(0.000527087373581 -7.86307899213e-06 4.22199974924e-05)
(0.00043138836782 -8.50269730919e-06 3.71456092878e-05)
(0.000351584934431 -1.18122054225e-05 3.37901484567e-05)
(0.000284993611522 -1.08472725606e-05 2.94437355335e-05)
(0.000228803489126 -1.11086010835e-05 2.60890505864e-05)
(0.00018168795517 -1.13905653911e-05 2.3523703278e-05)
(0.000142185092234 -1.15381619868e-05 2.28909023942e-05)
(0.000111560617023 -1.15715921915e-05 2.40642556937e-05)
(8.63365527838e-05 -1.15852929716e-05 2.15982451564e-05)
(6.43608811419e-05 -1.15891365773e-05 1.91591669176e-05)
(4.74945354696e-05 -1.15775286113e-05 1.74043644376e-05)
(3.55483510862e-05 -1.17298229048e-05 1.57113566497e-05)
(2.52032800497e-05 -1.19170492304e-05 1.51499572598e-05)
(2.10503799908e-05 -1.23472600512e-05 1.33143634879e-05)
(1.48161141077e-05 -1.30550617464e-05 1.3980984639e-05)
(5.05559109588e-06 -1.35749155247e-05 1.44448162077e-05)
(2.09138790704e-07 -1.50871787575e-05 1.15513846132e-05)
(-0.000253816754996 -0.000829461322274 0.000249266614163)
(-5.82632114357e-05 -0.000951959637964 -2.68003248725e-05)
(0.000286635502651 -0.000913376384244 8.68282650812e-05)
(0.000351774365044 -0.00122647568365 0.000166004409932)
(0.00111611041568 -0.00187581004109 4.28048547845e-05)
(0.00251745817737 -0.001834657382 6.7778285148e-05)
(0.00323124054939 -0.00112936504373 0.00023690337779)
(0.00314739213719 -0.000736812255219 0.00022818898265)
(0.00318344917577 -0.00076067379644 0.000104364214469)
(0.00336176476996 -0.000656083770068 6.06998708612e-05)
(0.00330603712366 -0.000438618264064 5.88708165458e-05)
(0.00312589048402 -0.000290670821116 5.31956752809e-05)
(0.00287619254161 -0.000124657400167 3.71157108655e-05)
(0.00258584734043 -7.05885941932e-05 4.40129648737e-05)
(0.0023163322384 -4.20061861493e-05 5.55845682129e-05)
(0.00204759109633 -2.73339814816e-05 6.47272887581e-05)
(0.00178506362561 -2.17768873472e-05 6.98800169906e-05)
(0.00153732996462 -1.95982841237e-05 7.03841705125e-05)
(0.00130989279742 -1.90020676802e-05 6.73505469461e-05)
(0.00110608345302 -1.90862119679e-05 6.19017782782e-05)
(0.000926983626147 -1.95720042375e-05 5.53405575398e-05)
(0.000771942146227 -2.01446356401e-05 4.85244817607e-05)
(0.000639166474649 -2.06690712125e-05 4.19132630225e-05)
(0.000526295484384 -2.10750597803e-05 3.58694599868e-05)
(0.000429551539067 -2.13686738797e-05 3.09782514086e-05)
(0.000350380429437 -2.33917820666e-05 3.18293235236e-05)
(0.000285005769613 -2.36269618534e-05 2.57316071077e-05)
(0.000228354818497 -2.39288263063e-05 2.19993571855e-05)
(0.000181656263223 -2.40842627916e-05 1.93852663199e-05)
(0.000142925035572 -2.32688412405e-05 1.76156553362e-05)
(0.000111498244301 -2.15893036542e-05 1.63962490024e-05)
(8.55519085451e-05 -2.29609580981e-05 1.43888577703e-05)
(6.40755397061e-05 -2.30454043862e-05 1.27514397162e-05)
(4.71593734553e-05 -2.29209604256e-05 1.14338206036e-05)
(3.50524116055e-05 -2.29403548035e-05 9.96375785811e-06)
(2.44682332148e-05 -2.30700001886e-05 9.50760598995e-06)
(2.00737324473e-05 -2.33340042231e-05 7.87002319814e-06)
(1.37299075317e-05 -2.38053020707e-05 8.41506245974e-06)
(3.96607755305e-06 -2.39455612576e-05 9.0709458446e-06)
(7.08897085535e-08 -2.41334984564e-05 7.21476162755e-06)
(-0.000273706123644 -0.000895157283228 0.000286814685488)
(-6.59730154515e-05 -0.000968910041062 6.47451337796e-05)
(0.000196491012301 -0.000965275308437 0.000360758868781)
(5.31784444131e-05 -0.00151575523128 0.000539022393511)
(0.000930628589933 -0.00245360490289 0.000331316646125)
(0.0027384721149 -0.00241769816272 0.000349672013079)
(0.00356865052614 -0.00142324576859 0.000598660089714)
(0.00327547151975 -0.00078529206498 0.000509061561448)
(0.00321230220293 -0.000746544729648 0.000211629405614)
(0.00344696224544 -0.000647367490281 8.96020947078e-05)
(0.00340453279724 -0.000433111078647 8.09323480528e-05)
(0.00321173026895 -0.000285703158312 7.03669611265e-05)
(0.00293366049764 -0.000107975289961 4.08119784754e-05)
(0.00260581439461 -6.81613833433e-05 4.60300678082e-05)
(0.00232694374427 -4.19750333698e-05 5.39036639462e-05)
(0.0020521694626 -2.97361518062e-05 6.10226112919e-05)
(0.00178645585493 -2.5590542128e-05 6.59769575989e-05)
(0.00153752296281 -2.3973633179e-05 6.61904294401e-05)
(0.0013095632855 -2.36511376832e-05 6.30805458331e-05)
(0.00110555600734 -2.3782039662e-05 5.7843387005e-05)
(0.000926378297558 -2.41501786043e-05 5.13523735314e-05)
(0.000771368733404 -2.46201186854e-05 4.45536875261e-05)
(0.000638682958691 -2.50635868174e-05 3.7980342987e-05)
(0.000525968151335 -2.54310738656e-05 3.19601498911e-05)
(0.000429585240623 -2.56006103268e-05 2.69630245612e-05)
(0.000349917378934 -2.46675870468e-05 2.74852414705e-05)
(0.00028427892404 -2.61372258791e-05 2.2027233519e-05)
(0.000228202377007 -2.62860922523e-05 1.84470823021e-05)
(0.000181698144389 -2.61852452152e-05 1.57544240507e-05)
(0.000143142116168 -2.58041288627e-05 1.36525821718e-05)
(0.00011142987959 -2.5308254973e-05 1.19724358228e-05)
(8.53037173334e-05 -2.57057921991e-05 1.02852545384e-05)
(6.40202837565e-05 -2.56374417158e-05 8.86275591983e-06)
(4.70762868822e-05 -2.54583919678e-05 7.68035605268e-06)
(3.48477290521e-05 -2.53800140667e-05 6.31907859685e-06)
(2.41120987116e-05 -2.54858380751e-05 5.91292343982e-06)
(1.95717386016e-05 -2.57049183642e-05 4.40713929314e-06)
(1.32300771277e-05 -2.61399029941e-05 4.89703015709e-06)
(3.8245243666e-06 -2.64016540648e-05 5.82729935807e-06)
(2.32770741068e-07 -2.62650856589e-05 5.34549813149e-06)
(-0.000288171207429 -0.000931256130513 0.000313249154735)
(-9.45067243109e-05 -0.00102519722836 0.000169711648621)
(7.90279922332e-06 -0.00119343073004 0.000646672176202)
(-0.000395391203834 -0.00208660350764 0.000859378449675)
(0.000664811033647 -0.00333956679251 0.000480774170208)
(0.00303490000601 -0.0033150565285 0.000489217675362)
(0.00405540005495 -0.00200744884589 0.000904828960509)
(0.00350502953426 -0.00102633239175 0.000792201233679)
(0.00327314131696 -0.000798545331755 0.000327301510541)
(0.00353434723722 -0.000641233165213 0.000118608441903)
(0.00349754486931 -0.000412354305242 0.000104181539363)
(0.00329511047342 -0.00023703192638 9.09656044405e-05)
(0.00298878916069 -0.000127753349345 4.83712770125e-05)
(0.00262078511545 -6.61486238534e-05 5.06659513927e-05)
(0.00233627632478 -3.67858456221e-05 5.54106977589e-05)
(0.00205580641791 -2.87253556785e-05 5.96137826392e-05)
(0.00178760843312 -2.5520301987e-05 6.45006798569e-05)
(0.00153780645827 -2.4214399728e-05 6.45240299944e-05)
(0.00130944585603 -2.391565529e-05 6.12540525052e-05)
(0.00110531597301 -2.40506845688e-05 5.61133527307e-05)
(0.000926093621213 -2.42589946014e-05 4.98238993953e-05)
(0.000771075277056 -2.45476409457e-05 4.31065424117e-05)
(0.000638413111853 -2.48624499708e-05 3.65541739743e-05)
(0.000525737276124 -2.51307332682e-05 3.05756682956e-05)
(0.000429693198105 -2.53348111006e-05 2.55300291614e-05)
(0.000349912295012 -2.34250416041e-05 2.48882700781e-05)
(0.000284031554394 -2.50297713634e-05 2.08964001946e-05)
(0.000228194137943 -2.5174271941e-05 1.71790773286e-05)
(0.000181780745089 -2.4995299057e-05 1.44019497139e-05)
(0.000143258724477 -2.47053314519e-05 1.21969255591e-05)
(0.000111444947061 -2.44699385567e-05 1.04118919129e-05)
(8.52756414369e-05 -2.45016595667e-05 8.84368675178e-06)
(6.40632251574e-05 -2.43755846169e-05 7.49105537081e-06)
(4.71054682985e-05 -2.42086634746e-05 6.36354806885e-06)
(3.47889141574e-05 -2.4108055465e-05 5.06146899613e-06)
(2.39463610004e-05 -2.42258413116e-05 4.67404646275e-06)
(1.93125227793e-05 -2.44744239509e-05 3.22109176699e-06)
(1.29722710647e-05 -2.49478531367e-05 3.64107689016e-06)
(3.88648025006e-06 -2.54553670056e-05 4.59485542676e-06)
(3.20555610301e-07 -2.56813619836e-05 4.44956262825e-06)
(-0.000316999233204 -0.000910431811785 0.000329739132822)
(-0.000196047142634 -0.00107600745621 0.000245482922157)
(-0.000332506384007 -0.00147452797224 0.000825226797534)
(-0.00101357415011 -0.00268337058611 0.000933261656036)
(0.000317195878514 -0.00415688767842 0.000263711355219)
(0.00340456029977 -0.00414865017651 0.00025849987902)
(0.00471049184873 -0.00262694063168 0.000963169759867)
(0.00388807615076 -0.0013355094353 0.000961395299967)
(0.00341431299723 -0.000868311003284 0.000404356517124)
(0.00364583642601 -0.000620176686274 0.000134613454362)
(0.00360986528766 -0.000376077894032 0.000119612483189)
(0.00335609925147 -0.000183016445722 6.98771967628e-05)
(0.0030202775553 -0.000141863204481 9.55226054877e-05)
(0.00265188584207 -6.23007363277e-05 5.76702001449e-05)
(0.00234587400241 -3.3629898557e-05 5.64175528073e-05)
(0.00205779182907 -2.61629697581e-05 5.9481617112e-05)
(0.00178858437911 -2.33072708131e-05 6.39278017475e-05)
(0.00153816816164 -2.20054065149e-05 6.37886598744e-05)
(0.00130947318692 -2.15682941155e-05 6.05134472374e-05)
(0.00110522142487 -2.15533429301e-05 5.52988698875e-05)
(0.000925986617705 -2.15945231218e-05 4.90997957488e-05)
(0.000770941763631 -2.16849400101e-05 4.24921782691e-05)
(0.000638285676895 -2.18687078646e-05 3.6006234717e-05)
(0.000525644762827 -2.20054372523e-05 3.00333358458e-05)
(0.000430366141314 -2.20577848769e-05 2.4908793366e-05)
(0.000350010539842 -2.03203346232e-05 2.13516051844e-05)
(0.000283355622695 -2.07131052686e-05 2.04044556272e-05)
(0.000228179451248 -2.18080588006e-05 1.69913074197e-05)
(0.00018189863064 -2.17854354332e-05 1.40265786269e-05)
(0.000143374603438 -2.1412779388e-05 1.16343203089e-05)
(0.000111502523469 -2.12310084752e-05 9.78713299748e-06)
(8.53192427131e-05 -2.11511064923e-05 8.25433532951e-06)
(6.41282027896e-05 -2.10221841134e-05 6.93003529204e-06)
(4.71579844282e-05 -2.09051784399e-05 5.834519006e-06)
(3.47675572202e-05 -2.08103025459e-05 4.56480549321e-06)
(2.38274136814e-05 -2.09458166124e-05 4.17921706334e-06)
(1.91064233427e-05 -2.12246826914e-05 2.73418024748e-06)
(1.2722541061e-05 -2.17296198932e-05 3.07938226791e-06)
(3.80581005952e-06 -2.23731425601e-05 3.90851278379e-06)
(2.80881803677e-07 -2.29974960374e-05 3.65883935139e-06)
(-0.000365144952624 -0.000797122827446 0.000336480422159)
(-0.000376502145047 -0.00101768785329 0.000262983267366)
(-0.000796152300711 -0.00156225437518 0.000820575438357)
(-0.00172687619351 -0.00286952917424 0.000671152839106)
(-7.01864025957e-05 -0.00432920696718 -0.000378914930309)
(0.00380289111942 -0.00433731397185 -0.000399424912563)
(0.00545709581797 -0.00283868720702 0.000690312393063)
(0.00439290006738 -0.00146521272807 0.000943881151597)
(0.00363782587953 -0.000853433721977 0.000414369427082)
(0.00378265723993 -0.000548143575097 0.000133482034711)
(0.00371656401319 -0.000317238133725 0.000128656709947)
(0.00341263359052 -0.000159816890173 0.000100148447361)
(0.00304939825069 -0.000109077812025 8.70983481502e-05)
(0.00267504198857 -5.23082284491e-05 6.17243577584e-05)
(0.00235440019498 -3.13143843525e-05 5.82763150208e-05)
(0.00206097622733 -2.24508147304e-05 6.05779258717e-05)
(0.00178963392637 -1.96855563904e-05 6.32280088611e-05)
(0.00153863755048 -1.8319138123e-05 6.32971771488e-05)
(0.00130962863247 -1.76562575642e-05 6.00099667168e-05)
(0.00110525954963 -1.73908059157e-05 5.47922608727e-05)
(0.000925991962983 -1.72345149417e-05 4.86218218303e-05)
(0.000770907558577 -1.71805050203e-05 4.21016172617e-05)
(0.000638226442374 -1.72440484352e-05 3.57053238495e-05)
(0.000525620872589 -1.73209047056e-05 2.97601095104e-05)
(0.00043051793777 -1.73280339392e-05 2.45736255124e-05)
(0.000350570051036 -1.69569863809e-05 2.03696818352e-05)
(0.000283275739272 -1.59693227348e-05 1.72885018023e-05)
(0.000227648160592 -1.60726979384e-05 1.64440827041e-05)
(0.000181970127646 -1.73519322478e-05 1.42469377023e-05)
(0.000143528629578 -1.68262853809e-05 1.1432819922e-05)
(0.000111568758516 -1.66830436315e-05 9.46598424684e-06)
(8.53724756955e-05 -1.65955780257e-05 7.92207235597e-06)
(6.41769493678e-05 -1.64997251776e-05 6.60829460535e-06)
(4.71988851792e-05 -1.64817909879e-05 5.5370377967e-06)
(3.47513988468e-05 -1.63747397529e-05 4.27460374417e-06)
(2.3716203327e-05 -1.65146375035e-05 3.88283178489e-06)
(1.89088577045e-05 -1.67899588548e-05 2.42822674099e-06)
(1.24537970564e-05 -1.72681739719e-05 2.71250463843e-06)
(3.59788207976e-06 -1.78653170592e-05 3.40680574566e-06)
(1.49745522263e-07 -1.86427070596e-05 2.99160731315e-06)
(-0.00041907353674 -0.000566424048197 0.000337256895442)
(-0.000578546837913 -0.000756082283378 0.000230567679908)
(-0.00125503148937 -0.00123110341464 0.00067264467745)
(-0.00238268513575 -0.00225636393979 0.000206420130842)
(-0.000417346819756 -0.00335289536027 -0.00122613574319)
(0.00415052472481 -0.00337097930269 -0.00126165066943)
(0.00613349906245 -0.00225552047583 0.000219998102761)
(0.0048888752714 -0.00118364664516 0.000788025417646)
(0.00387987597314 -0.000655623902136 0.000374017214347)
(0.00391501818574 -0.000395135899908 0.000120524630497)
(0.00380373306377 -0.000225761782714 0.000133742358927)
(0.00346015149937 -0.000116963128911 0.000106295060777)
(0.00307403913331 -7.57626338391e-05 9.5829876607e-05)
(0.00269078787224 -3.9001813962e-05 6.49561518902e-05)
(0.0023608114048 -2.43561977642e-05 5.96460425895e-05)
(0.00206362028508 -1.78661078646e-05 6.07897080582e-05)
(0.00179062429339 -1.51608924783e-05 6.32661531827e-05)
(0.00153917603336 -1.37067364425e-05 6.29458758092e-05)
(0.00130992857778 -1.27352124953e-05 5.97006807496e-05)
(0.00110542355372 -1.21722527366e-05 5.44839979094e-05)
(0.000926082641565 -1.18347045346e-05 4.8280163225e-05)
(0.000770931532653 -1.16680714907e-05 4.18377220195e-05)
(0.000638210118629 -1.16399769565e-05 3.55090614261e-05)
(0.000525598072193 -1.16929927171e-05 2.96134507889e-05)
(0.000430544187788 -1.1747437126e-05 2.43661401395e-05)
(0.000350686849979 -1.1691490747e-05 2.00391800566e-05)
(0.000283795284332 -1.14987848688e-05 1.64856757063e-05)
(0.00022748608814 -1.04903350354e-05 1.40042612983e-05)
(0.000181520152474 -1.0638445012e-05 1.48127147101e-05)
(0.000143707551267 -1.13972760784e-05 1.154433235e-05)
(0.00011161642045 -1.13702960238e-05 9.31281152426e-06)
(8.54093327255e-05 -1.1302496858e-05 7.72237876122e-06)
(6.41831846707e-05 -1.12004755816e-05 6.40937325544e-06)
(4.72178857877e-05 -1.10323741347e-05 5.39422166174e-06)
(3.47476131338e-05 -1.11616817634e-05 4.08907089924e-06)
(2.36156436257e-05 -1.13468303674e-05 3.68349738871e-06)
(1.87307785235e-05 -1.15948551284e-05 2.21571373556e-06)
(1.22078243521e-05 -1.19803694029e-05 2.46085745783e-06)
(3.34788918457e-06 -1.23715685038e-05 3.06694241429e-06)
(-1.27881863892e-08 -1.30018372103e-05 2.54477179924e-06)
(-0.000452601308894 -0.000233828259391 0.000339787996859)
(-0.000707002582894 -0.000294694190788 0.000196515824439)
(-0.00154029953545 -0.000466789060947 0.000536207843638)
(-0.0027794753522 -0.000855699012621 -0.000153047133711)
(-0.000627529777323 -0.00127831887237 -0.00182697800147)
(0.00435213038572 -0.00129891687172 -0.00187093743201)
(0.00654075087598 -0.000885923947226 -0.000140300095758)
(0.00519664217744 -0.000477199316057 0.000646410836178)
(0.00403750994785 -0.000270292602415 0.000331539746311)
(0.0039980870911 -0.000167217281938 0.000109223404041)
(0.00385533922518 -0.000102388226987 0.000135859496276)
(0.003487552734 -5.92711936461e-05 0.00011537191548)
(0.00308835056988 -4.16500580614e-05 9.53502444598e-05)
(0.00270074125193 -2.48552181927e-05 6.63823811168e-05)
(0.00236496808019 -1.67595179448e-05 6.05290952365e-05)
(0.00206557917541 -1.29502843779e-05 6.13911662227e-05)
(0.00179170377021 -1.03411712266e-05 6.34380646008e-05)
(0.0015398501775 -8.55068716093e-06 6.28899782699e-05)
(0.00131039456479 -7.24196288605e-06 5.95713608867e-05)
(0.00110570828775 -6.36078534137e-06 5.4343395372e-05)
(0.000926242211799 -5.84035455957e-06 4.8139846298e-05)
(0.000771004164034 -5.5672285218e-06 4.17137617808e-05)
(0.000638212986616 -5.49539717e-06 3.54145925418e-05)
(0.000525566481014 -5.5449041031e-06 2.95298987746e-05)
(0.000430517892259 -5.63226844234e-06 2.43317573019e-05)
(0.000350693748356 -5.70703428229e-06 1.98887000311e-05)
(0.000283875879438 -5.73909458041e-06 1.62250355979e-05)
(0.000228077974892 -5.65277629483e-06 1.34013855736e-05)
(0.00018151634764 -4.75152480358e-06 1.17169000109e-05)
(0.000143162455516 -5.67981323301e-06 1.18863880189e-05)
(0.000111615912778 -5.70396731969e-06 9.26609458532e-06)
(8.54571126024e-05 -5.67515765604e-06 7.59662732634e-06)
(6.43116654349e-05 -5.62530195129e-06 6.24106529378e-06)
(4.72178100593e-05 -5.5100981924e-06 5.07987094356e-06)
(3.45934905812e-05 -5.67259683856e-06 3.91987647621e-06)
(2.34982304692e-05 -5.83567466111e-06 3.54274849058e-06)
(1.85845781351e-05 -6.01004743682e-06 2.0768091703e-06)
(1.20270044344e-05 -6.25934614188e-06 2.2982494479e-06)
(3.16676851028e-06 -6.3413810205e-06 2.86968900422e-06)
(-1.25568656059e-07 -6.61028340665e-06 2.29403986399e-06)
(-0.00044667862087 0.000138569692535 0.000350281447718)
(-0.00069407314677 0.000246843686007 0.000202707785977)
(-0.00153306766355 0.000472675891513 0.000532957590426)
(-0.00278542378289 0.000866042125327 -0.00017096895184)
(-0.000638901659322 0.00123866689394 -0.00185587645979)
(0.00434689189378 0.00122025954299 -0.00189950940199)
(0.00654186740668 0.000807350535031 -0.000157024540888)
(0.00519697199944 0.000405347479609 0.000640101220585)
(0.00403680667704 0.000191756251983 0.000329793753121)
(0.0039990917863 8.98687863338e-05 0.000109842385276)
(0.0038575865302 3.27528209343e-05 0.000137105710462)
(0.00349048590191 1.18255836989e-06 0.000116597877873)
(0.00309123344506 -3.84344106037e-06 9.63324754278e-05)
(0.00270322973917 -1.01029368986e-05 6.7089261349e-05)
(0.00236676295721 -9.3944051482e-06 6.11896444194e-05)
(0.00206683080661 -7.76962228195e-06 6.15926050553e-05)
(0.00179282079901 -5.42907597996e-06 6.35942225011e-05)
(0.00154072618958 -3.25086686352e-06 6.29968609598e-05)
(0.00131102348479 -1.592049717e-06 5.96267076401e-05)
(0.00110612420149 -4.19121030593e-07 5.43740749717e-05)
(0.000926479299054 3.14303355193e-07 4.81732389952e-05)
(0.000771103829603 6.68112559873e-07 4.17305825904e-05)
(0.000638221134153 7.7319525472e-07 3.54326549138e-05)
(0.000525529539652 7.33426607851e-07 2.9551268836e-05)
(0.000430463102728 6.07816579893e-07 2.43451528722e-05)
(0.000350633273539 4.6979170905e-07 1.98873399534e-05)
(0.000283822357207 2.74051474914e-07 1.62109891675e-05)
(0.000227979829903 -6.21856374926e-09 1.33826746815e-05)
(0.000181506596188 -1.30584057834e-06 1.17601155852e-05)
(0.000143231295753 -7.50775163995e-08 1.20662983967e-05)
(0.000111618739228 1.96943897255e-08 9.29435607326e-06)
(8.54486473654e-05 3.67675166761e-09 7.6197449035e-06)
(6.42656817613e-05 -5.03874342049e-08 6.27260834885e-06)
(4.71941709835e-05 -1.89129843661e-07 5.16437869923e-06)
(3.45845785045e-05 -1.85454978139e-07 3.95578583992e-06)
(2.34446991645e-05 -2.69559105839e-07 3.56668247128e-06)
(1.84977370477e-05 -3.45900123342e-07 2.09584548061e-06)
(1.19344274561e-05 -4.4811066832e-07 2.30955303688e-06)
(3.089031888e-06 -1.94478602007e-07 2.87851999282e-06)
(-1.64874438495e-07 -6.09238193253e-08 2.29152880057e-06)
(-0.000401780818762 0.000469112836522 0.000367319160485)
(-0.000541404105308 0.000696834125308 0.000248476090225)
(-0.00123319413523 0.00121911678369 0.000665798251922)
(-0.00239946657511 0.00225592837105 0.000161795647452)
(-0.000450412712133 0.00331873456216 -0.00129917884165)
(0.00413625734908 0.00330269132807 -0.00133186796586)
(0.00613575961992 0.00217906183363 0.000176972889699)
(0.00488858697586 0.0011059497905 0.000771166774152)
(0.00387785845206 0.000571370518983 0.000370305871892)
(0.00391845961654 0.000314156869844 0.000122549834958)
(0.00381111015094 0.000154759471382 0.000137572817773)
(0.00346928666641 5.78278777667e-05 0.000109914915444)
(0.00308271871238 3.04888971962e-05 9.8522541293e-05)
(0.00269796712515 4.1423017916e-06 6.69221039467e-05)
(0.00236613509302 -2.87758712508e-06 6.06544257953e-05)
(0.00206755873053 -2.84904129847e-06 6.18381120176e-05)
(0.00179396721994 -6.04935180323e-07 6.37478534385e-05)
(0.00154176749659 1.83787146103e-06 6.32037159679e-05)
(0.00131181074922 3.80349811631e-06 5.98648830756e-05)
(0.00110666166227 5.25165214003e-06 5.45603041015e-05)
(0.000926786566851 6.15235837591e-06 4.83611081891e-05)
(0.000771233236282 6.59109359596e-06 4.18972360683e-05)
(0.00063824582585 6.75821266012e-06 3.55516493581e-05)
(0.000525483899478 6.73950505989e-06 2.96447773187e-05)
(0.000430386098111 6.60585981403e-06 2.43984352399e-05)
(0.000350527032922 6.40238898954e-06 1.99973008117e-05)
(0.000283637931606 6.07438744207e-06 1.63574174058e-05)
(0.000227288075565 5.32209711488e-06 1.38159926416e-05)
(0.000181481959622 4.8357784809e-06 1.40158280615e-05)
(0.000143825274078 5.59870354883e-06 1.1621646725e-05)
(0.000111655332672 5.61943086029e-06 9.32481039095e-06)
(8.54221293816e-05 5.54987311765e-06 7.72148197538e-06)
(6.42153283617e-05 5.4498300156e-06 6.39140861521e-06)
(4.71503427897e-05 5.31550427961e-06 5.29775026198e-06)
(3.45530891044e-05 5.23752966418e-06 4.0737353616e-06)
(2.3414359531e-05 5.1696169032e-06 3.67816804852e-06)
(1.8459244e-05 5.15977921487e-06 2.20857271688e-06)
(1.19224833438e-05 5.18761667252e-06 2.43041347985e-06)
(3.1023937221e-06 5.72534484216e-06 3.03956652878e-06)
(-1.32343876591e-07 6.20064882884e-06 2.49703441219e-06)
(-0.000340683426026 0.00069689354501 0.000384648313727)
(-0.000321382984925 0.000938695713008 0.000295423668114)
(-0.000759534193607 0.00151531364426 0.000815943904095)
(-0.00174387185743 0.00284105912369 0.000611072672545)
(-0.000115416758541 0.00429442153311 -0.000476826083292)
(0.00377644547404 0.0042772268823 -0.000494311939857)
(0.00545347418708 0.00275826724702 0.000633156910975)
(0.00438936106222 0.00137460865035 0.000921719889308)
(0.00363551251066 0.000759536675073 0.000410629325638)
(0.00379028759005 0.000460466025543 0.00013781415049)
(0.00372972917633 0.000243220914617 0.000135331566528)
(0.00342842768958 0.000100383724378 0.000106853282191)
(0.00306441627468 6.39400710103e-05 9.16330711971e-05)
(0.00268654836134 1.76923928704e-05 6.49242570497e-05)
(0.00236326589703 2.27012377242e-06 6.1442655159e-05)
(0.00206796164703 1.5515066726e-06 6.19632460082e-05)
(0.00179517318617 3.8565925102e-06 6.39810094448e-05)
(0.00154293076645 6.39405702082e-06 6.3703416455e-05)
(0.00131273193631 8.59219450775e-06 6.0236486059e-05)
(0.00110730014706 1.02583801079e-05 5.49558684571e-05)
(0.000927150900995 1.1309891953e-05 4.86883789185e-05)
(0.000771407456383 1.18544038382e-05 4.21556887687e-05)
(0.000638296349388 1.21225048027e-05 3.57450162302e-05)
(0.000525454023653 1.21641405583e-05 2.97703197844e-05)
(0.000430295343695 1.20532592331e-05 2.45708430981e-05)
(0.000350368176621 1.17875097314e-05 2.02091713535e-05)
(0.000283282655158 1.12605010199e-05 1.67763592476e-05)
(0.000227360880861 1.04164625559e-05 1.5032649045e-05)
(0.000181645226111 1.16710641724e-05 1.42920051683e-05)
(0.000143623403553 1.10159556175e-05 1.144404628e-05)
(0.000111594601174 1.08399052169e-05 9.44011489427e-06)
(8.53641617669e-05 1.06953980954e-05 7.89833987236e-06)
(6.41488925851e-05 1.05566182509e-05 6.58119443961e-06)
(4.7088545579e-05 1.04024647057e-05 5.48787932724e-06)
(3.45119767697e-05 1.0278134602e-05 4.25428612198e-06)
(2.34014081159e-05 1.02175950836e-05 3.85666015138e-06)
(1.84563660718e-05 1.02438979592e-05 2.39349411599e-06)
(1.19644464463e-05 1.03577407263e-05 2.63977467099e-06)
(3.16503581158e-06 1.10676329335e-05 3.33468998283e-06)
(-5.95945137743e-08 1.17088785519e-05 2.90868960452e-06)