/*--------------------------------*- C++ -*----------------------------------*\
| =========                 |                                                 |
| \\      /  F ield         | OpenFOAM: The Open Source CFD Toolbox           |
|  \\    /   O peration     | Version:  3.0.1                                 |
|   \\  /    A nd           | Web:      www.OpenFOAM.org                      |
|    \\/     M anipulation  |                                                 |
\*---------------------------------------------------------------------------*/
FoamFile
{
    version     2.0;
    format      ascii;
    class       volScalarField;
    location    "0.5";
    object      ddt0(k);
}
// * * * * * * * * * * * * * * * * * * * * * * * * * * * * * * * * * * * * * //

dimensions      [0 2 -3 0 0 0 0];

internalField   nonuniform List<scalar> 
15984
(
-0.0452835157016
-0.0450629891022
-0.0449928928737
-0.0449871604147
-0.0449918333284
-0.0449952949261
-0.0449928267081
-0.0449909563728
-0.0449936352257
-0.045000896532
-0.0450104985476
-0.0450181641349
-0.0450190640443
-0.045019559943
-0.0450194386307
-0.0450191101616
-0.0450191452158
-0.0450193880245
-0.0450197310883
-0.0450201074715
-0.0450204782585
-0.0450208222319
-0.0450211293407
-0.0450213961246
-0.0450216231936
-0.0450218132552
-0.0450219691766
-0.0450220942735
-0.0450221924225
-0.0450222678572
-0.0450223247188
-0.0450223661261
-0.045022394769
-0.0450224141792
-0.0450224267085
-0.0450224727758
-0.0450230850166
-0.0450311398688
-0.0450963378587
-0.0453018735067
-0.0453842165412
-0.0452776619361
-0.0449007500436
-0.0448466900987
-0.0448522202871
-0.0448570322032
-0.0448536836359
-0.0448434542891
-0.0448393556627
-0.044850587751
-0.0448706540344
-0.0448882714012
-0.0448991435507
-0.0449073558667
-0.0449150720333
-0.0449152498386
-0.0449154716618
-0.0449157601391
-0.0449160765047
-0.044916395596
-0.0449167016387
-0.0449169842135
-0.0449172372028
-0.0449174579359
-0.0449176462126
-0.0449178038061
-0.044917931556
-0.0449180309265
-0.0449181050417
-0.0449181583669
-0.0449181956501
-0.0449182197758
-0.0449182314637
-0.0449182341724
-0.044918249499
-0.044918743283
-0.0449258533194
-0.0449975499496
-0.0453756950933
-0.0454581169108
-0.0449627877022
-0.0444623916871
-0.0437327705483
-0.043602698418
-0.0436014109338
-0.0436060678884
-0.0436001848977
-0.0435806414296
-0.0435698514286
-0.0435857753808
-0.0436144195661
-0.0436404375955
-0.0436558844013
-0.0436667823255
-0.0436748894793
-0.0436791695632
-0.0436795746918
-0.0436799095832
-0.0436802142997
-0.0436805014714
-0.0436807787179
-0.0436810457284
-0.0436813027403
-0.0436815443108
-0.0436817736372
-0.0436819859997
-0.043682184822
-0.0436823712412
-0.0436825462809
-0.0436827089076
-0.0436828574266
-0.04368284857
-0.0436827676069
-0.0436826804502
-0.0436826358941
-0.0436840086265
-0.0437018515616
-0.0438599895896
-0.0445909156707
-0.0450568470336
-0.0447980504573
-0.0435808000597
-0.0425491158249
-0.0423708183453
-0.0423695197685
-0.0423737313251
-0.0423582978037
-0.0423136111457
-0.0422792392383
-0.0422913884271
-0.0423255363415
-0.0423573947685
-0.0423767756054
-0.0423890659568
-0.0423975690365
-0.0424037295034
-0.0424042426304
-0.0424045969691
-0.0424048939544
-0.0424051713613
-0.0424054545782
-0.0424057514799
-0.0424060775506
-0.0424064383712
-0.0424068407463
-0.0424072750815
-0.0424073072637
-0.0424071852118
-0.0424070862795
-0.0424069984133
-0.042406910069
-0.0424068201249
-0.042406729929
-0.0424066397759
-0.0424066461069
-0.0424089069212
-0.0424364134166
-0.0426674805465
-0.0437166682032
-0.0448992411764
-0.0447550372666
-0.0431553669315
-0.0419735990944
-0.0417630642436
-0.0417472150722
-0.0417464896072
-0.0417311801636
-0.0416880485497
-0.0416096078146
-0.0416056168356
-0.0416411282102
-0.0416763564645
-0.0416986287458
-0.0417120551464
-0.0417208682016
-0.0417278218865
-0.0417283823965
-0.0417287425672
-0.0417290231253
-0.0417292742866
-0.0417295240704
-0.0417297906532
-0.0417300917068
-0.0417304375933
-0.0417308461688
-0.0417312461693
-0.0417310893632
-0.0417309516418
-0.041730837831
-0.0417307415577
-0.0417306565239
-0.0417305766271
-0.0417304943647
-0.0417304132425
-0.0417304623835
-0.0417332562438
-0.0417663834127
-0.0420394732404
-0.0432761678185
-0.0448582981192
-0.0447462337451
-0.0430375936852
-0.0418108740342
-0.0415608832735
-0.0415504885538
-0.0415495766882
-0.0415252982069
-0.0414728042199
-0.0413873120795
-0.0413583724546
-0.0413920054752
-0.0414289722058
-0.0414533374438
-0.0414675402392
-0.0414766308317
-0.0414838076156
-0.0414844866609
-0.0414848484639
-0.0414851176866
-0.041485348647
-0.04148556705
-0.0414857894101
-0.0414860261284
-0.0414862929314
-0.0414866004653
-0.0414869651717
-0.0414870802637
-0.0414869483583
-0.0414868369547
-0.0414867455285
-0.0414866687769
-0.0414865994289
-0.0414865270698
-0.0414864561803
-0.0414865292869
-0.041489547952
-0.0415249941122
-0.0418153593281
-0.0431283924444
-0.0448494239224
-0.0447455066583
-0.043032356681
-0.0417786908451
-0.041539315505
-0.0415380562385
-0.0415372498423
-0.0415023125038
-0.0414302449438
-0.0413451006048
-0.0412904718658
-0.0413210894694
-0.0413585099324
-0.0413856482265
-0.0413998860596
-0.0414091013057
-0.0414165030732
-0.0414171946285
-0.0414175616111
-0.0414178279075
-0.0414180455954
-0.0414182444261
-0.0414184360364
-0.0414186303291
-0.0414188330168
-0.0414190565119
-0.0414193096666
-0.0414196149262
-0.0414196694595
-0.0414195649954
-0.0414194764677
-0.0414194061252
-0.0414193453616
-0.0414192824908
-0.0414192216261
-0.0414193085436
-0.0414224021435
-0.0414585791943
-0.0417543565259
-0.0430907551518
-0.0448477407308
-0.0447461623174
-0.0430487294098
-0.0417868129682
-0.0415591174391
-0.0415660544788
-0.041565506056
-0.0415212778504
-0.0414340622108
-0.0413478625175
-0.0412746116529
-0.041302954235
-0.041341037884
-0.0413701535418
-0.0413844779648
-0.0413937883955
-0.0414014107607
-0.0414020304374
-0.0414024074846
-0.0414026704812
-0.0414028829674
-0.0414030710434
-0.0414032475875
-0.0414034177607
-0.0414035891523
-0.041403765272
-0.0414039541154
-0.0414041649907
-0.0414044190933
-0.0414044520825
-0.0414043658792
-0.0414042988624
-0.0414042436489
-0.0414041879919
-0.0414041355682
-0.0414042317705
-0.0414073482213
-0.0414437117551
-0.041740857515
-0.0430829910615
-0.044847464455
-0.0447466009181
-0.0430595701061
-0.0417955815115
-0.0415743772943
-0.0415872251477
-0.0415870692412
-0.0415359513736
-0.0414405811068
-0.0413526914351
-0.0412702185575
-0.0412979339866
-0.0413366118429
-0.0413668199656
-0.0413814019886
-0.0413907847499
-0.0413985318287
-0.0413991423882
-0.04139951737
-0.0413997814877
-0.041399992079
-0.0414001747358
-0.0414003429585
-0.041400503248
-0.0414006591157
-0.0414008140294
-0.041400972582
-0.0414011401832
-0.0414013283673
-0.0414015530923
-0.0414015184629
-0.0414014536096
-0.041401401463
-0.0414013501279
-0.0414013033877
-0.04140140463
-0.0414045276869
-0.0414409310163
-0.0417383665491
-0.0430816743599
-0.0448474299743
-0.0447467230351
-0.043063262863
-0.041798900694
-0.0415799262449
-0.0415960354112
-0.0415963256989
-0.0415412024421
-0.0414428618967
-0.0413537635822
-0.0412684624166
-0.0412962435938
-0.041335272288
-0.0413662076431
-0.0413808433434
-0.0413902610593
-0.0413980706388
-0.0413986825138
-0.0413990576909
-0.0413993220236
-0.0413995325063
-0.0413997130434
-0.0413998791464
-0.041400035468
-0.0414001853647
-0.0414003333378
-0.0414004798569
-0.0414006310917
-0.0414007950882
-0.0414009838032
-0.0414010848328
-0.0414010244401
-0.0414009733891
-0.0414009230583
-0.0414008761828
-0.0414009801284
-0.0414041040007
-0.0414405148696
-0.0417380011197
-0.043081509491
-0.0448474311683
-0.0447467162659
-0.0430632389739
-0.0417989164367
-0.0415799612729
-0.0415960294577
-0.0415963160568
-0.0415411771493
-0.0414428508184
-0.0413537702273
-0.0412684639132
-0.0412962469434
-0.0413352731765
-0.0413662264188
-0.0413808497539
-0.0413902746871
-0.0413980778354
-0.0413986894254
-0.0413990643212
-0.0413993294433
-0.0413995408116
-0.0413997222826
-0.0413998892607
-0.0414000466236
-0.041400197483
-0.0414003462418
-0.0414004934144
-0.0414006453461
-0.0414008084109
-0.0414009955742
-0.0414011079486
-0.0414010477577
-0.0414009957619
-0.0414009436549
-0.0414008946274
-0.0414009955457
-0.0414041167373
-0.0414405284995
-0.041738013676
-0.0430815217792
-0.0448474355415
-0.0447465501121
-0.0430594586336
-0.0417956182065
-0.0415744793085
-0.0415872847113
-0.0415871671239
-0.0415359534492
-0.0414405554638
-0.0413527390879
-0.0412702219635
-0.0412979444566
-0.0413366077579
-0.0413668663032
-0.0413814257871
-0.0413908162636
-0.0413985550805
-0.0413991621421
-0.0413995365396
-0.0413998032076
-0.0414000157185
-0.0414002008422
-0.0414003715998
-0.0414005336301
-0.0414006917464
-0.0414008476599
-0.0414010069213
-0.0414011740467
-0.0414013570883
-0.0414015741712
-0.041401580523
-0.0414015153119
-0.0414014603545
-0.0414014041645
-0.0414013502782
-0.0414014465056
-0.04140456357
-0.0414409699462
-0.0417384024884
-0.0430817105046
-0.0448474432058
-0.0447461056461
-0.0430486436172
-0.0417868440921
-0.041559257669
-0.0415661609453
-0.0415656164823
-0.0415212846087
-0.0414340276076
-0.0413479289375
-0.041274624199
-0.0413029683005
-0.0413410848904
-0.041370231577
-0.0413845199769
-0.0413938567993
-0.0414014625648
-0.0414020626213
-0.0414024387559
-0.0414027038785
-0.0414029188501
-0.0414031094413
-0.0414032879566
-0.0414034599706
-0.0414036319658
-0.0414038066977
-0.0414039914976
-0.0414041952249
-0.0414044324597
-0.0414045374295
-0.0414044537117
-0.04140438438
-0.0414043245231
-0.0414042624684
-0.0414042023764
-0.0414042931922
-0.0414074032992
-0.041443772439
-0.041740914386
-0.0430830487677
-0.0448474865305
-0.0447454273839
-0.0430322207288
-0.0417787017444
-0.0415394418008
-0.0415381783631
-0.041537360157
-0.0415023387557
-0.0414302147369
-0.0413451230818
-0.041290480599
-0.0413210950146
-0.0413585206969
-0.04138573192
-0.0413999520382
-0.0414091917615
-0.0414166332898
-0.0414172323677
-0.0414176027499
-0.0414178695138
-0.0414180885559
-0.041418287091
-0.0414184785892
-0.0414186699234
-0.0414188675323
-0.0414190807004
-0.0414193194619
-0.0414195993012
-0.0414197622136
-0.0414196632565
-0.0414195725129
-0.0414194981622
-0.0414194315011
-0.0414193620428
-0.0414192949428
-0.04141937918
-0.0414224690115
-0.0414586554034
-0.0417544300966
-0.0430908315
-0.0448477727398
-0.0447461363467
-0.0430374207364
-0.041810851849
-0.0415609824662
-0.0415506068855
-0.0415496673136
-0.0415253347083
-0.0414727736399
-0.0413872546406
-0.0413583805966
-0.041392023098
-0.0414289973001
-0.0414534253676
-0.0414676039277
-0.0414767386509
-0.0414839466477
-0.0414845367706
-0.0414848997658
-0.041485168445
-0.0414853980765
-0.0414856126404
-0.0414858265564
-0.0414860517882
-0.0414862999846
-0.0414865800388
-0.0414869127697
-0.0414871745177
-0.0414870509174
-0.0414869369655
-0.0414868414745
-0.0414867603184
-0.041486685158
-0.0414866070358
-0.0414865320901
-0.0414866057567
-0.0414896239311
-0.0415250838875
-0.0418154491056
-0.0431284858806
-0.0448494669038
-0.0447549220715
-0.0431551725435
-0.0419732480714
-0.0417631142983
-0.0417473185674
-0.041746574328
-0.0417312063057
-0.0416879935596
-0.0416095039142
-0.041605598294
-0.0416411464517
-0.0416764217799
-0.0416987238812
-0.0417121445174
-0.041721053669
-0.0417279075006
-0.0417284700423
-0.0417288270973
-0.0417291021838
-0.0417293473747
-0.0417295858147
-0.0417298356683
-0.0417301123839
-0.0417304245174
-0.0417307868363
-0.0417312040956
-0.0417312097464
-0.0417310679807
-0.041730949988
-0.0417308501476
-0.0417307632628
-0.041730679718
-0.0417305923084
-0.0417305086228
-0.0417305607282
-0.0417333564666
-0.0417665010892
-0.0420395916748
-0.0432762819248
-0.0448583529253
-0.0447978877799
-0.0435805900382
-0.0425488145496
-0.0423705363661
-0.0423693875325
-0.0423737651792
-0.0423581678815
-0.0423135710019
-0.0422792514283
-0.0422914061766
-0.0423255680908
-0.042357504431
-0.0423768856999
-0.0423892786842
-0.0423977870146
-0.0424038670709
-0.0424043751145
-0.0424047257882
-0.0424050132729
-0.0424052777807
-0.0424055399425
-0.0424058123063
-0.0424061031695
-0.0424064145983
-0.042406760369
-0.0424071355035
-0.0424074366961
-0.0424073058495
-0.042407196944
-0.0424071055795
-0.0424070285876
-0.0424069446665
-0.0424068486218
-0.0424067554796
-0.0424067651959
-0.0424090282433
-0.0424365531423
-0.0426676166823
-0.0437167805206
-0.0448993047237
-0.0449626312631
-0.0444621687044
-0.0437324605642
-0.0436024183937
-0.0436012620959
-0.0436060257488
-0.0436000598643
-0.0435805560544
-0.0435698407647
-0.0435857684687
-0.0436144238153
-0.0436405369316
-0.0436559663
-0.0436669476684
-0.0436752216477
-0.0436793054074
-0.0436797088426
-0.0436800408282
-0.0436803424122
-0.0436806240539
-0.0436808914998
-0.0436811455657
-0.0436813862249
-0.0436816103996
-0.0436818144932
-0.0436820012209
-0.0436821692489
-0.0436823212282
-0.0436824601918
-0.0436825884628
-0.0436827083624
-0.043682823156
-0.0436828560121
-0.0436827762025
-0.043682735616
-0.0436841100426
-0.0437019698606
-0.0438600989629
-0.0445909916977
-0.0450569017677
-0.0453839963178
-0.0452773833229
-0.0449004335909
-0.0448463599919
-0.0448519936543
-0.0448568778352
-0.0448534948057
-0.0448433139128
-0.0448392820373
-0.0448505574718
-0.0448706873967
-0.0448882645794
-0.0448993575564
-0.0449075621457
-0.0449151382329
-0.0449153121566
-0.0449155351052
-0.0449158250725
-0.0449161441454
-0.0449164659575
-0.044916773859
-0.0449170577796
-0.0449173120181
-0.0449175335359
-0.0449177217971
-0.0449178781129
-0.0449180043713
-0.0449181018702
-0.0449181742283
-0.0449182251397
-0.0449182581461
-0.0449182792985
-0.0449182904879
-0.0449182924683
-0.0449183084214
-0.0449188049014
-0.0449259232737
-0.0449976268272
-0.0453757628621
-0.0454581480975
-0.0452834195634
-0.0450629223859
-0.0449928408157
-0.044987127132
-0.0449918366852
-0.0449953277713
-0.0449928658969
-0.0449910035325
-0.0449936947466
-0.045000965975
-0.045010596081
-0.0450183042388
-0.0450191449519
-0.0450196889315
-0.0450194523095
-0.0450191224131
-0.0450191537807
-0.0450193939873
-0.045019736453
-0.0450201135172
-0.0450204854205
-0.0450208307714
-0.0450211393079
-0.0450214073896
-0.045021635255
-0.0450218251173
-0.0450219800956
-0.0450221033285
-0.0450221989904
-0.0450222712442
-0.0450223241977
-0.0450223626521
-0.0450223897511
-0.0450224079102
-0.0450224199404
-0.0450224669005
-0.0450230816465
-0.0450311430479
-0.04509634614
-0.0453018698227
-0.0454446290861
-0.0453533381501
-0.044972222575
-0.0449107930424
-0.0449132791273
-0.0449157189329
-0.0449098225823
-0.0448989265955
-0.0448923324408
-0.0448952440626
-0.0449037272662
-0.044911607106
-0.0449163741103
-0.0449156341725
-0.0449154935486
-0.0449157937772
-0.0449161957823
-0.0449165955613
-0.0449169555263
-0.0449172741814
-0.0449175504351
-0.0449177880709
-0.0449179892976
-0.0449181588246
-0.0449182984625
-0.0449184105783
-0.0449184986053
-0.0449185660683
-0.0449186156699
-0.0449186495975
-0.0449186697153
-0.044918678211
-0.0449186782199
-0.0449186733672
-0.0449186764755
-0.0449191701962
-0.0449262650905
-0.0449979413594
-0.0453760461392
-0.0454581367407
-0.0609639484068
-0.0650621224633
-0.0640681731793
-0.0638102944984
-0.0638024280835
-0.0638017751909
-0.0637713821538
-0.06370983821
-0.0636494924904
-0.0636218664513
-0.0636180672229
-0.0636215388955
-0.0636269418345
-0.0636345810276
-0.0636382922774
-0.0636424558206
-0.0636449334021
-0.0636461232326
-0.0636465011122
-0.0636464233625
-0.0636461127573
-0.0636457071548
-0.0636452807297
-0.0636448794615
-0.0636445204853
-0.0636442061451
-0.063643942591
-0.0636437304536
-0.0636435640249
-0.0636434308726
-0.0636433167057
-0.0636432128268
-0.0636431185821
-0.0636430379129
-0.0636431553276
-0.0636467120678
-0.0636881348283
-0.0640034865174
-0.0650288014586
-0.0609705684306
-0.0609195674816
-0.0664950825889
-0.0649517023572
-0.0644720334742
-0.0644258050088
-0.0644215421856
-0.0643900413448
-0.0643242146637
-0.0642637012788
-0.0642451128179
-0.0642534745632
-0.0642667176432
-0.0642792322834
-0.0642895237402
-0.0642965073546
-0.064300565552
-0.0643037472485
-0.0643052169133
-0.064305622922
-0.0643054360017
-0.0643049529348
-0.0643043476902
-0.0643037253929
-0.0643031440564
-0.0643026248541
-0.0643021565329
-0.0643017310475
-0.0643013560817
-0.0643010235875
-0.0643007450838
-0.0643005310934
-0.0643004976408
-0.064300517858
-0.0643004784647
-0.0643009431512
-0.0643089469814
-0.0643901626463
-0.0649264511015
-0.0664863404956
-0.0609602462775
-0.0602713941946
-0.0648999545838
-0.0627621627867
-0.0620993093248
-0.0620249419212
-0.0620173604612
-0.0619781465764
-0.0618931232009
-0.0618185915162
-0.0618027752612
-0.061821380563
-0.0618434316158
-0.0618609758184
-0.0618735245486
-0.0618820850825
-0.0618866135583
-0.0618901635854
-0.0618917741988
-0.0618921951944
-0.0618919443535
-0.0618913585773
-0.0618906370863
-0.0618898770285
-0.0618891365688
-0.0618884439465
-0.0618878412571
-0.0618877279082
-0.0618874746644
-0.0618872582597
-0.061887085489
-0.0618869469512
-0.0618868329897
-0.0618867297407
-0.0618866786949
-0.0618875013329
-0.0618996856387
-0.0620162717817
-0.0627474752916
-0.0648982600391
-0.0603298571981
-0.0600097105508
-0.0636549093246
-0.0610800294324
-0.0603149430905
-0.0602343227574
-0.0602255322283
-0.0601690858418
-0.0600426570013
-0.0599294858433
-0.0599031036946
-0.0599270145554
-0.0599554048028
-0.0599765068017
-0.0599911114245
-0.0600004593812
-0.0600053537539
-0.0600091225123
-0.0600108418807
-0.060011308028
-0.0600110625588
-0.0600104652054
-0.0600097267152
-0.0600089582214
-0.0600082181715
-0.0600075081304
-0.060007025122
-0.0600068191069
-0.0600065529114
-0.0600063346292
-0.0600061577083
-0.0600060129286
-0.0600058906121
-0.0600057811897
-0.0600057435717
-0.0600068081517
-0.0600217675648
-0.0601618945584
-0.0610273300773
-0.0636322031749
-0.0600743384047
-0.0599369353093
-0.0631351954233
-0.0603505473241
-0.0595746833582
-0.0595066015624
-0.0594969496312
-0.0594141774277
-0.059227791573
-0.0590540011317
-0.0590041833258
-0.0590279546721
-0.0590600862692
-0.0590834096834
-0.0590994091026
-0.059109372826
-0.0591146161548
-0.0591184890324
-0.0591202998271
-0.0591207957157
-0.0591205855313
-0.0591200070303
-0.0591192863515
-0.0591185469212
-0.0591178451595
-0.0591171994017
-0.0591166023817
-0.0591163130167
-0.0591160453378
-0.0591158251758
-0.0591156464893
-0.059115500567
-0.0591153774831
-0.0591152679478
-0.0591152384475
-0.059116420862
-0.0591327269807
-0.0592844974398
-0.0602187705373
-0.0630680892605
-0.0600016054421
-0.0599222520792
-0.0630057531043
-0.0601704625302
-0.0594202661492
-0.0593711099558
-0.0593611257496
-0.0592522006377
-0.0590084186041
-0.0587707673374
-0.0586933721764
-0.0587139708012
-0.0587479843466
-0.0587726657017
-0.0587896200175
-0.0588000204339
-0.0588054709062
-0.0588094824986
-0.0588113846127
-0.0588119276585
-0.0588117340261
-0.0588111779817
-0.0588104762668
-0.0588097508928
-0.0588090721665
-0.0588084629448
-0.0588079097941
-0.0588074034388
-0.0588071763498
-0.0588069583508
-0.0588067807135
-0.0588066356156
-0.0588065133679
-0.0588064048863
-0.0588063792202
-0.0588076054291
-0.0588244094972
-0.0589805751636
-0.0599415400959
-0.0628871325354
-0.0599846148592
-0.0599211565496
-0.063001422605
-0.0601712636107
-0.0594488901892
-0.0594150895323
-0.0594051258914
-0.0592768856574
-0.0589926850395
-0.0587075538063
-0.0586084386423
-0.0586258780516
-0.0586608009174
-0.0586867855289
-0.0587042079001
-0.0587149092101
-0.0587204752321
-0.0587246151674
-0.0587266108815
-0.0587271892379
-0.0587270104711
-0.0587264726496
-0.0587257841049
-0.058725068348
-0.0587243990341
-0.0587238050295
-0.0587232841466
-0.0587228246594
-0.058722401816
-0.0587222351923
-0.0587220612155
-0.058721917526
-0.0587217963322
-0.0587216888405
-0.0587216648652
-0.0587229043034
-0.0587398550373
-0.0588973426651
-0.0598664759447
-0.0628414643039
-0.0599812376183
-0.0599218784388
-0.0630160152573
-0.0601950241568
-0.0594880687692
-0.0594622692583
-0.0594524600583
-0.0593139046826
-0.059009584413
-0.0586994668246
-0.0585884756975
-0.0586042789042
-0.0586397405073
-0.0586668340827
-0.0586844708573
-0.0586953726077
-0.0587010364832
-0.058705267111
-0.0587072972779
-0.0587079091865
-0.0587077449215
-0.0587072149538
-0.0587065317903
-0.0587058252179
-0.0587051628212
-0.0587045720543
-0.0587040634166
-0.058703626411
-0.0587032448516
-0.0587028964254
-0.0587027999645
-0.0587026579499
-0.0587025373975
-0.0587024304924
-0.058702407157
-0.0587036500148
-0.0587206362563
-0.0588784536134
-0.0598496442884
-0.0628319457406
-0.0599806676118
-0.0599222410292
-0.0630241227343
-0.0602061288769
-0.0595041076372
-0.0594810228558
-0.0594717099799
-0.059328882051
-0.059018151169
-0.0586992864952
-0.0585839962737
-0.0585993297783
-0.0586352541179
-0.0586627583095
-0.058680574687
-0.0586915844127
-0.0586973111804
-0.0587015823084
-0.0587036267976
-0.0587042530172
-0.0587040979242
-0.0587035680603
-0.0587028937602
-0.058702189182
-0.0587015275996
-0.0587009394142
-0.0587004326716
-0.0587000016534
-0.0586996313156
-0.058699295023
-0.0586991543916
-0.0586990146993
-0.0586988940764
-0.058698787204
-0.0586987638754
-0.0587000077183
-0.0587170011555
-0.0588748875964
-0.0598465067984
-0.0628303047338
-0.0599805933942
-0.0599222174296
-0.0630240558861
-0.060206010548
-0.0595039835884
-0.0594809292522
-0.0594716322228
-0.0593287110389
-0.0590181514583
-0.0586992764844
-0.0585839924689
-0.0585993324215
-0.0586352548005
-0.0586627620154
-0.0586805783766
-0.0586915897478
-0.058697319491
-0.0587015905059
-0.0587036339989
-0.0587042607029
-0.0587041064844
-0.0587035772619
-0.0587029031497
-0.0587021988662
-0.0587015368269
-0.0587009500483
-0.058700442269
-0.0587000108192
-0.0586996440182
-0.0586993079428
-0.0586991518155
-0.0586990220227
-0.0586989012149
-0.0586987940325
-0.058698770538
-0.0587000146359
-0.0587170085412
-0.0588748970759
-0.0598465174023
-0.0628303172556
-0.0599805990911
-0.0599218118255
-0.0630158322929
-0.0601946836659
-0.0594878020199
-0.0594620627546
-0.0594528135952
-0.0593135528224
-0.0590095442879
-0.0586994345699
-0.0585884647205
-0.0586042796337
-0.0586397417323
-0.0586668423148
-0.0586844820348
-0.0586953895634
-0.0587010642269
-0.0587052929422
-0.0587073163878
-0.0587079298833
-0.0587077659629
-0.0587072385486
-0.0587065568683
-0.0587058501315
-0.0587051872132
-0.0587045961552
-0.0587040876816
-0.0587036501768
-0.0587032761234
-0.0587029240777
-0.0587028188704
-0.0587026767723
-0.0587025554315
-0.0587024478558
-0.0587024241372
-0.0587036680817
-0.0587206559953
-0.0588784798853
-0.0598496745903
-0.0628319828698
-0.0599806833272
-0.059921046533
-0.0630011322471
-0.0601707413157
-0.0594484686229
-0.0594147823758
-0.0594054437977
-0.0592764250958
-0.0589925778218
-0.058707494535
-0.058608413104
-0.0586258628954
-0.05866079821
-0.0586867914783
-0.0587042200381
-0.0587149290836
-0.0587204943757
-0.0587246503332
-0.0587266390179
-0.0587272187262
-0.0587270415433
-0.0587265053383
-0.0587258149976
-0.0587251029413
-0.0587244317753
-0.0587238390375
-0.0587233221272
-0.0587228734147
-0.0587224456755
-0.0587222590954
-0.0587220845987
-0.0587219401192
-0.0587218178431
-0.0587217096622
-0.0587216855528
-0.0587229271348
-0.0587398810661
-0.0588973801909
-0.059866522172
-0.0628415241793
-0.0599812634463
-0.059922097997
-0.0630053630517
-0.0601698266411
-0.059419689513
-0.0593706860138
-0.0593612566929
-0.0592517017229
-0.0590082408015
-0.0587706729694
-0.0586933330773
-0.0587139460114
-0.0587479776976
-0.0587726738213
-0.0587896418833
-0.0588000488346
-0.0588054323231
-0.0588095217562
-0.0588114308267
-0.0588119718178
-0.0588117755212
-0.0588112236731
-0.0588105206717
-0.0588097992685
-0.0588091235043
-0.0588085168066
-0.058807982336
-0.0588074735224
-0.0588072079036
-0.0588069885519
-0.0588068099271
-0.0588066636585
-0.058806540211
-0.0588064311693
-0.0588064059371
-0.0588076355946
-0.0588244447058
-0.0589806275447
-0.0599416072263
-0.0628872178351
-0.0599846517327
-0.0599367411649
-0.0631347611439
-0.0603499112745
-0.059574076077
-0.0595061977213
-0.0594969364799
-0.0594137242811
-0.0592276151877
-0.0590539069429
-0.059004168693
-0.0590279670382
-0.0590601218226
-0.0590834656371
-0.0590994806197
-0.0591094422051
-0.059114614528
-0.0591185859242
-0.0591204031463
-0.0591208946172
-0.0591206836912
-0.0591201127483
-0.0591193975875
-0.0591186603701
-0.0591179627356
-0.0591173319126
-0.0591167443134
-0.0591163884549
-0.0591161236076
-0.0591159024825
-0.0591157223623
-0.0591155750726
-0.059115450701
-0.0591153407584
-0.0591153122195
-0.0591164994258
-0.0591328125614
-0.0592846057056
-0.0602188958679
-0.0630682187021
-0.0600016559167
-0.0600094727192
-0.0636544909914
-0.0610795960317
-0.0603144426621
-0.0602340564776
-0.06022555198
-0.0601688017622
-0.0600425543042
-0.0599294889115
-0.059903186355
-0.059927135264
-0.0599555509108
-0.0599766829398
-0.0599913154791
-0.060000652224
-0.0600055757341
-0.0600093728548
-0.0600110915466
-0.0600115463163
-0.0600113050117
-0.0600107175591
-0.0600099904937
-0.0600092334621
-0.0600085083623
-0.0600078317583
-0.0600072347173
-0.0600070271272
-0.060006764749
-0.0600065453783
-0.0600063665762
-0.0600062202684
-0.0600060962536
-0.0600059862936
-0.0600059500313
-0.0600070205787
-0.0600219885657
-0.0601621413555
-0.0610275843164
-0.0636324110123
-0.0600744061763
-0.0602711054339
-0.0648995769815
-0.062761848676
-0.0620990646023
-0.0620248764413
-0.0620174229612
-0.0619780598393
-0.0618931569126
-0.0618187412193
-0.0618029845223
-0.0618216298971
-0.0618437258865
-0.0618613033598
-0.0618739050701
-0.0618824266093
-0.0618870028704
-0.0618905560299
-0.0618921732353
-0.0618926009836
-0.0618923613553
-0.0618917870252
-0.0618910810395
-0.0618903461657
-0.0618896367786
-0.061888971612
-0.0618883801004
-0.0618879742617
-0.0618878614191
-0.0618876405286
-0.0618874616398
-0.0618873166616
-0.0618871959561
-0.0618870919986
-0.0618870449156
-0.0618878747389
-0.0619000681374
-0.0620166795541
-0.0627478715082
-0.0648985443287
-0.0603299256737
-0.0609192013284
-0.0664946706237
-0.0649513558805
-0.0644717394262
-0.0644256591258
-0.0644215012025
-0.064389937456
-0.064324210412
-0.0642638258939
-0.0642453022381
-0.0642537137193
-0.0642670174561
-0.0642795555639
-0.0642898894022
-0.0642967790189
-0.0643009650917
-0.064304156018
-0.0643056270291
-0.0643060368254
-0.0643058532351
-0.0643053784271
-0.0643047859006
-0.0643041702309
-0.0643035918708
-0.0643030825079
-0.0643026335681
-0.0643022326753
-0.0643018813987
-0.0643015776248
-0.0643013117852
-0.0643010582589
-0.0643008704051
-0.0643007960796
-0.0643008528815
-0.0643013435155
-0.0643093548494
-0.0643905927771
-0.0649268617412
-0.0664866222353
-0.0609602916693
-0.0609635504217
-0.0650616409987
-0.0640677271495
-0.0638098358795
-0.0638021014723
-0.0638015598155
-0.0637711546251
-0.0637096969333
-0.0636494859667
-0.0636219273205
-0.0636181786953
-0.0636216568292
-0.0636272153888
-0.063634774111
-0.0636385440964
-0.0636427377573
-0.0636452162094
-0.0636464002021
-0.0636467744481
-0.0636466953115
-0.0636463847567
-0.0636459760187
-0.0636455476979
-0.0636451422304
-0.0636447792788
-0.063644462092
-0.0636441911395
-0.0636439698677
-0.0636437940712
-0.063643656771
-0.063643552083
-0.0636434561004
-0.0636433597554
-0.0636432780869
-0.0636433976732
-0.063646958132
-0.0636883967281
-0.0640037318343
-0.0650289581182
-0.0609706032399
-0.0454445109595
-0.0453532583254
-0.0449721834299
-0.044910758992
-0.0449132883457
-0.0449157504011
-0.0449098542018
-0.0448989687661
-0.0448923945696
-0.0448953166435
-0.044903819634
-0.0449118009053
-0.0449164799676
-0.0449157306454
-0.0449156495835
-0.0449159445575
-0.0449163355752
-0.0449167280217
-0.0449170853775
-0.0449174032659
-0.0449176791348
-0.044917916482
-0.0449181182077
-0.0449182872849
-0.0449184268334
-0.0449185376498
-0.0449186229311
-0.0449186867485
-0.0449187331901
-0.0449187650308
-0.0449187854851
-0.0449187939099
-0.044918792086
-0.0449187850444
-0.0449187877636
-0.044919284858
-0.0449263872113
-0.0449980716327
-0.0453761518303
-0.0454581909558
-0.0450434701442
-0.0445937401672
-0.0438667443259
-0.0437265030055
-0.0437216642256
-0.0437224003973
-0.0437119496193
-0.04369169137
-0.0436738664397
-0.0436688396313
-0.0436722890461
-0.0436776701571
-0.0436826747899
-0.0436803623878
-0.0436792636191
-0.0436794194312
-0.043679770926
-0.0436801617511
-0.0436805471923
-0.0436808931703
-0.0436811958478
-0.0436814514011
-0.0436816652454
-0.0436818409616
-0.0436819833534
-0.0436820936787
-0.0436821802625
-0.0436822436887
-0.0436822888515
-0.04368231914
-0.0436823372289
-0.0436823509498
-0.0436823599644
-0.0436823686929
-0.0436824431033
-0.04368388817
-0.043702005882
-0.0438599934007
-0.044590880088
-0.0450565838018
-0.0609810268277
-0.0666173784792
-0.0651042434712
-0.0646420660339
-0.0646031516909
-0.064596218299
-0.0645514973232
-0.0644636434975
-0.0643718965795
-0.0643197096019
-0.0642998124441
-0.064293624902
-0.0642918913047
-0.0642963162568
-0.0642978778545
-0.0643007203564
-0.0643024006671
-0.0643031446512
-0.0643033101149
-0.0643031548357
-0.0643028457288
-0.0643024766503
-0.0643021069471
-0.0643017625039
-0.0643014611819
-0.064301204096
-0.0643009917558
-0.0643008160034
-0.0643006722433
-0.0643005542022
-0.0643004545966
-0.064300378403
-0.0643003153112
-0.0643002843127
-0.0643007983816
-0.0643088491334
-0.0643901670511
-0.0649264305765
-0.0664862757251
-0.0609597578646
-0.0606092000589
-0.0684602317495
-0.0663831944034
-0.0656219715861
-0.0655167792677
-0.0655018826441
-0.0654588054932
-0.0653752624268
-0.0652922756691
-0.0652529472727
-0.0652458826759
-0.0652491534109
-0.0652548528156
-0.0652608023995
-0.0652649686155
-0.0652677113287
-0.0652699821875
-0.0652709534498
-0.0652711215362
-0.0652708568553
-0.065270389441
-0.0652698519028
-0.0652693169681
-0.0652688276473
-0.0652683983347
-0.0652680343709
-0.0652677459415
-0.0652675072647
-0.0652673101364
-0.0652671528779
-0.0652670310149
-0.065266911097
-0.0652667853899
-0.0652667915125
-0.0652681109259
-0.0652846198824
-0.0654291810507
-0.0662514365668
-0.0683458167958
-0.060619548399
-0.0596464899152
-0.0665913005727
-0.063866825969
-0.0628492248525