/*--------------------------------*- C++ -*----------------------------------*\
| =========                 |                                                 |
| \\      /  F ield         | OpenFOAM: The Open Source CFD Toolbox           |
|  \\    /   O peration     | Version:  3.0.1                                 |
|   \\  /    A nd           | Web:      www.OpenFOAM.org                      |
|    \\/     M anipulation  |                                                 |
\*---------------------------------------------------------------------------*/
FoamFile
{
    version     2.0;
    format      ascii;
    class       volVectorField;
    location    "0.5";
    object      U;
}
// * * * * * * * * * * * * * * * * * * * * * * * * * * * * * * * * * * * * * //

dimensions      [0 1 -1 0 0 0 0];

internalField   nonuniform List<vector> 
15984
(
(0.00030987472476 0.000127910684767 -0.000293912535397)
(0.000888014590716 0.000161614113766 -0.000295628432951)
(0.00120478925498 0.000271478970458 -0.000294000712872)
(0.00104005801649 0.000391468875339 -0.000295662051416)
(0.000540888986396 0.000453501811047 -0.000297347628123)
(-6.73966914519e-05 0.000452589494018 -0.000288369925167)
(-0.000628616101238 0.000388859714601 -0.000266948387073)
(-0.000924331616104 0.000265344284418 -0.000236390276236)
(-0.000846731853092 0.000139066063084 -0.000198674094717)
(-0.000546635107562 5.84371658386e-05 -0.000149918454991)
(-0.000221612443935 1.64915312434e-05 -9.95108539675e-05)
(3.18470845598e-05 -2.87336013307e-06 -5.98542571274e-05)
(0.00019760055337 -1.12098141799e-05 -2.82555637814e-05)
(0.000290339770851 -1.48992870255e-05 -6.33733127747e-06)
(0.000326669396974 -1.61190940688e-05 7.84454002006e-06)
(0.000326482789668 -1.67206888885e-05 1.62621686023e-05)
(0.000304787524458 -1.70526276289e-05 2.07150581108e-05)
(0.000272455744329 -1.72886901672e-05 2.26257304574e-05)
(0.000236554466474 -1.74922254713e-05 2.30224193326e-05)
(0.000201263017783 -1.76819046543e-05 2.26065069491e-05)
(0.000168779557807 -1.78588846495e-05 2.18041680604e-05)
(0.000140065084986 -1.80199137214e-05 2.08589672991e-05)
(0.00011535655166 -1.81618014677e-05 1.99077366289e-05)
(9.44915066601e-05 -1.82823516415e-05 1.90210668426e-05)
(7.71039564074e-05 -1.83815831883e-05 1.82318279439e-05)
(6.27514024101e-05 -1.84612386137e-05 1.75496245896e-05)
(5.09818735002e-05 -1.85225187078e-05 1.69701165902e-05)
(4.13763763598e-05 -1.85733211293e-05 1.64878986081e-05)
(3.35634022846e-05 -1.86137349558e-05 1.60902351784e-05)
(2.72252472024e-05 -1.86448876219e-05 1.57604840503e-05)
(2.21156164195e-05 -1.8667654857e-05 1.54803556985e-05)
(1.80606704931e-05 -1.86793266489e-05 1.52237774056e-05)
(1.49759880659e-05 -1.86853620524e-05 1.49682564373e-05)
(1.28804280125e-05 -1.86907193325e-05 1.46884858651e-05)
(1.19800935234e-05 -1.87064712545e-05 1.43288264783e-05)
(1.21840973667e-05 -1.86791173971e-05 1.39907813521e-05)
(1.45522745477e-05 -1.86789453104e-05 1.31744839319e-05)
(1.70600866529e-05 -1.82968781932e-05 1.32494191889e-05)
(2.21446605361e-05 -1.78673370031e-05 1.28237962143e-05)
(1.76609286075e-05 -1.71864520725e-05 1.90527145659e-05)
(0.000307573313322 0.000397628784064 -0.000354550520734)
(0.000954834741921 0.000525511125804 -0.000410511959065)
(0.00131032636147 0.000861519983687 -0.00043429656626)
(0.00112454688149 0.00121696043906 -0.00045499725795)
(0.000573323113298 0.00139872898698 -0.000469335229614)
(-8.76348725065e-05 0.00139565719386 -0.000459288509255)
(-0.000699748665063 0.00120675337757 -0.000422462298796)
(-0.00102012259875 0.000840212318914 -0.000366480772514)
(-0.000919557878952 0.000460151347234 -0.000298427221293)
(-0.00057922545136 0.000215733542888 -0.000217196827984)
(-0.00022779202832 8.74412078701e-05 -0.000142478779419)
(3.76179602475e-05 2.36104088375e-05 -8.63462720435e-05)
(0.000206728429779 -4.515360279e-06 -4.56926704088e-05)
(0.000299192361661 -1.7925554575e-05 -1.84823635513e-05)
(0.000334054794567 -2.33909890138e-05 -1.57918452977e-06)
(0.000332059843988 -2.57525922892e-05 7.9571141163e-06)
(0.000308900160231 -2.68748933752e-05 1.26741119463e-05)
(0.000275445418308 -2.74606254421e-05 1.44556249919e-05)
(0.00023871845644 -2.78382987085e-05 1.45562098806e-05)
(0.000202828081781 -2.81526802604e-05 1.38008868657e-05)
(0.000169909845306 -2.84398275738e-05 1.26719806083e-05)
(0.000140877254626 -2.8703268999e-05 1.14323485227e-05)
(0.000115932231242 -2.89407625768e-05 1.02317462759e-05)
(9.4886738441e-05 -2.91460250095e-05 9.13739768071e-06)
(7.73554681614e-05 -2.93187833743e-05 8.18213000953e-06)
(6.28831113936e-05 -2.94571126976e-05 7.36731572709e-06)
(5.10059582883e-05 -2.95555229368e-05 6.67875059094e-06)
(4.12994111472e-05 -2.96427639235e-05 6.11188172301e-06)
(3.33910685471e-05 -2.97140122732e-05 5.64965147144e-06)
(2.69603795976e-05 -2.97699779754e-05 5.27016684499e-06)
(2.17611230379e-05 -2.98087669539e-05 4.94945931855e-06)
(1.76171145533e-05 -2.98201282455e-05 4.65360362123e-06)
(1.44406084455e-05 -2.98155382536e-05 4.35650089521e-06)
(1.22437375276e-05 -2.9814913173e-05 4.03855774023e-06)
(1.12584088545e-05 -2.98221297261e-05 3.62368026104e-06)
(1.12991845154e-05 -2.97332842349e-05 3.2608842492e-06)
(1.36578282265e-05 -2.96270287006e-05 2.30782383657e-06)
(1.6062778639e-05 -2.89332524137e-05 2.48046510164e-06)
(2.14764617471e-05 -2.79093232137e-05 2.06107122831e-06)
(1.76381547955e-05 -2.61529640685e-05 8.61946301896e-06)
(0.000355863550347 0.000696687094654 -0.000365375853803)
(0.00112038192827 0.000966756493698 -0.000450164484182)
(0.00154602965633 0.00157867232742 -0.000448819634058)
(0.00130569736421 0.00220477989926 -0.000434880809248)
(0.000634368812009 0.00252007695285 -0.0004373221497)
(-0.000149488682642 0.00251408100626 -0.000426794112453)
(-0.000882021401543 0.00218382335482 -0.000400560778854)
(-0.00126623152589 0.00153778947825 -0.000374495417593)
(-0.00112379384332 0.000860846127327 -0.000330037376562)
(-0.00069761257253 0.000420467270095 -0.000248520673105)
(-0.000286555081367 0.000188537866845 -0.000164179063153)
(1.07911152225e-05 7.05325110479e-05 -0.00010087049884)
(0.000195584052559 1.69162498391e-05 -5.58425514895e-05)
(0.000294366755353 -9.50768024862e-06 -2.63466847103e-05)
(0.000332155735887 -2.13826957743e-05 -8.2823597323e-06)
(0.000331192011276 -2.64126633593e-05 1.72678030442e-06)
(0.000308329101387 -2.86098300574e-05 6.59932517215e-06)
(0.000274967926896 -2.95479660744e-05 8.38503604298e-06)
(0.000238261878501 -2.99613724047e-05 8.44208224265e-06)
(0.000202381699952 -3.02041895198e-05 7.59915058627e-06)
(0.000169488700406 -3.03981787085e-05 6.38861186751e-06)
(0.000140493371593 -3.05795696963e-05 5.0702313589e-06)
(0.000115591601371 -3.07466303173e-05 3.81718223818e-06)
(9.45896062361e-05 -3.08954999034e-05 2.6814252931e-06)
(7.70979019638e-05 -3.10213640694e-05 1.69456446013e-06)
(6.26626862181e-05 -3.11151413491e-05 8.57819986779e-07)
(5.08062987684e-05 -3.11376301896e-05 1.38382172726e-07)
(4.11013268608e-05 -3.11730279507e-05 -4.48000250013e-07)
(3.3183334998e-05 -3.11999955367e-05 -9.20070249855e-07)
(2.67259886182e-05 -3.12184421922e-05 -1.30693743248e-06)
(2.14795181276e-05 -3.12277126858e-05 -1.6401447463e-06)
(1.7252100005e-05 -3.12287859616e-05 -1.96642114411e-06)
(1.39281292961e-05 -3.12197309762e-05 -2.32007319007e-06)
(1.1502834236e-05 -3.11910597938e-05 -2.67926586696e-06)
(1.02232782993e-05 -3.11442408463e-05 -3.14452011637e-06)
(9.85326213164e-06 -3.09782682742e-05 -3.53024823078e-06)
(1.18851082014e-05 -3.06963963029e-05 -4.60390159929e-06)
(1.40200152014e-05 -2.98391698819e-05 -4.41182177026e-06)
(1.9614528387e-05 -2.86105904583e-05 -4.91945855261e-06)
(1.74237781201e-05 -2.63207147598e-05 1.92427775437e-06)
(0.00044252655937 0.000932559341685 -0.000369210120312)
(0.00139335728319 0.00133966975013 -0.000437028212115)
(0.00191894348088 0.00219342488022 -0.000348807230759)
(0.00158619940867 0.0030445358624 -0.000241079288796)
(0.000726102174497 0.00346355202476 -0.000206952032053)
(-0.000248768041693 0.00345516200497 -0.000195928888406)
(-0.00117165286417 0.0030136170529 -0.000205987573958)
(-0.00165991371551 0.00213614924169 -0.000268296256882)
(-0.00145642950008 0.00120471003814 -0.000307333809574)
(-0.000896787996772 0.000594850045331 -0.00025510286322)
(-0.000388997646714 0.000277168018504 -0.000171902059909)
(-3.89828029738e-05 0.00011450274157 -0.000107008796562)
(0.000172365309741 4.1027585532e-05 -6.0701998116e-05)
(0.000283145433386 3.81249453381e-06 -2.98095821517e-05)
(0.000327038932559 -1.33344647142e-05 -1.12306939397e-05)
(0.000328873475975 -2.07709530108e-05 -7.68903037917e-07)
(0.000307201859034 -2.39551327451e-05 4.3534328235e-06)
(0.00027436471936 -2.52309524443e-05 6.23221691018e-06)
(0.000237882911525 -2.57028510579e-05 6.3746788844e-06)
(0.000202093380191 -2.58791654087e-05 5.58294739043e-06)
(0.00016924248816 -2.59720455285e-05 4.39581066908e-06)
(0.000140278112913 -2.60502260303e-05 3.09953449648e-06)
(0.00011540699298 -2.61192173814e-05 1.86163140057e-06)
(9.44347309711e-05 -2.61836089096e-05 7.45331883957e-07)
(7.6974235841e-05 -2.62389360577e-05 -2.42117255823e-07)
(6.25854440964e-05 -2.62665660356e-05 -1.09228211166e-06)
(5.07565067601e-05 -2.62384976684e-05 -1.8998774134e-06)
(4.10516841937e-05 -2.62219342452e-05 -2.55587784988e-06)
(3.31372102762e-05 -2.62052068643e-05 -3.06629970243e-06)
(2.66764339569e-05 -2.61869550464e-05 -3.48167944382e-06)
(2.14130733649e-05 -2.6167248705e-05 -3.83223912103e-06)
(1.71573592247e-05 -2.61562586738e-05 -4.14852133991e-06)
(1.38063358765e-05 -2.61392191957e-05 -4.46124603626e-06)
(1.13407522141e-05 -2.60812618589e-05 -4.78901467081e-06)
(1.00127682013e-05 -2.5987829226e-05 -5.23465296743e-06)
(9.58172133301e-06 -2.57840880284e-05 -5.59914583099e-06)
(1.16495227218e-05 -2.54264413848e-05 -6.66400485837e-06)
(1.39062877003e-05 -2.46088897851e-05 -6.43717005967e-06)
(1.99702374399e-05 -2.34181689806e-05 -6.77165933393e-06)
(1.78377897808e-05 -2.08356134401e-05 1.11903033315e-06)
(0.000561699313086 0.00106928981779 -0.000374252199037)
(0.00175197966357 0.00156950026407 -0.000396683366479)
(0.0023936262613 0.00257175527474 -0.000172215450867)
(0.00193613950723 0.00354570610861 7.15182461243e-05)
(0.000838362630155 0.00401298474914 0.000156593589289)
(-0.000372013310498 0.00400347449779 0.000167912559964)
(-0.00153482635714 0.00350692329914 0.000106483378841)
(-0.0021609794438 0.00250343566508 -8.59767793767e-05)
(-0.00188482433474 0.00141766417164 -0.00025519430925)
(-0.00115367690951 0.000701581979424 -0.000253657834756)
(-0.000521405108148 0.000333312260495 -0.000175557642888)
(-0.000103988576041 0.000143203887072 -0.000109834001926)
(0.000142068550821 5.91378847453e-05 -6.33701015863e-05)
(0.000268042868668 1.48004109774e-05 -3.12421080271e-05)
(0.000320129421829 -5.50806639856e-06 -1.21823867079e-05)
(0.000325815574438 -1.4564341417e-05 -1.39821002568e-06)
(0.00030587427378 -1.83738932248e-05 4.03014655523e-06)
(0.000273807835576 -1.98655585849e-05 6.0714632844e-06)
(0.000237646398212 -2.03925798479e-05 6.30695340847e-06)
(0.000201978360424 -2.0518062921e-05 5.57718376293e-06)
(0.000169168079315 -2.05279893038e-05 4.42410088237e-06)
(0.000140220456038 -2.05109666174e-05 3.15570245769e-06)
(0.000115359034509 -2.04889127551e-05 1.92617772305e-06)
(9.43930581081e-05 -2.04682428964e-05 8.2648880899e-07)
(7.69437616192e-05 -2.04524222097e-05 -1.28107588937e-07)
(6.25692092773e-05 -2.04442323771e-05 -9.86312549961e-07)
(5.07488813243e-05 -2.0439623777e-05 -1.82398971616e-06)
(4.10468698582e-05 -2.04080860081e-05 -2.4705590156e-06)
(3.31324353189e-05 -2.03809896078e-05 -2.98373382516e-06)
(2.66721294915e-05 -2.03571037267e-05 -3.4004714169e-06)
(2.14081628366e-05 -2.03315402063e-05 -3.74627197628e-06)
(1.71525718485e-05 -2.03015145247e-05 -4.05207330424e-06)
(1.38070473549e-05 -2.02553266422e-05 -4.34919375314e-06)
(1.13486763151e-05 -2.01760790231e-05 -4.66312622226e-06)
(1.00388720188e-05 -2.00555071946e-05 -5.09783864514e-06)
(9.64862319994e-06 -1.98439038912e-05 -5.4526593331e-06)
(1.1834565297e-05 -1.94717055817e-05 -6.50570460291e-06)
(1.4282158041e-05 -1.8770156395e-05 -6.26694578148e-06)
(2.07779663641e-05 -1.78034951153e-05 -6.46526883303e-06)
(1.83134986061e-05 -1.57899133845e-05 1.79219113468e-06)
(0.000695559965633 0.00108793939694 -0.000380496807999)
(0.00214826483965 0.00160699297566 -0.000342852696557)
(0.00290644528285 0.00261947719597 4.36143827851e-05)
(0.00230587764586 0.0035766014983 0.000440811020865)
(0.000954760783973 0.00402153615368 0.000579782198971)
(-0.000501296174226 0.00401211784473 0.000591750072843)
(-0.00191992263745 0.00353359860217 0.000474627499098)
(-0.00270102852925 0.0025474658123 0.00013424750014)
(-0.00235376531513 0.0014534991028 -0.000189229824418)
(-0.00143629171029 0.000722038863838 -0.00025098992848)
(-0.000666440788303 0.000347609804418 -0.000179339858631)
(-0.000175023737368 0.000153597334041 -0.000112611008915)
(0.000108725898991 6.71316778245e-05 -6.58142667256e-05)
(0.00025107088295 2.15196275951e-05 -3.2355260246e-05)
(0.000312419916653 7.92935172399e-07 -1.24717924672e-05)
(0.000322401597444 -8.78887854688e-06 -1.55280356361e-06)
(0.00030446899437 -1.28077607309e-05 4.23087741866e-06)
(0.000273257725684 -1.43487537022e-05 6.42350957569e-06)
(0.000237460159193 -1.48883401593e-05 6.69386092651e-06)
(0.000201938246845 -1.50048987522e-05 6.04476145345e-06)
(0.00016917056159 -1.49734721404e-05 4.92345506269e-06)
(0.000140234326481 -1.49062390214e-05 3.67113713905e-06)
(0.00011537614055 -1.48345670112e-05 2.45948559822e-06)
(9.44103573375e-05 -1.47637059654e-05 1.37148217804e-06)
(7.69515413836e-05 -1.46960456173e-05 4.43123674183e-07)
(6.2563503428e-05 -1.46595427401e-05 -3.69674944131e-07)
(5.07511831093e-05 -1.46822800663e-05 -1.15936083043e-06)
(4.10611111473e-05 -1.46504509151e-05 -1.81868373053e-06)
(3.31447926011e-05 -1.46130106904e-05 -2.33698008328e-06)
(2.66835083086e-05 -1.45803410203e-05 -2.75535863728e-06)
(2.14213143942e-05 -1.45482862063e-05 -3.101726132e-06)
(1.71711449012e-05 -1.45092752357e-05 -3.40450559289e-06)
(1.38360681753e-05 -1.44539061107e-05 -3.69718154628e-06)
(1.13933239357e-05 -1.43708973913e-05 -4.00709344205e-06)
(1.01105688599e-05 -1.42478967779e-05 -4.43948043289e-06)
(9.77348573724e-06 -1.40547465314e-05 -4.79622820621e-06)
(1.20623236174e-05 -1.3722932728e-05 -5.85023676918e-06)
(1.46521501809e-05 -1.31786350821e-05 -5.61505865407e-06)
(2.14054095e-05 -1.24831289444e-05 -5.78902688138e-06)
(1.86633214396e-05 -1.10743620884e-05 2.37433585227e-06)
(0.00082398839384 0.000983166607736 -0.000387289340715)
(0.0025221645123 0.00144286385105 -0.000291472988515)
(0.00337937212744 0.00231845106727 0.000243554679972)
(0.00263805512992 0.00312200052344 0.000773791197974)
(0.00105624837389 0.00348277897677 0.000951478097219)
(-0.000616004526551 0.00347442714823 0.000964227220868)
(-0.00226745698632 0.00308010629659 0.000805656243477)
(-0.00319976894252 0.00225105820971 0.000338526621689)
(-0.00279613322719 0.00130228685868 -0.000127554725082)
(-0.00170583252434 0.000654016880279 -0.000250125107437)
(-0.00080520546252 0.000318743074723 -0.000183957595784)
(-0.000243961317666 0.000144471743871 -0.000116536993255)
(7.61750434373e-05 6.40452077991e-05 -6.73614082636e-05)
(0.000234938436065 2.32909864118e-05 -3.3351965061e-05)
(0.000304991874714 4.532856634e-06 -1.27966899755e-05)
(0.000319003558567 -4.2495538591e-06 -1.49581028492e-06)
(0.000303072941844 -8.08702786713e-06 4.50295608712e-06)
(0.000272742454915 -9.49946107433e-06 6.84749331521e-06)
(0.000237293471102 -9.9853780052e-06 7.21755102554e-06)
(0.000201913324371 -1.0102953119e-05 6.57064525392e-06)
(0.000169198057636 -1.00606630543e-05 5.47861796281e-06)
(0.00014027372791 -9.97778652035e-06 4.24416321315e-06)
(0.000115417003479 -9.89028636054e-06 3.0390678689e-06)
(9.44515019489e-05 -9.80462183038e-06 1.96340617779e-06)
(7.69870765218e-05 -9.72029203329e-06 1.03558323819e-06)
(6.25689853077e-05 -9.6521877834e-06 2.52391751238e-07)
(5.07476337596e-05 -9.65161006342e-06 -4.35468851041e-07)
(4.10766803575e-05 -9.65589391298e-06 -1.08365763277e-06)
(3.31632897899e-05 -9.6249619063e-06 -1.62586846908e-06)
(2.67005399025e-05 -9.58603148026e-06 -2.05844058275e-06)
(2.14395104398e-05 -9.55127872873e-06 -2.40989210132e-06)
(1.71947255148e-05 -9.51130866208e-06 -2.71414069552e-06)
(1.38695460506e-05 -9.45736341618e-06 -3.00705113138e-06)
(1.14421421574e-05 -9.38108909299e-06 -3.31759055959e-06)
(1.01832365567e-05 -9.26942000096e-06 -3.7523512367e-06)
(9.89125754956e-06 -9.10645848316e-06 -4.1163441808e-06)
(1.22532644739e-05 -8.83586376719e-06 -5.17873062615e-06)
(1.49262699719e-05 -8.43790249359e-06 -4.95202747251e-06)
(2.18030630744e-05 -7.95556448335e-06 -5.14652150825e-06)
(1.88617668865e-05 -6.87466980794e-06 2.8226830903e-06)
(0.00092864616267 0.000772738308832 -0.000395095813666)
(0.00282018217907 0.00111497606221 -0.000260083645411)
(0.00374653604292 0.00175212865462 0.000371340482238)
(0.00288955492024 0.00231837782159 0.000974809152855)
(0.00113066173699 0.00256255782916 0.0011634766918)
(-0.000702252847427 0.00255625527221 0.00117713838)
(-0.00253237282575 0.00228334931772 0.0010040981542)
(-0.00358853482504 0.00169751504185 0.000469125364778)
(-0.00315124388362 0.00100264153889 -8.81074414963e-05)
(-0.00192780451827 0.000512593888499 -0.000252438649754)
(-0.000921193174916 0.000253068613244 -0.000188723255181)
(-0.000302332936755 0.000117237912091 -0.000120155379508)
(4.81619825789e-05 5.26908784169e-05 -6.90350502348e-05)
(0.000221328339954 2.07123092188e-05 -3.42571281425e-05)
(0.000298653624351 5.80941354794e-06 -1.30945897456e-05)
(0.000316088264465 -1.14098789416e-06 -1.3500376821e-06)
(0.000301839457382 -4.26870906429e-06 4.61335792713e-06)
(0.000272303428193 -5.43802620301e-06 7.19905730458e-06)
(0.000237153124609 -5.82575565105e-06 7.61424584379e-06)
(0.000201895790627 -5.91520258189e-06 6.99198965247e-06)
(0.000169228982774 -5.8831951078e-06 5.92485947812e-06)
(0.000140316036291 -5.80842420528e-06 4.71016854146e-06)
(0.000115459872028 -5.72770616734e-06 3.50754173884e-06)
(9.44930432344e-05 -5.65231605993e-06 2.42889291801e-06)
(7.7025895481e-05 -5.58105286514e-06 1.51292972381e-06)
(6.25963432055e-05 -5.5134266462e-06 7.32448105997e-07)
(5.07481139801e-05 -5.47511128167e-06 8.19539997565e-08)
(4.10734330895e-05 -5.48432843875e-06 -4.78380206402e-07)
(3.31788696278e-05 -5.49146271116e-06 -1.02089107588e-06)
(2.67195731672e-05 -5.4544181048e-06 -1.48405380696e-06)
(2.14578715751e-05 -5.42086800556e-06 -1.8481800646e-06)
(1.72171430321e-05 -5.38521292963e-06 -2.15803198116e-06)
(1.38999156082e-05 -5.33856067544e-06 -2.45447262507e-06)
(1.14854979459e-05 -5.27521697688e-06 -2.76790453554e-06)
(1.02453104642e-05 -5.18124960735e-06 -3.20739018628e-06)
(9.98677250585e-06 -5.05219573933e-06 -3.57962415851e-06)
(1.23959487374e-05 -4.84628912596e-06 -4.65080501479e-06)
(1.51102002306e-05 -4.56825936841e-06 -4.42980032244e-06)
(2.20299880497e-05 -4.2175787563e-06 -4.6458472604e-06)
(1.89514588066e-05 -3.19333877428e-06 3.16061772624e-06)
(0.000998986439624 0.000489771214234 -0.000402774555419)
(0.00301577092106 0.000692408010526 -0.000251840307927)
(0.00398221213935 0.00106265818984 0.000415056578002)
(0.00304571284457 0.0013838294223 0.00103560462922)
(0.00117514522437 0.00151676452944 0.00121297199828)
(-0.000755607656016 0.00151269261221 0.00122740003422)
(-0.00269893023275 0.00136077419782 0.00106217949437)
(-0.00383879896185 0.00102760712626 0.000514879949724)
(-0.00338748756289 0.000620539604867 -7.5303043248e-05)
(-0.00208049090958 0.000323343238928 -0.000256812125996)
(-0.00100294887236 0.000162127980766 -0.000193464116006)
(-0.000344161830822 7.64020615852e-05 -0.000122596791382)
(2.791088057e-05 3.51684518663e-05 -7.0510271143e-05)
(0.000211499063675 1.47640493568e-05 -3.49450339985e-05)
(0.000294066036465 5.23395035245e-06 -1.33428869134e-05)
(0.000313963275792 7.90565962946e-07 -1.33142996166e-06)
(0.000300923397657 -1.1954419206e-06 4.80337374308e-06)
(0.000271963203032 -1.99172975174e-06 7.40719059096e-06)
(0.000237053953487 -2.24753630217e-06 7.88144091252e-06)
(0.000201883726679 -2.30036316686e-06 7.28157576407e-06)
(0.000169250684759 -2.28293822409e-06 6.22932553812e-06)
(0.000140350827106 -2.22941357069e-06 5.01963421269e-06)
(0.000115494533445 -2.17723743638e-06 3.82704705254e-06)
(9.4524405806e-05 -2.12590803689e-06 2.75057390334e-06)
(7.70561825333e-05 -2.07497428505e-06 1.82695209943e-06)
(6.26216866055e-05 -2.03232845173e-06 1.05035644112e-06)
(5.07619675907e-05 -1.99829964199e-06 4.12208152758e-07)
(4.10683304281e-05 -1.97518057958e-06 -1.17159459859e-07)
(3.31781031528e-05 -2.00029782269e-06 -5.77150529003e-07)
(2.67357149336e-05 -1.99321980786e-06 -1.06947205393e-06)
(2.14739853656e-05 -1.9656240534e-06 -1.45642930485e-06)
(1.72357203583e-05 -1.93837382537e-06 -1.7748181254e-06)
(1.39243357265e-05 -1.90216808195e-06 -2.07627324744e-06)
(1.1520500742e-05 -1.8505586777e-06 -2.39319824389e-06)
(1.02943229684e-05 -1.78311495561e-06 -2.83821354547e-06)
(1.00582202629e-05 -1.69028662487e-06 -3.21731748984e-06)
(1.24952056132e-05 -1.54961347703e-06 -4.29478188935e-06)
(1.52260308825e-05 -1.37342735698e-06 -4.07615943712e-06)
(2.21545961487e-05 -1.09749203664e-06 -4.3040653494e-06)
(1.89867873507e-05 3.65717500062e-08 3.37931644568e-06)
(0.00103336384574 0.000168033322666 -0.000407585499837)
(0.00310986861388 0.000233687139875 -0.000253662978083)
(0.00409375546498 0.000352976532292 0.000417821631415)
(0.00311803697843 0.000455082623822 0.00103446796647)
(0.00119507760677 0.000495994859268 0.00120051708072)
(-0.000780172631728 0.000494459631658 0.0012149207476)
(-0.00277644873263 0.000447420977559 0.00106021604561)
(-0.00395810548806 0.000341007446284 0.00051843949428)
(-0.00350252465298 0.000209362181852 -7.51223914497e-05)
(-0.00215694995446 0.000110916965649 -0.000260284994125)
(-0.00104472037131 5.68245652029e-05 -0.000196177331388)
(-0.0003658273912 2.77923455968e-05 -0.000123945096177)
(1.73383816515e-05 1.37084717076e-05 -7.12070747355e-05)
(0.000206360501352 6.77988115575e-06 -3.53081794566e-05)
(0.000291666912066 3.49723538812e-06 -1.34708721983e-05)
(0.000312872998565 1.99673696491e-06 -1.31121215937e-06)
(0.000300447948479 1.32636192856e-06 4.89696940171e-06)
(0.000271777365198 1.04571404876e-06 7.52310690605e-06)
(0.000236998660087 9.55588271563e-07 8.01653666442e-06)
(0.00020187793596 9.38266333803e-07 7.43329504044e-06)
(0.000169264321998 9.47570373541e-07 6.37674245318e-06)
(0.000140368768855 9.67756714875e-07 5.17968276273e-06)
(0.000115511530365 9.8438328734e-07 3.98848141584e-06)
(9.45440989227e-05 1.00334673536e-06 2.91746322198e-06)
(7.70726248568e-05 1.02338014006e-06 1.98782235773e-06)
(6.26346318021e-05 1.03662516887e-06 1.20730790802e-06)
(5.07766493869e-05 1.05043285818e-06 5.77447825538e-07)
(4.10724031421e-05 1.0639069954e-06 4.94046572051e-08)
(3.3169828571e-05 1.05727864967e-06 -3.84973405555e-07)
(2.67368972718e-05 1.04727953994e-06 -8.31584668289e-07)
(2.14852797192e-05 1.06286455554e-06 -1.24692440606e-06)
(1.72488487417e-05 1.0791463324e-06 -1.57342339691e-06)
(1.39437960392e-05 1.10268649703e-06 -1.87915195938e-06)
(1.15449868892e-05 1.13769101093e-06 -2.20156884266e-06)
(1.03253842204e-05 1.1809269308e-06 -2.64512271846e-06)
(1.01032973638e-05 1.2384080548e-06 -3.02557398184e-06)
(1.25513197113e-05 1.31675942679e-06 -4.10158980057e-06)
(1.52830543751e-05 1.40541013486e-06 -3.87726324274e-06)
(2.21999046717e-05 1.63659649824e-06 -4.10279205196e-06)
(1.89788317488e-05 2.96849019898e-06 3.51531819916e-06)
(0.00103334373347 -0.000165455809215 -0.000407645177827)
(0.00310972174531 -0.00023286725492 -0.000253735979054)
(0.00409353703238 -0.000352915112787 0.000417676514228)
(0.00311770961594 -0.000455544456865 0.0010343069399)
(0.00119482537861 -0.00049607529265 0.00120059765651)
(-0.000779860210953 -0.000494610859695 0.00121486460783)
(-0.00277603513836 -0.000446972422758 0.00105986875464)
(-0.00395781324484 -0.000340231374994 0.00051828103013)
(-0.00350223170379 -0.000207061994234 -7.5176592917e-05)
(-0.00215674456179 -0.000107868823396 -0.000260305616992)
(-0.00104453237058 -5.29671231296e-05 -0.000196149361976)
(-0.000365725576015 -2.34743447858e-05 -0.000123920096096)
(1.74025568726e-05 -9.11683884558e-06 -7.11883351687e-05)
(0.000206393066388 -1.93328325671e-06 -3.53075675124e-05)
(0.000291674246859 1.4077526236e-06 -1.34557830492e-05)
(0.000312877410565 2.96357439526e-06 -1.29599600214e-06)
(0.000300447648273 3.64466534463e-06 4.91474189989e-06)
(0.000271777760892 3.92131613027e-06 7.53272542944e-06)
(0.00023700014834 4.01746504013e-06 8.02788905106e-06)
(0.000201879643405 4.03680183184e-06 7.44853151408e-06)
(0.000169265367133 4.03474169275e-06 6.39207818986e-06)
(0.000140369181157 4.01706974045e-06 5.19571360933e-06)
(0.000115512284776 4.00052307139e-06 4.00300931962e-06)
(9.45438679922e-05 3.983297741e-06 2.93096888534e-06)
(7.7072792077e-05 3.96532558229e-06 2.00148235983e-06)
(6.26351861873e-05 3.95375779261e-06 1.22170105068e-06)
(5.07755848649e-05 3.94130033e-06 5.90853672738e-07)
(4.10717324118e-05 3.92966469688e-06 6.4796851743e-08)
(3.31697731805e-05 3.92673143461e-06 -3.68907114697e-07)
(2.67384970227e-05 3.93592507384e-06 -8.11178448168e-07)
(2.14899079571e-05 3.932849586e-06 -1.23054891366e-06)
(1.7255620186e-05 3.93665902136e-06 -1.55820106785e-06)
(1.39536009839e-05 3.94622502133e-06 -1.86430300049e-06)
(1.15596163533e-05 3.96068553772e-06 -2.18609293874e-06)
(1.03446564437e-05 3.98394519489e-06 -2.6308145875e-06)
(1.0125710411e-05 4.00713849041e-06 -3.01027753022e-06)
(1.25718771885e-05 4.02429792195e-06 -4.08120094695e-06)
(1.52917822243e-05 4.03075614896e-06 -3.85095938451e-06)
(2.2187546418e-05 4.22462692769e-06 -4.06744309517e-06)
(1.89471658707e-05 5.80898266755e-06 3.52832777924e-06)
(0.00099866038217 -0.000486996679042 -0.000402588658853)
(0.00301531110534 -0.000691104929266 -0.000251632072776)
(0.00398186127445 -0.00106231946471 0.000414877433626)
(0.00304597064973 -0.00138376984817 0.00103520314855)
(0.00117555411349 -0.00151578893396 0.00121229859911)
(-0.000755654320232 -0.00151156516363 0.0012266011919)
(-0.00269887589786 -0.00135976904563 0.0010617381076)
(-0.00383815524961 -0.00102638369258 0.000514465506705)
(-0.00338663892463 -0.00061786039135 -7.56176802085e-05)
(-0.00207991881832 -0.000320113297605 -0.000256812805191)
(-0.0010025054961 -0.000158336881101 -0.000193397481959)
(-0.000343898897157 -7.1964417856e-05 -0.000122497438983)
(2.81099208176e-05 -3.0572049175e-05 -7.04023288717e-05)
(0.000211622825982 -9.98819686947e-06 -3.489317755e-05)
(0.000294114940254 -3.77462992809e-07 -1.33074417044e-05)
(0.000313991104001 4.13963868242e-06 -1.26666956965e-06)
(0.000300926601405 6.12893073011e-06 4.84671195732e-06)
(0.000271963536277 6.92847862812e-06 7.43107042717e-06)
(0.000237056281187 7.18240315547e-06 7.92740656458e-06)
(0.000201886482093 7.2351884996e-06 7.32513228372e-06)
(0.000169254381145 7.21453596241e-06 6.27826041788e-06)
(0.000140351602261 7.16629676148e-06 5.07007279528e-06)
(0.00011549459453 7.11372120516e-06 3.87676633644e-06)
(9.45264577852e-05 7.06488007987e-06 2.80266598119e-06)
(7.70578171304e-05 7.01843157299e-06 1.86795605638e-06)
(6.2622585297e-05 6.97790188766e-06 1.09627475301e-06)
(5.07645704212e-05 6.94455743393e-06 4.57154136439e-07)
(4.1065088363e-05 6.9202251439e-06 -7.18409850659e-08)
(3.31729314362e-05 6.93419851844e-06 -5.20714605132e-07)
(2.67399320486e-05 6.93210338419e-06 -1.00768429011e-06)
(2.14856252434e-05 6.9132120345e-06 -1.40085936631e-06)
(1.72555195088e-05 6.90510516418e-06 -1.72199046894e-06)
(1.3955799235e-05 6.90142061465e-06 -2.02518494397e-06)
(1.15638431782e-05 6.89935958096e-06 -2.34423654363e-06)
(1.03485769746e-05 6.89656911054e-06 -2.78496139325e-06)
(1.01227718747e-05 6.88146035753e-06 -3.1582724777e-06)
(1.25523143872e-05 6.83020587656e-06 -4.21728877389e-06)
(1.52463542762e-05 6.74167783297e-06 -3.97830845498e-06)
(2.21150361728e-05 6.87797188087e-06 -4.17713573586e-06)
(1.88877761516e-05 8.69259910678e-06 3.44596683358e-06)
(0.000928485439512 -0.00076972288166 -0.000395029438542)
(0.00281948004375 -0.00111309736764 -0.00026027137672)
(0.00374577621528 -0.0017512449988 0.00037097009538)
(0.00288955146684 -0.00231773829375 0.000974281223266)
(0.00113094979799 -0.00256230901354 0.00116293475624)
(-0.000701929007502 -0.00255583869631 0.00117653745096)
(-0.00253190770902 -0.0022820649834 0.00100336019481)
(-0.00358739846809 -0.00169575689073 0.000468494028391)
(-0.00314994011595 -0.000999976842416 -8.85029082825e-05)
(-0.0019270444639 -0.000509201001562 -0.000252448776648)
(-0.000920405361313 -0.00024926541372 -0.000188696658064)
(-0.00030183102157 -0.000112915188666 -0.000120190263823)
(4.83941391345e-05 -4.81451513319e-05 -6.89600388613e-05)
(0.000221490566498 -1.60594033788e-05 -3.41607051723e-05)
(0.000298737505196 -1.06134620053e-06 -1.29854085475e-05)
(0.000316130379106 5.95974564833e-06 -1.24083033981e-06)
(0.000301841943531 9.08106337744e-06 4.71834724878e-06)
(0.000272304225272 1.02720548949e-05 7.29211067731e-06)
(0.000237153444309 1.06514142993e-05 7.71076318662e-06)
(0.000201895693953 1.07323773645e-05 7.08797117924e-06)
(0.000169230917535 1.06936353549e-05 6.02875237858e-06)
(0.000140318777546 1.06208567612e-05 4.81080798911e-06)
(0.000115461575971 1.05428855624e-05 3.60886872223e-06)
(9.44962195477e-05 1.04706526035e-05 2.53056853133e-06)
(7.70292957509e-05 1.04015596644e-05 1.60313675816e-06)
(6.25982375349e-05 1.03394919307e-05 8.19581963206e-07)
(5.07467300821e-05 1.02948851027e-05 1.72945529626e-07)
(4.10665343808e-05 1.02867467362e-05 -3.66968939971e-07)
(3.31756922395e-05 1.03020114955e-05 -8.93460713503e-07)
(2.67279831688e-05 1.02702989926e-05 -1.37083746516e-06)
(2.14763944864e-05 1.02451933192e-05 -1.74064439212e-06)
(1.72497229634e-05 1.0228218762e-05 -2.05383922566e-06)
(1.3950742718e-05 1.02130152122e-05 -2.35259186039e-06)
(1.15572260083e-05 1.01946430031e-05 -2.66759190161e-06)
(1.03357190641e-05 1.01654724223e-05 -3.10231497438e-06)