/*--------------------------------*- C++ -*----------------------------------*\
| =========                 |                                                 |
| \\      /  F ield         | OpenFOAM: The Open Source CFD Toolbox           |
|  \\    /   O peration     | Version:  3.0.1                                 |
|   \\  /    A nd           | Web:      www.OpenFOAM.org                      |
|    \\/     M anipulation  |                                                 |
\*---------------------------------------------------------------------------*/
FoamFile
{
    version     2.0;
    format      ascii;
    class       volScalarField;
    location    "8.1";
    object      ddt0(epsilon);
}
// * * * * * * * * * * * * * * * * * * * * * * * * * * * * * * * * * * * * * //

dimensions      [0 2 -4 0 0 0 0];

internalField   nonuniform List<scalar> 
7968
(
-5.68502619488e-05
-6.81744537167e-05
-7.74365600857e-05
-8.34066403065e-05
-8.71782217874e-05
-8.89082471725e-05
-8.95094222604e-05
-8.95187136735e-05
-8.95501015708e-05
-8.95997163032e-05
-8.99691529572e-05
-9.05902252516e-05
-9.10035203829e-05
-9.12523674114e-05
-9.06436284764e-05
-8.87369037624e-05
-8.49088820448e-05
-7.84233000849e-05
-6.8560597966e-05
-5.68119759924e-05
-6.82803413331e-05
-0.00011986127369
-0.000160074427109
-0.000186938380578
-0.000203355113687
-0.000212706524248
-0.000217261532824
-0.000219093173254
-0.000219955941475
-0.000220991388112
-0.000222766389771
-0.000224972970247
-0.000226525221158
-0.000226053089061
-0.000221862820607
-0.000212007791258
-0.000194121948695
-0.000165449913519
-0.000122792827996
-6.83850708554e-05
-7.77052018833e-05
-0.000159935975278
-0.000225760567119
-0.000270874826914
-0.000299662532618
-0.000316290842196
-0.000324738993002
-0.000328511515928
-0.000330406708006
-0.000332221555515
-0.000334692956536
-0.000337361581813
-0.000338807383393
-0.00033687851636
-0.00032891433086
-0.000311808991195
-0.000281877826003
-0.00023482322338
-0.000165532941422
-7.81436400691e-05
-8.37802442502e-05
-0.000186905041938
-0.000271141821253
-0.000329420744671
-0.000366815637605
-0.000388554679288
-0.000399950549849
-0.00040556100938
-0.00040872936312
-0.000411858256952
-0.000414526402259
-0.000416563444072
-0.000417387578658
-0.000414057906045
-0.000403253299674
-0.000380989464982
-0.000342601088326
-0.000282646440404
-0.000194635046904
-8.46006058632e-05
-8.7289347039e-05
-0.000203768704682
-0.000300389114158
-0.000367477585496
-0.000410499024352
-0.000435984760017
-0.00045100364669
-0.000460782067965
-0.00046641164337
-0.000470248473498
-0.000473264342368
-0.000474950821029
-0.000473498841271
-0.00046628655159
-0.000452919938369
-0.000427066206836
-0.000382981602234
-0.000314234002236
-0.000213511457194
-8.85223311273e-05
-8.89901855869e-05
-0.000213247347447
-0.000317561159624
-0.00039016748576
-0.000437126769913
-0.000467726188714
-0.000487600310392
-0.00049863330295
-0.000504991048461
-0.000509460525008
-0.000513030235892
-0.000515116117278
-0.000513419834414
-0.0005049064767
-0.000486393452703
-0.000456432990019
-0.000408620036845
-0.000333996776872
-0.000224887186398
-9.07477985706e-05
-8.95268946201e-05
-0.000217776594202
-0.00032649758284
-0.000402563056607
-0.000453654664491
-0.000489285086101
-0.000510401282505
-0.000522184473131
-0.000529196958082
-0.000534359245936
-0.000538624505617
-0.00054129021145
-0.000539768594023
-0.000530795568886
-0.000510592573911
-0.00047542594031
-0.000424154623497
-0.000345639617871
-0.000231218316528
-9.16433290946e-05
-8.94327518206e-05
-0.00021938998161
-0.000330546173216
-0.00040895025184
-0.000464914786101
-0.000501988510029
-0.000523822283201
-0.000536143864458
-0.00054372547414
-0.000549543112369
-0.000554500217494
-0.000557771833537
-0.000556547297325
-0.000547424647879
-0.000526418959789
-0.000489303639873
-0.000432656746506
-0.000352049089982
-0.000234350852222
-9.19944213652e-05
-8.921997364e-05
-0.000219764748203
-0.000332420689402
-0.000412675417528
-0.000471695860748
-0.000509555782135
-0.000531856782724
-0.000544578041851
-0.000552555955091
-0.000558829441523
-0.000564335187446
-0.000568125386463
-0.000567152393287
-0.000557961576518
-0.000536466820156
-0.00049822955841
-0.000438727360137
-0.000355576643878
-0.000235817923521
-9.20854637594e-05
-8.90456455878e-05
-0.000220066318336
-0.000333838493691
-0.000415512028502
-0.000476263477384
-0.000514655298227
-0.000537327661348
-0.000550350321901
-0.000558544997893
-0.000565028473803
-0.000570791280546
-0.000574853937053
-0.000573964741396
-0.000564653947352
-0.000542801357406
-0.000503890925107
-0.000443182904644
-0.000357748119499
-0.000236634370347
-9.20464931048e-05
-8.90394534964e-05
-0.000220978963233
-0.00033573483187
-0.000418148598106
-0.000479739176868
-0.000518596959506
-0.000541616605671
-0.000554877146661
-0.000563187805753
-0.000569650288533
-0.00057529534153
-0.000579236483277
-0.000578174535973
-0.000568626526073
-0.000546452978228
-0.000507099405
-0.000445784626479
-0.000359478190444
-0.000237438140945
-9.20552026398e-05
-8.93910000988e-05
-0.000222405083807
-0.000337782638374
-0.000420154445047
-0.000481604460694
-0.000520822709144
-0.000544152276932
-0.000557596294775
-0.000565961151192
-0.000572269186585
-0.00057751706821
-0.000580907727787
-0.000579424578731
-0.000569536044153
-0.000547094976698
-0.000507542650418
-0.000446191888688
-0.000360456688699
-0.000238163757353
-9.22388679444e-05
-8.96088957813e-05
-0.000223395694851
-0.000338625165562
-0.000420450821941
-0.000480179195128
-0.000519393693536
-0.000542896744861
-0.000556431929976
-0.000564723139498
-0.000570729055563
-0.000575388263998
-0.000578077654264
-0.000576000148898
-0.000565720585535
-0.000543137828598
-0.000503804701099
-0.00044345677421
-0.000359579978851
-0.000237928543286
-9.22482104663e-05
-8.97574118734e-05
-0.000222561875129
-0.000336160515111
-0.000416570078656
-0.000472572845348
-0.000511012285854
-0.000534349131508
-0.000547796620118
-0.000555863726915
-0.000561435701361
-0.000565497005709
-0.000567417966313
-0.00056480961402
-0.00055426687364
-0.000531890160946
-0.000493696728389
-0.000437695931514
-0.000354707956236
-0.000235368803373
-9.18354184561e-05
-8.92031889929e-05
-0.000218112613087
-0.00032750856233
-0.000404836839091
-0.000456014294936
-0.000491566214001
-0.000514048463743
-0.000527084398198
-0.000534780544149
-0.000539876028544
-0.000543373019419
-0.000544665074128
-0.000541724283996
-0.000531323560522
-0.000510112560242
-0.000475149795745
-0.000423224671138
-0.000343353087467
-0.000228937401479
-9.08339022767e-05
-8.74381817282e-05
-0.000208074556707
-0.000309416681069
-0.000381077853514
-0.000428428307486
-0.000457759766586
-0.000477353006485
-0.000489303347914
-0.000496393507337
-0.000501002395302
-0.000504054265167
-0.000504988134923
-0.000502238804223
-0.000492932266323
-0.000475865457635
-0.000445729243279
-0.000396674571542
-0.000322583704482
-0.000216752601539
-8.84947862728e-05
-8.38356426219e-05
-0.00019017740763
-0.000278336708758
-0.000340591897493
-0.000381891028953
-0.000407295612571
-0.000421866312836
-0.000429954570761
-0.000435736855678
-0.000439753911803
-0.000442518116637
-0.000443613203503
-0.000443076427604
-0.000437401098826
-0.000423186881027
-0.000396713366735
-0.000353629537296
-0.000288949954844
-0.000196706978781
-8.44676031647e-05
-7.76546895468e-05
-0.000161922124593
-0.000230540269911
-0.00027866382332
-0.000310504191216
-0.000330049584302
-0.000341120539774
-0.000347036284795
-0.000350553317113
-0.000353354110466
-0.000356081636287
-0.000358215274802
-0.000358316422255
-0.000354244481157
-0.000343329011272
-0.000322704742943
-0.000289052489167
-0.000238483901822
-0.000166339023363
-7.78897779221e-05
-6.81564248102e-05
-0.000120406292929
-0.000161871701644
-0.000190346381466
-0.000208777100529
-0.000219931392981
-0.000226062511156
-0.000229208517089
-0.000231069695645
-0.000232696743802
-0.000234554015194
-0.000236383171374
-0.000237065388393
-0.000235176370668
-0.000229068203538
-0.000217017209075
-0.000196803503364
-0.000166349794616
-0.000122564191595
-6.8074845965e-05
-5.67606864967e-05
-6.80579612693e-05
-7.74630439623e-05
-8.36128742107e-05
-8.73941590866e-05
-8.93503261169e-05
-9.02075988624e-05
-9.07336746995e-05
-9.09335023816e-05
-9.10762382884e-05
-9.13512384383e-05
-9.18788031043e-05
-9.2194765021e-05
-9.20303082517e-05
-9.09682992624e-05
-8.86994181977e-05
-8.46921515374e-05
-7.8032485281e-05
-6.81806080232e-05
-5.6611234991e-05
-6.75367634884e-05
-0.000114927694212
-0.000152836877558
-0.000179116312861
-0.000196367657247
-0.000206910437942
-0.000212809011573
-0.000215934171221
-0.000217438588569
-0.000218750570669
-0.000220413421653
-0.000222203304631
-0.000223006095236
-0.000221264846032
-0.000215879292727
-0.000205113896047
-0.000186947309644
-0.000158948378335
-0.00011834540467
-6.78905966727e-05
-0.000114888373753
-4.93980052301e-05
-6.13360418777e-05
-7.04951415784e-05
-7.6810945591e-05
-8.07957016968e-05
-8.30782048016e-05
-8.42784473237e-05
-8.4924577241e-05
-8.53794094074e-05
-8.57935591711e-05
-8.6108610325e-05
-8.60305798185e-05
-8.51690421589e-05
-8.30571744309e-05
-7.91519859022e-05
-7.28539365293e-05
-6.35863733344e-05
-5.12406839044e-05
-0.000118218094458
-0.000152812797366
-6.13270438108e-05
-7.52715956862e-05
-8.65254738042e-05
-9.44878771715e-05
-9.95663954969e-05
-0.000102473506206
-0.000103966313706
-0.000104680453833
-0.000105057003193
-0.000105288261576
-0.000105328739902
-0.000104886849734
-0.000103529813901
-0.000100710036565
-9.58174706062e-05
-8.82196785396e-05
-7.74037301512e-05
-6.36441767833e-05
-0.00015884950918
-0.000179139796819
-7.05156856264e-05
-8.66022056335e-05
-9.98456510856e-05
-0.000109321604129
-0.000115428200189
-0.000118976285694
-0.000120748571218
-0.000121632467501
-0.000121995793988
-0.000122042352415
-0.000121754925031
-0.000120911512286
-0.000119016302722
-0.000115482231944
-0.000109638611227
-0.000100805729173
-8.84778427537e-05
-7.3136016813e-05
-0.000187324175635
-0.000196448273383
-7.69157490654e-05
-9.47627699226e-05
-0.000109593673591
-0.000120305467525
-0.000127331458465
-0.000131522394296
-0.000133808228194
-0.000134820645751
-0.000135159225666
-0.000135106600179
-0.000134627475925
-0.000133377796166
-0.000130864310979
-0.000126633899087
-0.000119966378622
-0.000110115971081
-9.65385593811e-05
-7.98427277905e-05
-0.000206540677315
-0.00020703410978
-8.10197669564e-05
-0.000100148252285
-0.000116153821234
-0.000127865975997
-0.000135734720476
-0.000140548365748
-0.000143025985375
-0.0001440950653
-0.000144457635286
-0.000144424123644
-0.000143933104504
-0.000142548529574
-0.000139691686383
-0.000134775679759
-0.000127295811742
-0.000116647881418
-0.000102105078418
-8.43469093505e-05
-0.000218975102462
-0.000212918157313
-8.34363682371e-05
-0.000103429106008
-0.00012027734616
-0.000132778862072
-0.000141330958627
-0.000146375562039
-0.000148935838115
-0.000150050520472
-0.000150487499506
-0.000150568360555
-0.000150195702585
-0.000148850973277
-0.000145874504006
-0.000140600372903
-0.000132460706892
-0.000121071601663
-0.000105795948858
-8.7249209266e-05
-0.000226539296815
-0.0002158303624
-8.47593716085e-05
-0.00010531460236
-0.000122752561274
-0.000135882447496
-0.000144696604735
-0.000149832691141
-0.000152422263744
-0.000153575560448
-0.000154107687281
-0.000154346353213
-0.000154159034477
-0.000152950132226
-0.000149990284115
-0.000144560430902
-0.000136041727166
-0.000123996796986
-0.00010816622875
-8.90373072059e-05
-0.000230644408286
-0.000217171462833
-8.54803253235e-05
-0.000106405124719
-0.000124227348412
-0.000137712937814
-0.000146634806148
-0.000151803127882
-0.000154404832722
-0.000155589857885
-0.000156207161183
-0.000156590007675
-0.000156577667478
-0.000155518625913
-0.000152626850268
-0.00014714514899
-0.000138419910484
-0.000125974093566
-0.000109669164451
-9.01219279454e-05
-0.000232804095094
-0.000217910167752
-8.59620680393e-05
-0.000107097468387
-0.000125156624574
-0.000138800887807
-0.000147779726703
-0.000152978554873
-0.000155605813395
-0.000156825036753
-0.000157497576621
-0.00015796765001
-0.000158058757972
-0.000157092219443
-0.000154248913189
-0.000148749857056
-0.000139919386022
-0.000127255833667
-0.000110607602671
-9.07824060463e-05
-0.000234015727762
-0.000218899216289
-8.63778532549e-05
-0.000107592650424
-0.000125719903748
-0.000139421439812
-0.000148450701285
-0.000153706140159
-0.000156390783974
-0.000157654822668
-0.000158352975081
-0.000158833068432
-0.000158920490048
-0.000157950049918
-0.000155096064832
-0.000149573034611
-0.000140691313546
-0.000127938291487
-0.00011114886998
-9.11704053709e-05
-0.000234862624483
-0.00022001131907
-8.66519217699e-05
-0.000107793182949
-0.000125798044499
-0.000139458348952
-0.000148526055658
-0.00015385838172
-0.000156629458608
-0.000157952917274
-0.000158656931188
-0.000159080658464
-0.000159066627223
-0.000158005432949
-0.000155088761721
-0.000149541463623
-0.000140672317658
-0.000127953147457
-0.000111226204294
-9.12429970882e-05
-0.000235267934012
-0.000220448581806
-8.65106807322e-05
-0.000107396089928
-0.00012509047425
-0.000138536912163
-0.000147571493705
-0.000152958235201
-0.000155811546283
-0.000157192933324
-0.000157885617743
-0.000158217560916
-0.000158052478239
-0.000156860357752
-0.000153870238695
-0.000148332348139
-0.000139566750992
-0.000127055138133
-0.00011059004297
-9.07666710484e-05
-0.000234463445503
-0.000218499319842
-8.55203848664e-05
-0.000105918293896
-0.000123117347244
-0.000136037555985
-0.000144876094232
-0.000150236293641
-0.000153132958469
-0.000154554587108
-0.000155229102705
-0.000155473012127
-0.000155170994269
-0.000153873248155
-0.0001508660059
-0.00014544051831
-0.000136952051764
-0.000124915753424
-0.000108838964858
-8.93810954494e-05
-0.000231202023072
-0.000212840025169
-8.31762662413e-05
-0.000102742429336
-0.000119162238725
-0.000131269934718
-0.000139643174893
-0.000144833841467
-0.000147700173364
-0.000149135382069
-0.000149801842698
-0.000149995790553
-0.0001496245945
-0.000148309026959
-0.000145409046805
-0.000140279584189
-0.000132310144836
-0.000120926227468
-0.000105449338484
-8.66355716595e-05
-0.000223886028365
-0.000201781651834
-7.8925061428e-05
-9.72170975902e-05
-0.000112501956622
-0.000123679908237
-0.000131193870214
-0.00013597816753
-0.00013869676446
-0.000140107365425
-0.000140786810981
-0.000140997682403
-0.000140659657711
-0.000139477728195
-0.000136871575094
-0.000132302850849
-0.000125066502824
-0.000114422497826
-9.98255387538e-05
-8.20187012772e-05
-0.000211167242603
-0.000183439955752
-7.22236232995e-05
-8.87609644276e-05
-0.000102478588168
-0.000112471280334
-0.000119123846334
-0.000123213268723
-0.000125588180606
-0.000126905998741
-0.000127612373017
-0.000127913182544
-0.000127742261185
-0.000126878596451
-0.000124793518096
-0.000120850897667
-0.000114382902114
-0.000104705308847
-9.13627955282e-05
-7.49654974605e-05
-0.000190977826404
-0.000155693798491
-6.26333495087e-05
-7.70461896483e-05
-8.87882847753e-05
-9.72789822178e-05
-0.0001029165074
-0.000106377184982
-0.000108376838598
-0.000109523687878
-0.000110232425037
-0.000110672125628
-0.000110759629847
-0.000110215689725
-0.000108581670628
-0.000105290472439
-9.9740629248e-05
-9.13300045086e-05
-7.96052560997e-05
-6.49503574877e-05
-0.000161161796626
-0.00011616033549
-5.02207299394e-05
-6.26376772217e-05
-7.2295620866e-05
-7.91290718819e-05
-8.36312154122e-05
-8.64078091378e-05
-8.80423480996e-05
-8.90403379101e-05
-8.97332927182e-05
-9.02555215412e-05
-9.05189884476e-05
-9.02548108786e-05
-8.90541389504e-05
-8.64458702132e-05
-8.1919749565e-05
-7.49206019373e-05
-6.49339400423e-05
-5.19390953626e-05
-0.000119094624473
-6.74870575229e-05
-0.000116040517687
-0.000155538270829
-0.000183539713433
-0.000202521524208
-0.000214695373406
-0.000222024477395
-0.000225876069937
-0.000228274335368
-0.000230082951945
-0.000231774847828
-0.000233151839441
-0.000233218978558
-0.000230466614559
-0.000223683836014
-0.000211069840308
-0.000190963002708
-0.000161145670943
-0.000119063202415
-6.76962765367e-05
-7.56729789827e-05
-0.000149961036554
-0.000214372918277
-0.00026144144916
-0.000293025869392
-0.000312103553413
-0.000322113808503
-0.00032646128726
-0.000328064326676
-0.00032891746585
-0.000329876675915
-0.000330770105828
-0.000330133601872
-0.00032597651842
-0.000315990282925
-0.000297455273039
-0.000267189224858
-0.000221449001236
-0.000156288336494
-7.70467382624e-05
-0.000149920423468
-6.15742869936e-05
-7.72277458837e-05
-8.9958639035e-05
-9.88336556016e-05
-0.000104199703422
-0.000106873618956
-0.000107787084821
-0.000107773418627
-0.000107418958414
-0.000106991880604
-0.000106479986187
-0.00010559423894
-0.000103873596983
-0.000100744762743
-9.55874316739e-05
-8.77673114286e-05
-7.67748439225e-05
-6.28939785751e-05
-0.000156126789394
-0.000214488597877
-7.73073226456e-05
-9.30094583545e-05
-0.000106484005217
-0.000115980108909
-0.000121670763532
-0.000124375652661
-0.000125064013085
-0.000124620671851
-0.000123675468914
-0.000122538311415
-0.000121247784277
-0.000119561350495
-0.000117083019988
-0.000113287725337
-0.000107628062277
-9.96083596107e-05
-8.9003360189e-05
-7.68602602836e-05
-0.000221469774685
-0.000262096686483
-9.03068684102e-05
-0.000106854922674
-0.000121355083245
-0.000131614725131
-0.000137768249126
-0.000140659444679
-0.000141256425762
-0.000140611070649
-0.000139285346774
-0.00013763562329
-0.000135713288009
-0.000133307345477
-0.000130083999397
-0.000125548323165
-0.00011920718098
-0.000110640032751
-9.97686845008e-05
-8.80870815421e-05
-0.000268169630527
-0.000294707321154
-9.96854795103e-05
-0.000117056530323
-0.000132411686557
-0.000143321648229
-0.000149713847462
-0.00015300788596
-0.000153798700163
-0.000153063548504
-0.000151517664753
-0.000149597785381
-0.000147343859072
-0.000144519341477
-0.000140649576275
-0.000135368194706
-0.00012837533876
-0.000119240181571
-0.000107949761323
-9.62699963889e-05
-0.000300312853898
-0.00031527348065
-0.000105770616885
-0.000123748410008
-0.000139713670406
-0.000150916793334
-0.000158002120613
-0.000161469243757
-0.00016242054388
-0.000161694708666
-0.000160088713293
-0.000158135544567
-0.00015585291116
-0.000152931669578
-0.00014878751496
-0.000142885552559
-0.000135188050199
-0.000125493965582
-0.000113788595673
-0.000101934879726
-0.00032168873306
-0.000327082687656
-0.000109323060349
-0.000127672780436
-0.000144025364
-0.000155638125968
-0.000162667150894
-0.000166104368355
-0.000167070892619
-0.000166387273312
-0.000164856690203
-0.000163066382256
-0.000160991507276
-0.000158307091638
-0.000154350000605
-0.000148326895736
-0.000140101206441
-0.000129908418839
-0.000117802926812
-0.000105721790017
-0.000335420864385
-0.000333316230693
-0.000111203745313
-0.000129733990223
-0.000146188478811
-0.000157909901579
-0.000164690463818
-0.000167968095835
-0.000168901993684
-0.000168278767648
-0.000166901968701
-0.000165372120448
-0.000163640600123
-0.000161331253207
-0.000157704424131
-0.000151892617192
-0.000143534418014
-0.000133013884973
-0.000120527471114
-0.000108205137855
-0.000343989753328
-0.000336593494364
-0.000112159525806
-0.000130695909882
-0.000147170157663
-0.000158769249971
-0.000165362939232
-0.000168547234216
-0.000169495166261
-0.000168956575857
-0.000167738188476
-0.000166453997238
-0.000165055252398
-0.000163100265178
-0.000159774079039
-0.000154167216432
-0.000145846037195
-0.000135163677838
-0.000122415835042
-0.000109846789968
-0.000349320674434
-0.000338829938149
-0.000112733728375
-0.000131164694448
-0.000147566728082
-0.0001590082947
-0.000165523407303
-0.000168737135176
-0.000169787134948
-0.000169367498186
-0.000168281341258
-0.000167163669375
-0.000165982193401
-0.000164258827524
-0.00016112224582
-0.000155642927829
-0.000147371256014
-0.000136635041413
-0.000123742074138
-0.000110972382217
-0.00035281917755
-0.000340985024391
-0.000113173689021
-0.000131427455479
-0.000147672444826
-0.000158969512083
-0.000165444168971
-0.000168736874928
-0.000169944940668
-0.000169688618509
-0.000168727951534
-0.000167695368747
-0.000166580203119
-0.000164923413538
-0.000161851173534
-0.000156440630249
-0.00014823150722
-0.000137509134079
-0.000124562812312
-0.000111678430367
-0.000355063944991
-0.000342690740201
-0.000113361468876
-0.00013137544515
-0.000147390957362
-0.000158572424781
-0.000165037417768
-0.000168422970536
-0.000169804961163
-0.000169743478807
-0.000168917767166
-0.000167917049696
-0.000166746821408
-0.000165010308714
-0.000161884148972
-0.000156486375152
-0.000148350684544
-0.000137704262778
-0.000124786465866
-0.000111894778144
-0.000355951524696
-0.000342484264849
-0.000112918045618
-0.00013062483532
-0.000146368080275
-0.000157421477883
-0.000163822355719
-0.000167177394098
-0.000168623337037
-0.000168712131644
-0.000168012159806
-0.000167028711846
-0.000165753506099
-0.000163878138231
-0.000160686952827
-0.000155358552248
-0.000147408483367
-0.000136958061487
-0.000124175653297
-0.00011135148301
-0.000354300259983
-0.000338028082084
-0.000111227901598
-0.000128557010827
-0.00014395969003
-0.000154902470989
-0.000161256467291
-0.000164434323003
-0.000165783317765
-0.000165904241205
-0.000165269183363
-0.000164293317866
-0.000162943384136
-0.000160978745691
-0.00015779676021
-0.000152650027762
-0.00014504461848
-0.000134914634574
-0.00012236529909
-0.000109656852254
-0.000348383332808
-0.000326607962793
-0.000107579782881
-0.000124453725928
-0.000139476085386
-0.000150196189445
-0.000156673436639
-0.000159795976362
-0.000160969437489
-0.000161019708044
-0.000160394349051
-0.000159412118851
-0.000158042266503
-0.000156071729669
-0.00015296584896
-0.000148055501259
-0.000140834782213
-0.000131075201509
-0.00011885251991
-0.000106249060013
-0.000335837727989
-0.000305258524084
-0.00010124657836
-0.000117553878166
-0.000132088137893
-0.000142469827764
-0.000148958449457
-0.000152251909489
-0.000153458831403
-0.00015347434152
-0.000152868851881
-0.000151930277645
-0.000150634413464
-0.000148742802042
-0.000145752587999
-0.000141106426144
-0.000134307678353
-0.00012495125988
-0.00011307570377
-0.000100527570203
-0.000314024780452
-0.000271034138467
-9.16369629148e-05
-0.000107296641632
-0.000121200938306
-0.000131181693664
-0.000137398931318
-0.000140682111335
-0.000142032969037
-0.00014215894756
-0.000141697523365
-0.000140943352699
-0.000139881889748
-0.000138247470988
-0.000135608357315
-0.000131388857805
-0.000125046702649
-0.000116132348081
-0.000104522362177
-9.18820105559e-05
-0.000279875290562
-0.000221202705048
-7.85306647046e-05
-9.36820015645e-05
-0.000106859338788
-0.000116363629729
-0.000122356100676
-0.000125599583785
-0.000126995695213
-0.000127337566244
-0.000127227339482
-0.00012682948167
-0.000126121188874
-0.000124927900458
-0.000122758830882
-0.000119004946652
-0.000113098202249
-0.000104502205479
-9.30211735643e-05
-7.98652768561e-05
-0.000229838927819
-0.000153705298657
-6.27693636352e-05
-7.83972662164e-05
-9.12242926301e-05
-0.000100399950491
-0.000106267201852
-0.000109583261929
-0.000111203779716
-0.000111881175201
-0.000112142942614
-0.00011222247311
-0.000112055655001
-0.00011132598974
-0.000109548168117
-0.000106124737173
-0.000100419068388
-9.18058185141e-05
-7.98298766268e-05
-6.49061490959e-05
-0.00016024516028
-7.60175419134e-05
-0.000153526524541
-0.000220824675764
-0.000270573892798
-0.000304875405129
-0.000326700895199
-0.000339355643969
-0.000346070628938
-0.000349585353482
-0.000351758462202
-0.000353435938828
-0.000354286640489
-0.000352999448912
-0.000347457853785
-0.000335247293807
-0.000313686902119
-0.000279690160725
-0.000229732060039
-0.000160175544197
-7.71286859366e-05
-8.04634884942e-05
-0.000183855401501
-0.00027976465616
-0.000350266906773
-0.000395596452079
-0.000419999640364
-0.000429271662311
-0.000429333503857
-0.000425248135195
-0.000420402782183
-0.000416265972304
-0.000412791583479
-0.000408496852533
-0.00040082740215
-0.000386662368254
-0.000362416728522
-0.000323792884414
-0.00026565424032
-0.000182834653709
-8.32085723576e-05
-0.000183972444255
-7.80927196901e-05
-0.000100511401384
-0.000118274355506
-0.000129878667455
-0.000135939908058
-0.000137832345354
-0.000137055964407
-0.000134930861662
-0.000132357970322
-0.000129781422721
-0.000127272757066
-0.000124634097554
-0.000121270884391
-0.000116599410124
-0.000109892556843
-0.00010043902794
-8.76679163078e-05
-7.19640926507e-05
-0.000182703419056
-0.000280761793509
-0.000100886353116
-0.000121405400698
-0.000138191812059
-0.000149066792214
-0.000154570019131
-0.000155990471916
-0.000154757846636
-0.000152030726582
-0.000148638095681
-0.000144994435996
-0.000141234378878
-0.000137231781165
-0.000132658739133
-0.000126986992444
-0.000119813372869
-0.000110699437143
-9.95212500625e-05
-8.7608636948e-05
-0.000265698973538
-0.000353444768606
-0.000119475403451
-0.000139083894551
-0.000155377028805
-0.000165893897752
-0.00017118106071
-0.00017225433733
-0.000171507226049
-0.000168749909284
-0.000164954870253
-0.000160682131289
-0.000156050559753
-0.000150957910283
-0.000145071200499
-0.000138151555395
-0.000130157358128
-0.000120843966717
-0.000110221263843
-0.000100198643162
-0.000324640085871
-0.000402447171964
-0.000132384776468
-0.000151269662458
-0.000167111088738
-0.000177361196437
-0.000182604248853
-0.000184594506742
-0.00018409918836
-0.000181545439655
-0.000177633445589
-0.000173113108324
-0.000168073239698
-0.000162566444041
-0.000155997897443
-0.000147917338112
-0.000138621982595
-0.000128717988873
-0.000118256100017
-0.000109249481729
-0.000364664837852
-0.000431898503506
-0.00014016232156
-0.000158373534538
-0.000173704278917
-0.000183215024803
-0.000188543253322
-0.000190764443009
-0.00019081861762
-0.000188680385363
-0.00018492854755
-0.000180557813004
-0.000175580888818
-0.000170234992813
-0.000163827161477
-0.000155443244719
-0.000145342705617
-0.000134506552925
-0.000123879317959
-0.000115422074408
-0.000391015979762
-0.000447282728978
-0.000144095796455
-0.000161571597257
-0.000176114563432
-0.000184755389591
-0.000189377084576
-0.000191523035759
-0.000191983422877
-0.000190311343583
-0.000186941474965
-0.000182993144839
-0.000178528696842
-0.000173808819778
-0.000168156190602
-0.000160228147625
-0.000150086416593
-0.00013873212491
-0.000127733948854
-0.000119547988978
-0.000408066961271
-0.000454054337447
-0.000145577571449
-0.000162195947012
-0.00017539163168
-0.000183086809634
-0.000186805536507
-0.000188796155587
-0.000189633896591
-0.000188482548152
-0.000185665438428
-0.000182325406578
-0.000178566022251
-0.000174619200447
-0.00016978930073
-0.000162669172859
-0.000152967076561
-0.000141664090146
-0.000130467411972
-0.000122354532639
-0.00041917532412
-0.000456774590841
-0.000145845436178
-0.000161531949452
-0.000173738720784
-0.000180263073866
-0.000183364325641
-0.000185462878079
-0.000186876156453
-0.000186359321511
-0.000184125524865
-0.000181324165213
-0.000178198734734
-0.000174902039662
-0.000170665999492
-0.000164102432077
-0.000154832256105
-0.000143753387743
-0.000132556176789
-0.000124446180395
-0.000426897983309
-0.000458556218803
-0.000145782268362
-0.000160533939189
-0.000171795797666
-0.00017748542858
-0.00018028602803
-0.000182754667628
-0.000184940358256
-0.000185148961103
-0.000183448117498
-0.000181033847118
-0.000178319493328
-0.000175423537067
-0.000171509871924
-0.000165221849272
-0.000156195947139
-0.000145303483168
-0.00013419775964
-0.000126068861878
-0.000432621034012
-0.000460798389764
-0.000145791561309
-0.000159727481827
-0.000170153568021
-0.000175097905046
-0.000177575632724
-0.000180344682648
-0.000183285208435
-0.000184288192382
-0.000183164558878
-0.000181070138726
-0.000178552595649
-0.000175783868847
-0.000171965552352
-0.000165820989446
-0.000157013790403
-0.00014636240794
-0.000135415854454
-0.00012730969716
-0.000437008335875
-0.000462910142283
-0.000145758355514
-0.000159107667902
-0.000168921391954
-0.000173273142829
-0.000175388409204
-0.00017813685751
-0.000181515366773
-0.000183233139093
-0.000182751540671
-0.000181011546472
-0.000178569076901
-0.000175713799547
-0.000171813066555
-0.00016572567898
-0.000157142010857
-0.000146796482784
-0.000136082983452
-0.000128046521746
-0.000439753853237
-0.000462823012922
-0.000145175503448
-0.000158277951753
-0.000167762675331
-0.000171637392344
-0.000173039202372
-0.000175075358889
-0.000178135177193
-0.00018016635664
-0.000180231566876
-0.000178965863681
-0.000176680650265
-0.000173780464957
-0.000169903680139
-0.000164094841058
-0.000156024538313
-0.000146232812165
-0.000135889765647
-0.000127935060821
-0.00043929975538
-0.000456979900132
-0.000143134072392
-0.000156383528983
-0.00016605881396
-0.000169943418398
-0.000170662158349
-0.000171384646969
-0.000173248784864
-0.000174810989399
-0.000175006401471
-0.000174091523752
-0.000172102335639
-0.000169416115831
-0.000165861107726
-0.000160630673283
-0.000153369689889
-0.000144300828514
-0.000134425208554
-0.000126420287315
-0.000433286957887
-0.00044102713202
-0.000138536998
-0.000152419071825
-0.000162995895127
-0.000167823071391
-0.000168547855979
-0.00016824503539
-0.00016855916948
-0.00016900788808
-0.000168776566171
-0.000167830314309
-0.000166058706133
-0.000163668316822
-0.000160507301392
-0.000155836914446
-0.000149277610791
-0.000140859002089
-0.000131191090852
-0.000122937119849
-0.00041881951897
-0.0004101938285
-0.000130215205728
-0.000145164944012
-0.000156994414394
-0.000163334196375
-0.000165272971712
-0.00016489378703
-0.000164183594197
-0.000163465842285
-0.000162480521734
-0.00016117643049
-0.000159392371064
-0.000157129342004
-0.00015413953758
-0.000149755799534
-0.000143592573167
-0.000135524869645
-0.000125709658341
-0.000116713541385
-0.000392134193232
-0.000359815837148
-0.000117191155281
-0.00013354237948
-0.0001468471162
-0.000154838145537
-0.000158349889031
-0.000159010608734
-0.000158064301678
-0.00015668190378
-0.000155106273296
-0.000153434147927
-0.000151562628208
-0.00014932264247
-0.000146360761567
-0.00014207956478
-0.00013588488657
-0.00012768433516
-0.000117362234393
-0.000106989630994
-0.000348861658816
-0.000286147479144