/*--------------------------------*- C++ -*----------------------------------*\
| =========                 |                                                 |
| \\      /  F ield         | OpenFOAM: The Open Source CFD Toolbox           |
|  \\    /   O peration     | Version:  3.0.1                                 |
|   \\  /    A nd           | Web:      www.OpenFOAM.org                      |
|    \\/     M anipulation  |                                                 |
\*---------------------------------------------------------------------------*/
FoamFile
{
    version     2.0;
    format      ascii;
    class       volScalarField;
    location    "8.1";
    object      p_rgh;
}
// * * * * * * * * * * * * * * * * * * * * * * * * * * * * * * * * * * * * * //

dimensions      [1 -1 -2 0 0 0 0];

internalField   nonuniform List<scalar> 
7968
(
4949.90726986
4949.91722628
4949.92657803
4949.93936842
4949.95412519
4949.97137412
4949.99142929
4950.01344091
4950.03726176
4950.06184818
4950.08643117
4950.11042612
4950.1332057
4950.15442376
4950.17380009
4950.19090585
4950.2050406
4950.21516675
4950.22210928
4950.22349766
4949.91458729
4949.92938338
4949.94086172
4949.95548345
4949.97100237
4949.98827919
4950.00781101
4950.02962674
4950.05317901
4950.07755708
4950.10199485
4950.12586212
4950.14862388
4950.16995052
4950.18945561
4950.20638352
4950.21980528
4950.22821599
4950.23309262
4950.23028139
4949.92225709
4949.93968071
4949.95277296
4949.96827708
4949.98327799
4949.99942052
4950.01754622
4950.0379324
4950.06025538
4950.08378887
4950.10782811
4950.1317246
4950.15494089
4950.17695878
4950.19715974
4950.21458395
4950.22800922
4950.2355097
4950.23910573
4950.23463518
4949.93342441
4949.95296705
4949.96708251
4949.98265272
4949.99671863
4950.01128597
4950.02766521
4950.04644113
4950.06734863
4950.08979103
4950.11320861
4950.13693629
4950.16047109
4950.18298424
4950.2039029
4950.22203693
4950.23588074
4950.24318128
4950.24604163
4950.24033722
4949.94675763
4949.96698497
4949.98097769
4949.99570961
4950.00847003
4950.021373
4950.0360102
4950.05307431
4950.07255335
4950.09392276
4950.11660918
4950.13997215
4950.16342519
4950.18628069
4950.2077732
4950.22657495
4950.2410564
4950.24891735
4950.2521363
4950.24628148
4949.96262594
4949.98291718
4949.99606503
4950.00942324
4950.02060198
4950.03171636
4950.04450721
4950.05987179
4950.07789383
4950.0981093
4950.11995368
4950.14280571
4950.16608433
4950.18910911
4950.21104247
4950.23059641
4950.24580379
4950.25460957
4950.25865485
4950.25351134
4949.981131
4950.00112081
4950.01308722
4950.02491435
4950.03450547
4950.04385019
4950.05491046
4950.06876612
4950.08547404
4950.10457085
4950.12550834
4950.14769057
4950.17057697
4950.19351142
4950.21569342
4950.23572035
4950.25173844
4950.26159675
4950.26675715
4950.26249267
4950.00167902
4950.02150377
4950.03227704
4950.04269652
4950.0508068
4950.05860108
4950.06823187
4950.08084454
4950.09645369
4950.11454519
4950.13453602
4950.15586639
4950.17813698
4950.20072643
4950.22286659
4950.24316326
4950.25968515
4950.27051924
4950.27672539
4950.27287757
4950.023433
4950.04352226
4950.05332993
4950.06267157
4950.06949928
4950.07603512
4950.08450678
4950.09610984
4950.11096687
4950.12832413
4950.14734037
4950.16754952
4950.18890417
4950.2109924
4950.23289219
4950.25320791
4950.27004066
4950.28155129
4950.28848876
4950.28496621
4950.04632142
4950.06638063
4950.07555192
4950.08408685
4950.09010334
4950.09574088
4950.10332619
4950.11410684
4950.12833538
4950.14491298
4950.16301539
4950.18227837
4950.20270183
4950.22409675
4950.24557024
4950.26563301
4950.28242762
4950.29409908
4950.30157807
4950.29830371
4950.06925329
4950.08930461
4950.09828477
4950.10649583
4950.11204849
4950.11715173
4950.12412043
4950.13420511
4950.14766299
4950.16343608
4950.18075199
4950.19928924
4950.21899562
4950.23970831
4950.26056519
4950.28010595
4950.29652689
4950.30799038
4950.3154831
4950.31248449
4950.09152677
4950.11165718
4950.12088183
4950.12920873
4950.13469374
4950.13963987
4950.14627952
4950.15582223
4950.16842919
4950.18343719
4950.20013515
4950.21812233
4950.23732742
4950.25740503
4950.27745795
4950.29622392
4950.31195743
4950.32287615
4950.32984002
4950.32694358
4950.11323254
4950.1330689
4950.14282438
4950.15154979
4950.15742201
4950.16257967
4950.16919444
4950.17844524
4950.19043202
4950.20476379
4950.22096745
4950.23857405
4950.25731809
4950.27659986
4950.29572185
4950.31350532
4950.32828684
4950.3382903
4950.34441533
4950.34174506
4950.13321202
4950.1530797
4950.16361442
4950.17308693
4950.17957471
4950.18528048
4950.19219192
4950.20146005
4950.21327293
4950.22727728
4950.2430615
4950.26020876
4950.27826682
4950.29667698
4950.31475912
4950.33138946
4950.34506572
4950.35382507
4950.35897886
4950.35644809
4950.15125264
4950.17121532
4950.18256041
4950.19295372
4950.20027796
4950.20676907
4950.21434169
4950.22397723
4950.23592347
4950.24984809
4950.26534585
4950.28197526
4950.29930128
4950.3167737
4950.33370148
4950.34903732
4950.36146671
4950.368993
4950.37308868
4950.37061913
4950.16705397
4950.18672631
4950.19859699
4950.20983074
4950.21806936
4950.22555617
4950.2340079
4950.2443408
4950.25670289
4950.27076865
4950.28611824
4950.30231109
4950.31892652
4950.3354353
4950.35113981
4950.36525647
4950.37640455
4950.38278877
4950.38601101
4950.38307089
4950.17983001
4950.19862859
4950.21038268
4950.22203753
4950.23106619
4950.23957305
4950.24908422
4950.26035228
4950.27328924
4950.28771085
4950.30307727
4950.3189523
4950.33501867
4950.35069697
4950.3653039
4950.37821424
4950.38832817
4950.39388172
4950.39655794
4950.39385947
4950.18875797
4950.20536898
4950.21594238
4950.22725984
4950.23685346
4950.24646746
4950.25723499
4950.26963025
4950.28358257
4950.298612
4950.31416448
4950.32980557
4950.34520778
4950.36002094
4950.37374353
4950.38572925
4950.3951744
4950.40053592
4950.40345315
4950.4015886
4950.19465618
4950.20863656
4950.21751958
4950.22786229
4950.2377244
4950.24813586
4950.26007153
4950.27368637
4950.28864556
4950.30429011
4950.32007349
4950.33559913
4950.35051716
4950.36454218
4950.37759924
4950.38899649
4950.39829825
4950.40403875
4950.40761331
4950.40659915
4950.19484351
4950.20346103
4950.21019395
4950.21884851
4950.22824447
4950.23916475
4950.25183176
4950.26610086
4950.2815297
4950.29760324
4950.31380144
4950.32974635
4950.34502612
4950.35889597
4950.37243528
4950.38420542
4950.39375194
4950.40068629
4950.40543293
4950.40657532
4949.88966102
4949.89717795
4949.90499822
4949.91730069
4949.9332432
4949.95256095
4949.97474473
4949.99939789
4950.02511732
4950.05098324
4950.07623937
4950.10029872
4950.12263603
4950.14314394
4950.16184725
4950.17843061
4950.19271753
4950.2042912
4950.21347185
4950.21737803
4949.89426028
4949.90614282
4949.91423141
4949.92832545
4949.9469808
4949.96942163
4949.99442763
4950.02118543
4950.04841003
4950.07494324
4950.10004175
4950.12317923
4950.14399186
4950.16243931
4950.17866343
4950.19259055
4950.20439381
4950.21400829
4950.22254495
4950.22285554
4949.8998902
4949.91242505
4949.91876574
4949.93306875
4949.95286668
4949.97660033
4950.00268593
4950.03011525
4950.05765523
4950.0841068
4950.10874729
4950.13109034
4950.1508472
4950.16813209
4950.1830241
4950.19558791
4950.20623729
4950.21546565
4950.2255632
4950.22590818
4949.909935
4949.92459834
4949.9312417
4949.94679621
4949.96812233
4949.99305187
4950.01982199
4950.04741487
4950.07496188
4950.10092244
4950.1247552
4950.1460155
4950.16430782
4950.18056825
4950.19408172
4950.2050924
4950.21411395
4950.22209914
4950.23201097
4950.23116018
4949.92366901
4949.94119775
4949.94899031
4949.96606367
4949.98900255
4950.01514692
4950.04273749
4950.07044921
4950.09732093
4950.12241141
4950.14523401
4950.16546706
4950.18288475
4950.19750886
4950.20912442
4950.21840912
4950.22560343
4950.23199467
4950.24082085
4950.23798635
4949.940882
4949.96152591
4949.97056738
4949.98885978
4950.01307585
4950.0402051
4950.06798268
4950.09552341
4950.12176999
4950.14592856
4950.16766878
4950.18676787
4950.20300018
4950.21624859
4950.22658317
4950.23394984
4950.23948118
4950.24443239
4950.25188871
4950.24671239
4949.96096758
4949.9844609
4949.99457638
4950.0136412
4950.03869945
4950.06611582
4950.09378196
4950.1209143
4950.14642086
4950.16956364
4950.19019733
4950.20820167
4950.22332177
4950.23538781
4950.24451557
4950.25076674
4950.25469362
4950.25852307
4950.26468925
4950.2571677
4949.9834288
4950.00920774
4950.02006151
4950.03939668
4950.06476215
4950.09216529
4950.11949455
4950.14606622
4950.17063582
4950.19258682
4950.21208995
4950.2291272
4950.24333654
4950.25443045
4950.26258577
4950.26792115
4950.27119403
4950.27379238
4950.27893146
4950.26966547
4950.00750283
4950.03458844
4950.04581551
4950.06501808
4950.09034475
4950.11743863
4950.14420715
4950.16993268
4950.19302645
4950.21347541
4950.2318252
4950.24817396
4950.26204149
4950.27253049
4950.28006616
4950.28483745
4950.2875774
4950.28941781
4950.29391131
4950.28346694
4950.0315661
4950.05942108
4950.07075769
4950.08977563
4950.1146097
4950.14116213
4950.1672183
4950.19197526
4950.21371335
4950.23298465
4950.25026578
4950.26576587
4950.27919085
4950.28936048
4950.29651091
4950.30096963
4950.30344207
4950.30514843
4950.30887003
4950.29799292
4950.05514598
4950.08295179
4950.09405446
4950.11258054
4950.13689744
4950.16280279
4950.18811033
4950.21203001
4950.23287556
4950.25123633
4950.26764769
4950.28238183
4950.29518822
4950.30493453
4950.31175981
4950.31601117
4950.31834869
4950.31998667
4950.32346137
4950.31279481
4950.07770699
4950.10456404
4950.11510803
4950.13289415
4950.15666753
4950.18185227
4950.20642417
4950.22970561
4950.25018968
4950.26799265
4950.28380165
4950.29792213
4950.31000424
4950.3191375
4950.32566324
4950.32977079
4950.33205605
4950.33355619
4950.33736023
4950.32739686
4950.09843189
4950.12387114
4950.1336725
4950.15092164
4950.17357137
4950.19784944
4950.22163862
4950.24430022
4950.26470871
4950.28241119
4950.29785067
4950.31136496
4950.32264591
4950.33145452
4950.33787067
4950.34202383
4950.34444679
4950.3461144
4950.3504486
4950.34180742
4950.11768816
4950.14086001
4950.14961623
4950.16592247
4950.18733923
4950.21052651
4950.23345848
4950.25540568
4950.27544294
4950.29304062
4950.30835886
4950.32157848
4950.33267126
4950.34151038
4950.3481289
4950.3526355
4950.35536456
4950.3577581
4950.36264746
4950.35580925
4950.13520097
4950.15561678
4950.16306029
4950.17802769
4950.19782234
4950.2197874
4950.24178312
4950.26303992
4950.28270135
4950.30020302
4950.31552558
4950.32878209
4950.3400257
4950.34920841
4950.35636649
4950.36153967
4950.36498691
4950.3682616
4950.37392346
4950.36915765
4950.15059987
4950.16802967
4950.17405045
4950.18737654
4950.20529724
4950.22556484
4950.24650505
4950.26704277
4950.28644772
4950.30400294
4950.31954912
4950.33312123
4950.34477623
4950.35458088
4950.36254224
4950.36849922
4950.37326663
4950.37752417
4950.38408588
4950.38174695
4950.16373907
4950.17836432
4950.18308618
4950.1946195
4950.21050756
4950.22899783
4950.24855067
4950.26831342
4950.28771367
4950.30541991
4950.32131925
4950.33536364
4950.34745583
4950.35793462
4950.36685368
4950.37416945
4950.38021994
4950.3855641
4950.39285974
4950.39245866
4950.17433898
4950.18669537
4950.19085914
4950.2009486
4950.21503515
4950.23194466
4950.25036974
4950.2694766
4950.28837798
4950.30611402
4950.32235169
4950.33694864
4950.34983049
4950.36111632
4950.370912
4950.37926583
4950.3864198
4950.39261521
4950.39999948
4950.40076486
4950.18272267
4950.19405917
4950.19961062
4950.20933193
4950.22212585
4950.23753107
4950.2546459
4950.27283291
4950.29123062
4950.30891468
4950.32539119
4950.34045346
4950.35400704
4950.36613001
4950.37674248
4950.38595611
4950.39383306
4950.40020671
4950.40628027
4950.40699324
4950.18601177
4950.19288029
4950.19804817
4950.20615967
4950.21647944
4950.22908892
4950.24364334
4950.2597673
4950.27698442
4950.29436818
4950.31132148
4950.32752522
4950.34278537
4950.35728844
4950.36997557
4950.38141792
4950.39121625
4950.39901499
4950.40528046
4950.40799205
4949.87134971
4949.87857428
4949.88606668
4949.8984592
4949.91521755
4949.93602395
4949.96018877
4949.98688999
4950.01483018
4950.04274619
4950.0697389
4950.09516079
4950.11857889
4950.13986395
4950.15913421
4950.17636114
4950.19145023
4950.20418501
4950.21460966
4950.21941219
4949.87512886
4949.89140653
4949.90165132
4949.91707259
4949.93803703
4949.96318782
4949.99111012
4950.02047772
4950.04999453
4950.07858978
4950.1054178
4950.12985451
4950.15154349
4950.17034383
4950.18636602
4950.19979467
4950.211033
4950.22040732
4950.22763945
4950.22500962
4949.87997375
4949.89972707
4949.90821679
4949.9222905
4949.94354612
4949.96996876
4949.99941478
4950.03018724
4950.06064721
4950.08948356
4950.11589301
4950.13936392
4950.15965618
4950.17674399
4950.19104434
4950.20302489
4950.21349657
4950.22331672
4950.23195932
4950.2273793
4949.88975633
4949.91301142
4949.92047798
4949.93393482
4949.95579025
4949.983307
4950.01364983
4950.04499072
4950.07531232
4950.10369081
4950.12933181
4950.15181801
4950.17107609
4950.18640639
4950.19909048
4950.20955752
4950.21914037
4950.22919076
4950.23876977
4950.23209608
4949.90402064
4949.93174008
4949.93951667
4949.95357645
4949.97661107
4950.00531618
4950.03634081
4950.0678546
4950.09805622
4950.12577785
4950.15042079
4950.17163947
4950.18925976
4950.20321706
4950.21420124
4950.22251699
4950.23040783
4950.23952436
4950.2486163
4950.23876058
4949.92237266
4949.95453419
4949.96348646
4949.97856662
4950.002718
4950.03227332
4950.06404306
4950.09568658
4950.12540415
4950.15217248
4950.17564206
4950.19558458
4950.21182761
4950.22429072
4950.23332015
4950.23987899
4950.24578109
4950.25331999
4950.26100818
4950.24768744
4949.94415918
4949.9800128
4949.99045102
4950.00639391
4950.03122062
4950.06143698
4950.09373509
4950.12523439
4950.15413515
4950.17967728
4950.20180099
4950.22040059
4950.23533962
4950.24652102
4950.25417413
4950.25905081
4950.26346511
4950.26926895
4950.275238
4950.2588706
4949.96856125
4950.00697758
4950.01887706
4950.03540777
4950.06047315
4950.09089389
4950.1232404
4950.15416268
4950.18199924
4950.20618447
4950.22691348
4950.24420566
4950.25798393
4950.26816116
4950.27486897
4950.27863409
4950.28156139
4950.28629196
4950.29067861
4950.27210445
4949.99435081
4950.03431011
4950.04718118
4950.06391534
4950.08891357
4950.119092
4950.15098298
4950.18098078
4950.20771818
4950.23066836
4950.2500978
4950.26618666
4950.27893363
4950.28833455
4950.29439672
4950.29749402
4950.29957795
4950.30362976
4950.30656483
4950.28678425
4950.02015291
4950.06085695
4950.07411338
4950.09064914
4950.11535566
4950.14500613
4950.1762059
4950.20520177
4950.23093124
4950.25273218
4950.27104265
4950.28615324
4950.29805831
4950.30680268
4950.3123665
4950.31503713
4950.31664466
4950.32000778
4950.32232671
4950.30209256
4950.04522189
4950.08582445
4950.09884063
4950.11494718
4950.13904035
4950.16797912
4950.19838737
4950.22648923
4950.251289
4950.27216566
4950.2896047
4950.30394447
4950.3151897
4950.32339998
4950.32856772
4950.33095296
4950.33231029
4950.33533165
4950.33747096
4950.31752365
4950.06887247
4950.10845174
4950.12068627
4950.13617794
4950.15936567
4950.18746208
4950.21700893
4950.2444101
4950.26845319
4950.2887364
4950.30564398
4950.31943722
4950.33019539
4950.33798981
4950.34282955
4950.34504243
4950.34635191
4950.34942953
4950.35174865
4950.3327276
4950.0906373
4950.1283829
4950.13932305
4950.15365387
4950.17595859
4950.20302663
4950.23158613
4950.25830755
4950.2817791
4950.30162995
4950.31823854
4950.3317634
4950.3423444
4950.34995688
4950.35470331
4950.3570109
4950.35861357
4950.36200344
4950.36485571
4950.34757194
4950.11050307
4950.14549498
4950.15479455
4950.16789786
4950.18891841
4950.21463245
4950.24190942
4950.26781768
4950.29095592
4950.31075429
4950.32735291
4950.34087967
4950.35145445
4950.35909654
4950.36401634
4950.36678836
4950.369183
4950.37308664
4950.37713111
4950.36216799
4950.12847966
4950.15983689
4950.16741362
4950.17909055
4950.19853121
4950.22267896
4950.24834265
4950.27328563
4950.29601703
4950.31577077
4950.3324792
4950.3462167
4950.35709374
4950.36517243
4950.37074467
4950.37455684
4950.37820186
4950.38297872
4950.38822651
4950.37631976
4950.14445507
4950.17156412
4950.17770346
4950.18794067
4950.20568058
4950.22805756
4950.25210234
4950.27594893
4950.29814984
4950.31781917
4950.33469884
4950.34878246
4950.36017635
4950.36902569
4950.37574271
4950.38104337
4950.38594368
4950.39176486
4950.39805366
4950.38954757
4950.15835707
4950.18120489
4950.18659066
4950.1958912
4950.21196023
4950.23253996
4950.25512453
4950.27791786
4950.29945494
4950.31897076
4950.33606389
4950.35062084
4950.36276908
4950.37270115
4950.38063294
4950.38723839
4950.39334809
4950.39979484
4950.40652398
4950.40114067
4950.17010559
4950.1892826
4950.19512153
4950.2046131
4950.21966278
4950.23866551
4950.25976588
4950.28147754
4950.30254018
4950.3218367
4950.3392357
4950.35432957
4950.36717057
4950.37794384
4950.38697602
4950.39456122
4950.40124398
4950.40750578
4950.41360493
4950.41038199
4950.17977731
4950.19524952
4950.20237038
4950.21281949
4950.22724047
4950.24468266
4950.26400508
4950.28417232
4950.30410366
4950.32307194
4950.34058135
4950.35632247
4950.37020298
4950.38226347
4950.39251598
4950.40111802
4950.40829442
4950.4141903
4950.41912812
4950.41739469
4950.18415029
4950.19089529
4950.19541554
4950.20315643
4950.21368676
4950.22705289
4950.24287774
4950.26057984
4950.27935644
4950.29820659
4950.31642386
4950.33363956
4950.34963758
4950.36445053
4950.37777557
4950.38971154
4950.40003922
4950.40850005
4950.41537552
4950.41818959
4949.84123155
4949.84702196
4949.85502688
4949.86860783
4949.88780495
4949.91186864
4949.93979925
4949.97025818
4950.00176899
4950.03290172
4950.06257933
4950.09000158
4950.11473581
4950.13674494
4950.15629838
4950.17366941
4950.1891064
4950.20273179
4950.21424577
4950.221022
4949.84290059
4949.86017557
4949.87193616
4949.88871068
4949.91231032
4949.94105198
4949.97324052
4950.00712427
4950.04092986
4950.0731961
4950.10291965
4950.12940829
4950.15231117
4950.17161253
4950.18766525
4950.20093241
4950.21197961
4950.22147507
4950.2280233
4950.22558891
4949.84764625
4949.86972516
4949.88152979
4949.89732778
4949.92117998
4949.95075658
4949.98378481
4950.01827808
4950.05243066
4950.08467166
4950.11403637
4950.13986725
4950.16190068
4950.18012
4950.19493925
4950.2069915
4950.21716203
4950.22651302
4950.23275362
4950.22750635
4949.85819937
4949.88402815
4949.89533801
4949.91009805
4949.93382362
4949.96364712
4949.99704852
4950.03146731
4950.06520613
4950.09674934
4950.12521544
4950.15005841
4950.17110038
4950.18832761
4950.20200307
4950.21308419
4950.22283092
4950.23276295
4950.23972585
4950.23198508
4949.87464265
4949.90501585
4949.91683086
4949.93151169
4949.95549156
4949.98601204
4950.02006178
4950.05461893
4950.08761275
4950.11789915
4950.14493062
4950.16827362
4950.18776414
4950.20346762
4950.21591283
4950.22581474
4950.23449799
4950.24401756
4950.25058892
4950.23914359
4949.89598612
4949.93094106
4949.94355339
4949.95838689
4949.98318813
4950.0151305
4950.05018345
4950.08434604
4950.11596505
4950.14443623
4950.16961799
4950.19119697
4950.20900502
4950.22308117
4950.23407037
4950.24277497
4950.25053143
4950.25906401
4950.26460533
4950.24914522
4949.92115419
4949.96019303
4949.97354116
4949.98859949
4950.01428979
4950.04748304
4950.08280362
4950.11582124
4950.14561273
4950.172032
4950.19533923
4950.21528593
4950.23167596
4950.2443733
4950.25409363
4950.26182558
4950.26867924
4950.27643092
4950.28084127
4950.26187269
4949.94886788
4949.99114875
4950.00507722
4950.02025856
4950.04645464
4950.07985663
4950.11458258
4950.14575507
4950.17338683
4950.19766292
4950.21928409
4950.23796674
4950.25347737
4950.26543397
4950.27438605
4950.28147663
4950.28770592
4950.29488862
4950.29829744
4950.27676509
4949.97782054
4950.02219071
4950.03650152
4950.05155306
4950.07764124
4950.1105014
4950.14418186
4950.17312785
4950.19874734
4950.22128568
4950.24151876
4950.25928161
4950.27407757
4950.28559461
4950.29413085
4950.30082377
4950.30661843
4950.31325498
4950.31595052
4950.29292988
4950.00633431
4950.05182407
4950.06630589
4950.08102353
4950.10661342
4950.13872845
4950.17151901
4950.1985677
4950.22276445
4950.24403714
4950.2631716
4950.28001648
4950.29395755
4950.30489161
4950.31297896
4950.31927951
4950.32468034
4950.33083689
4950.3331807
4950.30949606
4950.03367815
4950.07916478
4950.09339736
4950.1076391
4950.13256583
4950.16385319
4950.19579159
4950.22184405
4950.24512645
4950.26550208
4950.28374519
4950.29975843
4950.31284781
4950.32304763
4950.33055121
4950.3363964
4950.34141485
4950.34714006
4950.34925705
4950.32585977
4950.05910247
4950.10343642
4950.11711615
4950.13073631
4950.15478375
4950.18522129
4950.2162698
4950.24237608
4950.26531004
4950.2853307
4950.30313804
4950.31835028
4950.3306054
4950.33986546
4950.34663051
4950.35196125
4950.35661468
4950.36203884
4950.36431368
4950.34172973
4950.08215157
4950.12425656
4950.13713073
4950.14992786
4950.17280829
4950.20225896
4950.23265668
4950.25901895
4950.2819346
4950.3016876
4950.31895337
4950.33350665
4950.34528272
4950.35404006
4950.36045109
4950.3655489
4950.37004242
4950.37522642
4950.37693272
4950.3569189
4950.10268631
4950.14158274
4950.15341057
4950.16529434
4950.18665282
4950.21461707
4950.24428557
4950.2706067
4950.29413682
4950.31448009
4950.33186714
4950.34618094
4950.35748387
4950.36588746
4950.37222001
4950.37729753
4950.38184341
4950.38718104
4950.38980474
4950.37208518
4950.12079443
4950.15571296
4950.16644437
4950.17744486
4950.19710794
4950.22277221
4950.2508225
4950.27723379
4950.30103633
4950.32177244
4950.33948688
4950.35409282
4950.36569922
4950.37460593
4950.38149863
4950.386977
4950.39194073
4950.39763526
4950.40114238
4950.3867807
4950.13665199
4950.16712187
4950.17676262
4950.18708209
4950.20521517
4950.22872494
4950.2548548
4950.28070725
4950.30464201
4950.3258445
4950.34408931
4950.35928739
4950.37156946
4950.38126201
4950.38891635
4950.39508024
4950.40070867
4950.406827
4950.41112758
4950.40065217
4950.1505811
4950.17650577
4950.18528394
4950.1953788
4950.21261463
4950.23470683
4950.2593295
4950.28428069
4950.30802655
4950.32947581
4950.34812656
4950.36387351
4950.37683433
4950.38733313
4950.39578767
4950.40263242
4950.40878298
4950.41498971
4950.41977563
4950.41307796
4950.16291506
4950.18466009
4950.19324314
4950.20392793
4950.22085775
4950.24217878
4950.26585678
4950.29015401
4950.31361523
4950.33521049
4950.35400663
4950.37008606
4950.38350865
4950.39460848
4950.40364435
4950.41097164
4950.41719829
4950.42288008
4950.4273157
4950.42339305
4950.17346
4950.18991181
4950.19791593
4950.20916041
4950.22549361
4950.24563639
4950.2681421
4950.29152173
4950.31435536
4950.33560586
4950.35468347
4950.37136243
4950.3856478
4950.39771943
4950.40773807
4950.41599561
4950.42279687
4950.42848397
4950.43289185
4950.4312764
4950.17995374
4950.18545015
4950.18987897
4950.19796636
4950.20982262
4950.22520423
4950.24356929
4950.263977
4950.28525561
4950.30629987
4950.32631872
4950.34483723
4950.3616803
4950.37689546
4950.39048437
4950.40253525
4950.41303264
4950.42186524
4950.42918819
4950.43288897
4949.80308829
4949.80763232
4949.81773557
4949.83370809
4949.85663873
4949.8851734
4949.91816749
4949.95364078
4949.99001814
4950.02559545
4950.05905726
4950.08939499
4950.11608726
4950.13921558
4950.15921802
4950.17662142
4950.19192541
4950.20587204
4950.21714441
4950.22667984
4949.80245863
4949.8140971
4949.82643012
4949.84406876
4949.87047705
4949.90322947
4949.94029584
4949.97957519
4950.01863562
4950.0556512
4950.08940355
4950.11912522
4950.14442808
4950.16535229
4950.18251143
4950.19662633
4950.20840826
4950.21922138
4950.22636927
4950.22924214
4949.80909767
4949.82341743
4949.8368175
4949.8542527
4949.88113288
4949.91435514
4949.95171443
4949.99100735
4950.0299525
4950.06664081
4950.09991616
4950.12912461
4950.1539925
4950.17453745
4950.19103826
4950.20417939
4950.2148318
4950.22467829
4950.23038014
4950.23153108
4949.82191191
4949.83799828
4949.85162445
4949.8683745
4949.89571247
4949.92962928
4949.96754722
4950.00650354
4950.04437608
4950.07970757
4950.11166306
4950.13955367
4950.1631464
4950.18254378
4950.19825858
4950.21073761
4950.22099143
4950.23098711
4950.23678266
4950.23607242
4949.84209082
4949.86134046
4949.87586762
4949.89340254
4949.9211232
4949.95659382
4949.99551228
4950.03388573
4950.07014015
4950.10341405
4950.133298
4950.15914921
4950.18079846
4950.19825889
4950.21226408
4950.22375851
4950.23361266
4950.2434729
4950.24864032
4950.24403503
4949.86769568
4949.89059153
4949.90539443
4949.92326827
4949.9533299
4949.99077872
4950.03010017
4950.06693873
4950.10077059
4950.13137429
4950.15885199
4950.18261299
4950.20247007
4950.21815267
4950.23044156
4950.24065146
4950.24997512
4950.26000719
4950.26460058
4950.25534678
4949.89743298
4949.92394732
4949.93881498
4949.95722554
4949.98900806
4950.0273187
4950.06610657
4950.1001312
4950.13070684
4950.15822442
4950.18340843
4950.20552322
4950.22434905
4950.23905582
4950.25028964
4950.25959184
4950.26860598
4950.27877889
4950.28320822
4950.26986117
4949.92954092
4949.95932094
4949.974171
4949.99276111
4950.02513747
4950.06297337
4950.10009139
4950.12969304
4950.15602668
4950.17998853
4950.2032475
4950.22465853
4950.24381606
4950.25896673
4950.27013315
4950.2791634
4950.28808562
4950.29847739
4950.30298175
4950.2866261
4949.96323509
4949.99469268
4950.00950378
4950.02780497
4950.05984445
4950.09640355
4950.13141534
4950.1553736
4950.17796958
4950.19951361
4950.2216079
4950.24315833
4950.26254298
4950.27835777
4950.28977957
4950.29880245
4950.30770073
4950.3181218
4950.32231627
4950.30450763
4949.99508981
4950.02798517
4950.04308148
4950.06077611
4950.09214034
4950.12765707
4950.16196708
4950.18077772
4950.20194851
4950.2222244
4950.24340182
4950.26423082
4950.28270124
4950.29822171
4950.30937918
4950.31813322
4950.32679791
4950.33696558
4950.34040537
4950.32240367
4950.02559352
4950.05868071
4950.07336804
4950.09052463
4950.12109247
4950.15567137
4950.18891259
4950.20670248
4950.22706896
4950.24640836
4950.2665558
4950.28656525
4950.30382743
4950.31820935
4950.32851624
4950.33667677
4950.34492221
4950.35455076
4950.3569056
4950.33964923
4950.05361112
4950.08561305
4950.09993828
4950.11638509
4950.14595675
4950.17970928
4950.21165528
4950.23252095
4950.25272352
4950.27236808
4950.29246364
4950.31066667
4950.3260784
4950.33829606
4950.34709661
4950.3543292
4950.36194083
4950.37090125
4950.37252906
4950.35608024
4950.0785208
4950.10838969
4950.12238409
4950.13781017
4950.16607627
4950.19924846
4950.23128219
4950.25487223
4950.27579483
4950.29476567
4950.31322235
4950.32982117
4950.34441794
4950.3554534
4950.36345304
4950.37024367
4950.37750851
4950.38592533
4950.38758225
4950.3719462
4950.10010264
4950.12713551
4950.14016487
4950.15470625
4950.18121772
4950.21343281
4950.24640159
4950.27038339
4950.29486388
4950.3159366
4950.33443018
4950.34980537
4950.36221259
4950.37140535
4950.3784752
4950.38493572
4950.39192629
4950.39999646
4950.40254315
4950.38803614
4950.11840062
4950.14216934
4950.15473404
4950.1679046
4950.19191079
4950.22195427
4950.25308031
4950.28043302
4950.30521131
4950.32689876
4950.34571584
4950.361214
4950.37354659
4950.38297292
4950.39059663
4950.39756777
4950.40460321
4950.41223684
4950.41501978
4950.40353549
4950.13379841
4950.15420618
4950.16635125
4950.17845177
4950.19990339
4950.22735372
4950.25691294
4950.28490726
4950.31040941
4950.3329431
4950.35241273
4950.36859344
4950.38161407
4950.39200848
4950.40071235
4950.40843318
4950.41555297
4950.42300286
4950.42579014
4950.41840356
4950.14699677
4950.16440027
4950.17540838
4950.18721471
4950.20711892
4950.23239206
4950.2603017
4950.28811486
4950.31411388
4950.33738788
4950.35762678
4950.37470353
4950.38868563
4950.40021855
4950.40991002
4950.4180373
4950.42511448
4950.43133631
4950.43498716
4950.43191931
4950.15893851
4950.17387934
4950.18373698
4950.1957463
4950.21524316
4950.23953995
4950.26652406
4950.29414405
4950.32048605
4950.3443332
4950.36517218
4950.38289181
4950.39764719
4950.40981079
4950.41997812
4950.42769562
4950.43397363
4950.43961028
4950.4436246
4950.44355578
4950.16863352
4950.17991649
4950.18792141
4950.1995757
4950.21814927
4950.24156192
4950.26788669
4950.29516204
4950.32151496
4950.3455983
4950.36682587
4950.38506202
4950.40042043
4950.41319796
4950.42373364
4950.43222043
4950.4391852
4950.44535027
4950.45016349
4950.45199456
4950.17748344
4950.18128447
4950.18690545
4950.19610285
4950.20997426
4950.22804507
4950.24969802
4950.27357357
4950.29815462
4950.32208513
4950.34446876
4950.36472881
4950.38266373
4950.3984387
4950.41222609
4950.42421976
4950.4345264
4950.44322427
4950.45017525
4950.45519164
4949.7579788
4949.7598068
4949.77375841
4949.79287888
4949.82077165
4949.85506475
4949.89476072
4949.93605194
4949.97827579
4950.01962666
4950.05824175
4950.09265145
4950.12217938
4950.14681978
4950.16741122
4950.18478923
4950.19987975
4950.21393437
4950.22438338
4950.23752087
4949.75384089
4949.75148794
4949.76396237
4949.78184231
4949.81064425
4949.8469191
4949.88812316
4949.93308865
4949.9777785
4950.02025747
4950.05913129
4950.09360288
4950.12312066
4950.14749453
4950.16796151
4950.18499834
4950.19960072
4950.21306611
4950.22257551
4950.23693834
4949.76392881
4949.75929999
4949.77336956
4949.79284351
4949.82291755
4949.86023769
4949.90250975
4949.9472835
4949.99187575
4950.03367875
4950.07166639
4950.10529432
4950.13424157
4950.15864582
4950.17832712
4950.1941398
4950.20682655
4950.21789588
4950.22467092
4950.23999496
4949.78032862
4949.77367511
4949.78963514
4949.81093688
4949.84326985
4949.88298952
4949.92670938
4949.97105508
4950.01406074
4950.05424203
4950.09072188
4950.12244502
4950.14927174
4950.17138397
4950.18950323
4950.20368456
4950.21497034
4950.22436955
4950.22973497
4950.24415905
4949.80570996
4949.79826971
4949.81549208
4949.83916
4949.8749267
4949.91784507
4949.96318278
4950.00678947
4950.04788715
4950.0856099
4950.11951661
4950.14836785
4950.17246999
4950.19175079
4950.20702495
4950.21942163
4950.22985071
4950.23866735